
     Program PWSCF v.7.2 starts on 31Dec2024 at 15:56:40 

     This program is part of the open-source Quantum ESPRESSO suite
     for quantum simulation of materials; please cite
         "P. Giannozzi et al., J. Phys.:Condens. Matter 21 395502 (2009);
         "P. Giannozzi et al., J. Phys.:Condens. Matter 29 465901 (2017);
         "P. Giannozzi et al., J. Chem. Phys. 152 154105 (2020);
          URL http://www.quantum-espresso.org", 
     in publications or presentations arising from this work. More details at
     http://www.quantum-espresso.org/quote

     Parallel version (MPI & OpenMP), running on       8 processor cores
     Number of MPI processes:                 8
     Threads/MPI process:                     1

     MPI processes distributed on     1 nodes
     481757 MiB available memory on the printing compute node when the environment starts

     Waiting for input...
     Reading input from standard input

     Current dimensions of program PWSCF are:
     Max number of different atomic species (ntypx) = 10
     Max number of k-points (npk) =  40000
     Max angular momentum in pseudopotentials (lmaxx) =  4

     R & G space division:  proc/nbgrp/npool/nimage =       8
     Subspace diagonalization in iterative solution of the eigenvalue problem:
     a serial algorithm will be used


     Parallelization info
     --------------------
     sticks:   dense  smooth     PW     G-vecs:    dense   smooth      PW
     Min         299     299     88                 4693     4693     755
     Max         300     300     89                 4695     4695     756
     Sum        2397    2397    707                37551    37551    6043

     Using Slab Decomposition



     bravais-lattice index     =            5
     lattice parameter (alat)  =      19.8338  a.u.
     unit-cell volume          =     387.8317 (a.u.)^3
     number of atoms/cell      =            7
     number of atomic types    =            2
     number of electrons       =        22.00
     number of Kohn-Sham states=           15
     kinetic-energy cutoff     =      80.0000  Ry
     charge density cutoff     =     320.0000  Ry
     scf convergence threshold =      1.0E-08
     mixing beta               =       0.7000
     number of iterations used =            8  plain     mixing
     energy convergence thresh.=      1.0E-04
     force convergence thresh. =      1.0E-03
     press convergence thresh. =      1.0E+00
     Exchange-correlation= PBE
                           (   1   4   3   4   0   0   0)
     nstep                     =           50


     celldm(1)=  19.833802  celldm(2)=   0.000000  celldm(3)=   0.000000
     celldm(4)=   0.971020  celldm(5)=   0.000000  celldm(6)=   0.000000

     crystal axes: (cart. coord. in units of alat)
               a(1) = (   0.120375  -0.069498   0.990293 )  
               a(2) = (   0.000000   0.138997   0.990293 )  
               a(3) = (  -0.120375  -0.069498   0.990293 )  

     reciprocal axes: (cart. coord. in units 2 pi/alat)
               b(1) = (  4.153694 -2.398136  0.336601 )  
               b(2) = (  0.000000  4.796272  0.336601 )  
               b(3) = ( -4.153694 -2.398136  0.336601 )  


     PseudoPot. # 1 for Li read from file:
     ../pseudo/Li_ONCV_PBE_sr.upf
     MD5 check sum: 50ff420e78310ffa21704f3361e624a4
     Pseudo is Norm-conserving, Zval =  3.0
     Generated using ONCVPSP code by D. R. Hamann
     Using radial grid of 1944 points,  4 beta functions with: 
                l(1) =   0
                l(2) =   0
                l(3) =   1
                l(4) =   1

     PseudoPot. # 2 for Si read from file:
     ../pseudo/Si_ONCV_PBE_sr.upf
     MD5 check sum: e543d271109d17c80368dfa7c482276d
     Pseudo is Norm-conserving + core correction, Zval =  4.0
     Generated using ONCVPSP code by D. R. Hamann
     Using radial grid of 1510 points,  6 beta functions with: 
                l(1) =   0
                l(2) =   0
                l(3) =   1
                l(4) =   1
                l(5) =   2
                l(6) =   2

     atomic species   valence    mass     pseudopotential
        Li             3.00     6.94100     Li( 1.00)
        Si             4.00    28.08550     Si( 1.00)

     12 Sym. Ops., with inversion, found



   Cartesian axes

     site n.     atom                  positions (alat units)
         1           Li  tau(   1) = (  -0.0000000  -0.0000000   0.2074149  )
         2           Li  tau(   2) = (  -0.0000000  -0.0000000   2.7634636  )
         3           Li  tau(   3) = (  -0.0000000  -0.0000000   0.6687814  )
         4           Li  tau(   4) = (   0.0000000  -0.0000000   2.3020971  )
         5           Li  tau(   5) = (   0.0000000  -0.0000000   1.0475179  )
         6           Li  tau(   6) = (   0.0000000  -0.0000000   1.9233606  )
         7           Si  tau(   7) = (  -0.0000000  -0.0000000   1.4854392  )

     number of k points=     4  Marzari-Vanderbilt smearing, width (Ry)=  0.0200
                       cart. coord. in units 2pi/alat
        k(    1) = (   0.0000000   0.0000000   0.0000000), wk =   0.2500000
        k(    2) = (   2.0768468   1.1990681  -0.1683004), wk =   0.7500000
        k(    3) = (   2.0768468  -1.1990681  -0.3366008), wk =   0.7500000
        k(    4) = (   0.0000000   0.0000000  -0.5049012), wk =   0.2500000

     Dense  grid:    37551 G-vectors     FFT dimensions: ( 120, 120, 120)

     Estimated max dynamical RAM per process >      30.27 MB

     Estimated total dynamical RAM >     242.13 MB

     Initial potential from superposition of free atoms

     starting charge      21.9720, renormalised to      22.0000
     Starting wfcs are   16 randomized atomic wfcs

     total cpu time spent up to now is        2.7 secs

     Self-consistent Calculation

     iteration #  1     ecut=    80.00 Ry     beta= 0.70
     Davidson diagonalization with overlap
     ethr =  1.00E-02,  avg # of iterations =  6.5

     total cpu time spent up to now is        4.4 secs

     total energy              =     -93.23532524 Ry
     estimated scf accuracy    <       1.53353275 Ry

     iteration #  2     ecut=    80.00 Ry     beta= 0.70
     Davidson diagonalization with overlap
     ethr =  6.97E-03,  avg # of iterations =  5.2

     total cpu time spent up to now is        5.5 secs

     total energy              =     -92.69543511 Ry
     estimated scf accuracy    <      30.47803766 Ry

     iteration #  3     ecut=    80.00 Ry     beta= 0.70
     Davidson diagonalization with overlap
     ethr =  6.97E-03,  avg # of iterations =  4.0

     total cpu time spent up to now is        6.5 secs

     total energy              =     -94.44059692 Ry
     estimated scf accuracy    <       0.84598954 Ry

     iteration #  4     ecut=    80.00 Ry     beta= 0.70
     Davidson diagonalization with overlap
     ethr =  3.85E-03,  avg # of iterations =  1.0

     total cpu time spent up to now is        7.3 secs

     total energy              =     -94.42526637 Ry
     estimated scf accuracy    <       0.31205701 Ry

     iteration #  5     ecut=    80.00 Ry     beta= 0.70
     Davidson diagonalization with overlap
     ethr =  1.42E-03,  avg # of iterations =  1.0

     total cpu time spent up to now is        8.0 secs

     total energy              =     -94.42045528 Ry
     estimated scf accuracy    <       0.06270030 Ry

     iteration #  6     ecut=    80.00 Ry     beta= 0.70
     Davidson diagonalization with overlap
     ethr =  2.85E-04,  avg # of iterations =  2.8

     total cpu time spent up to now is        8.8 secs

     total energy              =     -94.42741904 Ry
     estimated scf accuracy    <       0.00521346 Ry

     iteration #  7     ecut=    80.00 Ry     beta= 0.70
     Davidson diagonalization with overlap
     ethr =  2.37E-05,  avg # of iterations =  1.8

     total cpu time spent up to now is        9.6 secs

     total energy              =     -94.42762299 Ry
     estimated scf accuracy    <       0.00050318 Ry

     iteration #  8     ecut=    80.00 Ry     beta= 0.70
     Davidson diagonalization with overlap
     ethr =  2.29E-06,  avg # of iterations =  1.8

     total cpu time spent up to now is       10.5 secs

     total energy              =     -94.42764427 Ry
     estimated scf accuracy    <       0.00002894 Ry

     iteration #  9     ecut=    80.00 Ry     beta= 0.70
     Davidson diagonalization with overlap
     ethr =  1.32E-07,  avg # of iterations =  1.8

     total cpu time spent up to now is       11.3 secs

     total energy              =     -94.42764802 Ry
     estimated scf accuracy    <       0.00000021 Ry

     iteration # 10     ecut=    80.00 Ry     beta= 0.70
     Davidson diagonalization with overlap
     ethr =  9.35E-10,  avg # of iterations =  3.5

     total cpu time spent up to now is       12.1 secs

     total energy              =     -94.42764819 Ry
     estimated scf accuracy    <       0.00000001 Ry

     iteration # 11     ecut=    80.00 Ry     beta= 0.70
     Davidson diagonalization with overlap
     ethr =  5.23E-11,  avg # of iterations =  2.0

     total cpu time spent up to now is       12.9 secs

     End of self-consistent calculation

          k = 0.0000 0.0000 0.0000 (  4675 PWs)   bands (ev):

   -39.3029 -39.2776 -38.9545 -38.5113 -38.4597 -38.1496  -5.8017   1.7137
     3.7203   4.5101   6.3024   9.0741  10.1737  15.1341  19.8700

          k = 2.0768 1.1991-0.1683 (  4704 PWs)   bands (ev):

   -38.9059 -38.9049 -38.6657 -38.6532 -38.5875 -38.3509   1.1375   1.3593
     5.2758   6.3199   6.6404   8.4795   8.5975   9.7980  13.0612

          k = 2.0768-1.1991-0.3366 (  4692 PWs)   bands (ev):

   -38.9060 -38.9048 -38.6658 -38.6531 -38.5875 -38.3509   1.1377   1.3588
     5.3894   5.8781   7.4625   7.5648   8.9953   9.9477  12.4777

          k = 0.0000 0.0000-0.5049 (  4688 PWs)   bands (ev):

   -39.3024 -39.2782 -38.9543 -38.5119 -38.4590 -38.1496  -5.8017   1.7137
     3.8081   4.2903   7.1865   7.5059  11.7539  13.8131  20.3836

     the Fermi energy is     7.5167 ev

!    total energy              =     -94.42764819 Ry
     estimated scf accuracy    <          5.3E-09 Ry
     smearing contrib. (-TS)   =      -0.00481374 Ry
     internal energy E=F+TS    =     -94.42283445 Ry

     The total energy is F=E-TS. E is the sum of the following terms:
     one-electron contribution =     -35.68254980 Ry
     hartree contribution      =      17.40672477 Ry
     xc contribution           =     -24.31544656 Ry
     ewald contribution        =     -51.83156286 Ry

     convergence has been achieved in  11 iterations

     Forces acting on atoms (cartesian axes, Ry/au):

     atom    1 type  1   force =     0.00000000    0.00000000   -0.06086323
     atom    2 type  1   force =     0.00000000    0.00000000    0.06086323
     atom    3 type  1   force =    -0.00000000   -0.00000000   -0.06222503
     atom    4 type  1   force =    -0.00000000    0.00000000    0.06222503
     atom    5 type  1   force =     0.00000000    0.00000000    0.05390704
     atom    6 type  1   force =    -0.00000000   -0.00000000   -0.05390704
     atom    7 type  2   force =     0.00000000    0.00000000    0.00000000
     The non-local contrib.  to forces
     atom    1 type  1   force =     0.00000000   -0.00000000    0.06214262
     atom    2 type  1   force =     0.00000000   -0.00000000   -0.06214262
     atom    3 type  1   force =    -0.00000000   -0.00000000    0.03925537
     atom    4 type  1   force =     0.00000000   -0.00000000   -0.03925537
     atom    5 type  1   force =    -0.00000000    0.00000000   -0.02140561
     atom    6 type  1   force =     0.00000000   -0.00000000    0.02140561
     atom    7 type  2   force =     0.00000000   -0.00000000    0.00000000
     The ionic contribution  to forces
     atom    1 type  1   force =     0.00000000   -0.00000000   -0.10517270
     atom    2 type  1   force =    -0.00000000    0.00000000    0.10517270
     atom    3 type  1   force =    -0.00000000   -0.00000000   -0.99422320
     atom    4 type  1   force =     0.00000000    0.00000000    0.99422320
     atom    5 type  1   force =    -0.00000000    0.00000000    0.56979304
     atom    6 type  1   force =     0.00000000   -0.00000000   -0.56979304
     atom    7 type  2   force =     0.00000000   -0.00000000    0.00000000
     The local contribution  to forces
     atom    1 type  1   force =    -0.00000000    0.00000000   -0.01793571
     atom    2 type  1   force =    -0.00000000   -0.00000000    0.01793571
     atom    3 type  1   force =     0.00000000    0.00000000    0.89281407
     atom    4 type  1   force =    -0.00000000   -0.00000000   -0.89281407
     atom    5 type  1   force =     0.00000000   -0.00000000   -0.49451521
     atom    6 type  1   force =     0.00000000    0.00000000    0.49451521
     atom    7 type  2   force =     0.00000000    0.00000000   -0.00000000
     The core correction contribution to forces
     atom    1 type  1   force =     0.00000000    0.00000000    0.00000000
     atom    2 type  1   force =     0.00000000    0.00000000    0.00000000
     atom    3 type  1   force =     0.00000000    0.00000000    0.00000000
     atom    4 type  1   force =     0.00000000    0.00000000    0.00000000
     atom    5 type  1   force =     0.00000000    0.00000000    0.00000000
     atom    6 type  1   force =     0.00000000    0.00000000    0.00000000
     atom    7 type  2   force =    -0.00000000    0.00000000   -0.00000000
     The Hubbard contrib.    to forces
     atom    1 type  1   force =     0.00000000    0.00000000    0.00000000
     atom    2 type  1   force =     0.00000000    0.00000000    0.00000000
     atom    3 type  1   force =     0.00000000    0.00000000    0.00000000
     atom    4 type  1   force =     0.00000000    0.00000000    0.00000000
     atom    5 type  1   force =     0.00000000    0.00000000    0.00000000
     atom    6 type  1   force =     0.00000000    0.00000000    0.00000000
     atom    7 type  2   force =     0.00000000    0.00000000    0.00000000
     The SCF correction term to forces
     atom    1 type  1   force =     0.00000000    0.00000000    0.00010256
     atom    2 type  1   force =    -0.00000000   -0.00000000   -0.00010256
     atom    3 type  1   force =     0.00000000   -0.00000000   -0.00007127
     atom    4 type  1   force =    -0.00000000    0.00000000    0.00007127
     atom    5 type  1   force =    -0.00000000   -0.00000000    0.00003482
     atom    6 type  1   force =     0.00000000    0.00000000   -0.00003482
     atom    7 type  2   force =     0.00000000   -0.00000000   -0.00000000

     Total force =     0.144791     Total SCF correction =     0.000183


     Computing stress (Cartesian axis) and pressure

          total   stress  (Ry/bohr**3)                   (kbar)     P=      504.56
   0.00345475  -0.00000000  -0.00000000          508.21       -0.00       -0.00
   0.00000000   0.00345475   0.00000000            0.00      508.21        0.00
   0.00000000   0.00000000   0.00338038            0.00        0.00      497.27


     BFGS Geometry Optimization
     Energy error            =      0.0E+00 Ry
     Gradient error          =      6.2E-02 Ry/Bohr
     Cell gradient error     =      8.2E+00 kbar

     number of scf cycles    =   1
     number of bfgs steps    =   0

     enthalpy           new  =     -93.1094351268 Ry

     new trust radius        =       0.0622250319 bohr
ibrav =      5
 celldm(1) =     19.82531777
 celldm(4) =      0.97091400
Input lattice vectors:
     0.12054277    -0.06959540     0.98983360
    -0.00000000     0.13919080     0.98983360
    -0.12054277    -0.06959540     0.98983360
New lattice vectors in INITIAL alat:
     0.12054277    -0.06959540     0.98983360
     0.00000000     0.13919080     0.98983360
    -0.12054277    -0.06959540     0.98983360
New lattice vectors in NEW alat (for information only):
     0.12059436    -0.06962519     0.99025721
     0.00000000     0.13925037     0.99025721
    -0.12059436    -0.06962519     0.99025721
Discrepancy in bohr =     0.000000    0.000000    0.000000
     new conv_thr            =       0.0000000100 Ry

     new unit-cell volume =    388.73450 a.u.^3 (    57.60451 Ang^3 )
     density =      2.01012 g/cm^3

CELL_PARAMETERS (alat= 19.83380222)
   0.120542770  -0.069595401   0.989833597
   0.000000000   0.139190802   0.989833597
  -0.120542770  -0.069595401   0.989833597

ATOMIC_POSITIONS (crystal)
Li            0.0687830861        0.0687830861        0.0687830861
Li            0.9312169139        0.9312169139        0.9312169139
Li            0.2240563048        0.2240563048        0.2240563048
Li            0.7759436952        0.7759436952        0.7759436952
Li            0.3535101900        0.3535101900        0.3535101900
Li            0.6464898100        0.6464898100        0.6464898100
Si            0.5000000000        0.5000000000        0.5000000000



     Writing config-only to output data dir ./output/LiSi.save/
     NEW-OLD atomic charge density approx. for the potential
     extrapolated charge   22.05103, renormalised to   22.00000

     total cpu time spent up to now is       14.8 secs

     Self-consistent Calculation

     iteration #  1     ecut=    80.00 Ry     beta= 0.70
     Davidson diagonalization with overlap
     ethr =  1.00E-06,  avg # of iterations =  5.5

     total cpu time spent up to now is       16.2 secs

     total energy              =     -94.44904113 Ry
     estimated scf accuracy    <       0.00234372 Ry

     iteration #  2     ecut=    80.00 Ry     beta= 0.70
     Davidson diagonalization with overlap
     ethr =  1.07E-05,  avg # of iterations =  2.0

     total cpu time spent up to now is       17.0 secs

     total energy              =     -94.44798676 Ry
     estimated scf accuracy    <       0.00510275 Ry

     iteration #  3     ecut=    80.00 Ry     beta= 0.70
     Davidson diagonalization with overlap
     ethr =  1.07E-05,  avg # of iterations =  2.2

     total cpu time spent up to now is       17.9 secs

     total energy              =     -94.44789737 Ry
     estimated scf accuracy    <       0.02181317 Ry

     iteration #  4     ecut=    80.00 Ry     beta= 0.70
     Davidson diagonalization with overlap
     ethr =  1.07E-05,  avg # of iterations =  2.0

     total cpu time spent up to now is       18.6 secs

     total energy              =     -94.44954653 Ry
     estimated scf accuracy    <       0.00037097 Ry

     iteration #  5     ecut=    80.00 Ry     beta= 0.70
     Davidson diagonalization with overlap
     ethr =  1.69E-06,  avg # of iterations =  1.5

     total cpu time spent up to now is       19.4 secs

     total energy              =     -94.44960217 Ry
     estimated scf accuracy    <       0.00000701 Ry

     iteration #  6     ecut=    80.00 Ry     beta= 0.70
     Davidson diagonalization with overlap
     ethr =  3.19E-08,  avg # of iterations =  2.2

     total cpu time spent up to now is       20.1 secs

     total energy              =     -94.44960319 Ry
     estimated scf accuracy    <       0.00000005 Ry

     iteration #  7     ecut=    80.00 Ry     beta= 0.70
     Davidson diagonalization with overlap
     ethr =  2.46E-10,  avg # of iterations =  2.5

     total cpu time spent up to now is       20.9 secs

     End of self-consistent calculation

          k = 0.0000 0.0000 0.0000 (  4675 PWs)   bands (ev):

   -39.2024 -39.1624 -38.8838 -38.5211 -38.4425 -38.1686  -5.8528   1.7425
     3.7221   4.6134   6.0620   8.9077  10.1845  15.1046  20.0684

          k = 2.0740 1.1974-0.1684 (  4704 PWs)   bands (ev):

   -38.8257 -38.8236 -38.6300 -38.6111 -38.5490 -38.3532   1.0539   1.2566
     5.2629   6.2848   6.6413   8.4719   8.5399   9.7828  12.9852

          k = 2.0740-1.1974-0.3368 (  4692 PWs)   bands (ev):

   -38.8258 -38.8235 -38.6300 -38.6110 -38.5490 -38.3532   1.0541   1.2562
     5.3768   5.8573   7.4717   7.5150   8.9664   9.9136  12.4987

          k =-0.0000 0.0000-0.5051 (  4688 PWs)   bands (ev):

   -39.2019 -39.1631 -38.8834 -38.5219 -38.4418 -38.1686  -5.8528   1.7425
     3.8254   4.3277   6.9099   7.4925  11.6323  13.8894  20.2086

     the Fermi energy is     7.5021 ev

!    total energy              =     -94.44960321 Ry
     estimated scf accuracy    <          2.1E-09 Ry
     smearing contrib. (-TS)   =      -0.00553426 Ry
     internal energy E=F+TS    =     -94.44406894 Ry

     The total energy is F=E-TS. E is the sum of the following terms:
     one-electron contribution =     -35.47631917 Ry
     hartree contribution      =      17.30661925 Ry
     xc contribution           =     -24.31450867 Ry
     ewald contribution        =     -51.95986035 Ry

     convergence has been achieved in   7 iterations

     Forces acting on atoms (cartesian axes, Ry/au):

     atom    1 type  1   force =    -0.00000000    0.00000000   -0.04991688
     atom    2 type  1   force =     0.00000000   -0.00000000    0.04991688
     atom    3 type  1   force =    -0.00000000    0.00000000   -0.04666933
     atom    4 type  1   force =     0.00000000    0.00000000    0.04666933
     atom    5 type  1   force =     0.00000000   -0.00000000    0.04423086
     atom    6 type  1   force =     0.00000000    0.00000000   -0.04423086
     atom    7 type  2   force =    -0.00000000   -0.00000000   -0.00000000
     The non-local contrib.  to forces
     atom    1 type  1   force =     0.00000000   -0.00000000    0.04982086
     atom    2 type  1   force =    -0.00000000   -0.00000000   -0.04982086
     atom    3 type  1   force =     0.00000000   -0.00000000    0.03166984
     atom    4 type  1   force =    -0.00000000    0.00000000   -0.03166984
     atom    5 type  1   force =     0.00000000   -0.00000000   -0.00934732
     atom    6 type  1   force =    -0.00000000   -0.00000000    0.00934732
     atom    7 type  2   force =     0.00000000   -0.00000000    0.00000000
     The ionic contribution  to forces
     atom    1 type  1   force =     0.00000000   -0.00000000    0.04794362
     atom    2 type  1   force =     0.00000000    0.00000000   -0.04794362
     atom    3 type  1   force =     0.00000000   -0.00000000   -0.81186898
     atom    4 type  1   force =     0.00000000    0.00000000    0.81186898
     atom    5 type  1   force =    -0.00000000    0.00000000    0.43505955
     atom    6 type  1   force =    -0.00000000   -0.00000000   -0.43505955
     atom    7 type  2   force =    -0.00000000    0.00000000    0.00000000
     The local contribution  to forces
     atom    1 type  1   force =     0.00000000    0.00000000   -0.14764976
     atom    2 type  1   force =    -0.00000000   -0.00000000    0.14764976
     atom    3 type  1   force =    -0.00000000    0.00000000    0.73347030
     atom    4 type  1   force =    -0.00000000   -0.00000000   -0.73347030
     atom    5 type  1   force =     0.00000000   -0.00000000   -0.38148970
     atom    6 type  1   force =     0.00000000    0.00000000    0.38148970
     atom    7 type  2   force =     0.00000000   -0.00000000   -0.00000000
     The core correction contribution to forces
     atom    1 type  1   force =     0.00000000    0.00000000    0.00000000
     atom    2 type  1   force =     0.00000000    0.00000000    0.00000000
     atom    3 type  1   force =     0.00000000    0.00000000    0.00000000
     atom    4 type  1   force =     0.00000000    0.00000000    0.00000000
     atom    5 type  1   force =     0.00000000    0.00000000    0.00000000
     atom    6 type  1   force =     0.00000000    0.00000000    0.00000000
     atom    7 type  2   force =     0.00000000   -0.00000000   -0.00000000
     The Hubbard contrib.    to forces
     atom    1 type  1   force =     0.00000000    0.00000000    0.00000000
     atom    2 type  1   force =     0.00000000    0.00000000    0.00000000
     atom    3 type  1   force =     0.00000000    0.00000000    0.00000000
     atom    4 type  1   force =     0.00000000    0.00000000    0.00000000
     atom    5 type  1   force =     0.00000000    0.00000000    0.00000000
     atom    6 type  1   force =     0.00000000    0.00000000    0.00000000
     atom    7 type  2   force =     0.00000000    0.00000000    0.00000000
     The SCF correction term to forces
     atom    1 type  1   force =     0.00000000    0.00000000   -0.00003160
     atom    2 type  1   force =    -0.00000000   -0.00000000    0.00003160
     atom    3 type  1   force =    -0.00000000   -0.00000000    0.00005951
     atom    4 type  1   force =     0.00000000    0.00000000   -0.00005951
     atom    5 type  1   force =    -0.00000000    0.00000000    0.00000833
     atom    6 type  1   force =     0.00000000   -0.00000000   -0.00000833
     atom    7 type  2   force =    -0.00000000   -0.00000000   -0.00000000

     Total force =     0.115118     Total SCF correction =     0.000096


     Computing stress (Cartesian axis) and pressure

          total   stress  (Ry/bohr**3)                   (kbar)     P=      501.69
   0.00338301  -0.00000000  -0.00000000          497.66       -0.00       -0.00
  -0.00000000   0.00338301   0.00000000           -0.00      497.66        0.00
  -0.00000000   0.00000000   0.00346530           -0.00        0.00      509.76

     Energy error            =      1.9E-02 Ry
     Gradient error          =      5.0E-02 Ry/Bohr
     Cell gradient error     =      9.8E+00 kbar

     number of scf cycles    =   2
     number of bfgs steps    =   1

     enthalpy           old  =     -93.1094351268 Ry
     enthalpy           new  =     -93.1283214949 Ry

     CASE: enthalpy          _new < enthalpy          _old

     new trust radius        =       0.0932942645 bohr
ibrav =      5
 celldm(1) =     19.88250079
 celldm(4) =      0.97111713
Input lattice vectors:
     0.12046759    -0.06955200     0.99275716
    -0.00000000     0.13910399     0.99275716
    -0.12046759    -0.06955200     0.99275716
New lattice vectors in INITIAL alat:
     0.12046759    -0.06955200     0.99275716
     0.00000000     0.13910399     0.99275716
    -0.12046759    -0.06955200     0.99275716
New lattice vectors in NEW alat (for information only):
     0.12017253    -0.06938164     0.99032558
     0.00000000     0.13876329     0.99032558
    -0.12017253    -0.06938164     0.99032558
Discrepancy in bohr =     0.000000    0.000000    0.000000
     new conv_thr            =       0.0000000050 Ry

     new unit-cell volume =    389.39651 a.u.^3 (    57.70261 Ang^3 )
     density =      2.00670 g/cm^3

CELL_PARAMETERS (alat= 19.83380222)
   0.120467593  -0.069551997   0.992757156
   0.000000000   0.139103995   0.992757156
  -0.120467593  -0.069551997   0.992757156

ATOMIC_POSITIONS (crystal)
Li            0.0671990483        0.0671990483        0.0671990483
Li            0.9328009517        0.9328009517        0.9328009517
Li            0.2225695172        0.2225695172        0.2225695172
Li            0.7774304828        0.7774304828        0.7774304828
Li            0.3549137649        0.3549137649        0.3549137649
Li            0.6450862351        0.6450862351        0.6450862351
Si            0.5000000000        0.5000000000        0.5000000000



     Writing config-only to output data dir ./output/LiSi.save/
     NEW-OLD atomic charge density approx. for the potential
     extrapolated charge   22.03735, renormalised to   22.00000

     total cpu time spent up to now is       22.7 secs

     Self-consistent Calculation

     iteration #  1     ecut=    80.00 Ry     beta= 0.70
     Davidson diagonalization with overlap
     ethr =  1.00E-06,  avg # of iterations =  5.8

     total cpu time spent up to now is       24.2 secs

     total energy              =     -94.47122781 Ry
     estimated scf accuracy    <       0.00429635 Ry

     iteration #  2     ecut=    80.00 Ry     beta= 0.70
     Davidson diagonalization with overlap
     ethr =  1.95E-05,  avg # of iterations =  2.0

     total cpu time spent up to now is       25.1 secs

     total energy              =     -94.47156906 Ry
     estimated scf accuracy    <       0.00164645 Ry

     iteration #  3     ecut=    80.00 Ry     beta= 0.70
     Davidson diagonalization with overlap
     ethr =  7.48E-06,  avg # of iterations =  2.0

     total cpu time spent up to now is       25.9 secs

     total energy              =     -94.47147168 Ry
     estimated scf accuracy    <       0.00443347 Ry

     iteration #  4     ecut=    80.00 Ry     beta= 0.70
     Davidson diagonalization with overlap
     ethr =  7.48E-06,  avg # of iterations =  2.0

     total cpu time spent up to now is       26.6 secs

     total energy              =     -94.47183719 Ry
     estimated scf accuracy    <       0.00382757 Ry

     iteration #  5     ecut=    80.00 Ry     beta= 0.70
     Davidson diagonalization with overlap
     ethr =  7.48E-06,  avg # of iterations =  1.5

     total cpu time spent up to now is       27.4 secs

     total energy              =     -94.47217212 Ry
     estimated scf accuracy    <       0.00001378 Ry

     iteration #  6     ecut=    80.00 Ry     beta= 0.70
     Davidson diagonalization with overlap
     ethr =  6.26E-08,  avg # of iterations =  1.8

     total cpu time spent up to now is       28.1 secs

     total energy              =     -94.47217371 Ry
     estimated scf accuracy    <       0.00000009 Ry

     iteration #  7     ecut=    80.00 Ry     beta= 0.70
     Davidson diagonalization with overlap
     ethr =  4.03E-10,  avg # of iterations =  3.5

     total cpu time spent up to now is       28.9 secs

     End of self-consistent calculation

          k = 0.0000 0.0000 0.0000 (  4675 PWs)   bands (ev):

   -39.1030 -39.0341 -38.7857 -38.5486 -38.4111 -38.1757  -5.9519   1.7680
     3.7334   4.7472   5.7132   8.7040  10.1837  15.0107  20.1610

          k = 2.0752 1.1981-0.1679 (  4704 PWs)   bands (ev):

   -38.7340 -38.7288 -38.5889 -38.5656 -38.4926 -38.3490   0.9310   1.1392
     5.2723   6.2647   6.6551   8.4855   8.4998   9.7861  12.8753

          k = 2.0752-1.1981-0.3358 (  4692 PWs)   bands (ev):

   -38.7341 -38.7287 -38.5891 -38.5654 -38.4926 -38.3490   0.9312   1.1388
     5.3849   5.8568   7.3621   7.6200   8.9522   9.8905  12.5110

          k =-0.0000-0.0000-0.5036 (  4688 PWs)   bands (ev):

   -39.1025 -39.0350 -38.7848 -38.5498 -38.4103 -38.1758  -5.9519   1.7678
     3.8553   4.3560   6.5109   7.5175  11.4642  13.9135  20.1021

     the Fermi energy is     7.4893 ev

!    total energy              =     -94.47217374 Ry
     estimated scf accuracy    <          2.0E-09 Ry
     smearing contrib. (-TS)   =      -0.00387113 Ry
     internal energy E=F+TS    =     -94.46830262 Ry

     The total energy is F=E-TS. E is the sum of the following terms:
     one-electron contribution =     -35.29054897 Ry
     hartree contribution      =      17.21972349 Ry
     xc contribution           =     -24.31936413 Ry
     ewald contribution        =     -52.07811300 Ry

     convergence has been achieved in   7 iterations

     Forces acting on atoms (cartesian axes, Ry/au):

     atom    1 type  1   force =    -0.00000000   -0.00000000   -0.03408624
     atom    2 type  1   force =     0.00000000    0.00000000    0.03408624
     atom    3 type  1   force =    -0.00000000   -0.00000000   -0.02353114
     atom    4 type  1   force =     0.00000000    0.00000000    0.02353114
     atom    5 type  1   force =    -0.00000000   -0.00000000    0.03032452
     atom    6 type  1   force =     0.00000000   -0.00000000   -0.03032452
     atom    7 type  2   force =    -0.00000000    0.00000000   -0.00000000
     The non-local contrib.  to forces
     atom    1 type  1   force =    -0.00000000   -0.00000000    0.02666423
     atom    2 type  1   force =    -0.00000000   -0.00000000   -0.02666423
     atom    3 type  1   force =     0.00000000    0.00000000    0.02205429
     atom    4 type  1   force =    -0.00000000    0.00000000   -0.02205429
     atom    5 type  1   force =    -0.00000000    0.00000000    0.01371162
     atom    6 type  1   force =    -0.00000000   -0.00000000   -0.01371162
     atom    7 type  2   force =    -0.00000000   -0.00000000   -0.00000000
     The ionic contribution  to forces
     atom    1 type  1   force =    -0.00000000   -0.00000000    0.29422930
     atom    2 type  1   force =    -0.00000000    0.00000000   -0.29422930
     atom    3 type  1   force =     0.00000000   -0.00000000   -0.55033479
     atom    4 type  1   force =     0.00000000    0.00000000    0.55033479
     atom    5 type  1   force =    -0.00000000    0.00000000    0.22807948
     atom    6 type  1   force =    -0.00000000   -0.00000000   -0.22807948
     atom    7 type  2   force =     0.00000000    0.00000000   -0.00000000
     The local contribution  to forces
     atom    1 type  1   force =     0.00000000    0.00000000   -0.35498754
     atom    2 type  1   force =    -0.00000000   -0.00000000    0.35498754
     atom    3 type  1   force =     0.00000000    0.00000000    0.50476972
     atom    4 type  1   force =    -0.00000000   -0.00000000   -0.50476972
     atom    5 type  1   force =     0.00000000   -0.00000000   -0.21149128
     atom    6 type  1   force =     0.00000000    0.00000000    0.21149128
     atom    7 type  2   force =    -0.00000000   -0.00000000   -0.00000000
     The core correction contribution to forces
     atom    1 type  1   force =     0.00000000    0.00000000    0.00000000
     atom    2 type  1   force =     0.00000000    0.00000000    0.00000000
     atom    3 type  1   force =     0.00000000    0.00000000    0.00000000
     atom    4 type  1   force =     0.00000000    0.00000000    0.00000000
     atom    5 type  1   force =     0.00000000    0.00000000    0.00000000
     atom    6 type  1   force =     0.00000000    0.00000000    0.00000000
     atom    7 type  2   force =    -0.00000000   -0.00000000   -0.00000000
     The Hubbard contrib.    to forces
     atom    1 type  1   force =     0.00000000    0.00000000    0.00000000
     atom    2 type  1   force =     0.00000000    0.00000000    0.00000000
     atom    3 type  1   force =     0.00000000    0.00000000    0.00000000
     atom    4 type  1   force =     0.00000000    0.00000000    0.00000000
     atom    5 type  1   force =     0.00000000    0.00000000    0.00000000
     atom    6 type  1   force =     0.00000000    0.00000000    0.00000000
     atom    7 type  2   force =     0.00000000    0.00000000    0.00000000
     The SCF correction term to forces
     atom    1 type  1   force =    -0.00000000   -0.00000000    0.00000778
     atom    2 type  1   force =     0.00000000   -0.00000000   -0.00000778
     atom    3 type  1   force =    -0.00000000   -0.00000000   -0.00002036
     atom    4 type  1   force =     0.00000000    0.00000000    0.00002036
     atom    5 type  1   force =     0.00000000   -0.00000000    0.00002471
     atom    6 type  1   force =    -0.00000000   -0.00000000   -0.00002471
     atom    7 type  2   force =     0.00000000   -0.00000000   -0.00000000

     Total force =     0.072597     Total SCF correction =     0.000047


     Computing stress (Cartesian axis) and pressure

          total   stress  (Ry/bohr**3)                   (kbar)     P=      501.05
   0.00334307   0.00000000   0.00000000          491.78        0.00        0.00
  -0.00000000   0.00334307   0.00000000           -0.00      491.78        0.00
  -0.00000000   0.00000000   0.00353211           -0.00        0.00      519.59

     Energy error            =      2.0E-02 Ry
     Gradient error          =      3.4E-02 Ry/Bohr
     Cell gradient error     =      2.0E+01 kbar

     number of scf cycles    =   3
     number of bfgs steps    =   2

     enthalpy           old  =     -93.1283214949 Ry
     enthalpy           new  =     -93.1486419112 Ry

     CASE: enthalpy          _new < enthalpy          _old

     new trust radius        =       0.1403547258 bohr
ibrav =      5
 celldm(1) =     20.05751196
 celldm(4) =      0.97180414
Input lattice vectors:
     0.12007393    -0.06932472     1.00172950
     0.00000000     0.13864943     1.00172950
    -0.12007393    -0.06932472     1.00172950
New lattice vectors in INITIAL alat:
     0.12007393    -0.06932472     1.00172950
     0.00000000     0.13864943     1.00172950
    -0.12007393    -0.06932472     1.00172950
New lattice vectors in NEW alat (for information only):
     0.11873469    -0.06855151     0.99055679
     0.00000000     0.13710302     0.99055679
    -0.11873469    -0.06855151     0.99055679
Discrepancy in bohr =     0.000000    0.000000    0.000000
     new conv_thr            =       0.0000000034 Ry

     new unit-cell volume =    390.35205 a.u.^3 (    57.84421 Ang^3 )
     density =      2.00179 g/cm^3

CELL_PARAMETERS (alat= 19.83380222)
   0.120073929  -0.069324715   1.001729498
   0.000000000   0.138649430   1.001729498
  -0.120073929  -0.069324715   1.001729498

ATOMIC_POSITIONS (crystal)
Li            0.0648229917        0.0648229917        0.0648229917
Li            0.9351770083        0.9351770083        0.9351770083
Li            0.2206442113        0.2206442113        0.2206442113
Li            0.7793557887        0.7793557887        0.7793557887
Li            0.3570236252        0.3570236252        0.3570236252
Li            0.6429763748        0.6429763748        0.6429763748
Si            0.5000000000        0.5000000000        0.5000000000



     Writing config-only to output data dir ./output/LiSi.save/
     NEW-OLD atomic charge density approx. for the potential
     extrapolated charge   22.05379, renormalised to   22.00000

     total cpu time spent up to now is       30.8 secs

     Self-consistent Calculation

     iteration #  1     ecut=    80.00 Ry     beta= 0.70
     Davidson diagonalization with overlap
     ethr =  1.00E-06,  avg # of iterations =  6.0

     total cpu time spent up to now is       32.3 secs

     total energy              =     -94.48682566 Ry
     estimated scf accuracy    <       0.00619926 Ry

     iteration #  2     ecut=    80.00 Ry     beta= 0.70
     Davidson diagonalization with overlap
     ethr =  2.82E-05,  avg # of iterations =  2.0

     total cpu time spent up to now is       33.2 secs

     total energy              =     -94.48698416 Ry
     estimated scf accuracy    <       0.00491332 Ry

     iteration #  3     ecut=    80.00 Ry     beta= 0.70
     Davidson diagonalization with overlap
     ethr =  2.23E-05,  avg # of iterations =  2.0

     total cpu time spent up to now is       34.0 secs

     total energy              =     -94.48685651 Ry
     estimated scf accuracy    <       0.01280155 Ry

     iteration #  4     ecut=    80.00 Ry     beta= 0.70
     Davidson diagonalization with overlap
     ethr =  2.23E-05,  avg # of iterations =  1.8

     total cpu time spent up to now is       34.7 secs

     total energy              =     -94.48831408 Ry
     estimated scf accuracy    <       0.00372024 Ry

     iteration #  5     ecut=    80.00 Ry     beta= 0.70
     Davidson diagonalization with overlap
     ethr =  1.69E-05,  avg # of iterations =  1.0

     total cpu time spent up to now is       35.5 secs

     total energy              =     -94.48862453 Ry
     estimated scf accuracy    <       0.00001360 Ry

     iteration #  6     ecut=    80.00 Ry     beta= 0.70
     Davidson diagonalization with overlap
     ethr =  6.18E-08,  avg # of iterations =  1.8

     total cpu time spent up to now is       36.2 secs

     total energy              =     -94.48862748 Ry
     estimated scf accuracy    <       0.00000036 Ry

     iteration #  7     ecut=    80.00 Ry     beta= 0.70
     Davidson diagonalization with overlap
     ethr =  1.62E-09,  avg # of iterations =  1.8

     total cpu time spent up to now is       37.0 secs

     total energy              =     -94.48862753 Ry
     estimated scf accuracy    <          8.8E-09 Ry

     iteration #  8     ecut=    80.00 Ry     beta= 0.70
     Davidson diagonalization with overlap
     ethr =  4.00E-11,  avg # of iterations =  2.5

     total cpu time spent up to now is       37.8 secs

     End of self-consistent calculation

          k = 0.0000 0.0000 0.0000 (  4675 PWs)   bands (ev):

   -39.1298 -39.0149 -38.7032 -38.6148 -38.4003 -38.2283  -6.0927   1.7926
     3.7083   4.8312   5.2293   8.5534  10.1944  14.8467  19.8795

          k = 2.0821 1.2021-0.1664 (  4704 PWs)   bands (ev):

   -38.7359 -38.7170 -38.5655 -38.5442 -38.4936 -38.4161   0.7831   1.0262
     5.3112   6.2416   6.6470   8.4412   8.5755   9.8103  12.7174

          k = 2.0821-1.2021-0.3328 (  4692 PWs)   bands (ev):

   -38.7359 -38.7170 -38.5658 -38.5439 -38.4937 -38.4161   0.7832   1.0260
     5.4264   5.8542   7.1982   7.7887   8.9667   9.8775  12.4934

          k = 0.0000-0.0000-0.4991 (  4688 PWs)   bands (ev):

   -39.1296 -39.0154 -38.7011 -38.6171 -38.3996 -38.2285  -6.0927   1.7924
     3.8439   4.3010   5.9599   7.6646  11.3160  13.8167  20.1111

     the Fermi energy is     7.4307 ev

!    total energy              =     -94.48862753 Ry
     estimated scf accuracy    <          2.1E-10 Ry
     smearing contrib. (-TS)   =       0.00050702 Ry
     internal energy E=F+TS    =     -94.48913455 Ry

     The total energy is F=E-TS. E is the sum of the following terms:
     one-electron contribution =     -35.38020723 Ry
     hartree contribution      =      17.23753092 Ry
     xc contribution           =     -24.32737955 Ry
     ewald contribution        =     -52.01907869 Ry

     convergence has been achieved in   8 iterations

     Forces acting on atoms (cartesian axes, Ry/au):

     atom    1 type  1   force =     0.00000000    0.00000000   -0.01027226
     atom    2 type  1   force =    -0.00000000   -0.00000000    0.01027226
     atom    3 type  1   force =    -0.00000000   -0.00000000    0.01068176
     atom    4 type  1   force =     0.00000000    0.00000000   -0.01068176
     atom    5 type  1   force =    -0.00000000   -0.00000000    0.00677084
     atom    6 type  1   force =     0.00000000    0.00000000   -0.00677084
     atom    7 type  2   force =     0.00000000    0.00000000    0.00000000
     The non-local contrib.  to forces
     atom    1 type  1   force =     0.00000000    0.00000000   -0.01835729
     atom    2 type  1   force =     0.00000000    0.00000000    0.01835729
     atom    3 type  1   force =    -0.00000000   -0.00000000    0.01502354
     atom    4 type  1   force =     0.00000000   -0.00000000   -0.01502354
     atom    5 type  1   force =    -0.00000000   -0.00000000    0.05474700
     atom    6 type  1   force =     0.00000000    0.00000000   -0.05474700
     atom    7 type  2   force =     0.00000000    0.00000000    0.00000000
     The ionic contribution  to forces
     atom    1 type  1   force =    -0.00000000    0.00000000    0.68602841
     atom    2 type  1   force =    -0.00000000   -0.00000000   -0.68602841
     atom    3 type  1   force =    -0.00000000   -0.00000000   -0.19049494
     atom    4 type  1   force =    -0.00000000    0.00000000    0.19049494
     atom    5 type  1   force =    -0.00000000   -0.00000000   -0.09142659
     atom    6 type  1   force =    -0.00000000    0.00000000    0.09142659
     atom    7 type  2   force =    -0.00000000    0.00000000   -0.00000000
     The local contribution  to forces
     atom    1 type  1   force =     0.00000000    0.00000000   -0.67796535
     atom    2 type  1   force =    -0.00000000   -0.00000000    0.67796535
     atom    3 type  1   force =     0.00000000    0.00000000    0.18615601
     atom    4 type  1   force =     0.00000000   -0.00000000   -0.18615601
     atom    5 type  1   force =     0.00000000   -0.00000000    0.04344480
     atom    6 type  1   force =     0.00000000   -0.00000000   -0.04344480
     atom    7 type  2   force =     0.00000000   -0.00000000   -0.00000000
     The core correction contribution to forces
     atom    1 type  1   force =     0.00000000    0.00000000    0.00000000
     atom    2 type  1   force =     0.00000000    0.00000000    0.00000000
     atom    3 type  1   force =     0.00000000    0.00000000    0.00000000
     atom    4 type  1   force =     0.00000000    0.00000000    0.00000000
     atom    5 type  1   force =     0.00000000    0.00000000    0.00000000
     atom    6 type  1   force =     0.00000000    0.00000000    0.00000000
     atom    7 type  2   force =     0.00000000   -0.00000000   -0.00000000
     The Hubbard contrib.    to forces
     atom    1 type  1   force =     0.00000000    0.00000000    0.00000000
     atom    2 type  1   force =     0.00000000    0.00000000    0.00000000
     atom    3 type  1   force =     0.00000000    0.00000000    0.00000000
     atom    4 type  1   force =     0.00000000    0.00000000    0.00000000
     atom    5 type  1   force =     0.00000000    0.00000000    0.00000000
     atom    6 type  1   force =     0.00000000    0.00000000    0.00000000
     atom    7 type  2   force =     0.00000000    0.00000000    0.00000000
     The SCF correction term to forces
     atom    1 type  1   force =    -0.00000000    0.00000000    0.00002198
     atom    2 type  1   force =     0.00000000   -0.00000000   -0.00002198
     atom    3 type  1   force =     0.00000000    0.00000000   -0.00000285
     atom    4 type  1   force =    -0.00000000    0.00000000    0.00000285
     atom    5 type  1   force =     0.00000000   -0.00000000    0.00000563
     atom    6 type  1   force =    -0.00000000   -0.00000000   -0.00000563
     atom    7 type  2   force =    -0.00000000    0.00000000   -0.00000000

     Total force =     0.023042     Total SCF correction =     0.000032


     Computing stress (Cartesian axis) and pressure

          total   stress  (Ry/bohr**3)                   (kbar)     P=      499.35
   0.00334783   0.00000000  -0.00000000          492.48        0.00       -0.00
  -0.00000000   0.00334783   0.00000000           -0.00      492.48        0.00
  -0.00000000   0.00000000   0.00348780           -0.00        0.00      513.07

     Energy error            =      1.3E-02 Ry
     Gradient error          =      1.1E-02 Ry/Bohr
     Cell gradient error     =      1.3E+01 kbar

     number of scf cycles    =   4
     number of bfgs steps    =   3

     enthalpy           old  =     -93.1486419112 Ry
     enthalpy           new  =     -93.1618478884 Ry

     CASE: enthalpy          _new < enthalpy          _old

     new trust radius        =       0.0284500488 bohr
ibrav =      5
 celldm(1) =     20.11915269
 celldm(4) =      0.97206763
Input lattice vectors:
     0.11987886    -0.06921209     1.00489795
    -0.00000000     0.13842418     1.00489795
    -0.11987886    -0.06921209     1.00489795
New lattice vectors in INITIAL alat:
     0.11987886    -0.06921209     1.00489795
     0.00000000     0.13842418     1.00489795
    -0.11987886    -0.06921209     1.00489795
New lattice vectors in NEW alat (for information only):
     0.11817861    -0.06823045     0.99064546
     0.00000000     0.13646091     0.99064546
    -0.11817861    -0.06823045     0.99064546
Discrepancy in bohr =     0.000000    0.000000    0.000000
     new conv_thr            =       0.0000000011 Ry

     new unit-cell volume =    390.31541 a.u.^3 (    57.83878 Ang^3 )
     density =      2.00198 g/cm^3

CELL_PARAMETERS (alat= 19.83380222)
   0.119878856  -0.069212090   1.004897951
   0.000000000   0.138424180   1.004897951
  -0.119878856  -0.069212090   1.004897951

ATOMIC_POSITIONS (crystal)
Li            0.0643456765        0.0643456765        0.0643456765
Li            0.9356543235        0.9356543235        0.9356543235
Li            0.2206062425        0.2206062425        0.2206062425
Li            0.7793937575        0.7793937575        0.7793937575
Li            0.3574017638        0.3574017638        0.3574017638
Li            0.6425982362        0.6425982362        0.6425982362
Si            0.5000000000        0.5000000000        0.5000000000



     Writing config-only to output data dir ./output/LiSi.save/
     NEW-OLD atomic charge density approx. for the potential
     extrapolated charge   21.99794, renormalised to   22.00000

     total cpu time spent up to now is       39.6 secs

     Self-consistent Calculation

     iteration #  1     ecut=    80.00 Ry     beta= 0.70
     Davidson diagonalization with overlap
     ethr =  1.00E-06,  avg # of iterations =  3.5

     total cpu time spent up to now is       40.7 secs

     total energy              =     -94.48920444 Ry
     estimated scf accuracy    <       0.00009380 Ry

     iteration #  2     ecut=    80.00 Ry     beta= 0.70
     Davidson diagonalization with overlap
     ethr =  4.26E-07,  avg # of iterations =  2.0

     total cpu time spent up to now is       41.5 secs

     total energy              =     -94.48917816 Ry
     estimated scf accuracy    <       0.00012083 Ry

     iteration #  3     ecut=    80.00 Ry     beta= 0.70
     Davidson diagonalization with overlap
     ethr =  4.26E-07,  avg # of iterations =  2.0

     total cpu time spent up to now is       42.3 secs

     total energy              =     -94.48916858 Ry
     estimated scf accuracy    <       0.00073487 Ry

     iteration #  4     ecut=    80.00 Ry     beta= 0.70
     Davidson diagonalization with overlap
     ethr =  4.26E-07,  avg # of iterations =  1.8

     total cpu time spent up to now is       43.1 secs

     total energy              =     -94.48922585 Ry
     estimated scf accuracy    <       0.00000126 Ry

     iteration #  5     ecut=    80.00 Ry     beta= 0.70
     Davidson diagonalization with overlap
     ethr =  5.73E-09,  avg # of iterations =  2.2

     total cpu time spent up to now is       43.8 secs

     total energy              =     -94.48922623 Ry
     estimated scf accuracy    <       0.00000029 Ry

     iteration #  6     ecut=    80.00 Ry     beta= 0.70
     Davidson diagonalization with overlap
     ethr =  1.30E-09,  avg # of iterations =  1.8

     total cpu time spent up to now is       44.6 secs

     total energy              =     -94.48922627 Ry
     estimated scf accuracy    <          1.9E-09 Ry

     iteration #  7     ecut=    80.00 Ry     beta= 0.70
     Davidson diagonalization with overlap
     ethr =  8.58E-12,  avg # of iterations =  3.5

     total cpu time spent up to now is       45.4 secs

     End of self-consistent calculation

          k = 0.0000 0.0000 0.0000 (  4675 PWs)   bands (ev):

   -39.1663 -39.0482 -38.6862 -38.6111 -38.4045 -38.2483  -6.0990   1.7933
     3.6964   4.8245   5.1505   8.5437  10.1828  14.7586  19.7624

          k = 2.0854 1.2040-0.1659 (  4704 PWs)   bands (ev):

   -38.7644 -38.7437 -38.5622 -38.5286 -38.4970 -38.4421   0.7925   1.0590
     5.3334   6.2417   6.6319   8.4367   8.5917   9.8169  12.6827

          k = 2.0854-1.2040-0.3317 (  4692 PWs)   bands (ev):

   -38.7644 -38.7437 -38.5623 -38.5282 -38.4972 -38.4420   0.7926   1.0588
     5.4569   5.8439   7.1665   7.8144   8.9789   9.8723  12.4671

          k =-0.0000-0.0000-0.4976 (  4688 PWs)   bands (ev):

   -39.1662 -39.0486 -38.6842 -38.6135 -38.4038 -38.2485  -6.0990   1.7931
     3.8277   4.2871   5.8588   7.7029  11.2926  13.7289  20.2173

     the Fermi energy is     7.4074 ev

!    total energy              =     -94.48922627 Ry
     estimated scf accuracy    <          3.7E-10 Ry
     smearing contrib. (-TS)   =       0.00091639 Ry
     internal energy E=F+TS    =     -94.49014266 Ry

     The total energy is F=E-TS. E is the sum of the following terms:
     one-electron contribution =     -35.44714986 Ry
     hartree contribution      =      17.26632902 Ry
     xc contribution           =     -24.32811667 Ry
     ewald contribution        =     -51.98120516 Ry

     convergence has been achieved in   7 iterations

     Forces acting on atoms (cartesian axes, Ry/au):

     atom    1 type  1   force =    -0.00000000   -0.00000000   -0.00601482
     atom    2 type  1   force =    -0.00000000   -0.00000000    0.00601482
     atom    3 type  1   force =     0.00000000   -0.00000000    0.01160852
     atom    4 type  1   force =     0.00000000    0.00000000   -0.01160852
     atom    5 type  1   force =     0.00000000    0.00000000    0.00111011
     atom    6 type  1   force =    -0.00000000   -0.00000000   -0.00111011
     atom    7 type  2   force =     0.00000000    0.00000000    0.00000000
     The non-local contrib.  to forces
     atom    1 type  1   force =    -0.00000000   -0.00000000   -0.02663459
     atom    2 type  1   force =    -0.00000000    0.00000000    0.02663459
     atom    3 type  1   force =    -0.00000000    0.00000000    0.01433709
     atom    4 type  1   force =    -0.00000000    0.00000000   -0.01433709
     atom    5 type  1   force =    -0.00000000   -0.00000000    0.06106906
     atom    6 type  1   force =     0.00000000    0.00000000   -0.06106906
     atom    7 type  2   force =    -0.00000000    0.00000000    0.00000000
     The ionic contribution  to forces
     atom    1 type  1   force =     0.00000000    0.00000000    0.77524816
     atom    2 type  1   force =    -0.00000000   -0.00000000   -0.77524816
     atom    3 type  1   force =     0.00000000   -0.00000000   -0.19139392
     atom    4 type  1   force =    -0.00000000    0.00000000    0.19139392
     atom    5 type  1   force =    -0.00000000   -0.00000000   -0.14868101
     atom    6 type  1   force =    -0.00000000    0.00000000    0.14868101
     atom    7 type  2   force =    -0.00000000    0.00000000   -0.00000000
     The local contribution  to forces
     atom    1 type  1   force =     0.00000000    0.00000000   -0.75461530
     atom    2 type  1   force =    -0.00000000   -0.00000000    0.75461530
     atom    3 type  1   force =     0.00000000    0.00000000    0.18863565
     atom    4 type  1   force =    -0.00000000   -0.00000000   -0.18863565
     atom    5 type  1   force =     0.00000000   -0.00000000    0.08871984
     atom    6 type  1   force =     0.00000000   -0.00000000   -0.08871984
     atom    7 type  2   force =     0.00000000   -0.00000000   -0.00000000
     The core correction contribution to forces
     atom    1 type  1   force =     0.00000000    0.00000000    0.00000000
     atom    2 type  1   force =     0.00000000    0.00000000    0.00000000
     atom    3 type  1   force =     0.00000000    0.00000000    0.00000000
     atom    4 type  1   force =     0.00000000    0.00000000    0.00000000
     atom    5 type  1   force =     0.00000000    0.00000000    0.00000000
     atom    6 type  1   force =     0.00000000    0.00000000    0.00000000
     atom    7 type  2   force =     0.00000000   -0.00000000   -0.00000000
     The Hubbard contrib.    to forces
     atom    1 type  1   force =     0.00000000    0.00000000    0.00000000
     atom    2 type  1   force =     0.00000000    0.00000000    0.00000000
     atom    3 type  1   force =     0.00000000    0.00000000    0.00000000
     atom    4 type  1   force =     0.00000000    0.00000000    0.00000000
     atom    5 type  1   force =     0.00000000    0.00000000    0.00000000
     atom    6 type  1   force =     0.00000000    0.00000000    0.00000000
     atom    7 type  2   force =     0.00000000    0.00000000    0.00000000
     The SCF correction term to forces
     atom    1 type  1   force =    -0.00000000   -0.00000000   -0.00001309
     atom    2 type  1   force =     0.00000000    0.00000000    0.00001309
     atom    3 type  1   force =    -0.00000000   -0.00000000    0.00002970
     atom    4 type  1   force =     0.00000000   -0.00000000   -0.00002970
     atom    5 type  1   force =     0.00000000    0.00000000    0.00000222
     atom    6 type  1   force =     0.00000000   -0.00000000   -0.00000222
     atom    7 type  2   force =    -0.00000000   -0.00000000   -0.00000000

     Total force =     0.018556     Total SCF correction =     0.000046


     Computing stress (Cartesian axis) and pressure

          total   stress  (Ry/bohr**3)                   (kbar)     P=      498.63
   0.00336723   0.00000000   0.00000000          495.34        0.00        0.00
   0.00000000   0.00336723   0.00000000            0.00      495.34        0.00
   0.00000000   0.00000000   0.00343431            0.00        0.00      505.20

     Energy error            =      7.2E-04 Ry
     Gradient error          =      1.2E-02 Ry/Bohr
     Cell gradient error     =      5.2E+00 kbar

     number of scf cycles    =   5
     number of bfgs steps    =   4

     enthalpy           old  =     -93.1618478884 Ry
     enthalpy           new  =     -93.1625711556 Ry

     CASE: enthalpy          _new < enthalpy          _old

     new trust radius        =       0.0253704327 bohr
ibrav =      5
 celldm(1) =     20.17588416
 celldm(4) =      0.97234011
Input lattice vectors:
     0.11962910    -0.06906789     1.00782480
     0.00000000     0.13813579     1.00782480
    -0.11962910    -0.06906789     1.00782480
New lattice vectors in INITIAL alat:
     0.11962910    -0.06906789     1.00782480
     0.00000000     0.13813579     1.00782480
    -0.11962910    -0.06906789     1.00782480
New lattice vectors in NEW alat (for information only):
     0.11760079    -0.06789685     0.99073714
     0.00000000     0.13579370     0.99073714
    -0.11760079    -0.06789685     0.99073714
Discrepancy in bohr =     0.000000    0.000000    0.000000
     new conv_thr            =       0.0000000007 Ry

     new unit-cell volume =    389.82283 a.u.^3 (    57.76578 Ang^3 )
     density =      2.00451 g/cm^3

CELL_PARAMETERS (alat= 19.83380222)
   0.119629100  -0.069067893   1.007824796
   0.000000000   0.138135787   1.007824796
  -0.119629100  -0.069067893   1.007824796

ATOMIC_POSITIONS (crystal)
Li            0.0639213710        0.0639213710        0.0639213710
Li            0.9360786290        0.9360786290        0.9360786290
Li            0.2209203717        0.2209203717        0.2209203717
Li            0.7790796283        0.7790796283        0.7790796283
Li            0.3576297743        0.3576297743        0.3576297743
Li            0.6423702257        0.6423702257        0.6423702257
Si            0.5000000000        0.5000000000        0.5000000000



     Writing config-only to output data dir ./output/LiSi.save/
     NEW-OLD atomic charge density approx. for the potential
     extrapolated charge   21.97224, renormalised to   22.00000

     total cpu time spent up to now is       47.2 secs

     Self-consistent Calculation

     iteration #  1     ecut=    80.00 Ry     beta= 0.70
     Davidson diagonalization with overlap
     ethr =  1.00E-06,  avg # of iterations =  4.0
     Minimization algorithm failed to find Fermi energy: reverting to bisection
     Possible cause: smearing is larger than the electronic band-gap.

     total cpu time spent up to now is       48.5 secs

     total energy              =     -94.48802806 Ry
     estimated scf accuracy    <       0.00015469 Ry

     iteration #  2     ecut=    80.00 Ry     beta= 0.70
     Davidson diagonalization with overlap
     ethr =  7.03E-07,  avg # of iterations =  2.2

     total cpu time spent up to now is       49.3 secs

     total energy              =     -94.48777277 Ry
     estimated scf accuracy    <       0.00410247 Ry

     iteration #  3     ecut=    80.00 Ry     beta= 0.70
     Davidson diagonalization with overlap
     ethr =  7.03E-07,  avg # of iterations =  2.0
     Minimization algorithm failed to find Fermi energy: reverting to bisection
     Possible cause: smearing is larger than the electronic band-gap.

     total cpu time spent up to now is       50.1 secs

     total energy              =     -94.48811534 Ry
     estimated scf accuracy    <       0.00009313 Ry

     iteration #  4     ecut=    80.00 Ry     beta= 0.70
     Davidson diagonalization with overlap
     ethr =  4.23E-07,  avg # of iterations =  1.8

     total cpu time spent up to now is       50.9 secs

     total energy              =     -94.48813209 Ry
     estimated scf accuracy    <       0.00000824 Ry

     iteration #  5     ecut=    80.00 Ry     beta= 0.70
     Davidson diagonalization with overlap
     ethr =  3.75E-08,  avg # of iterations =  1.5

     total cpu time spent up to now is       51.7 secs

     total energy              =     -94.48813285 Ry
     estimated scf accuracy    <       0.00000030 Ry

     iteration #  6     ecut=    80.00 Ry     beta= 0.70
     Davidson diagonalization with overlap
     ethr =  1.38E-09,  avg # of iterations =  2.2

     total cpu time spent up to now is       52.4 secs

     total energy              =     -94.48813291 Ry
     estimated scf accuracy    <       0.00000007 Ry

     iteration #  7     ecut=    80.00 Ry     beta= 0.70
     Davidson diagonalization with overlap
     ethr =  3.00E-10,  avg # of iterations =  1.0

     total cpu time spent up to now is       53.2 secs

     total energy              =     -94.48813292 Ry
     estimated scf accuracy    <          1.8E-09 Ry

     iteration #  8     ecut=    80.00 Ry     beta= 0.70
     Davidson diagonalization with overlap
     ethr =  8.03E-12,  avg # of iterations =  2.0

     total cpu time spent up to now is       54.0 secs

     End of self-consistent calculation

          k = 0.0000 0.0000 0.0000 (  4675 PWs)   bands (ev):

   -39.1994 -39.0799 -38.6654 -38.5930 -38.4008 -38.2583  -6.0826   1.7924
     3.6943   4.8187   5.1090   8.5510  10.1742  14.6469  19.6747

          k = 2.0898 1.2065-0.1654 (  4704 PWs)   bands (ev):

   -38.7881 -38.7666 -38.5648 -38.5075 -38.4790 -38.4534   0.8361   1.1358
     5.3649   6.2526   6.6172   8.4377   8.6098   9.8313  12.6553

          k = 2.0898-1.2065-0.3307 (  4692 PWs)   bands (ev):

   -38.7881 -38.7666 -38.5648 -38.5073 -38.4793 -38.4534   0.8362   1.1355
     5.5032   5.8317   7.1505   7.8317   8.9989   9.8746  12.4301

          k =-0.0000-0.0000-0.4961 (  4688 PWs)   bands (ev):

   -39.1993 -39.0802 -38.6636 -38.5953 -38.4000 -38.2585  -6.0826   1.7923
     3.8179   4.2900   5.7911   7.7425  11.2908  13.6102  20.3932

     the Fermi energy is     7.3951 ev

!    total energy              =     -94.48813292 Ry
     estimated scf accuracy    <          2.4E-10 Ry
     smearing contrib. (-TS)   =       0.00108825 Ry
     internal energy E=F+TS    =     -94.48922117 Ry

     The total energy is F=E-TS. E is the sum of the following terms:
     one-electron contribution =     -35.50830839 Ry
     hartree contribution      =      17.30270919 Ry
     xc contribution           =     -24.32900591 Ry
     ewald contribution        =     -51.95461606 Ry

     convergence has been achieved in   8 iterations

     Forces acting on atoms (cartesian axes, Ry/au):

     atom    1 type  1   force =     0.00000000    0.00000000   -0.00353465
     atom    2 type  1   force =     0.00000000   -0.00000000    0.00353465
     atom    3 type  1   force =    -0.00000000    0.00000000    0.00675095
     atom    4 type  1   force =     0.00000000    0.00000000   -0.00675095
     atom    5 type  1   force =    -0.00000000    0.00000000   -0.00303059
     atom    6 type  1   force =     0.00000000   -0.00000000    0.00303059
     atom    7 type  2   force =     0.00000000    0.00000000    0.00000000
     The non-local contrib.  to forces
     atom    1 type  1   force =    -0.00000000   -0.00000000   -0.03230207
     atom    2 type  1   force =     0.00000000    0.00000000    0.03230207
     atom    3 type  1   force =     0.00000000    0.00000000    0.01337950
     atom    4 type  1   force =    -0.00000000   -0.00000000   -0.01337950
     atom    5 type  1   force =     0.00000000   -0.00000000    0.06507214
     atom    6 type  1   force =    -0.00000000    0.00000000   -0.06507214
     atom    7 type  2   force =     0.00000000   -0.00000000   -0.00000000
     The ionic contribution  to forces
     atom    1 type  1   force =     0.00000000    0.00000000    0.86543742
     atom    2 type  1   force =    -0.00000000   -0.00000000   -0.86543742
     atom    3 type  1   force =     0.00000000    0.00000000   -0.27002921
     atom    4 type  1   force =     0.00000000    0.00000000    0.27002921
     atom    5 type  1   force =    -0.00000000   -0.00000000   -0.18012479
     atom    6 type  1   force =    -0.00000000    0.00000000    0.18012479
     atom    7 type  2   force =     0.00000000    0.00000000   -0.00000000
     The local contribution  to forces
     atom    1 type  1   force =     0.00000000    0.00000000   -0.83664604
     atom    2 type  1   force =    -0.00000000   -0.00000000    0.83664604
     atom    3 type  1   force =     0.00000000    0.00000000    0.26339551
     atom    4 type  1   force =    -0.00000000   -0.00000000   -0.26339551
     atom    5 type  1   force =     0.00000000   -0.00000000    0.11203567
     atom    6 type  1   force =     0.00000000   -0.00000000   -0.11203567
     atom    7 type  2   force =     0.00000000   -0.00000000   -0.00000000
     The core correction contribution to forces
     atom    1 type  1   force =     0.00000000    0.00000000    0.00000000
     atom    2 type  1   force =     0.00000000    0.00000000    0.00000000
     atom    3 type  1   force =     0.00000000    0.00000000    0.00000000
     atom    4 type  1   force =     0.00000000    0.00000000    0.00000000
     atom    5 type  1   force =     0.00000000    0.00000000    0.00000000
     atom    6 type  1   force =     0.00000000    0.00000000    0.00000000
     atom    7 type  2   force =     0.00000000   -0.00000000   -0.00000000
     The Hubbard contrib.    to forces
     atom    1 type  1   force =     0.00000000    0.00000000    0.00000000
     atom    2 type  1   force =     0.00000000    0.00000000    0.00000000
     atom    3 type  1   force =     0.00000000    0.00000000    0.00000000
     atom    4 type  1   force =     0.00000000    0.00000000    0.00000000
     atom    5 type  1   force =     0.00000000    0.00000000    0.00000000
     atom    6 type  1   force =     0.00000000    0.00000000    0.00000000
     atom    7 type  2   force =     0.00000000    0.00000000    0.00000000
     The SCF correction term to forces
     atom    1 type  1   force =     0.00000000   -0.00000000   -0.00002396
     atom    2 type  1   force =     0.00000000    0.00000000    0.00002396
     atom    3 type  1   force =    -0.00000000   -0.00000000    0.00000514
     atom    4 type  1   force =     0.00000000   -0.00000000   -0.00000514
     atom    5 type  1   force =    -0.00000000   -0.00000000   -0.00001361
     atom    6 type  1   force =     0.00000000    0.00000000    0.00001361
     atom    7 type  2   force =     0.00000000   -0.00000000   -0.00000000

     Total force =     0.011598     Total SCF correction =     0.000040


     Computing stress (Cartesian axis) and pressure

          total   stress  (Ry/bohr**3)                   (kbar)     P=      498.49
   0.00340410   0.00000000   0.00000000          500.76        0.00        0.00
   0.00000000   0.00340410   0.00000000            0.00      500.76        0.00
  -0.00000000   0.00000000   0.00335775           -0.00        0.00      493.94

     Energy error            =      5.8E-04 Ry
     Gradient error          =      6.8E-03 Ry/Bohr
     Cell gradient error     =      6.1E+00 kbar

     number of scf cycles    =   6
     number of bfgs steps    =   5

     enthalpy           old  =     -93.1625711556 Ry
     enthalpy           new  =     -93.1631520442 Ry

     CASE: enthalpy          _new < enthalpy          _old

     new trust radius        =       0.0217577176 bohr
ibrav =      5
 celldm(1) =     20.17428099
 celldm(4) =      0.97237871
Input lattice vectors:
     0.11953610    -0.06901420     1.00775792
    -0.00000000     0.13802840     1.00775792
    -0.11953610    -0.06901420     1.00775792
New lattice vectors in INITIAL alat:
     0.11953610    -0.06901420     1.00775792
     0.00000000     0.13802840     1.00775792
    -0.11953610    -0.06901420     1.00775792
New lattice vectors in NEW alat (for information only):
     0.11751870    -0.06784945     0.99075012
     0.00000000     0.13569891     0.99075012
    -0.11751870    -0.06784945     0.99075012
Discrepancy in bohr =     0.000000    0.000000    0.000000
     new conv_thr            =       0.0000000006 Ry

     new unit-cell volume =    389.19113 a.u.^3 (    57.67218 Ang^3 )
     density =      2.00776 g/cm^3

CELL_PARAMETERS (alat= 19.83380222)
   0.119536099  -0.069014199   1.007757925
   0.000000000   0.138028398   1.007757925
  -0.119536099  -0.069014199   1.007757925

ATOMIC_POSITIONS (crystal)
Li            0.0636859222        0.0636859222        0.0636859222
Li            0.9363140778        0.9363140778        0.9363140778
Li            0.2212831999        0.2212831999        0.2212831999
Li            0.7787168001        0.7787168001        0.7787168001
Li            0.3576227233        0.3576227233        0.3576227233
Li            0.6423772767        0.6423772767        0.6423772767
Si            0.5000000000        0.5000000000        0.5000000000



     Writing config-only to output data dir ./output/LiSi.save/
     NEW-OLD atomic charge density approx. for the potential
     extrapolated charge   21.96434, renormalised to   22.00000

     total cpu time spent up to now is       55.8 secs

     Self-consistent Calculation

     iteration #  1     ecut=    80.00 Ry     beta= 0.70
     Davidson diagonalization with overlap
     ethr =  1.00E-06,  avg # of iterations =  4.0

     total cpu time spent up to now is       57.0 secs

     total energy              =     -94.48581886 Ry
     estimated scf accuracy    <       0.00052505 Ry

     iteration #  2     ecut=    80.00 Ry     beta= 0.70
     Davidson diagonalization with overlap
     ethr =  2.39E-06,  avg # of iterations =  3.2

     total cpu time spent up to now is       57.9 secs

     total energy              =     -94.48438459 Ry
     estimated scf accuracy    <       0.02566384 Ry

     iteration #  3     ecut=    80.00 Ry     beta= 0.70
     Davidson diagonalization with overlap
     ethr =  2.39E-06,  avg # of iterations =  2.5
     Minimization algorithm failed to find Fermi energy: reverting to bisection
     Possible cause: smearing is larger than the electronic band-gap.

     total cpu time spent up to now is       58.8 secs

     total energy              =     -94.48625142 Ry
     estimated scf accuracy    <       0.00007452 Ry

     iteration #  4     ecut=    80.00 Ry     beta= 0.70
     Davidson diagonalization with overlap
     ethr =  3.39E-07,  avg # of iterations =  1.8
     Minimization algorithm failed to find Fermi energy: reverting to bisection
     Possible cause: smearing is larger than the electronic band-gap.

     total cpu time spent up to now is       59.5 secs

     total energy              =     -94.48626133 Ry
     estimated scf accuracy    <       0.00001201 Ry

     iteration #  5     ecut=    80.00 Ry     beta= 0.70
     Davidson diagonalization with overlap
     ethr =  5.46E-08,  avg # of iterations =  1.0

     total cpu time spent up to now is       60.3 secs

     total energy              =     -94.48626175 Ry
     estimated scf accuracy    <       0.00000087 Ry

     iteration #  6     ecut=    80.00 Ry     beta= 0.70
     Davidson diagonalization with overlap
     ethr =  3.98E-09,  avg # of iterations =  2.2
     Minimization algorithm failed to find Fermi energy: reverting to bisection
     Possible cause: smearing is larger than the electronic band-gap.

     total cpu time spent up to now is       61.0 secs

     total energy              =     -94.48626189 Ry
     estimated scf accuracy    <       0.00000004 Ry

     iteration #  7     ecut=    80.00 Ry     beta= 0.70
     Davidson diagonalization with overlap
     ethr =  1.72E-10,  avg # of iterations =  1.5

     total cpu time spent up to now is       61.8 secs

     total energy              =     -94.48626189 Ry
     estimated scf accuracy    <          4.2E-09 Ry

     iteration #  8     ecut=    80.00 Ry     beta= 0.70
     Davidson diagonalization with overlap
     ethr =  1.90E-11,  avg # of iterations =  1.2

     total cpu time spent up to now is       62.5 secs

     End of self-consistent calculation

          k = 0.0000 0.0000 0.0000 (  4675 PWs)   bands (ev):

   -39.2096 -39.0884 -38.6512 -38.5756 -38.3902 -38.2514  -6.0563   1.7974
     3.7067   4.8283   5.1189   8.5851  10.2011  14.6172  19.6885

          k = 2.0914 1.2075-0.1654 (  4704 PWs)   bands (ev):

   -38.7927 -38.7708 -38.5620 -38.4948 -38.4604 -38.4446   0.8766   1.1911
     5.3829   6.2642   6.6142   8.4447   8.6242   9.8519  12.6493

          k = 2.0914-1.2075-0.3308 (  4692 PWs)   bands (ev):

   -38.7927 -38.7708 -38.5620 -38.4947 -38.4607 -38.4444   0.8767   1.1908
     5.5326   5.8249   7.1548   7.8393   9.0157   9.8921  12.4147

          k =-0.0000-0.0000-0.4962 (  4688 PWs)   bands (ev):

   -39.2095 -39.0885 -38.6496 -38.5778 -38.3894 -38.2516  -6.0563   1.7974
     3.8265   4.3075   5.7903   7.7795  11.3429  13.5610  20.4878

     the Fermi energy is     7.4006 ev

!    total energy              =     -94.48626189 Ry
     estimated scf accuracy    <          4.7E-11 Ry
     smearing contrib. (-TS)   =       0.00112596 Ry
     internal energy E=F+TS    =     -94.48738785 Ry

     The total energy is F=E-TS. E is the sum of the following terms:
     one-electron contribution =     -35.54411225 Ry
     hartree contribution      =      17.33171726 Ry
     xc contribution           =     -24.33015319 Ry
     ewald contribution        =     -51.94483966 Ry

     convergence has been achieved in   8 iterations

     Forces acting on atoms (cartesian axes, Ry/au):

     atom    1 type  1   force =    -0.00000000    0.00000000   -0.00328397
     atom    2 type  1   force =     0.00000000   -0.00000000    0.00328397
     atom    3 type  1   force =    -0.00000000    0.00000000    0.00182121
     atom    4 type  1   force =    -0.00000000    0.00000000   -0.00182121
     atom    5 type  1   force =    -0.00000000    0.00000000   -0.00372395
     atom    6 type  1   force =    -0.00000000    0.00000000    0.00372395
     atom    7 type  2   force =     0.00000000    0.00000000   -0.00000000
     The non-local contrib.  to forces
     atom    1 type  1   force =    -0.00000000    0.00000000   -0.03361129
     atom    2 type  1   force =    -0.00000000    0.00000000    0.03361129
     atom    3 type  1   force =    -0.00000000   -0.00000000    0.01245231
     atom    4 type  1   force =    -0.00000000   -0.00000000   -0.01245231
     atom    5 type  1   force =    -0.00000000    0.00000000    0.06624428
     atom    6 type  1   force =     0.00000000   -0.00000000   -0.06624428
     atom    7 type  2   force =    -0.00000000   -0.00000000   -0.00000000
     The ionic contribution  to forces
     atom    1 type  1   force =     0.00000000    0.00000000    0.92139873
     atom    2 type  1   force =    -0.00000000   -0.00000000   -0.92139873
     atom    3 type  1   force =     0.00000000    0.00000000   -0.35604167
     atom    4 type  1   force =     0.00000000    0.00000000    0.35604167
     atom    5 type  1   force =    -0.00000000   -0.00000000   -0.17121267
     atom    6 type  1   force =    -0.00000000    0.00000000    0.17121267
     atom    7 type  2   force =    -0.00000000    0.00000000   -0.00000000
     The local contribution  to forces
     atom    1 type  1   force =     0.00000000    0.00000000   -0.89106305
     atom    2 type  1   force =    -0.00000000   -0.00000000    0.89106305
     atom    3 type  1   force =     0.00000000   -0.00000000    0.34540359
     atom    4 type  1   force =    -0.00000000   -0.00000000   -0.34540359
     atom    5 type  1   force =     0.00000000   -0.00000000    0.10124940
     atom    6 type  1   force =     0.00000000   -0.00000000   -0.10124940
     atom    7 type  2   force =     0.00000000   -0.00000000   -0.00000000
     The core correction contribution to forces
     atom    1 type  1   force =     0.00000000    0.00000000    0.00000000
     atom    2 type  1   force =     0.00000000    0.00000000    0.00000000
     atom    3 type  1   force =     0.00000000    0.00000000    0.00000000
     atom    4 type  1   force =     0.00000000    0.00000000    0.00000000
     atom    5 type  1   force =     0.00000000    0.00000000    0.00000000
     atom    6 type  1   force =     0.00000000    0.00000000    0.00000000
     atom    7 type  2   force =     0.00000000   -0.00000000   -0.00000000
     The Hubbard contrib.    to forces
     atom    1 type  1   force =     0.00000000    0.00000000    0.00000000
     atom    2 type  1   force =     0.00000000    0.00000000    0.00000000
     atom    3 type  1   force =     0.00000000    0.00000000    0.00000000
     atom    4 type  1   force =     0.00000000    0.00000000    0.00000000
     atom    5 type  1   force =     0.00000000    0.00000000    0.00000000
     atom    6 type  1   force =     0.00000000    0.00000000    0.00000000
     atom    7 type  2   force =     0.00000000    0.00000000    0.00000000
     The SCF correction term to forces
     atom    1 type  1   force =     0.00000000    0.00000000   -0.00000836
     atom    2 type  1   force =    -0.00000000   -0.00000000    0.00000836
     atom    3 type  1   force =     0.00000000   -0.00000000    0.00000699
     atom    4 type  1   force =    -0.00000000   -0.00000000   -0.00000699
     atom    5 type  1   force =     0.00000000    0.00000000   -0.00000496
     atom    6 type  1   force =    -0.00000000   -0.00000000    0.00000496
     atom    7 type  2   force =    -0.00000000   -0.00000000    0.00000000

     Total force =     0.007479     Total SCF correction =     0.000017


     Computing stress (Cartesian axis) and pressure

          total   stress  (Ry/bohr**3)                   (kbar)     P=      499.32
   0.00342967  -0.00000000  -0.00000000          504.52       -0.00       -0.00
  -0.00000000   0.00342967   0.00000000           -0.00      504.52        0.00
  -0.00000000   0.00000000   0.00332361           -0.00        0.00      488.92

     Energy error            =      2.8E-04 Ry
     Gradient error          =      3.7E-03 Ry/Bohr
     Cell gradient error     =      1.1E+01 kbar

     number of scf cycles    =   7
     number of bfgs steps    =   6

     enthalpy           old  =     -93.1631520442 Ry
     enthalpy           new  =     -93.1634281210 Ry

     CASE: enthalpy          _new < enthalpy          _old

     new trust radius        =       0.0201150342 bohr
ibrav =      5
 celldm(1) =     20.12790721
 celldm(4) =      0.97222782
Input lattice vectors:
     0.11958664    -0.06904338     1.00538991
    -0.00000000     0.13808676     1.00538991
    -0.11958664    -0.06904338     1.00538991
New lattice vectors in INITIAL alat:
     0.11958664    -0.06904338     1.00538991
     0.00000000     0.13808676     1.00538991
    -0.11958664    -0.06904338     1.00538991
New lattice vectors in NEW alat (for information only):
     0.11783926    -0.06803453     0.99069935
     0.00000000     0.13606906     0.99069935
    -0.11783926    -0.06803453     0.99069935
Discrepancy in bohr =     0.000000    0.000000    0.000000
     new conv_thr            =       0.0000000003 Ry

     new unit-cell volume =    388.60501 a.u.^3 (    57.58532 Ang^3 )
     density =      2.01079 g/cm^3

CELL_PARAMETERS (alat= 19.83380222)
   0.119586638  -0.069043378   1.005389912
   0.000000000   0.138086755   1.005389912
  -0.119586638  -0.069043378   1.005389912

ATOMIC_POSITIONS (crystal)
Li            0.0634333789        0.0634333789        0.0634333789
Li            0.9365666211        0.9365666211        0.9365666211
Li            0.2216186573        0.2216186573        0.2216186573
Li            0.7783813427        0.7783813427        0.7783813427
Li            0.3575275446        0.3575275446        0.3575275446
Li            0.6424724554        0.6424724554        0.6424724554
Si            0.5000000000        0.5000000000        0.5000000000



[...]
     The Hubbard contrib.    to forces
     atom    1 type  1   force =     0.00000000    0.00000000    0.00000000
     atom    2 type  1   force =     0.00000000    0.00000000    0.00000000
     atom    3 type  1   force =     0.00000000    0.00000000    0.00000000
     atom    4 type  1   force =     0.00000000    0.00000000    0.00000000
     atom    5 type  1   force =     0.00000000    0.00000000    0.00000000
     atom    6 type  1   force =     0.00000000    0.00000000    0.00000000
     atom    7 type  2   force =     0.00000000    0.00000000    0.00000000
     The SCF correction term to forces
     atom    1 type  1   force =     0.00000000    0.00000000   -0.00000067
     atom    2 type  1   force =    -0.00000000   -0.00000000    0.00000067
     atom    3 type  1   force =     0.00000000   -0.00000000    0.00000068
     atom    4 type  1   force =    -0.00000000    0.00000000   -0.00000068
     atom    5 type  1   force =     0.00000000    0.00000000   -0.00000003
     atom    6 type  1   force =    -0.00000000   -0.00000000    0.00000003
     atom    7 type  2   force =     0.00000000   -0.00000000   -0.00000000

     Total force =     0.000474     Total SCF correction =     0.000001


     Computing stress (Cartesian axis) and pressure

          total   stress  (Ry/bohr**3)                   (kbar)     P=      499.91
   0.00339659   0.00000000   0.00000000          499.66        0.00        0.00
  -0.00000000   0.00339659   0.00000000           -0.00      499.66        0.00
   0.00000000   0.00000000   0.00340169            0.00        0.00      500.41

     Energy error            =      2.9E-06 Ry
     Gradient error          =      3.0E-04 Ry/Bohr
     Cell gradient error     =      4.1E-01 kbar
ibrav =      5
 celldm(1) =     19.94071966
 celldm(4) =      0.97144892
Input lattice vectors:
     0.12012436    -0.06935383     0.99577637
     0.00000000     0.13870766     0.99577637
    -0.12012436    -0.06935383     0.99577637
New lattice vectors in INITIAL alat:
     0.12012436    -0.06935383     0.99577637
     0.00000000     0.13870766     0.99577637
    -0.12012436    -0.06935383     0.99577637
New lattice vectors in NEW alat (for information only):
     0.11948028    -0.06898197     0.99043725
     0.00000000     0.13796395     0.99043725
    -0.11948028    -0.06898197     0.99043725
Discrepancy in bohr =     0.000000    0.000000    0.000000

     bfgs converged in  14 scf cycles and  13 bfgs steps
     (criteria: energy <  1.0E-04 Ry, force <  1.0E-03 Ry/Bohr, cell <  1.0E+00 kbar)

     End of BFGS Geometry Optimization

     Final enthalpy           =     -93.1640993237 Ry

     File ./output/LiSi.bfgs deleted, as requested
Begin final coordinates
     new unit-cell volume =    388.35826 a.u.^3 (    57.54876 Ang^3 )
     density =      2.01207 g/cm^3

CELL_PARAMETERS (alat= 19.83380222)
   0.120124360  -0.069353832   0.995776370
   0.000000000   0.138707663   0.995776370
  -0.120124360  -0.069353832   0.995776370

ATOMIC_POSITIONS (crystal)
Li            0.0625267008        0.0625267008        0.0625267008
Li            0.9374732992        0.9374732992        0.9374732992
Li            0.2219647416        0.2219647416        0.2219647416
Li            0.7780352584        0.7780352584        0.7780352584
Li            0.3570777120        0.3570777120        0.3570777120
Li            0.6429222880        0.6429222880        0.6429222880
Si            0.5000000000        0.5000000000        0.5000000000
End final coordinates



     Writing config-only to output data dir ./output/LiSi.save/

     Final scf calculation at the relaxed structure.
     The G-vectors are recalculated for the final unit cell
     Results may differ from those at the preceding step.

     Parallelization info
     --------------------
     sticks:   dense  smooth     PW     G-vecs:    dense   smooth      PW
     Min         300     300     88                 4703     4703     756
     Max         301     301     89                 4704     4704     758
     Sum        2401    2401    707                37631    37631    6055

     Using Slab Decomposition



     bravais-lattice index     =            5
     lattice parameter (alat)  =      19.8338  a.u.
     unit-cell volume          =     388.3583 (a.u.)^3
     number of atoms/cell      =            7
     number of atomic types    =            2
     number of electrons       =        22.00
     number of Kohn-Sham states=           15
     kinetic-energy cutoff     =      80.0000  Ry
     charge density cutoff     =     320.0000  Ry
     scf convergence threshold =      1.0E-10
     mixing beta               =       0.7000
     number of iterations used =            8  plain     mixing
     press convergence thresh. =      1.0E+00
     Exchange-correlation= PBE
                           (   1   4   3   4   0   0   0)

     celldm(1)=  19.833802  celldm(2)=   0.000000  celldm(3)=   0.000000
     celldm(4)=   0.971020  celldm(5)=   0.000000  celldm(6)=   0.000000

     crystal axes: (cart. coord. in units of alat)
               a(1) = (   0.120124  -0.069354   0.995776 )  
               a(2) = (   0.000000   0.138708   0.995776 )  
               a(3) = (  -0.120124  -0.069354   0.995776 )  

     reciprocal axes: (cart. coord. in units 2 pi/alat)
               b(1) = (  4.162353 -2.403136  0.334747 )  
               b(2) = ( -0.000000  4.806271  0.334747 )  
               b(3) = ( -4.162353 -2.403136  0.334747 )  


     PseudoPot. # 1 for Li read from file:
     ../pseudo/Li_ONCV_PBE_sr.upf
     MD5 check sum: 50ff420e78310ffa21704f3361e624a4
     Pseudo is Norm-conserving, Zval =  3.0
     Generated using ONCVPSP code by D. R. Hamann
     Using radial grid of 1944 points,  4 beta functions with: 
                l(1) =   0
                l(2) =   0
                l(3) =   1
                l(4) =   1

     PseudoPot. # 2 for Si read from file:
     ../pseudo/Si_ONCV_PBE_sr.upf
     MD5 check sum: e543d271109d17c80368dfa7c482276d
     Pseudo is Norm-conserving + core correction, Zval =  4.0
     Generated using ONCVPSP code by D. R. Hamann
     Using radial grid of 1510 points,  6 beta functions with: 
                l(1) =   0
                l(2) =   0
                l(3) =   1
                l(4) =   1
                l(5) =   2
                l(6) =   2

     atomic species   valence    mass     pseudopotential
        Li             3.00     6.94100     Li( 1.00)
        Si             4.00    28.08550     Si( 1.00)

     12 Sym. Ops., with inversion, found



   Cartesian axes

     site n.     atom                  positions (alat units)
         1           Li  tau(   1) = (  -0.0000000  -0.0000000   0.1867878  )
         2           Li  tau(   2) = (  -0.0000000  -0.0000000   2.8005413  )
         3           Li  tau(   3) = (  -0.0000000  -0.0000000   0.6630817  )
         4           Li  tau(   4) = (   0.0000000  -0.0000000   2.3242474  )
         5           Li  tau(   5) = (  -0.0000000  -0.0000000   1.0667086  )
         6           Li  tau(   6) = (  -0.0000000  -0.0000000   1.9206205  )
         7           Si  tau(   7) = (  -0.0000000  -0.0000000   1.4936646  )

     number of k points=     4  Marzari-Vanderbilt smearing, width (Ry)=  0.0200
                       cart. coord. in units 2pi/alat
        k(    1) = (   0.0000000   0.0000000   0.0000000), wk =   0.2500000
        k(    2) = (   2.0811765   1.2015678  -0.1673736), wk =   0.7500000
        k(    3) = (   2.0811765  -1.2015678  -0.3347472), wk =   0.7500000
        k(    4) = (  -0.0000000  -0.0000000  -0.5021208), wk =   0.2500000

     Dense  grid:    37631 G-vectors     FFT dimensions: ( 120, 120, 120)

     Estimated max dynamical RAM per process >      30.35 MB

     Estimated total dynamical RAM >     242.76 MB

     Initial potential from superposition of free atoms

     starting charge      21.9720, renormalised to      22.0000
     Starting wfcs are   16 randomized atomic wfcs

     total cpu time spent up to now is      122.8 secs

     Self-consistent Calculation

     iteration #  1     ecut=    80.00 Ry     beta= 0.70
     Davidson diagonalization with overlap
     c_bands:  1 eigenvalues not converged
     c_bands:  1 eigenvalues not converged
     ethr =  1.00E-06,  avg # of iterations = 17.5

     total cpu time spent up to now is      124.8 secs

     total energy              =     -93.08103667 Ry
     estimated scf accuracy    <       1.75750276 Ry

     iteration #  2     ecut=    80.00 Ry     beta= 0.70
     Davidson diagonalization with overlap
     ethr =  7.99E-03,  avg # of iterations =  5.5

     total cpu time spent up to now is      125.9 secs

     total energy              =     -92.81490616 Ry
     estimated scf accuracy    <      32.19193830 Ry

     iteration #  3     ecut=    80.00 Ry     beta= 0.70
     Davidson diagonalization with overlap
     ethr =  7.99E-03,  avg # of iterations =  4.2

     total cpu time spent up to now is      126.8 secs

     total energy              =     -94.47398633 Ry
     estimated scf accuracy    <       1.41736594 Ry

     iteration #  4     ecut=    80.00 Ry     beta= 0.70
     Davidson diagonalization with overlap
     ethr =  6.44E-03,  avg # of iterations =  1.5

     total cpu time spent up to now is      127.5 secs

     total energy              =     -94.44830663 Ry
     estimated scf accuracy    <       0.33188933 Ry

     iteration #  5     ecut=    80.00 Ry     beta= 0.70
     Davidson diagonalization with overlap
     ethr =  1.51E-03,  avg # of iterations =  1.5

     total cpu time spent up to now is      128.2 secs

     total energy              =     -94.48118299 Ry
     estimated scf accuracy    <       0.00911058 Ry

     iteration #  6     ecut=    80.00 Ry     beta= 0.70
     Davidson diagonalization with overlap
     ethr =  4.14E-05,  avg # of iterations =  3.0

     total cpu time spent up to now is      129.0 secs

     total energy              =     -94.48314406 Ry
     estimated scf accuracy    <       0.01085501 Ry

     iteration #  7     ecut=    80.00 Ry     beta= 0.70
     Davidson diagonalization with overlap
     ethr =  4.14E-05,  avg # of iterations =  1.0

     total cpu time spent up to now is      129.7 secs

     total energy              =     -94.48409182 Ry
     estimated scf accuracy    <       0.00003478 Ry

     iteration #  8     ecut=    80.00 Ry     beta= 0.70
     Davidson diagonalization with overlap
     ethr =  1.58E-07,  avg # of iterations =  4.8

     total cpu time spent up to now is      130.6 secs

     total energy              =     -94.48409980 Ry
     estimated scf accuracy    <       0.00002583 Ry

     iteration #  9     ecut=    80.00 Ry     beta= 0.70
     Davidson diagonalization with overlap
     ethr =  1.17E-07,  avg # of iterations =  1.0

     total cpu time spent up to now is      131.3 secs

     total energy              =     -94.48410249 Ry
     estimated scf accuracy    <       0.00000031 Ry

     iteration # 10     ecut=    80.00 Ry     beta= 0.70
     Davidson diagonalization with overlap
     ethr =  1.42E-09,  avg # of iterations =  1.8

     total cpu time spent up to now is      132.0 secs

     total energy              =     -94.48410254 Ry
     estimated scf accuracy    <       0.00000002 Ry

     iteration # 11     ecut=    80.00 Ry     beta= 0.70
     Davidson diagonalization with overlap
     ethr =  6.88E-11,  avg # of iterations =  2.5

     total cpu time spent up to now is      132.8 secs

     total energy              =     -94.48410255 Ry
     estimated scf accuracy    <          8.5E-10 Ry

     iteration # 12     ecut=    80.00 Ry     beta= 0.70
     Davidson diagonalization with overlap
     ethr =  3.89E-12,  avg # of iterations =  1.8

     total cpu time spent up to now is      133.5 secs

     End of self-consistent calculation

          k = 0.0000 0.0000 0.0000 (  4689 PWs)   bands (ev):

   -39.2480 -39.1069 -38.6299 -38.5467 -38.3778 -38.2233  -5.9628   1.8484
     3.7610   4.8923   5.1902   8.8130  10.5357  14.9251  20.0116

          k = 2.0812 1.2016-0.1674 (  4712 PWs)   bands (ev):

   -38.8153 -38.7908 -38.5681 -38.4825 -38.4375 -38.4286   0.9336   1.1926
     5.3684   6.2361   6.6154   8.4565   8.6473   9.9509  12.6174

          k = 2.0812-1.2016-0.3347 (  4698 PWs)   bands (ev):

   -38.8153 -38.7908 -38.5681 -38.4824 -38.4378 -38.4283   0.9337   1.1923
     5.5414   5.7759   7.1518   7.8543   9.0283  10.0167  12.4302

          k =-0.0000-0.0000-0.5021 (  4712 PWs)   bands (ev):

   -39.2480 -39.1071 -38.6284 -38.5488 -38.3769 -38.2235  -5.9628   1.8485
     3.8945   4.3423   5.8834   7.9773  11.8386  13.6919  20.2663

     the Fermi energy is     7.3994 ev

!    total energy              =     -94.48410255 Ry
     estimated scf accuracy    <          5.3E-11 Ry
     smearing contrib. (-TS)   =       0.00122786 Ry
     internal energy E=F+TS    =     -94.48533041 Ry

     The total energy is F=E-TS. E is the sum of the following terms:
     one-electron contribution =     -35.86326361 Ry
     hartree contribution      =      17.49933507 Ry
     xc contribution           =     -24.33027754 Ry
     ewald contribution        =     -51.79112433 Ry

     convergence has been achieved in  12 iterations

     Forces acting on atoms (cartesian axes, Ry/au):

     atom    1 type  1   force =     0.00000000   -0.00000000   -0.00000040
     atom    2 type  1   force =     0.00000000    0.00000000    0.00000040
     atom    3 type  1   force =    -0.00000000    0.00000000    0.00030052
     atom    4 type  1   force =     0.00000000   -0.00000000   -0.00030052
     atom    5 type  1   force =     0.00000000   -0.00000000   -0.00014944
     atom    6 type  1   force =    -0.00000000   -0.00000000    0.00014944
     atom    7 type  2   force =     0.00000000   -0.00000000   -0.00000000
     The non-local contrib.  to forces
     atom    1 type  1   force =     0.00000000    0.00000000   -0.03420406
     atom    2 type  1   force =    -0.00000000   -0.00000000    0.03420406
     atom    3 type  1   force =    -0.00000000   -0.00000000    0.00935350
     atom    4 type  1   force =     0.00000000    0.00000000   -0.00935350
     atom    5 type  1   force =    -0.00000000   -0.00000000    0.07125981
     atom    6 type  1   force =     0.00000000   -0.00000000   -0.07125981
     atom    7 type  2   force =     0.00000000    0.00000000    0.00000000
     The ionic contribution  to forces
     atom    1 type  1   force =    -0.00000000    0.00000000    1.16369440
     atom    2 type  1   force =     0.00000000   -0.00000000   -1.16369440
     atom    3 type  1   force =     0.00000000   -0.00000000   -0.52171641
     atom    4 type  1   force =    -0.00000000   -0.00000000    0.52171641
     atom    5 type  1   force =    -0.00000000   -0.00000000   -0.01972771
     atom    6 type  1   force =    -0.00000000    0.00000000    0.01972771
     atom    7 type  2   force =    -0.00000000   -0.00000000    0.00000000
     The local contribution  to forces
     atom    1 type  1   force =     0.00000000    0.00000000   -1.12949892
     atom    2 type  1   force =    -0.00000000   -0.00000000    1.12949892
     atom    3 type  1   force =     0.00000000    0.00000000    0.51266592
     atom    4 type  1   force =    -0.00000000   -0.00000000   -0.51266592
     atom    5 type  1   force =     0.00000000   -0.00000000   -0.05168920
     atom    6 type  1   force =     0.00000000   -0.00000000    0.05168920
     atom    7 type  2   force =     0.00000000    0.00000000   -0.00000000
     The core correction contribution to forces
     atom    1 type  1   force =     0.00000000    0.00000000    0.00000000
     atom    2 type  1   force =     0.00000000    0.00000000    0.00000000
     atom    3 type  1   force =     0.00000000    0.00000000    0.00000000
     atom    4 type  1   force =     0.00000000    0.00000000    0.00000000
     atom    5 type  1   force =     0.00000000    0.00000000    0.00000000
     atom    6 type  1   force =     0.00000000    0.00000000    0.00000000
     atom    7 type  2   force =    -0.00000000    0.00000000   -0.00000000
     The Hubbard contrib.    to forces
     atom    1 type  1   force =     0.00000000    0.00000000    0.00000000
     atom    2 type  1   force =     0.00000000    0.00000000    0.00000000
     atom    3 type  1   force =     0.00000000    0.00000000    0.00000000
     atom    4 type  1   force =     0.00000000    0.00000000    0.00000000
     atom    5 type  1   force =     0.00000000    0.00000000    0.00000000
     atom    6 type  1   force =     0.00000000    0.00000000    0.00000000
     atom    7 type  2   force =     0.00000000    0.00000000    0.00000000
     The SCF correction term to forces
     atom    1 type  1   force =     0.00000000    0.00000000    0.00000817
     atom    2 type  1   force =    -0.00000000   -0.00000000   -0.00000817
     atom    3 type  1   force =    -0.00000000   -0.00000000   -0.00000250
     atom    4 type  1   force =     0.00000000    0.00000000    0.00000250
     atom    5 type  1   force =    -0.00000000   -0.00000000    0.00000765
     atom    6 type  1   force =     0.00000000    0.00000000   -0.00000765
     atom    7 type  2   force =     0.00000000   -0.00000000   -0.00000000

     Total force =     0.000475     Total SCF correction =     0.000016


     Computing stress (Cartesian axis) and pressure

          total   stress  (Ry/bohr**3)                   (kbar)     P=      499.91
   0.00339659   0.00000000  -0.00000000          499.66        0.00       -0.00
  -0.00000000   0.00339659   0.00000000           -0.00      499.66        0.00
  -0.00000000   0.00000000   0.00340172           -0.00        0.00      500.41


     Writing all to output data dir ./output/LiSi.save/

     init_run     :      2.04s CPU      3.14s WALL (       2 calls)
     electrons    :     96.14s CPU    104.65s WALL (      15 calls)
     update_pot   :      7.13s CPU      7.46s WALL (      13 calls)
     forces       :      5.24s CPU      5.83s WALL (      15 calls)
     stress       :     11.57s CPU     13.05s WALL (      15 calls)

     Called by init_run:
     wfcinit      :      0.44s CPU      0.63s WALL (       2 calls)
     potinit      :      0.63s CPU      1.11s WALL (       2 calls)
     hinit0       :      0.88s CPU      1.18s WALL (       2 calls)

     Called by electrons:
     c_bands      :     65.83s CPU     71.28s WALL (     124 calls)
     sum_band     :     14.63s CPU     15.86s WALL (     124 calls)
     v_of_rho     :     16.79s CPU     18.62s WALL (     136 calls)
     mix_rho      :      0.53s CPU      0.98s WALL (     124 calls)

     Called by c_bands:
     init_us_2    :      0.28s CPU      0.33s WALL (    1120 calls)
     init_us_2:cp :      0.27s CPU      0.33s WALL (    1120 calls)
     cegterg      :     65.26s CPU     70.40s WALL (     496 calls)

     Called by *egterg:
     cdiaghg      :      0.50s CPU      0.55s WALL (    1633 calls)
     h_psi        :     64.35s CPU     69.57s WALL (    1705 calls)
     g_psi        :      0.03s CPU      0.03s WALL (    1201 calls)

     Called by h_psi:
     h_psi:calbec :      0.61s CPU      0.71s WALL (    1705 calls)
     vloc_psi     :     63.34s CPU     68.40s WALL (    1705 calls)
     add_vuspsi   :      0.35s CPU      0.39s WALL (    1705 calls)

     General routines
     calbec       :      0.74s CPU      0.83s WALL (    2005 calls)
     fft          :      6.10s CPU      9.14s WALL (    1736 calls)
     ffts         :      0.32s CPU      0.40s WALL (     124 calls)
     fftw         :     64.95s CPU     69.98s WALL (   44156 calls)

     Parallel routines

     PWSCF        :   2m 2.51s CPU   2m14.89s WALL


   This run was terminated on:  15:58:55  31Dec2024            

=------------------------------------------------------------------------------=
   JOB DONE.
=------------------------------------------------------------------------------=
