
     Program PWSCF v.7.2 starts on 30Dec2024 at  4: 6:33 

     This program is part of the open-source Quantum ESPRESSO suite
     for quantum simulation of materials; please cite
         "P. Giannozzi et al., J. Phys.:Condens. Matter 21 395502 (2009);
         "P. Giannozzi et al., J. Phys.:Condens. Matter 29 465901 (2017);
         "P. Giannozzi et al., J. Chem. Phys. 152 154105 (2020);
          URL http://www.quantum-espresso.org", 
     in publications or presentations arising from this work. More details at
     http://www.quantum-espresso.org/quote

     Parallel version (MPI & OpenMP), running on       8 processor cores
     Number of MPI processes:                 8
     Threads/MPI process:                     1

     MPI processes distributed on     1 nodes
     481724 MiB available memory on the printing compute node when the environment starts

     Waiting for input...
     Reading input from standard input

     Current dimensions of program PWSCF are:
     Max number of different atomic species (ntypx) = 10
     Max number of k-points (npk) =  40000
     Max angular momentum in pseudopotentials (lmaxx) =  4

     R & G space division:  proc/nbgrp/npool/nimage =       8
     Subspace diagonalization in iterative solution of the eigenvalue problem:
     a serial algorithm will be used


     Parallelization info
     --------------------
     sticks:   dense  smooth     PW     G-vecs:    dense   smooth      PW
     Min         243     243     68                 8769     8769    1278
     Max         244     244     69                 8774     8774    1281
     Sum        1945    1945    547                70157    70157   10235

     Using Slab Decomposition



     bravais-lattice index     =            4
     lattice parameter (alat)  =       9.4234  a.u.
     unit-cell volume          =     727.4796 (a.u.)^3
     number of atoms/cell      =            7
     number of atomic types    =            2
     number of electrons       =        22.00
     number of Kohn-Sham states=           15
     kinetic-energy cutoff     =      80.0000  Ry
     charge density cutoff     =     320.0000  Ry
     scf convergence threshold =      1.0E-08
     mixing beta               =       0.7000
     number of iterations used =            8  plain     mixing
     energy convergence thresh.=      1.0E-04
     force convergence thresh. =      1.0E-03
     press convergence thresh. =      1.0E+00
     Exchange-correlation= PBE
                           (   1   4   3   4   0   0   0)
     nstep                     =           50


     celldm(1)=   9.423369  celldm(2)=   0.000000  celldm(3)=   1.003856
     celldm(4)=   0.000000  celldm(5)=   0.000000  celldm(6)=   0.000000

     crystal axes: (cart. coord. in units of alat)
               a(1) = (   1.000000   0.000000   0.000000 )  
               a(2) = (  -0.500000   0.866025   0.000000 )  
               a(3) = (   0.000000   0.000000   1.003856 )  

     reciprocal axes: (cart. coord. in units 2 pi/alat)
               b(1) = (  1.000000  0.577350 -0.000000 )  
               b(2) = (  0.000000  1.154701  0.000000 )  
               b(3) = (  0.000000 -0.000000  0.996158 )  


     PseudoPot. # 1 for Li read from file:
     ../pseudo/Li_ONCV_PBE_sr.upf
     MD5 check sum: 50ff420e78310ffa21704f3361e624a4
     Pseudo is Norm-conserving, Zval =  3.0
     Generated using ONCVPSP code by D. R. Hamann
     Using radial grid of 1944 points,  4 beta functions with: 
                l(1) =   0
                l(2) =   0
                l(3) =   1
                l(4) =   1

     PseudoPot. # 2 for Si read from file:
     ../pseudo/Si_ONCV_PBE_sr.upf
     MD5 check sum: e543d271109d17c80368dfa7c482276d
     Pseudo is Norm-conserving + core correction, Zval =  4.0
     Generated using ONCVPSP code by D. R. Hamann
     Using radial grid of 1510 points,  6 beta functions with: 
                l(1) =   0
                l(2) =   0
                l(3) =   1
                l(4) =   1
                l(5) =   2
                l(6) =   2

     atomic species   valence    mass     pseudopotential
        Li             3.00     6.94100     Li( 1.00)
        Si             4.00    28.08550     Si( 1.00)

     12 Sym. Ops. (no inversion) found



   Cartesian axes

     site n.     atom                  positions (alat units)
         1           Li  tau(   1) = (  -0.2474090   0.4345086   0.0000000  )
         2           Li  tau(   2) = (  -0.0000000   0.8630336   0.0000000  )
         3           Li  tau(   3) = (   0.2474090   0.4345086   0.0000000  )
         4           Li  tau(   4) = (   0.0000000   0.0000000   0.2499592  )
         5           Li  tau(   5) = (   0.0000000   0.0000000   0.7538971  )
         6           Li  tau(   6) = (  -0.0000000   0.5773503   0.5019282  )
         7           Si  tau(   7) = (   0.5000000   0.2886751   0.5019282  )

     number of k points=    32  Marzari-Vanderbilt smearing, width (Ry)=  0.0200
                       cart. coord. in units 2pi/alat
        k(    1) = (   0.0000000   0.0000000   0.0000000), wk =   0.0058309
        k(    2) = (   0.0000000   0.0000000   0.1423083), wk =   0.0116618
        k(    3) = (   0.0000000   0.0000000   0.2846167), wk =   0.0116618
        k(    4) = (   0.0000000   0.0000000   0.4269250), wk =   0.0116618
        k(    5) = (   0.0000000   0.1649572   0.0000000), wk =   0.0349854
        k(    6) = (   0.0000000   0.1649572   0.1423083), wk =   0.0699708
        k(    7) = (   0.0000000   0.1649572   0.2846167), wk =   0.0699708
        k(    8) = (   0.0000000   0.1649572   0.4269250), wk =   0.0699708
        k(    9) = (   0.0000000   0.3299144   0.0000000), wk =   0.0349854
        k(   10) = (   0.0000000   0.3299144   0.1423083), wk =   0.0699708
        k(   11) = (   0.0000000   0.3299144   0.2846167), wk =   0.0699708
        k(   12) = (   0.0000000   0.3299144   0.4269250), wk =   0.0699708
        k(   13) = (   0.0000000   0.4948717   0.0000000), wk =   0.0349854
        k(   14) = (   0.0000000   0.4948717   0.1423083), wk =   0.0699708
        k(   15) = (   0.0000000   0.4948717   0.2846167), wk =   0.0699708
        k(   16) = (   0.0000000   0.4948717   0.4269250), wk =   0.0699708
        k(   17) = (   0.1428571   0.2474358   0.0000000), wk =   0.0349854
        k(   18) = (   0.1428571   0.2474358   0.1423083), wk =   0.0699708
        k(   19) = (   0.1428571   0.2474358   0.2846167), wk =   0.0699708
        k(   20) = (   0.1428571   0.2474358   0.4269250), wk =   0.0699708
        k(   21) = (   0.1428571   0.4123930   0.0000000), wk =   0.0699708
        k(   22) = (   0.1428571   0.4123930   0.1423083), wk =   0.1399417
        k(   23) = (   0.1428571   0.4123930   0.2846167), wk =   0.1399417
        k(   24) = (   0.1428571   0.4123930   0.4269250), wk =   0.1399417
        k(   25) = (   0.1428571   0.5773503   0.0000000), wk =   0.0349854
        k(   26) = (   0.1428571   0.5773503   0.1423083), wk =   0.0699708
        k(   27) = (   0.1428571   0.5773503   0.2846167), wk =   0.0699708
        k(   28) = (   0.1428571   0.5773503   0.4269250), wk =   0.0699708
        k(   29) = (   0.2857143   0.4948717   0.0000000), wk =   0.0349854
        k(   30) = (   0.2857143   0.4948717   0.1423083), wk =   0.0699708
        k(   31) = (   0.2857143   0.4948717   0.2846167), wk =   0.0699708
        k(   32) = (   0.2857143   0.4948717   0.4269250), wk =   0.0699708

     Dense  grid:    70157 G-vectors     FFT dimensions: (  54,  54,  54)

     Estimated max dynamical RAM per process >      27.27 MB

     Estimated total dynamical RAM >     218.12 MB

     Initial potential from superposition of free atoms

     starting charge      21.9720, renormalised to      22.0000
     Starting wfcs are   16 randomized atomic wfcs

     total cpu time spent up to now is        1.4 secs

     Self-consistent Calculation

     iteration #  1     ecut=    80.00 Ry     beta= 0.70
     Davidson diagonalization with overlap
     ethr =  1.00E-02,  avg # of iterations =  5.3

     Threshold (ethr) on eigenvalues was too large:
     Diagonalizing with lowered threshold

     Davidson diagonalization with overlap
     ethr =  1.10E-04,  avg # of iterations =  5.3

     total cpu time spent up to now is        3.7 secs

     total energy              =     -94.90128614 Ry
     estimated scf accuracy    <       0.02535530 Ry

     iteration #  2     ecut=    80.00 Ry     beta= 0.70
     Davidson diagonalization with overlap
     ethr =  1.15E-04,  avg # of iterations =  2.0

     total cpu time spent up to now is        4.5 secs

     total energy              =     -94.90382888 Ry
     estimated scf accuracy    <       0.00856111 Ry

     iteration #  3     ecut=    80.00 Ry     beta= 0.70
     Davidson diagonalization with overlap
     ethr =  3.89E-05,  avg # of iterations =  2.0

     total cpu time spent up to now is        5.4 secs

     total energy              =     -94.90570280 Ry
     estimated scf accuracy    <       0.00226307 Ry

     iteration #  4     ecut=    80.00 Ry     beta= 0.70
     Davidson diagonalization with overlap
     ethr =  1.03E-05,  avg # of iterations =  2.4

     total cpu time spent up to now is        6.2 secs

     total energy              =     -94.90616257 Ry
     estimated scf accuracy    <       0.00010075 Ry

     iteration #  5     ecut=    80.00 Ry     beta= 0.70
     Davidson diagonalization with overlap
     ethr =  4.58E-07,  avg # of iterations =  3.2

     total cpu time spent up to now is        7.1 secs

     total energy              =     -94.90617568 Ry
     estimated scf accuracy    <       0.00000346 Ry

     iteration #  6     ecut=    80.00 Ry     beta= 0.70
     Davidson diagonalization with overlap
     ethr =  1.57E-08,  avg # of iterations =  2.4

     total cpu time spent up to now is        7.9 secs

     total energy              =     -94.90617652 Ry
     estimated scf accuracy    <       0.00000015 Ry

     iteration #  7     ecut=    80.00 Ry     beta= 0.70
     Davidson diagonalization with overlap
     ethr =  6.99E-10,  avg # of iterations =  3.3

     total cpu time spent up to now is        8.8 secs

     total energy              =     -94.90617656 Ry
     estimated scf accuracy    <       0.00000004 Ry

     iteration #  8     ecut=    80.00 Ry     beta= 0.70
     Davidson diagonalization with overlap
     ethr =  1.63E-10,  avg # of iterations =  2.0

     total cpu time spent up to now is        9.6 secs

     End of self-consistent calculation

          k = 0.0000 0.0000 0.0000 (  8757 PWs)   bands (ev):

   -43.3928 -43.3359 -43.3338 -43.2667 -43.2667 -43.1253  -4.3679   1.1003
     1.5863   2.3861   2.3861   3.5241   3.7620   3.7620   6.4063

          k = 0.0000 0.0000 0.1423 (  8757 PWs)   bands (ev):

   -43.3905 -43.3400 -43.3320 -43.2667 -43.2667 -43.1254  -4.3342   0.4551
     2.1475   2.4462   2.4462   3.7957   3.7957   3.8579   5.8612

          k = 0.0000 0.0000 0.2846 (  8811 PWs)   bands (ev):

   -43.3842 -43.3474 -43.3307 -43.2667 -43.2667 -43.1256  -4.2527  -0.2242
     2.5886   2.5886   2.6339   3.9217   3.9217   4.7064   5.1549

          k = 0.0000 0.0000 0.4269 (  8847 PWs)   bands (ev):

   -43.3766 -43.3554 -43.3301 -43.2667 -43.2667 -43.1258  -4.1805  -0.6125
     2.7079   2.7079   2.9426   4.1533   4.1533   4.5449   5.4254

          k = 0.0000 0.1650 0.0000 (  8789 PWs)   bands (ev):

   -43.3912 -43.3341 -43.3338 -43.2701 -43.2667 -43.1253  -4.3034   1.1020
     1.1989   2.0590   2.3200   3.3516   4.2913   4.4369   6.3649

          k = 0.0000 0.1650 0.1423 (  8787 PWs)   bands (ev):

   -43.3888 -43.3390 -43.3312 -43.2701 -43.2667 -43.1254  -4.2698   0.5160
     1.4274   2.1225   2.6543   3.5641   4.2801   4.3874   5.7683

          k = 0.0000 0.1650 0.2846 (  8811 PWs)   bands (ev):

   -43.3824 -43.3467 -43.3298 -43.2701 -43.2667 -43.1256  -4.1887  -0.1311
     1.6624   2.2842   2.9451   3.6364   4.2439   4.8119   5.4166

          k = 0.0000 0.1650 0.4269 (  8808 PWs)   bands (ev):

   -43.3744 -43.3552 -43.3291 -43.2700 -43.2667 -43.1258  -4.1169  -0.5116
     1.9300   2.4408   2.8261   3.7045   4.1947   4.8471   5.6242

          k = 0.0000 0.3299 0.0000 (  8785 PWs)   bands (ev):

   -43.3877 -43.3338 -43.3287 -43.2791 -43.2667 -43.1253  -4.1412   0.2594
     1.4670   1.6261   2.3383   3.3263   4.9204   5.1589   5.2705

          k = 0.0000 0.3299 0.1423 (  8800 PWs)   bands (ev):

   -43.3853 -43.3373 -43.3275 -43.2791 -43.2667 -43.1254  -4.1081   0.2875
     1.0053   1.6907   2.6546   3.3016   4.5117   5.0564   5.9883

          k = 0.0000 0.3299 0.2846 (  8792 PWs)   bands (ev):

   -43.3786 -43.3451 -43.3264 -43.2790 -43.2667 -43.1256  -4.0284   0.1009
     0.7498   1.8589   2.6743   3.0427   4.5738   4.8465   6.0778

          k = 0.0000 0.3299 0.4269 (  8783 PWs)   bands (ev):

   -43.3696 -43.3545 -43.3258 -43.2789 -43.2667 -43.1258  -3.9584  -0.2184
     0.9487   2.0298   2.1474   3.2888   4.1791   4.6757   6.7872

          k = 0.0000 0.4949 0.0000 (  8782 PWs)   bands (ev):

   -43.3850 -43.3338 -43.3216 -43.2890 -43.2667 -43.1253  -3.9876  -0.2969
     1.3852   1.7659   2.3755   3.3745   4.3548   4.7658   6.1205

          k = 0.0000 0.4949 0.1423 (  8795 PWs)   bands (ev):

   -43.3825 -43.3365 -43.3214 -43.2889 -43.2667 -43.1254  -3.9553  -0.2205
     1.2767   1.4494   2.5695   2.8871   4.6738   5.3959   5.4671

          k = 0.0000 0.4949 0.2846 (  8784 PWs)   bands (ev):

   -43.3757 -43.3437 -43.3210 -43.2887 -43.2667 -43.1256  -3.8781  -0.0046
     0.6373   1.6166   2.0077   2.9175   4.6556   4.8302   6.4921

          k = 0.0000 0.4949 0.4269 (  8767 PWs)   bands (ev):

   -43.3661 -43.3535 -43.3207 -43.2885 -43.2667 -43.1258  -3.8106   0.1825
     0.3576   1.4040   1.7866   3.1461   4.1426   4.5430   7.8855

          k = 0.1429 0.2474 0.0000 (  8809 PWs)   bands (ev):

   -43.3887 -43.3338 -43.3304 -43.2765 -43.2666 -43.1253  -4.1892   0.5392
     1.3843   1.4446   2.5493   3.4991   4.5786   5.0346   5.4684

          k = 0.1429 0.2474 0.1423 (  8794 PWs)   bands (ev):

   -43.3863 -43.3377 -43.3288 -43.2765 -43.2666 -43.1254  -4.1558   0.4713
     1.0432   1.5176   2.9158   3.5501   4.3561   4.6908   6.0908

          k = 0.1429 0.2474 0.2846 (  8807 PWs)   bands (ev):

   -43.3796 -43.3455 -43.3275 -43.2764 -43.2666 -43.1256  -4.0756   0.0384
     1.0377   1.7178   2.8821   3.4362   4.0859   5.2604   5.7814

          k = 0.1429 0.2474 0.4269 (  8786 PWs)   bands (ev):

   -43.3710 -43.3547 -43.3269 -43.2764 -43.2665 -43.1258  -4.0050  -0.3137
     1.2622   1.9506   2.4542   3.1512   4.3645   5.3713   5.6104

          k = 0.1429 0.4124 0.0000 (  8804 PWs)   bands (ev):

   -43.3856 -43.3338 -43.3232 -43.2870 -43.2664 -43.1253  -4.0251  -0.0454
     0.9586   1.6883   2.7932   3.5889   4.5599   4.8438   5.3288

          k = 0.1429 0.4124 0.1423 (  8787 PWs)   bands (ev):

   -43.3832 -43.3367 -43.3227 -43.2870 -43.2664 -43.1254  -3.9926   0.0213
     1.0133   1.2377   2.9122   3.3487   4.2794   5.2020   5.8127

          k = 0.1429 0.4124 0.2846 (  8782 PWs)   bands (ev):

   -43.3764 -43.3440 -43.3221 -43.2869 -43.2663 -43.1256  -3.9146   0.1635
     0.6207   1.2559   2.3538   3.0591   4.3388   5.6893   6.2925

          k = 0.1429 0.4124 0.4269 (  8782 PWs)   bands (ev):

   -43.3669 -43.3538 -43.3217 -43.2868 -43.2663 -43.1258  -3.8464   0.0519
     0.6154   1.5022   1.7917   2.6900   4.6602   5.3469   6.7261

          k = 0.1429 0.5774 0.0000 (  8794 PWs)   bands (ev):

   -43.3843 -43.3338 -43.3176 -43.2940 -43.2663 -43.1253  -3.9417  -0.2977
     0.8051   1.8736   2.9133   3.5792   4.1541   4.6854   5.7869

          k = 0.1429 0.5774 0.1423 (  8781 PWs)   bands (ev):

   -43.3819 -43.3364 -43.3175 -43.2939 -43.2663 -43.1254  -3.9098  -0.2191
     0.8693   1.4407   2.7164   3.2117   4.3960   5.2261   5.9237

          k = 0.1429 0.5774 0.2846 (  8770 PWs)   bands (ev):

   -43.3751 -43.3434 -43.3173 -43.2937 -43.2662 -43.1256  -3.8334   0.0077
     0.7461   1.1295   1.9550   2.9478   4.4307   5.8857   6.5681

          k = 0.1429 0.5774 0.4269 (  8774 PWs)   bands (ev):

   -43.3654 -43.3533 -43.3172 -43.2936 -43.2662 -43.1258  -3.7669   0.3153
     0.3807   1.3309   1.3590   2.5688   4.7375   5.3267   7.7833

          k = 0.2857 0.4949 0.0000 (  8809 PWs)   bands (ev):

   -43.3841 -43.3338 -43.3145 -43.2978 -43.2659 -43.1253  -3.9218  -0.1036
     0.3093   1.9263   3.1614   4.0763   4.0839   4.5677   5.4178

          k = 0.2857 0.4949 0.1423 (  8801 PWs)   bands (ev):

   -43.3817 -43.3364 -43.3143 -43.2978 -43.2659 -43.1254  -3.8900  -0.0268
     0.3869   1.4906   2.8751   3.3125   4.5563   5.3011   5.6951

          k = 0.2857 0.4949 0.2846 (  8772 PWs)   bands (ev):

   -43.3749 -43.3434 -43.3141 -43.2977 -43.2658 -43.1256  -3.8140   0.1904
     0.6084   0.8515   2.1817   2.5557   5.1186   6.1271   6.6310

          k = 0.2857 0.4949 0.4269 (  8779 PWs)   bands (ev):

   -43.3652 -43.3532 -43.3138 -43.2977 -43.2657 -43.1258  -3.7478   0.3993
     0.5422   0.8989   1.5963   1.9829   5.6523   6.5347   6.7424

     the Fermi energy is     2.8659 ev

!    total energy              =     -94.90617656 Ry
     estimated scf accuracy    <          1.4E-09 Ry
     smearing contrib. (-TS)   =      -0.00111444 Ry
     internal energy E=F+TS    =     -94.90506212 Ry

     The total energy is F=E-TS. E is the sum of the following terms:
     one-electron contribution =     -49.46766707 Ry
     hartree contribution      =      20.32213218 Ry
     xc contribution           =     -23.28963958 Ry
     ewald contribution        =     -42.46988764 Ry

     convergence has been achieved in   8 iterations

     Forces acting on atoms (cartesian axes, Ry/au):

     atom    1 type  1   force =    -0.02391426   -0.01380691    0.00000000
     atom    2 type  1   force =    -0.00000000    0.02761381    0.00000000
     atom    3 type  1   force =     0.02391426   -0.01380691   -0.00000000
     atom    4 type  1   force =     0.00000000   -0.00000000    0.03631635
     atom    5 type  1   force =     0.00000000   -0.00000000   -0.03631635
     atom    6 type  1   force =     0.00000000    0.00000000    0.00000000
     atom    7 type  2   force =     0.00000000    0.00000000    0.00000000
     The non-local contrib.  to forces
     atom    1 type  1   force =    -0.01013861   -0.00585353    0.00000000
     atom    2 type  1   force =     0.00000000    0.01170706    0.00000000
     atom    3 type  1   force =     0.01013861   -0.00585353   -0.00000000
     atom    4 type  1   force =     0.00000000    0.00000000    0.05736342
     atom    5 type  1   force =     0.00000000    0.00000000   -0.05736342
     atom    6 type  1   force =     0.00000000    0.00000000    0.00000000
     atom    7 type  2   force =     0.00000000    0.00000000    0.00000000
     The ionic contribution  to forces
     atom    1 type  1   force =     0.02602811    0.01502734   -0.00000000
     atom    2 type  1   force =     0.00000000   -0.03005468   -0.00000000
     atom    3 type  1   force =    -0.02602812    0.01502734   -0.00000000
     atom    4 type  1   force =     0.00000000   -0.00000000    0.37522237
     atom    5 type  1   force =     0.00000000   -0.00000000   -0.37522237
     atom    6 type  1   force =     0.00000004   -0.00000002    0.00000000
     atom    7 type  2   force =    -0.00000005    0.00000003    0.00000000
     The local contribution  to forces
     atom    1 type  1   force =    -0.03979968   -0.02297729    0.00000000
     atom    2 type  1   force =     0.00000093    0.04595618    0.00000000
     atom    3 type  1   force =     0.03979875   -0.02297889    0.00000000
     atom    4 type  1   force =     0.00000000    0.00000000   -0.39627456
     atom    5 type  1   force =     0.00000000    0.00000000    0.39627456
     atom    6 type  1   force =     0.00000093   -0.00000054    0.00000000
     atom    7 type  2   force =    -0.00000002    0.00000001   -0.00000000
     The core correction contribution to forces
     atom    1 type  1   force =     0.00000000    0.00000000    0.00000000
     atom    2 type  1   force =     0.00000000    0.00000000    0.00000000
     atom    3 type  1   force =     0.00000000    0.00000000    0.00000000
     atom    4 type  1   force =     0.00000000    0.00000000    0.00000000
     atom    5 type  1   force =     0.00000000    0.00000000    0.00000000
     atom    6 type  1   force =     0.00000000    0.00000000    0.00000000
     atom    7 type  2   force =     0.00000000   -0.00000000   -0.00000000
     The Hubbard contrib.    to forces
     atom    1 type  1   force =     0.00000000    0.00000000    0.00000000
     atom    2 type  1   force =     0.00000000    0.00000000    0.00000000
     atom    3 type  1   force =     0.00000000    0.00000000    0.00000000
     atom    4 type  1   force =     0.00000000    0.00000000    0.00000000
     atom    5 type  1   force =     0.00000000    0.00000000    0.00000000
     atom    6 type  1   force =     0.00000000    0.00000000    0.00000000
     atom    7 type  2   force =     0.00000000    0.00000000    0.00000000
     The SCF correction term to forces
     atom    1 type  1   force =    -0.00000455   -0.00000263    0.00000000
     atom    2 type  1   force =     0.00000000    0.00000525    0.00000000
     atom    3 type  1   force =     0.00000455   -0.00000263    0.00000000
     atom    4 type  1   force =     0.00000000   -0.00000000    0.00000513
     atom    5 type  1   force =     0.00000000   -0.00000000   -0.00000513
     atom    6 type  1   force =     0.00000000   -0.00000000    0.00000000
     atom    7 type  2   force =    -0.00000000    0.00000000   -0.00000000

     Total force =     0.070181     Total SCF correction =     0.000012


     Computing stress (Cartesian axis) and pressure

          total   stress  (Ry/bohr**3)                   (kbar)     P=       14.15
   0.00015848   0.00000000   0.00000000           23.31        0.00        0.00
   0.00000000   0.00015848  -0.00000000            0.00       23.31       -0.00
   0.00000000   0.00000000  -0.00002836            0.00        0.00       -4.17


     BFGS Geometry Optimization
     Energy error            =      0.0E+00 Ry
     Gradient error          =      3.6E-02 Ry/Bohr
     Cell gradient error     =      5.0E+02 kbar

     number of scf cycles    =   1
     number of bfgs steps    =   0

     enthalpy           new  =     -92.4335237529 Ry

     new trust radius        =       0.4622019761 bohr
ibrav =      4
 celldm(1) =      8.65996910
 celldm(3) =      0.99875401
Input lattice vectors:
     0.91898865     0.00000000     0.00000000
    -0.45949432     0.79586751     0.00000000
     0.00000000    -0.00000000     0.91784359
New lattice vectors in INITIAL alat:
     0.91898865     0.00000000     0.00000000
    -0.45949432     0.79586751     0.00000000
     0.00000000     0.00000000     0.91784359
New lattice vectors in NEW alat (for information only):
     1.00000000     0.00000000     0.00000000
    -0.50000000     0.86602540     0.00000000
     0.00000000     0.00000000     0.99875401
Discrepancy in bohr =     0.000000    0.000000    0.000000
     new conv_thr            =       0.0000000100 Ry

     new unit-cell volume =    561.74368 a.u.^3 (    83.24182 Ang^3 )
     density =      1.39103 g/cm^3

CELL_PARAMETERS (alat=  9.42336898)
   0.918988647   0.000000000   0.000000000
  -0.459494323   0.795867514   0.000000000
   0.000000000   0.000000000   0.917843593

ATOMIC_POSITIONS (crystal)
Li            0.0000709881        0.5000354891        0.0000000000
Li            0.4999645009        0.9999290119        0.0000000000
Li            0.4999645109        0.5000354991       -0.0000000000
Li           -0.0000000000       -0.0000000000        0.2528380558
Li            0.0000000000       -0.0000000000        0.7471619442
Li            0.3333333300        0.6666666700        0.5000000000
Si            0.6666666700        0.3333333300        0.5000000000



     Writing config-only to output data dir ./output/LiSi.save/
     NEW-OLD atomic charge density approx. for the potential
     extrapolated charge   15.51741, renormalised to   22.00000

     total cpu time spent up to now is       13.0 secs

     Self-consistent Calculation

     iteration #  1     ecut=    80.00 Ry     beta= 0.70
     Davidson diagonalization with overlap
     c_bands:  1 eigenvalues not converged
     c_bands:  1 eigenvalues not converged
     ethr =  1.00E-06,  avg # of iterations = 12.0

     total cpu time spent up to now is       15.4 secs

     total energy              =     -94.28763665 Ry
     estimated scf accuracy    <       0.42103354 Ry

     iteration #  2     ecut=    80.00 Ry     beta= 0.70
     Davidson diagonalization with overlap
     ethr =  1.91E-03,  avg # of iterations =  3.5

     total cpu time spent up to now is       16.5 secs

     total energy              =     -94.79562989 Ry
     estimated scf accuracy    <       0.77811789 Ry

     iteration #  3     ecut=    80.00 Ry     beta= 0.70
     Davidson diagonalization with overlap
     ethr =  1.91E-03,  avg # of iterations =  2.0

     total cpu time spent up to now is       17.3 secs

     total energy              =     -94.83908621 Ry
     estimated scf accuracy    <       0.08142631 Ry

     iteration #  4     ecut=    80.00 Ry     beta= 0.70
     Davidson diagonalization with overlap
     ethr =  3.70E-04,  avg # of iterations =  2.4

     total cpu time spent up to now is       18.1 secs

     total energy              =     -94.84286254 Ry
     estimated scf accuracy    <       0.01259445 Ry

     iteration #  5     ecut=    80.00 Ry     beta= 0.70
     Davidson diagonalization with overlap
     ethr =  5.72E-05,  avg # of iterations =  2.5

     total cpu time spent up to now is       18.9 secs

     total energy              =     -94.84363220 Ry
     estimated scf accuracy    <       0.00141777 Ry

     iteration #  6     ecut=    80.00 Ry     beta= 0.70
     Davidson diagonalization with overlap
     ethr =  6.44E-06,  avg # of iterations =  4.0

     total cpu time spent up to now is       19.9 secs

     total energy              =     -94.84381106 Ry
     estimated scf accuracy    <       0.00004424 Ry

     iteration #  7     ecut=    80.00 Ry     beta= 0.70
     Davidson diagonalization with overlap
     ethr =  2.01E-07,  avg # of iterations =  2.8

     total cpu time spent up to now is       20.7 secs

     total energy              =     -94.84382493 Ry
     estimated scf accuracy    <       0.00000208 Ry

     iteration #  8     ecut=    80.00 Ry     beta= 0.70
     Davidson diagonalization with overlap
     ethr =  9.46E-09,  avg # of iterations =  2.2

     total cpu time spent up to now is       21.5 secs

     total energy              =     -94.84382493 Ry
     estimated scf accuracy    <       0.00000044 Ry

     iteration #  9     ecut=    80.00 Ry     beta= 0.70
     Davidson diagonalization with overlap
     ethr =  2.00E-09,  avg # of iterations =  2.1

     total cpu time spent up to now is       22.4 secs

     total energy              =     -94.84382505 Ry
     estimated scf accuracy    <       0.00000004 Ry

     iteration # 10     ecut=    80.00 Ry     beta= 0.70
     Davidson diagonalization with overlap
     ethr =  1.93E-10,  avg # of iterations =  2.1

     total cpu time spent up to now is       23.2 secs

     End of self-consistent calculation

          k = 0.0000 0.0000 0.0000 (  8757 PWs)   bands (ev):

   -41.6660 -41.5481 -41.4645 -41.4624 -41.4624 -41.1867  -3.4296   2.1998
     3.5686   3.7252   3.7252   5.0680   5.2769   5.2769   9.2605

          k = 0.0000 0.0000 0.1556 (  8757 PWs)   bands (ev):

   -41.6636 -41.5456 -41.4692 -41.4624 -41.4624 -41.1869  -3.3955   1.6909
     3.8077   3.8077   3.9397   5.2961   5.2961   5.4832   8.5368

          k = 0.0000 0.0000 0.3113 (  8811 PWs)   bands (ev):

   -41.6581 -41.5384 -41.4815 -41.4624 -41.4624 -41.1875  -3.3130   0.9986
     4.0033   4.0033   4.2847   5.4095   5.4095   6.6100   7.7534

          k = 0.0000 0.0000 0.4669 (  8847 PWs)   bands (ev):

   -41.6537 -41.5286 -41.4954 -41.4624 -41.4624 -41.1880  -3.2401   0.5879
     4.1622   4.1622   4.4649   5.7083   5.7083   6.9966   6.9966

          k = 0.0000 0.1795 0.0000 (  8789 PWs)   bands (ev):

   -41.6574 -41.5492 -41.4700 -41.4645 -41.4625 -41.1866  -3.3498   2.3144
     2.6036   3.3209   3.9997   4.8960   5.9369   6.1437   8.4442

          k = 0.0000 0.1795 0.1556 (  8787 PWs)   bands (ev):

   -41.6550 -41.5467 -41.4706 -41.4687 -41.4625 -41.1869  -3.3150   1.7888
     2.7668   3.3993   4.2772   5.1900   5.9108   6.0638   8.2130

          k = 0.0000 0.1795 0.3113 (  8811 PWs)   bands (ev):

   -41.6494 -41.5392 -41.4821 -41.4697 -41.4625 -41.1876  -3.2308   1.1034
     3.0203   3.5986   4.4905   5.2498   5.8521   6.6503   7.9002

          k = 0.0000 0.1795 0.4669 (  8808 PWs)   bands (ev):

   -41.6449 -41.5288 -41.4968 -41.4697 -41.4625 -41.1881  -3.1563   0.6935
     3.3113   3.7915   4.3241   5.3096   5.8045   6.8431   7.6105

          k = 0.0000 0.3590 0.0000 (  8785 PWs)   bands (ev):

   -41.6338 -41.5543 -41.4889 -41.4645 -41.4626 -41.1866  -3.1452   1.4917
     2.6277   2.8000   4.0748   4.9433   6.9103   6.9418   7.1718

          k = 0.0000 0.3590 0.1556 (  8800 PWs)   bands (ev):

   -41.6312 -41.5516 -41.4894 -41.4690 -41.4626 -41.1869  -3.1087   1.5487
     2.1873   2.8741   4.2879   4.9173   6.3342   6.8924   8.1280

          k = 0.0000 0.3590 0.3113 (  8792 PWs)   bands (ev):

   -41.6253 -41.5433 -41.4930 -41.4790 -41.4626 -41.1876  -3.0205   1.3752
     1.9066   3.0658   4.1783   4.6755   6.3023   6.7245   8.5798

          k = 0.0000 0.3590 0.4669 (  8783 PWs)   bands (ev):

   -41.6206 -41.5302 -41.5060 -41.4835 -41.4626 -41.1882  -2.9424   0.9986
     2.1441   3.2586   3.6076   4.8994   5.8402   6.6400   9.4262

          k = 0.0000 0.5385 0.0000 (  8782 PWs)   bands (ev):

   -41.6019 -41.5695 -41.5059 -41.4645 -41.4627 -41.1865  -2.9443   0.7961
     2.5131   2.9811   4.1109   5.0181   5.9669   6.9713   8.3364

          k = 0.0000 0.5385 0.1556 (  8795 PWs)   bands (ev):

   -41.5986 -41.5673 -41.5066 -41.4690 -41.4627 -41.1869  -2.9064   0.8760
     2.5434   2.5843   4.1601   4.4969   6.4371   7.4040   7.6609

          k = 0.0000 0.5385 0.3113 (  8784 PWs)   bands (ev):

   -41.5918 -41.5590 -41.5101 -41.4798 -41.4627 -41.1877  -2.8149   1.1002
     1.8665   2.7687   3.4521   4.5612   6.4273   6.7336   8.9947

          k = 0.0000 0.5385 0.4669 (  8767 PWs)   bands (ev):

   -41.5876 -41.5437 -41.5210 -41.4880 -41.4627 -41.1884  -2.7341   1.3619
     1.4584   2.8253   2.9529   4.7687   5.8329   6.5269  10.6322

          k = 0.1555 0.2692 0.0000 (  8809 PWs)   bands (ev):

   -41.6413 -41.5518 -41.4845 -41.4645 -41.4619 -41.1866  -3.2064   1.8598
     2.5310   2.6328   4.3095   5.0483   6.3769   6.9975   7.3118

          k = 0.1555 0.2692 0.1556 (  8794 PWs)   bands (ev):

   -41.6387 -41.5492 -41.4844 -41.4701 -41.4612 -41.1869  -3.1703   1.8221
     2.1933   2.7147   4.5695   5.1449   6.1553   6.4814   8.3319

          k = 0.1555 0.2692 0.3113 (  8807 PWs)   bands (ev):

   -41.6330 -41.5412 -41.4843 -41.4836 -41.4610 -41.1876  -3.0833   1.2993
     2.2674   2.9368   4.4099   5.0478   5.8072   7.0974   8.1885

          k = 0.1555 0.2692 0.4669 (  8786 PWs)   bands (ev):

   -41.6284 -41.5293 -41.5000 -41.4842 -41.4609 -41.1882  -3.0062   0.9000
     2.5287   3.1865   3.9326   4.7295   6.0449   7.4418   7.6366

          k = 0.1555 0.4487 0.0000 (  8804 PWs)   bands (ev):

   -41.6133 -41.5590 -41.5069 -41.4645 -41.4607 -41.1866  -2.9943   1.1033
     2.1087   2.8905   4.5211   5.2510   6.1952   6.9341   7.4751

          k = 0.1555 0.4487 0.1556 (  8787 PWs)   bands (ev):

   -41.6104 -41.5564 -41.5069 -41.4709 -41.4594 -41.1869  -2.9567   1.1796
     2.1816   2.4542   4.4882   4.9983   6.0530   7.1923   8.0514

          k = 0.1555 0.4487 0.3113 (  8782 PWs)   bands (ev):

   -41.6039 -41.5479 -41.5077 -41.4852 -41.4587 -41.1877  -2.8660   1.3700
     1.7883   2.4157   3.8301   4.6413   6.1306   7.6491   8.7889

          k = 0.1555 0.4487 0.4669 (  8782 PWs)   bands (ev):

   -41.5990 -41.5328 -41.5143 -41.4983 -41.4585 -41.1883  -2.7857   1.2756
     1.7296   2.6641   3.2298   4.2377   6.4429   7.3933   9.0462

          k = 0.1555 0.6282 0.0000 (  8794 PWs)   bands (ev):

   -41.5884 -41.5728 -41.5186 -41.4645 -41.4602 -41.1865  -2.8827   0.7777
     1.9457   3.1137   4.5905   5.3149   5.6990   6.9151   8.0224

          k = 0.1555 0.6282 0.1556 (  8781 PWs)   bands (ev):

   -41.5831 -41.5726 -41.5187 -41.4712 -41.4587 -41.1869  -2.8444   0.8583
     2.0211   2.7015   4.2331   4.8749   6.1317   7.4956   8.0159

          k = 0.1555 0.6282 0.3113 (  8770 PWs)   bands (ev):

   -41.5721 -41.5685 -41.5194 -41.4858 -41.4578 -41.1877  -2.7522   1.0860
     1.9984   2.2654   3.3952   4.5201   6.2624   7.9108   9.0837

          k = 0.1555 0.6282 0.4669 (  8774 PWs)   bands (ev):

   -41.5717 -41.5501 -41.5234 -41.5003 -41.4575 -41.1884  -2.6707   1.3697
     1.5875   2.4932   2.7617   4.1092   6.5806   7.3670  10.2540

          k = 0.3109 0.5385 0.0000 (  8809 PWs)   bands (ev):

   -41.5889 -41.5595 -41.5336 -41.4645 -41.4581 -41.1865  -2.8558   0.9892
     1.4121   3.1821   4.7711   5.5779   6.0577   6.8751   7.3156

          k = 0.3109 0.5385 0.1556 (  8801 PWs)   bands (ev):

   -41.5843 -41.5583 -41.5335 -41.4722 -41.4559 -41.1869  -2.8174   1.0698
     1.4929   2.7640   4.4093   4.8800   6.5437   7.5283   7.6751

          k = 0.3109 0.5385 0.3113 (  8772 PWs)   bands (ev):

   -41.5742 -41.5525 -41.5331 -41.4893 -41.4544 -41.1877  -2.7248   1.2952
     1.7190   2.0856   3.6427   4.0647   7.0682   8.2681   9.0074

          k = 0.3109 0.5385 0.4669 (  8779 PWs)   bands (ev):

   -41.5684 -41.5359 -41.5328 -41.5121 -41.4539 -41.1884  -2.6431   1.5631
     1.6625   1.9945   3.0333   3.4718   7.6029   8.7717   9.0999

     the Fermi energy is     4.4525 ev

!    total energy              =     -94.84382506 Ry
     estimated scf accuracy    <          9.0E-10 Ry
     smearing contrib. (-TS)   =      -0.00114331 Ry
     internal energy E=F+TS    =     -94.84268175 Ry

     The total energy is F=E-TS. E is the sum of the following terms:
     one-electron contribution =     -43.89164471 Ry
     hartree contribution      =      19.04381625 Ry
     xc contribution           =     -23.67887219 Ry
     ewald contribution        =     -46.31598110 Ry

     convergence has been achieved in  10 iterations

     Forces acting on atoms (cartesian axes, Ry/au):

     atom    1 type  1   force =    -0.02364587   -0.01365195    0.00000000
     atom    2 type  1   force =     0.00000000    0.02730389    0.00000000
     atom    3 type  1   force =     0.02364587   -0.01365195   -0.00000000
     atom    4 type  1   force =     0.00000000   -0.00000000    0.04955288
     atom    5 type  1   force =    -0.00000000   -0.00000000   -0.04955288
     atom    6 type  1   force =     0.00000000    0.00000000    0.00000000
     atom    7 type  2   force =    -0.00000000   -0.00000000    0.00000000
     The non-local contrib.  to forces
     atom    1 type  1   force =    -0.00587514   -0.00339201    0.00000000
     atom    2 type  1   force =     0.00000000    0.00678403    0.00000000
     atom    3 type  1   force =     0.00587514   -0.00339201    0.00000000
     atom    4 type  1   force =     0.00000000    0.00000000    0.06338053
     atom    5 type  1   force =    -0.00000000   -0.00000000   -0.06338053
     atom    6 type  1   force =     0.00000000    0.00000000    0.00000000
     atom    7 type  2   force =     0.00000000    0.00000000    0.00000000
     The ionic contribution  to forces
     atom    1 type  1   force =     0.09146013    0.05280454   -0.00000000
     atom    2 type  1   force =     0.00000000   -0.10560907   -0.00000000
     atom    3 type  1   force =    -0.09146014    0.05280453   -0.00000000
     atom    4 type  1   force =     0.00000000   -0.00000000    0.37364609
     atom    5 type  1   force =     0.00000000   -0.00000000   -0.37364609
     atom    6 type  1   force =     0.00000005   -0.00000003    0.00000000
     atom    7 type  2   force =    -0.00000006    0.00000003    0.00000000
     The local contribution  to forces
     atom    1 type  1   force =    -0.10922864   -0.06306221    0.00000000
     atom    2 type  1   force =     0.00000085    0.12612588    0.00000000
     atom    3 type  1   force =     0.10922780   -0.06306368    0.00000000
     atom    4 type  1   force =    -0.00000000    0.00000000   -0.38749149
     atom    5 type  1   force =    -0.00000000    0.00000000    0.38749149
     atom    6 type  1   force =     0.00000085   -0.00000049    0.00000000
     atom    7 type  2   force =    -0.00000001    0.00000001   -0.00000000
     The core correction contribution to forces
     atom    1 type  1   force =     0.00000000    0.00000000    0.00000000
     atom    2 type  1   force =     0.00000000    0.00000000    0.00000000
     atom    3 type  1   force =     0.00000000    0.00000000    0.00000000
     atom    4 type  1   force =     0.00000000    0.00000000    0.00000000
     atom    5 type  1   force =     0.00000000    0.00000000    0.00000000
     atom    6 type  1   force =     0.00000000    0.00000000    0.00000000
     atom    7 type  2   force =     0.00000000   -0.00000000   -0.00000000
     The Hubbard contrib.    to forces
     atom    1 type  1   force =     0.00000000    0.00000000    0.00000000
     atom    2 type  1   force =     0.00000000    0.00000000    0.00000000
     atom    3 type  1   force =     0.00000000    0.00000000    0.00000000
     atom    4 type  1   force =     0.00000000    0.00000000    0.00000000
     atom    5 type  1   force =     0.00000000    0.00000000    0.00000000
     atom    6 type  1   force =     0.00000000    0.00000000    0.00000000
     atom    7 type  2   force =     0.00000000    0.00000000    0.00000000
     The SCF correction term to forces
     atom    1 type  1   force =    -0.00000264   -0.00000153    0.00000000
     atom    2 type  1   force =     0.00000000    0.00000305   -0.00000000
     atom    3 type  1   force =     0.00000264   -0.00000153   -0.00000000
     atom    4 type  1   force =     0.00000000   -0.00000000    0.00001775
     atom    5 type  1   force =     0.00000000   -0.00000000   -0.00001775
     atom    6 type  1   force =     0.00000000   -0.00000000   -0.00000000
     atom    7 type  2   force =    -0.00000000    0.00000000    0.00000000

     Total force =     0.084543     Total SCF correction =     0.000026


     Computing stress (Cartesian axis) and pressure

          total   stress  (Ry/bohr**3)                   (kbar)     P=      126.99
   0.00092323   0.00000000   0.00000000          135.81        0.00        0.00
   0.00000000   0.00092323  -0.00000000            0.00      135.81       -0.00
   0.00000000  -0.00000000   0.00074330            0.00       -0.00      109.34

     Energy error            =      5.0E-01 Ry
     Gradient error          =      5.0E-02 Ry/Bohr
     Cell gradient error     =      3.9E+02 kbar

     number of scf cycles    =   2
     number of bfgs steps    =   1

     enthalpy           old  =     -92.4335237529 Ry
     enthalpy           new  =     -92.9344971014 Ry

     CASE: enthalpy          _new < enthalpy          _old

     new trust radius        =       0.6663227674 bohr
ibrav =      4
 celldm(1) =      7.53646444
 celldm(3) =      0.98632239
Input lattice vectors:
     0.79976328     0.00000000     0.00000000
    -0.39988164     0.69261531    -0.00000000
     0.00000000    -0.00000000     0.78882442
New lattice vectors in INITIAL alat:
     0.79976328     0.00000000     0.00000000
    -0.39988164     0.69261531     0.00000000
     0.00000000     0.00000000     0.78882442
New lattice vectors in NEW alat (for information only):
     1.00000000     0.00000000     0.00000000
    -0.50000000     0.86602540     0.00000000
     0.00000000     0.00000000     0.98632239
Discrepancy in bohr =     0.000000    0.000000    0.000000
     new conv_thr            =       0.0000000050 Ry

     new unit-cell volume =    365.63898 a.u.^3 (    54.18211 Ang^3 )
     density =      2.13709 g/cm^3

CELL_PARAMETERS (alat=  9.42336898)
   0.799763276   0.000000000   0.000000000
  -0.399881638   0.692615314   0.000000000
   0.000000000   0.000000000   0.788824424

ATOMIC_POSITIONS (crystal)
Li           -0.0069608021        0.4965195940        0.0000000000
Li            0.5034803960        1.0069608021        0.0000000000
Li            0.5034804060        0.4965196040       -0.0000000000
Li           -0.0000000000       -0.0000000000        0.2637742297
Li           -0.0000000000       -0.0000000000        0.7362257703
Li            0.3333333300        0.6666666700        0.5000000000
Si            0.6666666700        0.3333333300        0.5000000000



     Writing config-only to output data dir ./output/LiSi.save/
     NEW-OLD atomic charge density approx. for the potential

     negative rho (up, down):  1.432E-02 0.000E+00
     extrapolated charge   10.21565, renormalised to   22.00000

     total cpu time spent up to now is       26.5 secs

     Self-consistent Calculation

     iteration #  1     ecut=    80.00 Ry     beta= 0.70
     Davidson diagonalization with overlap
     ethr =  1.00E-06,  avg # of iterations = 13.2

     negative rho (up, down):  8.722E-06 0.000E+00

     total cpu time spent up to now is       29.0 secs

     total energy              =     -92.91764459 Ry
     estimated scf accuracy    <       2.34562562 Ry

     iteration #  2     ecut=    80.00 Ry     beta= 0.70
     Davidson diagonalization with overlap
     ethr =  1.00E-02,  avg # of iterations =  2.6

     total cpu time spent up to now is       30.0 secs

     total energy              =     -94.19759564 Ry
     estimated scf accuracy    <       1.95417378 Ry

     iteration #  3     ecut=    80.00 Ry     beta= 0.70
     Davidson diagonalization with overlap
     ethr =  8.88E-03,  avg # of iterations =  2.0

     total cpu time spent up to now is       30.8 secs

     total energy              =     -94.39498934 Ry
     estimated scf accuracy    <       0.09764447 Ry

     iteration #  4     ecut=    80.00 Ry     beta= 0.70
     Davidson diagonalization with overlap
     ethr =  4.44E-04,  avg # of iterations =  2.8

     total cpu time spent up to now is       31.6 secs

     total energy              =     -94.41906160 Ry
     estimated scf accuracy    <       0.01529643 Ry

     iteration #  5     ecut=    80.00 Ry     beta= 0.70
     Davidson diagonalization with overlap
     ethr =  6.95E-05,  avg # of iterations =  2.2

     total cpu time spent up to now is       32.4 secs

     total energy              =     -94.42090327 Ry
     estimated scf accuracy    <       0.00125840 Ry

     iteration #  6     ecut=    80.00 Ry     beta= 0.70
     Davidson diagonalization with overlap
     ethr =  5.72E-06,  avg # of iterations =  3.8

     total cpu time spent up to now is       33.3 secs

     total energy              =     -94.42108824 Ry
     estimated scf accuracy    <       0.00001809 Ry

     iteration #  7     ecut=    80.00 Ry     beta= 0.70
     Davidson diagonalization with overlap
     ethr =  8.22E-08,  avg # of iterations =  3.0

     total cpu time spent up to now is       34.1 secs

     total energy              =     -94.42109203 Ry
     estimated scf accuracy    <       0.00000042 Ry

     iteration #  8     ecut=    80.00 Ry     beta= 0.70
     Davidson diagonalization with overlap
     ethr =  1.93E-09,  avg # of iterations =  2.3

     total cpu time spent up to now is       34.9 secs

     total energy              =     -94.42109214 Ry
     estimated scf accuracy    <          8.4E-09 Ry

     iteration #  9     ecut=    80.00 Ry     beta= 0.70
     Davidson diagonalization with overlap
     ethr =  3.80E-11,  avg # of iterations =  2.8

     total cpu time spent up to now is       35.7 secs

     End of self-consistent calculation

          k = 0.0000 0.0000 0.0000 (  8757 PWs)   bands (ev):

   -38.5354 -38.1048 -37.8680 -37.8680 -37.7794 -37.4462  -0.9091   4.8379
     6.6713   6.6713   7.6176   8.6948   8.6948   8.6970  15.9920

          k = 0.0000 0.0000 0.1811 (  8757 PWs)   bands (ev):

   -38.5251 -38.1006 -37.8679 -37.8679 -37.7933 -37.4476  -0.9130   4.5404
     6.8204   6.8204   7.6878   8.6459   8.6459   9.2810  14.6048

          k = 0.0000 0.0000 0.3622 (  8811 PWs)   bands (ev):

   -38.5009 -38.0903 -37.8678 -37.8678 -37.8265 -37.4511  -0.9222   4.0548
     7.1966   7.1966   7.7345   8.6343   8.6343  10.7342  11.9183

          k = 0.0000 0.0000 0.5433 (  8847 PWs)   bands (ev):

   -38.4800 -38.0806 -37.8677 -37.8677 -37.8557 -37.4540  -0.9300   3.7600
     7.5013   7.5013   7.7466   9.0295   9.0295  10.3492  10.3492

          k = 0.0000 0.2063 0.0000 (  8789 PWs)   bands (ev):

   -38.5070 -38.1100 -37.8930 -37.8684 -37.7793 -37.4456  -0.8257   4.9815
     5.6693   6.1510   7.6637   8.5736   9.5754   9.9168  12.8641

          k = 0.0000 0.2063 0.1811 (  8787 PWs)   bands (ev):

   -38.4968 -38.1051 -37.8929 -37.8683 -37.7936 -37.4474  -0.8262   4.6714
     5.7858   6.2664   7.7514   8.9239   9.4925   9.7845  13.1136

          k = 0.0000 0.2063 0.3622 (  8811 PWs)   bands (ev):

   -38.4729 -38.0926 -37.8933 -37.8682 -37.8276 -37.4515  -0.8277   4.1687
     6.0838   6.5605   7.8437   8.7680   9.3482  10.5269  12.2521

          k = 0.0000 0.2063 0.5433 (  8808 PWs)   bands (ev):

   -38.4523 -38.0798 -37.8956 -37.8681 -37.8564 -37.4550  -0.8290   3.8625
     6.4283   6.8449   7.6320   8.7803   9.3090  10.5994  11.2353

          k = 0.0000 0.4125 0.0000 (  8785 PWs)   bands (ev):

   -38.4279 -38.1338 -37.9524 -37.8692 -37.7791 -37.4445  -0.6105   4.3683
     5.3790   5.4833   7.7383   8.6166  10.8268  11.2894  11.3008

          k = 0.0000 0.4125 0.1811 (  8800 PWs)   bands (ev):

   -38.4181 -38.1266 -37.9533 -37.8691 -37.7937 -37.4469  -0.6021   4.4519
     5.0587   5.5750   7.8266   8.4960  10.3387  10.8547  12.6567

          k = 0.0000 0.4125 0.3622 (  8792 PWs)   bands (ev):

   -38.3951 -38.1059 -37.9586 -37.8690 -37.8283 -37.4525  -0.5826   4.4765
     4.7327   5.8095   7.5609   8.2143  10.0597  10.7837  13.9588

          k = 0.0000 0.4125 0.5433 (  8783 PWs)   bands (ev):

   -38.3759 -38.0800 -37.9718 -37.8689 -37.8569 -37.4573  -0.5663   4.1597
     4.9864   6.0396   6.9391   8.3999   9.4870  10.8481  13.3454

          k = 0.0000 0.6188 0.0000 (  8782 PWs)   bands (ev):

   -38.3174 -38.2018 -37.9982 -37.8698 -37.7789 -37.4436  -0.3968   3.5683
     5.1164   5.8383   7.7686   8.6869   9.5227  11.9675  13.1335

          k = 0.0000 0.6188 0.1811 (  8795 PWs)   bands (ev):

   -38.3081 -38.1919 -38.0005 -37.8698 -37.7936 -37.4466  -0.3790   3.6421
     5.1975   5.5145   7.6064   8.1191  10.2787  11.5404  12.7134

          k = 0.0000 0.6188 0.3622 (  8784 PWs)   bands (ev):

   -38.2894 -38.1590 -38.0123 -37.8696 -37.8284 -37.4534  -0.3371   3.8422
     4.9402   5.4035   6.7610   8.1655  10.2956  10.8953  14.3724

          k = 0.0000 0.6188 0.5433 (  8767 PWs)   bands (ev):

   -38.2769 -38.1040 -38.0468 -37.8695 -37.8572 -37.4591  -0.3014   4.0660
     4.5626   5.6027   6.1369   8.3227   9.5702  10.9083  16.2877

          k = 0.1786 0.3094 0.0000 (  8809 PWs)   bands (ev):

   -38.4532 -38.1223 -37.9406 -37.8659 -37.7792 -37.4448  -0.6749   4.8119
     5.2561   5.3683   8.0883   8.5122  10.4187  11.1962  11.2989

          k = 0.1786 0.3094 0.1811 (  8794 PWs)   bands (ev):

   -38.4432 -38.1160 -37.9399 -37.8675 -37.7931 -37.4470  -0.6692   4.8483
     4.9933   5.4680   8.1190   8.6788   9.9911  10.4953  12.8182

          k = 0.1786 0.3094 0.3622 (  8807 PWs)   bands (ev):

   -38.4199 -38.0987 -37.9384 -37.8759 -37.8232 -37.4522  -0.6562   4.3885
     5.1788   5.7295   7.8047   8.5716   9.4496  11.1234  13.0197

          k = 0.1786 0.3094 0.5433 (  8786 PWs)   bands (ev):

   -38.4001 -38.0791 -37.9384 -37.8952 -37.8404 -37.4566  -0.6454   4.0640
     5.4670   6.0107   7.2706   8.1983   9.6561  11.5383  11.9380

          k = 0.1786 0.5156 0.0000 (  8804 PWs)   bands (ev):

   -38.3578 -38.1574 -38.0098 -37.8613 -37.7789 -37.4437  -0.4494   3.9078
     4.7944   5.7244   8.1851   8.8612   9.7774  11.4441  12.3715

          k = 0.1786 0.5156 0.1811 (  8787 PWs)   bands (ev):

   -38.3481 -38.1488 -38.0092 -37.8657 -37.7914 -37.4466  -0.4341   3.9869
     4.8788   5.3906   7.9725   8.5555   9.8131  11.5388  12.9806

          k = 0.1786 0.5156 0.3622 (  8782 PWs)   bands (ev):

   -38.3263 -38.1221 -38.0098 -37.8854 -37.8147 -37.4532  -0.3982   4.2002
     4.8099   5.1142   7.1855   8.1299   9.9467  11.9289  13.8377

          k = 0.1786 0.5156 0.5433 (  8782 PWs)   bands (ev):

   -38.3092 -38.0830 -38.0198 -37.9165 -37.8258 -37.4587  -0.3677   4.4091
     4.4756   5.3532   6.5550   7.6914  10.2640  11.8159  13.8197

          k = 0.1786 0.7219 0.0000 (  8794 PWs)   bands (ev):

   -38.2590 -38.2294 -38.0406 -37.8593 -37.7789 -37.4433  -0.3294   3.5234
     4.6144   6.0273   8.1445   9.0702   9.0979  11.8669  13.2032

          k = 0.1786 0.7219 0.1811 (  8781 PWs)   bands (ev):

   -38.2495 -38.2197 -38.0401 -37.8649 -37.7905 -37.4465  -0.3087   3.5962
     4.6954   5.7005   7.6147   8.4603   9.8683  12.3275  12.5929

          k = 0.1786 0.7219 0.3622 (  8770 PWs)   bands (ev):

   -38.2395 -38.1781 -38.0420 -37.8886 -37.8111 -37.4537  -0.2597   3.7925
     4.9070   5.1135   6.6989   8.0071  10.2009  12.2840  13.9842

          k = 0.1786 0.7219 0.5433 (  8774 PWs)   bands (ev):

   -38.2356 -38.1166 -38.0591 -37.9229 -37.8206 -37.4596  -0.2177   4.0082
     4.7184   5.1388   6.0792   7.5675  10.5344  11.8494  15.2520

          k = 0.3572 0.6188 0.0000 (  8809 PWs)   bands (ev):

   -38.2630 -38.1827 -38.0927 -37.8506 -37.7788 -37.4432  -0.2988   3.7223
     4.1029   6.1368   8.2713   8.8679  10.0121  11.3149  12.6139

          k = 0.3572 0.6188 0.1811 (  8801 PWs)   bands (ev):

   -38.2521 -38.1746 -38.0902 -37.8611 -37.7873 -37.4464  -0.2769   3.7995
     4.1796   5.7914   7.8226   8.2922  10.4514  11.7831  13.1352

          k = 0.3572 0.6188 0.3622 (  8772 PWs)   bands (ev):

   -38.2324 -38.1428 -38.0844 -37.9001 -37.7999 -37.4538  -0.2250   4.0050
     4.3885   5.1795   6.9735   7.4568  11.0898  12.6962  14.0689

          k = 0.3572 0.6188 0.5433 (  8779 PWs)   bands (ev):

   -38.2224 -38.0908 -38.0778 -37.9588 -37.8052 -37.4598  -0.1804   4.2248
     4.6241   4.7788   6.3541   6.8699  11.7283  13.4365  14.0976

     the Fermi energy is     7.9371 ev

!    total energy              =     -94.42109214 Ry
     estimated scf accuracy    <          9.9E-10 Ry
     smearing contrib. (-TS)   =      -0.00038763 Ry
     internal energy E=F+TS    =     -94.42070450 Ry

     The total energy is F=E-TS. E is the sum of the following terms:
     one-electron contribution =     -33.42112886 Ry
     hartree contribution      =      16.95353126 Ry
     xc contribution           =     -24.48310292 Ry
     ewald contribution        =     -53.47000398 Ry

     convergence has been achieved in   9 iterations

     Forces acting on atoms (cartesian axes, Ry/au):

     atom    1 type  1   force =     0.00341037    0.00196898    0.00000000
     atom    2 type  1   force =    -0.00000000   -0.00393796   -0.00000000
     atom    3 type  1   force =    -0.00341037    0.00196898    0.00000000
     atom    4 type  1   force =     0.00000000   -0.00000000    0.05895575
     atom    5 type  1   force =     0.00000000    0.00000000   -0.05895575
     atom    6 type  1   force =     0.00000000    0.00000000    0.00000000
     atom    7 type  2   force =    -0.00000000   -0.00000000    0.00000000
     The non-local contrib.  to forces
     atom    1 type  1   force =     0.00818882    0.00472782    0.00000000
     atom    2 type  1   force =     0.00000000   -0.00945564    0.00000000
     atom    3 type  1   force =    -0.00818882    0.00472782   -0.00000000
     atom    4 type  1   force =     0.00000000    0.00000000    0.08258656
     atom    5 type  1   force =     0.00000000    0.00000000   -0.08258656
     atom    6 type  1   force =     0.00000000    0.00000000    0.00000000
     atom    7 type  2   force =     0.00000000   -0.00000000    0.00000000
     The ionic contribution  to forces
     atom    1 type  1   force =     0.28961276    0.16720801   -0.00000000
     atom    2 type  1   force =    -0.00000000   -0.33441601   -0.00000000
     atom    3 type  1   force =    -0.28961276    0.16720800   -0.00000000
     atom    4 type  1   force =     0.00000000   -0.00000000    0.21895396
     atom    5 type  1   force =     0.00000000   -0.00000000   -0.21895396
     atom    6 type  1   force =     0.00000007   -0.00000004    0.00000000
     atom    7 type  2   force =    -0.00000007    0.00000004    0.00000000
     The local contribution  to forces
     atom    1 type  1   force =    -0.29441024   -0.16997699   -0.00000000
     atom    2 type  1   force =     0.00000073    0.33995524   -0.00000000
     atom    3 type  1   force =     0.29440951   -0.16997825   -0.00000000
     atom    4 type  1   force =    -0.00000000    0.00000000   -0.24260402
     atom    5 type  1   force =    -0.00000000    0.00000000    0.24260402
     atom    6 type  1   force =     0.00000072   -0.00000042    0.00000000
     atom    7 type  2   force =     0.00000001   -0.00000000   -0.00000000
     The core correction contribution to forces
     atom    1 type  1   force =     0.00000000    0.00000000    0.00000000
     atom    2 type  1   force =     0.00000000    0.00000000    0.00000000
     atom    3 type  1   force =     0.00000000    0.00000000    0.00000000
     atom    4 type  1   force =     0.00000000    0.00000000    0.00000000
     atom    5 type  1   force =     0.00000000    0.00000000    0.00000000
     atom    6 type  1   force =     0.00000000    0.00000000    0.00000000
     atom    7 type  2   force =     0.00000000   -0.00000000   -0.00000000
     The Hubbard contrib.    to forces
     atom    1 type  1   force =     0.00000000    0.00000000    0.00000000
     atom    2 type  1   force =     0.00000000    0.00000000    0.00000000
     atom    3 type  1   force =     0.00000000    0.00000000    0.00000000
     atom    4 type  1   force =     0.00000000    0.00000000    0.00000000
     atom    5 type  1   force =     0.00000000    0.00000000    0.00000000
     atom    6 type  1   force =     0.00000000    0.00000000    0.00000000
     atom    7 type  2   force =     0.00000000    0.00000000    0.00000000
     The SCF correction term to forces
     atom    1 type  1   force =     0.00001866    0.00001077    0.00000000
     atom    2 type  1   force =     0.00000000   -0.00002155    0.00000000
     atom    3 type  1   force =    -0.00001866    0.00001077   -0.00000000
     atom    4 type  1   force =     0.00000000   -0.00000000    0.00001925
     atom    5 type  1   force =     0.00000000   -0.00000000   -0.00001925
     atom    6 type  1   force =     0.00000000   -0.00000000    0.00000000
     atom    7 type  2   force =    -0.00000000    0.00000000    0.00000000

     Total force =     0.083655     Total SCF correction =     0.000046


     Computing stress (Cartesian axis) and pressure

          total   stress  (Ry/bohr**3)                   (kbar)     P=      669.85
   0.00444016   0.00000000  -0.00000000          653.17        0.00       -0.00
   0.00000000   0.00444016   0.00000000            0.00      653.17        0.00
   0.00000000   0.00000000   0.00478028            0.00        0.00      703.20

     Energy error            =      2.4E-01 Ry
     Gradient error          =      5.9E-02 Ry/Bohr
     Cell gradient error     =      2.0E+02 kbar

     number of scf cycles    =   3
     number of bfgs steps    =   2

     enthalpy           old  =     -92.9344971014 Ry
     enthalpy           new  =     -93.1783105093 Ry

     CASE: enthalpy          _new < enthalpy          _old

     new trust radius        =       0.1621128642 bohr
ibrav =      4
 celldm(1) =      7.79803487
 celldm(3) =      0.99364562
Input lattice vectors:
     0.82752091     0.00000000     0.00000000
    -0.41376045     0.71665413    -0.00000000
    -0.00000000    -0.00000000     0.82226252
New lattice vectors in INITIAL alat:
     0.82752091     0.00000000     0.00000000
    -0.41376045     0.71665413     0.00000000
     0.00000000     0.00000000     0.82226252
New lattice vectors in NEW alat (for information only):
     1.00000000     0.00000000     0.00000000
    -0.50000000     0.86602540     0.00000000
     0.00000000     0.00000000     0.99364562
Discrepancy in bohr =     0.000000    0.000000    0.000000
     new conv_thr            =       0.0000000059 Ry

     new unit-cell volume =    408.05403 a.u.^3 (    60.46737 Ang^3 )
     density =      1.91495 g/cm^3

CELL_PARAMETERS (alat=  9.42336898)
   0.827520909   0.000000000   0.000000000
  -0.413760455   0.716654130   0.000000000
   0.000000000   0.000000000   0.822262524

ATOMIC_POSITIONS (crystal)
Li           -0.0057504883        0.4971247509        0.0000000000
Li            0.5028752391        1.0057504883        0.0000000000
Li            0.5028752491        0.4971247609       -0.0000000000
Li           -0.0000000000       -0.0000000000        0.2660440698
Li           -0.0000000000       -0.0000000000        0.7339559302
Li            0.3333333300        0.6666666700        0.5000000000
Si            0.6666666700        0.3333333300        0.5000000000



     Writing config-only to output data dir ./output/LiSi.save/
     NEW-OLD atomic charge density approx. for the potential
     extrapolated charge   24.28388, renormalised to   22.00000

     total cpu time spent up to now is       39.0 secs

     Self-consistent Calculation

     iteration #  1     ecut=    80.00 Ry     beta= 0.70
     Davidson diagonalization with overlap
     ethr =  1.00E-06,  avg # of iterations =  8.1

     total cpu time spent up to now is       40.8 secs

     total energy              =     -94.53126856 Ry
     estimated scf accuracy    <       0.02022583 Ry

     iteration #  2     ecut=    80.00 Ry     beta= 0.70
     Davidson diagonalization with overlap
     ethr =  9.19E-05,  avg # of iterations =  3.3

     total cpu time spent up to now is       41.8 secs

     total energy              =     -94.58314942 Ry
     estimated scf accuracy    <       0.05167732 Ry

     iteration #  3     ecut=    80.00 Ry     beta= 0.70
     Davidson diagonalization with overlap
     ethr =  9.19E-05,  avg # of iterations =  2.0

     total cpu time spent up to now is       42.6 secs

     total energy              =     -94.58585676 Ry
     estimated scf accuracy    <       0.00728208 Ry

     iteration #  4     ecut=    80.00 Ry     beta= 0.70
     Davidson diagonalization with overlap
     ethr =  3.31E-05,  avg # of iterations =  1.0

     total cpu time spent up to now is       43.2 secs

     total energy              =     -94.58450988 Ry
     estimated scf accuracy    <       0.00359795 Ry

     iteration #  5     ecut=    80.00 Ry     beta= 0.70
     Davidson diagonalization with overlap
     ethr =  1.64E-05,  avg # of iterations =  2.0

     total cpu time spent up to now is       43.9 secs

     total energy              =     -94.58445603 Ry
     estimated scf accuracy    <       0.00053400 Ry

     iteration #  6     ecut=    80.00 Ry     beta= 0.70
     Davidson diagonalization with overlap
     ethr =  2.43E-06,  avg # of iterations =  2.8

     total cpu time spent up to now is       44.7 secs

     total energy              =     -94.58455403 Ry
     estimated scf accuracy    <       0.00000094 Ry

     iteration #  7     ecut=    80.00 Ry     beta= 0.70
     Davidson diagonalization with overlap
     ethr =  4.26E-09,  avg # of iterations =  4.3

     total cpu time spent up to now is       45.7 secs

     total energy              =     -94.58455428 Ry
     estimated scf accuracy    <       0.00000262 Ry

     iteration #  8     ecut=    80.00 Ry     beta= 0.70
     Davidson diagonalization with overlap
     ethr =  4.26E-09,  avg # of iterations =  2.0

     total cpu time spent up to now is       46.6 secs

     total energy              =     -94.58455479 Ry
     estimated scf accuracy    <       0.00000007 Ry

     iteration #  9     ecut=    80.00 Ry     beta= 0.70
     Davidson diagonalization with overlap
     ethr =  3.23E-10,  avg # of iterations =  1.4

     total cpu time spent up to now is       47.3 secs

     total energy              =     -94.58455479 Ry
     estimated scf accuracy    <          5.9E-09 Ry

     iteration # 10     ecut=    80.00 Ry     beta= 0.70
     Davidson diagonalization with overlap
     ethr =  2.70E-11,  avg # of iterations =  2.0

     total cpu time spent up to now is       48.0 secs

     End of self-consistent calculation

          k = 0.0000 0.0000 0.0000 (  8757 PWs)   bands (ev):

   -39.3734 -39.0439 -38.8820 -38.8820 -38.7868 -38.4700  -1.7115   4.0178
     5.8440   5.8440   6.4920   7.6027   7.6987   7.6987  14.0773

          k = 0.0000 0.0000 0.1737 (  8757 PWs)   bands (ev):

   -39.3669 -39.0405 -38.8820 -38.8820 -38.7963 -38.4709  -1.6991   3.6628
     5.9691   5.9691   6.6419   7.6775   7.6775   8.1349  12.8975

          k = 0.0000 0.0000 0.3475 (  8811 PWs)   bands (ev):

   -39.3518 -39.0318 -38.8819 -38.8819 -38.8191 -38.4730  -1.6701   3.0986
     6.2732   6.2732   6.7639   7.7295   7.7295   9.5097  10.7978

          k = 0.0000 0.0000 0.5212 (  8847 PWs)   bands (ev):

   -39.3391 -39.0234 -38.8818 -38.8818 -38.8393 -38.4748  -1.6455   2.7553
     6.5113   6.5113   6.8146   8.1411   8.1411   9.3669   9.3669

          k = 0.0000 0.1993 0.0000 (  8789 PWs)   bands (ev):

   -39.3520 -39.0476 -38.9007 -38.8822 -38.7867 -38.4698  -1.6255   4.1545
     4.7977   5.3371   6.6455   7.4559   8.5414   8.8382  11.5953

          k = 0.0000 0.1993 0.1737 (  8787 PWs)   bands (ev):

   -39.3456 -39.0436 -38.9007 -38.8822 -38.7965 -38.4709  -1.6108   3.7882
     4.9131   5.4381   6.7749   7.8178   8.4837   8.7116  11.7670

          k = 0.0000 0.1993 0.3475 (  8811 PWs)   bands (ev):

   -39.3307 -39.0333 -38.9008 -38.8821 -38.8201 -38.4733  -1.5763   3.2134
     5.1901   5.6935   6.8867   7.7826   8.3878   9.3925  11.0869

          k = 0.0000 0.1993 0.5212 (  8808 PWs)   bands (ev):

   -39.3183 -39.0229 -38.9014 -38.8821 -38.8411 -38.4754  -1.5469   2.8625
     5.5083   5.9371   6.6830   7.8354   8.3769   9.5188  10.1651

          k = 0.0000 0.3987 0.0000 (  8785 PWs)   bands (ev):

   -39.2922 -39.0651 -38.9449 -38.8827 -38.7866 -38.4695  -1.4031   3.5104
     4.5316   4.6951   6.7029   7.5386   9.6930  10.0424  10.1502

          k = 0.0000 0.3987 0.1737 (  8800 PWs)   bands (ev):

   -39.2862 -39.0594 -38.9456 -38.8827 -38.7968 -38.4709  -1.3823   3.5875
     4.1765   4.7792   6.8143   7.4563   9.1815   9.7671  11.3500

          k = 0.0000 0.3987 0.3475 (  8792 PWs)   bands (ev):

   -39.2723 -39.0430 -38.9491 -38.8826 -38.8213 -38.4741  -1.3332   3.5211
     3.8835   4.9936   6.5690   7.2189   9.0406   9.6114  12.4454

          k = 0.0000 0.3987 0.5212 (  8783 PWs)   bands (ev):

   -39.2611 -39.0234 -38.9566 -38.8826 -38.8429 -38.4767  -1.2910   3.1732
     4.1328   5.2031   5.9674   7.4150   8.5092   9.6452  12.1174

          k = 0.0000 0.5980 0.0000 (  8782 PWs)   bands (ev):

   -39.2089 -39.1175 -38.9774 -38.8831 -38.7865 -38.4692  -1.1813   2.7159
     4.3439   4.9647   6.7247   7.6232   8.4741  10.5172  11.8269

          k = 0.0000 0.5980 0.1737 (  8795 PWs)   bands (ev):

   -39.2041 -39.1092 -38.9790 -38.8831 -38.7968 -38.4709  -1.1542   2.7929
     4.4200   4.6134   6.5926   7.0848   9.1602  10.4018  11.2462

          k = 0.0000 0.5980 0.3475 (  8784 PWs)   bands (ev):

   -39.1946 -39.0835 -38.9865 -38.8830 -38.8217 -38.4746  -1.0899   3.0040
     4.0023   4.6133   5.7750   7.1389   9.2381   9.6995  12.8182

          k = 0.0000 0.5980 0.5212 (  8767 PWs)   bands (ev):

   -39.1881 -39.0456 -39.0067 -38.8830 -38.8436 -38.4777  -1.0341   3.2480
     3.6007   4.8001   5.1478   7.3074   8.5583   9.6552  14.6677

          k = 0.1726 0.2990 0.0000 (  8809 PWs)   bands (ev):

   -39.3113 -39.0563 -38.9364 -38.8803 -38.7866 -38.4695  -1.4698   3.9461
     4.4150   4.5640   7.0251   7.4908   9.2651  10.0209  10.1417

          k = 0.1726 0.2990 0.1737 (  8794 PWs)   bands (ev):

   -39.3051 -39.0513 -38.9360 -38.8811 -38.7965 -38.4709  -1.4509   3.9436
     4.1460   4.6569   7.1081   7.6484   8.9208   9.3443  11.5351

          k = 0.1726 0.2990 0.3475 (  8807 PWs)   bands (ev):

   -39.2909 -39.0376 -38.9353 -38.8845 -38.8197 -38.4738  -1.4062   3.4329
     4.3142   4.9009   6.8161   7.5724   8.4603   9.9616  11.7141

          k = 0.1726 0.2990 0.5212 (  8786 PWs)   bands (ev):

   -39.2791 -39.0226 -38.9350 -38.8912 -38.8383 -38.4763  -1.3679   3.0729
     4.5916   5.1630   6.3026   7.2277   8.6911  10.3711  10.7140

          k = 0.1726 0.4983 0.0000 (  8804 PWs)   bands (ev):

   -39.2390 -39.0828 -38.9880 -38.8767 -38.7865 -38.4692  -1.2364   3.0576
     3.9946   4.8559   7.1241   7.8373   8.7271  10.1526  11.0090

          k = 0.1726 0.4983 0.1737 (  8787 PWs)   bands (ev):

   -39.2334 -39.0758 -38.9877 -38.8790 -38.7960 -38.4708  -1.2110   3.1370
     4.0753   4.4940   6.9444   7.5408   8.7551  10.3005  11.5982

          k = 0.1726 0.4983 0.3475 (  8782 PWs)   bands (ev):

   -39.2209 -39.0549 -38.9884 -38.8881 -38.8169 -38.4745  -1.1506   3.3502
     3.8763   4.3052   6.1941   7.1252   8.9035  10.7105  12.4634

          k = 0.1726 0.4983 0.5212 (  8782 PWs)   bands (ev):

   -39.2114 -39.0261 -38.9945 -38.9036 -38.8313 -38.4775  -1.0984   3.4512
     3.6325   4.5404   5.5733   6.7030   9.2339  10.5575  12.4626

          k = 0.1726 0.6977 0.0000 (  8794 PWs)   bands (ev):

   -39.1643 -39.1388 -39.0093 -38.8752 -38.7865 -38.4691  -1.1116   2.6772
     3.8170   5.1378   7.1101   8.0069   8.0966  10.4469  11.7343

          k = 0.1726 0.6977 0.1737 (  8781 PWs)   bands (ev):

   -39.1624 -39.1277 -39.0089 -38.8781 -38.7956 -38.4708  -1.0826   2.7536
     3.8960   4.7910   6.6124   7.4321   8.8066  11.0013  11.2579

          k = 0.1726 0.6977 0.3475 (  8770 PWs)   bands (ev):

   -39.1595 -39.0962 -39.0092 -38.8895 -38.8153 -38.4748  -1.0136   2.9626
     4.0901   4.1909   5.7129   6.9967   9.1155  11.0524  12.6087

          k = 0.1726 0.6977 0.5212 (  8774 PWs)   bands (ev):

   -39.1577 -39.0585 -39.0147 -38.9081 -38.8283 -38.4780  -0.9536   3.1999
     3.7626   4.3373   5.0852   6.5709   9.4612  10.5721  13.8856

          k = 0.3453 0.5980 0.0000 (  8809 PWs)   bands (ev):

   -39.1647 -39.1025 -39.0521 -38.8686 -38.7864 -38.4690  -1.0803   2.8872
     3.2856   5.2346   7.2423   7.9012   8.9192  10.0743  11.0601

          k = 0.3453 0.5980 0.1737 (  8801 PWs)   bands (ev):

   -39.1596 -39.0942 -39.0507 -38.8740 -38.7944 -38.4708  -1.0506   2.9662
     3.3640   4.8732   6.8133   7.2996   9.3775  10.5514  11.5950

          k = 0.3453 0.5980 0.3475 (  8772 PWs)   bands (ev):

   -39.1509 -39.0678 -39.0468 -38.8945 -38.8098 -38.4749  -0.9797   3.1797
     3.5784   4.2397   5.9834   6.4666   9.9924  11.4534  12.7139

          k = 0.3453 0.5980 0.5212 (  8779 PWs)   bands (ev):

   -39.1462 -39.0479 -39.0259 -38.9285 -38.8188 -38.4781  -0.9180   3.4171
     3.8090   3.8382   5.3639   5.8802  10.6157  12.1382  12.6733

     the Fermi energy is     6.9325 ev

!    total energy              =     -94.58455479 Ry
     estimated scf accuracy    <          8.4E-10 Ry
     smearing contrib. (-TS)   =      -0.00066073 Ry
     internal energy E=F+TS    =     -94.58389407 Ry

     The total energy is F=E-TS. E is the sum of the following terms:
     one-electron contribution =     -36.22073549 Ry
     hartree contribution      =      17.45680324 Ry
     xc contribution           =     -24.25608980 Ry
     ewald contribution        =     -51.56387202 Ry

     convergence has been achieved in  10 iterations

     Forces acting on atoms (cartesian axes, Ry/au):

     atom    1 type  1   force =    -0.00653933   -0.00377549    0.00000000
     atom    2 type  1   force =     0.00000000    0.00755097    0.00000000
     atom    3 type  1   force =     0.00653933   -0.00377549    0.00000000
     atom    4 type  1   force =     0.00000000    0.00000000    0.04607172
     atom    5 type  1   force =     0.00000000    0.00000000   -0.04607172
     atom    6 type  1   force =     0.00000000    0.00000000    0.00000000
     atom    7 type  2   force =     0.00000000    0.00000000    0.00000000
     The non-local contrib.  to forces
     atom    1 type  1   force =     0.00347863    0.00200839    0.00000000
     atom    2 type  1   force =     0.00000000   -0.00401678    0.00000000
     atom    3 type  1   force =    -0.00347863    0.00200839    0.00000000
     atom    4 type  1   force =     0.00000000    0.00000000    0.08437384
     atom    5 type  1   force =     0.00000000    0.00000000   -0.08437384
     atom    6 type  1   force =     0.00000000    0.00000000    0.00000000
     atom    7 type  2   force =    -0.00000000   -0.00000000    0.00000000
     The ionic contribution  to forces
     atom    1 type  1   force =     0.24097141    0.13912492   -0.00000000
     atom    2 type  1   force =    -0.00000000   -0.27824982   -0.00000000
     atom    3 type  1   force =    -0.24097142    0.13912491   -0.00000000
     atom    4 type  1   force =     0.00000000   -0.00000000    0.16061353
     atom    5 type  1   force =     0.00000000   -0.00000000   -0.16061353
     atom    6 type  1   force =     0.00000007   -0.00000004   -0.00000000
     atom    7 type  2   force =    -0.00000007    0.00000004   -0.00000000
     The local contribution  to forces
     atom    1 type  1   force =    -0.25098913   -0.14490777    0.00000000
     atom    2 type  1   force =     0.00000076    0.28981684    0.00000000
     atom    3 type  1   force =     0.25098837   -0.14490908    0.00000000
     atom    4 type  1   force =     0.00000000    0.00000000   -0.19891002
     atom    5 type  1   force =     0.00000000    0.00000000    0.19891002
     atom    6 type  1   force =     0.00000075   -0.00000043    0.00000000
     atom    7 type  2   force =     0.00000000   -0.00000000   -0.00000000
     The core correction contribution to forces
     atom    1 type  1   force =     0.00000000    0.00000000    0.00000000
     atom    2 type  1   force =     0.00000000    0.00000000    0.00000000
     atom    3 type  1   force =     0.00000000    0.00000000    0.00000000
     atom    4 type  1   force =     0.00000000    0.00000000    0.00000000
     atom    5 type  1   force =     0.00000000    0.00000000    0.00000000
     atom    6 type  1   force =     0.00000000    0.00000000    0.00000000
     atom    7 type  2   force =     0.00000000   -0.00000000   -0.00000000
     The Hubbard contrib.    to forces
     atom    1 type  1   force =     0.00000000    0.00000000    0.00000000
     atom    2 type  1   force =     0.00000000    0.00000000    0.00000000
     atom    3 type  1   force =     0.00000000    0.00000000    0.00000000
     atom    4 type  1   force =     0.00000000    0.00000000    0.00000000
     atom    5 type  1   force =     0.00000000    0.00000000    0.00000000
     atom    6 type  1   force =     0.00000000    0.00000000    0.00000000
     atom    7 type  2   force =     0.00000000    0.00000000    0.00000000
     The SCF correction term to forces
     atom    1 type  1   force =    -0.00000063   -0.00000037    0.00000000
     atom    2 type  1   force =     0.00000000    0.00000073   -0.00000000
     atom    3 type  1   force =     0.00000063   -0.00000037   -0.00000000
     atom    4 type  1   force =     0.00000000   -0.00000000   -0.00000562
     atom    5 type  1   force =     0.00000000   -0.00000000    0.00000562
     atom    6 type  1   force =     0.00000000   -0.00000000   -0.00000000
     atom    7 type  2   force =     0.00000000   -0.00000000   -0.00000000

     Total force =     0.066455     Total SCF correction =     0.000008


     Computing stress (Cartesian axis) and pressure

          total   stress  (Ry/bohr**3)                   (kbar)     P=      462.99
   0.00311430  -0.00000000   0.00000000          458.13       -0.00        0.00
  -0.00000000   0.00311430  -0.00000000           -0.00      458.13       -0.00
   0.00000000   0.00000000   0.00321339            0.00        0.00      472.71

     Energy error            =      1.9E-02 Ry
     Gradient error          =      4.6E-02 Ry/Bohr
     Cell gradient error     =      4.2E+01 kbar

     number of scf cycles    =   4
     number of bfgs steps    =   3

     enthalpy           old  =     -93.1783105093 Ry
     enthalpy           new  =     -93.1976073366 Ry

     CASE: enthalpy          _new < enthalpy          _old

     new trust radius        =       0.0325915577 bohr
ibrav =      4
 celldm(1) =      7.74421283
 celldm(3) =      0.99574267
Input lattice vectors:
     0.82180936    -0.00000000     0.00000000
    -0.41090468     0.71170778    -0.00000000
     0.00000000    -0.00000000     0.81831064
New lattice vectors in INITIAL alat:
     0.82180936     0.00000000     0.00000000
    -0.41090468     0.71170778     0.00000000
     0.00000000     0.00000000     0.81831064
New lattice vectors in NEW alat (for information only):
     1.00000000     0.00000000     0.00000000
    -0.50000000     0.86602540     0.00000000
     0.00000000     0.00000000     0.99574267
Discrepancy in bohr =     0.000000    0.000000    0.000000
     new conv_thr            =       0.0000000046 Ry

     new unit-cell volume =    400.50652 a.u.^3 (    59.34894 Ang^3 )
     density =      1.95104 g/cm^3

CELL_PARAMETERS (alat=  9.42336898)
   0.821809360   0.000000000   0.000000000
  -0.410904680   0.711707783   0.000000000
   0.000000000   0.000000000   0.818310645

ATOMIC_POSITIONS (crystal)
Li           -0.0065470489        0.4967264706        0.0000000000
Li            0.5032735194        1.0065470489        0.0000000000
Li            0.5032735294        0.4967264806       -0.0000000000
Li           -0.0000000000       -0.0000000000        0.2702502553
Li           -0.0000000000       -0.0000000000        0.7297497447
Li            0.3333333300        0.6666666700        0.5000000000
Si            0.6666666700        0.3333333300        0.5000000000



     Writing config-only to output data dir ./output/LiSi.save/
     NEW-OLD atomic charge density approx. for the potential
     extrapolated charge   21.58594, renormalised to   22.00000

     total cpu time spent up to now is       51.2 secs

     Self-consistent Calculation

     iteration #  1     ecut=    80.00 Ry     beta= 0.70
     Davidson diagonalization with overlap
     ethr =  1.00E-06,  avg # of iterations =  5.3

     total cpu time spent up to now is       52.5 secs

     total energy              =     -94.56150546 Ry
     estimated scf accuracy    <       0.00040043 Ry

     iteration #  2     ecut=    80.00 Ry     beta= 0.70
     Davidson diagonalization with overlap
     ethr =  1.82E-06,  avg # of iterations =  3.2

     total cpu time spent up to now is       53.5 secs

     total energy              =     -94.56294347 Ry
     estimated scf accuracy    <       0.00095268 Ry

     iteration #  3     ecut=    80.00 Ry     beta= 0.70
     Davidson diagonalization with overlap
     ethr =  1.82E-06,  avg # of iterations =  2.0

     total cpu time spent up to now is       54.3 secs

     total energy              =     -94.56294416 Ry
     estimated scf accuracy    <       0.00018882 Ry

     iteration #  4     ecut=    80.00 Ry     beta= 0.70
     Davidson diagonalization with overlap
     ethr =  8.58E-07,  avg # of iterations =  1.1

     total cpu time spent up to now is       54.9 secs

     total energy              =     -94.56292703 Ry
     estimated scf accuracy    <       0.00005809 Ry

     iteration #  5     ecut=    80.00 Ry     beta= 0.70
     Davidson diagonalization with overlap
     ethr =  2.64E-07,  avg # of iterations =  1.8

     total cpu time spent up to now is       55.6 secs

     total energy              =     -94.56292648 Ry
     estimated scf accuracy    <       0.00000857 Ry

     iteration #  6     ecut=    80.00 Ry     beta= 0.70
     Davidson diagonalization with overlap
     ethr =  3.90E-08,  avg # of iterations =  2.3

     total cpu time spent up to now is       56.3 secs

     total energy              =     -94.56292839 Ry
     estimated scf accuracy    <       0.00000006 Ry

     iteration #  7     ecut=    80.00 Ry     beta= 0.70
     Davidson diagonalization with overlap
     ethr =  2.65E-10,  avg # of iterations =  3.6

     total cpu time spent up to now is       57.2 secs

     total energy              =     -94.56292839 Ry
     estimated scf accuracy    <       0.00000005 Ry

     iteration #  8     ecut=    80.00 Ry     beta= 0.70
     Davidson diagonalization with overlap
     ethr =  2.33E-10,  avg # of iterations =  2.0

     total cpu time spent up to now is       57.9 secs

     End of self-consistent calculation

          k = 0.0000 0.0000 0.0000 (  8757 PWs)   bands (ev):

   -39.2477 -38.9025 -38.7314 -38.7314 -38.6109 -38.3017  -1.5850   4.1217
     5.9952   5.9952   6.6663   7.7814   7.8686   7.8686  14.4440

          k = 0.0000 0.0000 0.1746 (  8757 PWs)   bands (ev):

   -39.2408 -38.9001 -38.7314 -38.7314 -38.6198 -38.3026  -1.5755   3.7798
     6.1216   6.1216   6.8125   7.8458   7.8458   8.3089  13.2098

          k = 0.0000 0.0000 0.3492 (  8811 PWs)   bands (ev):

   -39.2248 -38.8943 -38.7313 -38.7313 -38.6406 -38.3048  -1.5533   3.2331
     6.4282   6.4282   6.9288   7.8984   7.8984   9.6869  10.9777

          k = 0.0000 0.0000 0.5237 (  8847 PWs)   bands (ev):

   -39.2112 -38.8891 -38.7313 -38.7313 -38.6584 -38.3067  -1.5346   2.9004
     6.6659   6.6659   6.9742   8.3312   8.3312   9.5156   9.5156

          k = 0.0000 0.2007 0.0000 (  8789 PWs)   bands (ev):

   -39.2252 -38.9062 -38.7512 -38.7317 -38.6108 -38.3015  -1.4998   4.2603
     4.9441   5.4767   6.8144   7.6326   8.7302   9.0288  11.7965

          k = 0.0000 0.2007 0.1746 (  8787 PWs)   bands (ev):

   -39.2185 -38.9032 -38.7511 -38.7317 -38.6200 -38.3026  -1.4879   3.9069
     5.0598   5.5774   6.9409   7.9905   8.6727   8.8972  11.9895

          k = 0.0000 0.2007 0.3492 (  8811 PWs)   bands (ev):

   -39.2028 -38.8957 -38.7512 -38.7316 -38.6417 -38.3052  -1.4601   3.3492
     5.3367   5.8311   7.0464   7.9687   8.5836   9.5662  11.2648

          k = 0.0000 0.2007 0.5237 (  8808 PWs)   bands (ev):

   -39.1895 -38.8886 -38.7515 -38.7315 -38.6604 -38.3074  -1.4366   3.0089
     5.6514   6.0710   6.8433   8.0334   8.5930   9.6831  10.3158

          k = 0.0000 0.4014 0.0000 (  8785 PWs)   bands (ev):

   -39.1627 -38.9241 -38.7979 -38.7322 -38.6107 -38.3013  -1.2795   3.6498
     4.6430   4.8224   6.8704   7.7176   9.8658  10.2576  10.3738

          k = 0.0000 0.4014 0.1746 (  8800 PWs)   bands (ev):

   -39.1564 -38.9189 -38.7988 -38.7322 -38.6203 -38.3027  -1.2614   3.7255
     4.3017   4.9052   6.9791   7.6269   9.3737   9.9861  11.5572

          k = 0.0000 0.4014 0.3492 (  8792 PWs)   bands (ev):

   -39.1420 -38.9046 -38.8023 -38.7321 -38.6433 -38.3061  -1.2189   3.6594
     4.0242   5.1155   6.7252   7.3991   9.2591   9.8082  12.6807

          k = 0.0000 0.4014 0.5237 (  8783 PWs)   bands (ev):

   -39.1302 -38.8885 -38.8086 -38.7321 -38.6630 -38.3088  -1.1826   3.3237
     4.2682   5.3193   6.1291   7.5933   8.7324   9.8526  12.2999

          k = 0.0000 0.6022 0.0000 (  8782 PWs)   bands (ev):

   -39.0761 -38.9777 -38.8325 -38.7327 -38.6105 -38.3011  -1.0600   2.8529
[...]
         7           Si  tau(   7) = (   0.4070574   0.2350147   0.4139913  )

     number of k points=    32  Marzari-Vanderbilt smearing, width (Ry)=  0.0200
                       cart. coord. in units 2pi/alat
        k(    1) = (   0.0000000   0.0000000   0.0000000), wk =   0.0058309
        k(    2) = (   0.0000000   0.0000000   0.1725364), wk =   0.0116618
        k(    3) = (   0.0000000   0.0000000   0.3450729), wk =   0.0116618
        k(    4) = (   0.0000000   0.0000000   0.5176093), wk =   0.0116618
        k(    5) = (   0.0000000   0.2026216   0.0000000), wk =   0.0349854
        k(    6) = (   0.0000000   0.2026216   0.1725364), wk =   0.0699708
        k(    7) = (   0.0000000   0.2026216   0.3450729), wk =   0.0699708
        k(    8) = (   0.0000000   0.2026216   0.5176093), wk =   0.0699708
        k(    9) = (   0.0000000   0.4052432   0.0000000), wk =   0.0349854
        k(   10) = (   0.0000000   0.4052432   0.1725364), wk =   0.0699708
        k(   11) = (   0.0000000   0.4052432   0.3450729), wk =   0.0699708
        k(   12) = (   0.0000000   0.4052432   0.5176093), wk =   0.0699708
        k(   13) = (   0.0000000   0.6078647   0.0000000), wk =   0.0349854
        k(   14) = (   0.0000000   0.6078647   0.1725364), wk =   0.0699708
        k(   15) = (   0.0000000   0.6078647   0.3450729), wk =   0.0699708
        k(   16) = (   0.0000000   0.6078647   0.5176093), wk =   0.0699708
        k(   17) = (   0.1754754   0.3039324   0.0000000), wk =   0.0349854
        k(   18) = (   0.1754754   0.3039324   0.1725364), wk =   0.0699708
        k(   19) = (   0.1754754   0.3039324   0.3450729), wk =   0.0699708
        k(   20) = (   0.1754754   0.3039324   0.5176093), wk =   0.0699708
        k(   21) = (   0.1754754   0.5065539   0.0000000), wk =   0.0699708
        k(   22) = (   0.1754754   0.5065539   0.1725364), wk =   0.1399417
        k(   23) = (   0.1754754   0.5065539   0.3450729), wk =   0.1399417
        k(   24) = (   0.1754754   0.5065539   0.5176093), wk =   0.1399417
        k(   25) = (   0.1754754   0.7091755   0.0000000), wk =   0.0349854
        k(   26) = (   0.1754754   0.7091755   0.1725364), wk =   0.0699708
        k(   27) = (   0.1754754   0.7091755   0.3450729), wk =   0.0699708
        k(   28) = (   0.1754754   0.7091755   0.5176093), wk =   0.0699708
        k(   29) = (   0.3509509   0.6078647   0.0000000), wk =   0.0349854
        k(   30) = (   0.3509509   0.6078647   0.1725364), wk =   0.0699708
        k(   31) = (   0.3509509   0.6078647   0.3450729), wk =   0.0699708
        k(   32) = (   0.3509509   0.6078647   0.5176093), wk =   0.0699708

     Dense  grid:    38385 G-vectors     FFT dimensions: (  45,  45,  45)

     Estimated max dynamical RAM per process >      20.34 MB

     Estimated total dynamical RAM >     162.73 MB

     Initial potential from superposition of free atoms

     starting charge      21.9720, renormalised to      22.0000
     Starting wfcs are   16 randomized atomic wfcs

     total cpu time spent up to now is      110.4 secs

     Self-consistent Calculation

     iteration #  1     ecut=    80.00 Ry     beta= 0.70
     Davidson diagonalization with overlap
     c_bands:  1 eigenvalues not converged
     c_bands:  1 eigenvalues not converged
     c_bands:  1 eigenvalues not converged
     c_bands:  1 eigenvalues not converged
     c_bands:  1 eigenvalues not converged
     ethr =  1.00E-06,  avg # of iterations = 16.1

     total cpu time spent up to now is      112.1 secs

     total energy              =     -94.55437789 Ry
     estimated scf accuracy    <       0.03071211 Ry

     iteration #  2     ecut=    80.00 Ry     beta= 0.70
     Davidson diagonalization with overlap
     ethr =  1.40E-04,  avg # of iterations =  2.0

     total cpu time spent up to now is      112.6 secs

     total energy              =     -94.55792940 Ry
     estimated scf accuracy    <       0.00337885 Ry

     iteration #  3     ecut=    80.00 Ry     beta= 0.70
     Davidson diagonalization with overlap
     ethr =  1.54E-05,  avg # of iterations =  2.0

     total cpu time spent up to now is      113.1 secs

     total energy              =     -94.55844529 Ry
     estimated scf accuracy    <       0.00034315 Ry

     iteration #  4     ecut=    80.00 Ry     beta= 0.70
     Davidson diagonalization with overlap
     ethr =  1.56E-06,  avg # of iterations =  3.4

     total cpu time spent up to now is      113.7 secs

     total energy              =     -94.55848737 Ry
     estimated scf accuracy    <       0.00002500 Ry

     iteration #  5     ecut=    80.00 Ry     beta= 0.70
     Davidson diagonalization with overlap
     ethr =  1.14E-07,  avg # of iterations =  2.0

     total cpu time spent up to now is      114.2 secs

     total energy              =     -94.55849156 Ry
     estimated scf accuracy    <       0.00000058 Ry

     iteration #  6     ecut=    80.00 Ry     beta= 0.70
     Davidson diagonalization with overlap
     ethr =  2.64E-09,  avg # of iterations =  2.4

     total cpu time spent up to now is      114.7 secs

     total energy              =     -94.55849162 Ry
     estimated scf accuracy    <       0.00000008 Ry

     iteration #  7     ecut=    80.00 Ry     beta= 0.70
     Davidson diagonalization with overlap
     ethr =  3.69E-10,  avg # of iterations =  2.0

     total cpu time spent up to now is      115.2 secs

     total energy              =     -94.55849163 Ry
     estimated scf accuracy    <          3.0E-09 Ry

     iteration #  8     ecut=    80.00 Ry     beta= 0.70
     Davidson diagonalization with overlap
     ethr =  1.36E-11,  avg # of iterations =  2.6

     total cpu time spent up to now is      115.8 secs

     total energy              =     -94.55849163 Ry
     estimated scf accuracy    <          1.3E-10 Ry

     iteration #  9     ecut=    80.00 Ry     beta= 0.70
     Davidson diagonalization with overlap
     ethr =  5.82E-13,  avg # of iterations =  2.6

     total cpu time spent up to now is      116.3 secs

     End of self-consistent calculation

          k = 0.0000 0.0000 0.0000 (  4787 PWs)   bands (ev):

   -39.3083 -38.9263 -38.7803 -38.7803 -38.5082 -38.2207  -1.5379   4.0051
     6.1440   6.1440   6.6992   7.8487   7.9936   7.9936  14.0324

          k = 0.0000 0.0000 0.1725 (  4774 PWs)   bands (ev):

   -39.3028 -38.9266 -38.7803 -38.7803 -38.5131 -38.2214  -1.5319   3.6940
     6.2602   6.2602   6.8887   7.9794   7.9794   8.3024  12.8158

          k = 0.0000 0.0000 0.3451 (  4786 PWs)   bands (ev):

   -39.2901 -38.9275 -38.7802 -38.7802 -38.5243 -38.2231  -1.5181   3.1901
     6.5350   6.5350   7.0384   8.0602   8.0602   9.6154  11.0451

          k = 0.0000 0.0000 0.5176 (  4774 PWs)   bands (ev):

   -39.2794 -38.9286 -38.7801 -38.7801 -38.5332 -38.2245  -1.5066   2.8826
     6.7407   6.7407   7.0870   8.5425   8.5425   9.5859   9.5859

          k = 0.0000 0.2026 0.0000 (  4795 PWs)   bands (ev):

   -39.2852 -38.9294 -38.8009 -38.7806 -38.5081 -38.2209  -1.4540   4.1492
     5.0420   5.5856   6.8901   7.6875   8.9073   9.1725  11.8289

          k = 0.0000 0.2026 0.1725 (  4792 PWs)   bands (ev):

   -39.2800 -38.9290 -38.8009 -38.7805 -38.5134 -38.2218  -1.4460   3.8264
     5.1584   5.6761   7.0413   8.0206   8.8618   9.0094  12.0596

          k = 0.0000 0.2026 0.3451 (  4785 PWs)   bands (ev):

   -39.2678 -38.9283 -38.8010 -38.7805 -38.5253 -38.2237  -1.4274   3.3125
     5.4232   5.9002   7.1415   8.1355   8.8134   9.5625  11.3081

          k = 0.0000 0.2026 0.5176 (  4783 PWs)   bands (ev):

   -39.2576 -38.9279 -38.8011 -38.7804 -38.5349 -38.2253  -1.4120   2.9987
     5.7100   6.1055   6.9477   8.2571   8.8954   9.7259  10.3372

          k = 0.0000 0.4052 0.0000 (  4809 PWs)   bands (ev):

   -39.2215 -38.9467 -38.8487 -38.7812 -38.5079 -38.2214  -1.2369   3.7265
     4.5480   4.8960   6.9326   7.8004   9.8490  10.3574  10.6181

          k = 0.0000 0.4052 0.1725 (  4808 PWs)   bands (ev):

   -39.2170 -38.9435 -38.8499 -38.7811 -38.5138 -38.2225  -1.2238   3.7870
     4.2562   4.9689   7.0479   7.6975   9.4248  10.2270  11.5860

          k = 0.0000 0.4052 0.3451 (  4813 PWs)   bands (ev):

   -39.2067 -38.9352 -38.8537 -38.7811 -38.5271 -38.2250  -1.1932   3.6399
     4.1014   5.1511   6.7724   7.5386   9.5234   9.8831  12.4895

          k = 0.0000 0.4052 0.5176 (  4806 PWs)   bands (ev):

   -39.1982 -38.9270 -38.8581 -38.7810 -38.5381 -38.2270  -1.1674   3.3373
     4.3251   5.3221   6.2134   7.7304   9.0323   9.9850  12.3670

          k = 0.0000 0.6079 0.0000 (  4813 PWs)   bands (ev):

   -39.1381 -39.0010 -38.8789 -38.7816 -38.5078 -38.2218  -1.0209   2.9219
     4.5217   5.0101   6.9375   7.9146   8.5727  10.7682  12.3865

          k = 0.0000 0.6079 0.1725 (  4819 PWs)   bands (ev):

   -39.1358 -38.9932 -38.8820 -38.7816 -38.5140 -38.2231  -1.0028   2.9965
     4.5864   4.7128   6.7265   7.4001   9.3572  10.8097  11.4408

          k = 0.0000 0.6079 0.3451 (  4818 PWs)   bands (ev):

   -39.1308 -38.9714 -38.8925 -38.7816 -38.5284 -38.2260  -0.9602   3.2013
     4.1824   4.7475   5.9269   7.4386   9.7003  10.0206  12.9111

          k = 0.0000 0.6079 0.5176 (  4808 PWs)   bands (ev):

   -39.1271 -38.9415 -38.9125 -38.7815 -38.5402 -38.2284  -0.9240   3.4411
     3.8241   4.8973   5.3241   7.5880   9.0685  10.0564  14.6374

          k = 0.1755 0.3039 0.0000 (  4819 PWs)   bands (ev):

   -39.2417 -38.9372 -38.8401 -38.7786 -38.5080 -38.2213  -1.3020   4.1690
     4.4244   4.7767   7.2246   7.7706   9.6582  10.3230  10.4028

          k = 0.1755 0.3039 0.1725 (  4809 PWs)   bands (ev):

   -39.2369 -38.9353 -38.8399 -38.7792 -38.5136 -38.2223  -1.2904   4.0360
     4.3302   4.8637   7.3196   7.8949   9.2681   9.6965  11.8023

          k = 0.1755 0.3039 0.3451 (  4802 PWs)   bands (ev):

   -39.2258 -38.9308 -38.8395 -38.7808 -38.5265 -38.2246  -1.2634   3.5462
     4.5299   5.0831   7.0318   7.8610   8.9068  10.2554  11.9796

          k = 0.1755 0.3039 0.5176 (  4808 PWs)   bands (ev):

   -39.2167 -38.9269 -38.8393 -38.7823 -38.5371 -38.2265  -1.2407   3.2275
     4.7782   5.3087   6.5605   7.5656   9.2016  10.7180  10.9319

          k = 0.1755 0.5066 0.0000 (  4801 PWs)   bands (ev):

   -39.1656 -38.9650 -38.8937 -38.7750 -38.5078 -38.2217  -1.0744   3.2650
     4.1861   4.8926   7.2802   8.1662   8.8496  10.4561  11.4973

          k = 0.1755 0.5066 0.1725 (  4796 PWs)   bands (ev):

   -39.1621 -38.9596 -38.8941 -38.7767 -38.5138 -38.2230  -1.0576   3.3395
     4.2546   4.5896   7.0900   7.7949   9.0591  10.6159  11.9055

          k = 0.1755 0.5066 0.3451 (  4800 PWs)   bands (ev):

   -39.1541 -38.9451 -38.8965 -38.7810 -38.5276 -38.2258  -1.0180   3.5359
     4.0403   4.4737   6.3770   7.3664   9.3484  11.0603  12.7841

          k = 0.1755 0.5066 0.5176 (  4818 PWs)   bands (ev):

   -39.1479 -38.9281 -38.9025 -38.7855 -38.5389 -38.2281  -0.9844   3.6407
     3.8220   4.6756   5.7885   6.9847   9.7396  10.9386  12.7674

          k = 0.1755 0.7092 0.0000 (  4803 PWs)   bands (ev):

   -39.1022 -39.0138 -38.9107 -38.7734 -38.5077 -38.2219  -0.9530   2.8804
     4.0015   5.1953   7.2602   8.1865   8.3483  10.6780  11.8841

          k = 0.1755 0.7092 0.1725 (  4803 PWs)   bands (ev):

   -39.1014 -39.0049 -38.9112 -38.7755 -38.5139 -38.2233  -0.9334   2.9544
     4.0723   4.9043   6.7410   7.6568   9.1121  11.2247  11.5365

          k = 0.1755 0.7092 0.3451 (  4824 PWs)   bands (ev):

   -39.0998 -38.9820 -38.9139 -38.7811 -38.5279 -38.2263  -0.8871   3.1562
     4.2453   4.3885   5.8588   7.2256   9.5584  11.4344  12.7586

          k = 0.1755 0.7092 0.5176 (  4817 PWs)   bands (ev):

   -39.0986 -38.9571 -38.9210 -38.7869 -38.5394 -38.2287  -0.8477   3.3846
     4.0110   4.4668   5.2437   6.8394   9.9613  10.9765  14.3036

          k = 0.3510 0.6079 0.0000 (  4801 PWs)   bands (ev):

   -39.0917 -38.9825 -38.9594 -38.7667 -38.5077 -38.2219  -0.9225   3.0895
     3.4732   5.2982   7.3849   7.9912   9.2348  10.3232  11.6265

          k = 0.3510 0.6079 0.1725 (  4785 PWs)   bands (ev):

   -39.0902 -38.9763 -38.9566 -38.7703 -38.5137 -38.2233  -0.9022   3.1634
     3.5480   4.9921   6.9554   7.4497   9.7268  10.7966  12.0530

          k = 0.3510 0.6079 0.3451 (  4819 PWs)   bands (ev):

   -39.0871 -38.9655 -38.9444 -38.7806 -38.5272 -38.2264  -0.8544   3.3593
     3.7547   4.4442   6.1431   6.6667  10.4297  11.8071  13.1134

          k = 0.3510 0.6079 0.5176 (  4827 PWs)   bands (ev):

   -39.0850 -38.9609 -38.9264 -38.7925 -38.5383 -38.2289  -0.8136   3.5668
     3.9953   4.0842   5.5344   6.1235  11.1409  12.5654  13.0023

     the Fermi energy is     7.1548 ev

!    total energy              =     -94.55849163 Ry
     estimated scf accuracy    <          3.6E-12 Ry
     smearing contrib. (-TS)   =      -0.00084113 Ry
     internal energy E=F+TS    =     -94.55765050 Ry

     The total energy is F=E-TS. E is the sum of the following terms:
     one-electron contribution =     -35.56483518 Ry
     hartree contribution      =      17.29113462 Ry
     xc contribution           =     -24.30617262 Ry
     ewald contribution        =     -51.97777732 Ry

     convergence has been achieved in   9 iterations

     Forces acting on atoms (cartesian axes, Ry/au):

     atom    1 type  1   force =    -0.00010461   -0.00006040    0.00000000
     atom    2 type  1   force =     0.00000000    0.00012079    0.00000000
     atom    3 type  1   force =     0.00010461   -0.00006040    0.00000000
     atom    4 type  1   force =     0.00000000   -0.00000000   -0.00010108
     atom    5 type  1   force =     0.00000000    0.00000000    0.00010108
     atom    6 type  1   force =    -0.00000000   -0.00000000    0.00000000
     atom    7 type  2   force =     0.00000000    0.00000000    0.00000000
     The non-local contrib.  to forces
     atom    1 type  1   force =     0.00021962    0.00012680    0.00000000
     atom    2 type  1   force =     0.00000000   -0.00025360    0.00000000
     atom    3 type  1   force =    -0.00021962    0.00012680    0.00000000
     atom    4 type  1   force =    -0.00000000   -0.00000000    0.11804038
     atom    5 type  1   force =     0.00000000   -0.00000000   -0.11804038
     atom    6 type  1   force =     0.00000000   -0.00000000    0.00000000
     atom    7 type  2   force =    -0.00000000   -0.00000000    0.00000000
     The ionic contribution  to forces
     atom    1 type  1   force =     0.28883114    0.16675673    0.00000000
     atom    2 type  1   force =    -0.00000001   -0.33351347    0.00000000
     atom    3 type  1   force =    -0.28883113    0.16675674    0.00000000
     atom    4 type  1   force =     0.00000000   -0.00000000   -0.29375600
     atom    5 type  1   force =     0.00000000   -0.00000000    0.29375600
     atom    6 type  1   force =     0.00000007   -0.00000004   -0.00000000
     atom    7 type  2   force =    -0.00000007    0.00000004   -0.00000000
     The local contribution  to forces
     atom    1 type  1   force =    -0.28915595   -0.16694340   -0.00000000
     atom    2 type  1   force =     0.00000075    0.33388810   -0.00000000
     atom    3 type  1   force =     0.28915520   -0.16694469    0.00000000
     atom    4 type  1   force =    -0.00000000    0.00000000    0.17561437
     atom    5 type  1   force =    -0.00000000    0.00000000   -0.17561437
     atom    6 type  1   force =     0.00000074   -0.00000042   -0.00000000
     atom    7 type  2   force =     0.00000001   -0.00000000   -0.00000000
     The core correction contribution to forces
     atom    1 type  1   force =     0.00000000    0.00000000    0.00000000
     atom    2 type  1   force =     0.00000000    0.00000000    0.00000000
     atom    3 type  1   force =     0.00000000    0.00000000    0.00000000
     atom    4 type  1   force =     0.00000000    0.00000000    0.00000000
     atom    5 type  1   force =     0.00000000    0.00000000    0.00000000
     atom    6 type  1   force =     0.00000000    0.00000000    0.00000000
     atom    7 type  2   force =     0.00000000   -0.00000000    0.00000000
     The Hubbard contrib.    to forces
     atom    1 type  1   force =     0.00000000    0.00000000    0.00000000
     atom    2 type  1   force =     0.00000000    0.00000000    0.00000000
     atom    3 type  1   force =     0.00000000    0.00000000    0.00000000
     atom    4 type  1   force =     0.00000000    0.00000000    0.00000000
     atom    5 type  1   force =     0.00000000    0.00000000    0.00000000
     atom    6 type  1   force =     0.00000000    0.00000000    0.00000000
     atom    7 type  2   force =     0.00000000    0.00000000    0.00000000
     The SCF correction term to forces
     atom    1 type  1   force =     0.00000021    0.00000012   -0.00000000
     atom    2 type  1   force =     0.00000000   -0.00000024    0.00000000
     atom    3 type  1   force =    -0.00000021    0.00000012   -0.00000000
     atom    4 type  1   force =     0.00000000   -0.00000000    0.00000017
     atom    5 type  1   force =     0.00000000   -0.00000000   -0.00000017
     atom    6 type  1   force =     0.00000000   -0.00000000    0.00000000
     atom    7 type  2   force =    -0.00000000    0.00000000    0.00000000

     Total force =     0.000253     Total SCF correction =     0.000000


     Computing stress (Cartesian axis) and pressure

          total   stress  (Ry/bohr**3)                   (kbar)     P=      499.31
   0.00339385   0.00000000   0.00000000          499.25        0.00        0.00
   0.00000000   0.00339385  -0.00000000            0.00      499.25       -0.00
   0.00000000   0.00000000   0.00339508            0.00        0.00      499.43


     Writing all to output data dir ./output/LiSi.save/

     init_run     :      1.52s CPU      1.72s WALL (       2 calls)
     electrons    :     76.56s CPU     80.76s WALL (      12 calls)
     update_pot   :      7.19s CPU      7.30s WALL (      10 calls)
     forces       :      5.10s CPU      5.23s WALL (      12 calls)
     stress       :     21.04s CPU     22.14s WALL (      12 calls)

     Called by init_run:
     wfcinit      :      0.49s CPU      0.50s WALL (       2 calls)
     potinit      :      0.50s CPU      0.61s WALL (       2 calls)
     hinit0       :      0.45s CPU      0.49s WALL (       2 calls)

     Called by electrons:
     c_bands      :     65.97s CPU     68.95s WALL (      96 calls)
     sum_band     :      9.40s CPU      9.82s WALL (      96 calls)
     v_of_rho     :      1.20s CPU      1.92s WALL (     105 calls)
     mix_rho      :      0.10s CPU      0.14s WALL (      96 calls)

     Called by c_bands:
     init_us_2    :      2.04s CPU      2.29s WALL (    6976 calls)
     init_us_2:cp :      2.03s CPU      2.28s WALL (    6976 calls)
     cegterg      :     61.91s CPU     63.50s WALL (    3072 calls)

     Called by *egterg:
     cdiaghg      :      2.89s CPU      2.97s WALL (   11652 calls)
     h_psi        :     51.83s CPU     53.15s WALL (   12132 calls)
     g_psi        :      0.29s CPU      0.30s WALL (    8996 calls)

     Called by h_psi:
     h_psi:calbec :      4.30s CPU      4.42s WALL (   12132 calls)
     vloc_psi     :     43.84s CPU     44.95s WALL (   12132 calls)
     add_vuspsi   :      3.46s CPU      3.54s WALL (   12132 calls)

     General routines
     calbec       :      5.61s CPU      5.74s WALL (   14052 calls)
     fft          :      1.05s CPU      1.96s WALL (    1351 calls)
     ffts         :      0.04s CPU      0.07s WALL (      96 calls)
     fftw         :     45.37s CPU     46.44s WALL (  299154 calls)

     Parallel routines

     PWSCF        :   1m51.71s CPU   1m57.80s WALL


   This run was terminated on:   4: 8:31  30Dec2024            

=------------------------------------------------------------------------------=
   JOB DONE.
=------------------------------------------------------------------------------=
