
     Program PWSCF v.7.3.1 starts on 27Feb2025 at 19:27: 5 

     This program is part of the open-source Quantum ESPRESSO suite
     for quantum simulation of materials; please cite
         "P. Giannozzi et al., J. Phys.:Condens. Matter 21 395502 (2009);
         "P. Giannozzi et al., J. Phys.:Condens. Matter 29 465901 (2017);
         "P. Giannozzi et al., J. Chem. Phys. 152 154105 (2020);
          URL http://www.quantum-espresso.org", 
     in publications or presentations arising from this work. More details at
     http://www.quantum-espresso.org/quote

     Parallel version (MPI & OpenMP), running on      16 processor cores
     Number of MPI processes:                16
     Threads/MPI process:                     1

     MPI processes distributed on     1 nodes
     490672 MiB available memory on the printing compute node when the environment starts

     Waiting for input...
     Reading input from standard input

     Current dimensions of program PWSCF are:
     Max number of different atomic species (ntypx) = 10
     Max number of k-points (npk) =  40000
     Max angular momentum in pseudopotentials (lmaxx) =  4

     R & G space division:  proc/nbgrp/npool/nimage =      16
     Subspace diagonalization in iterative solution of the eigenvalue problem:
     a serial algorithm will be used


     Parallelization info
     --------------------
     sticks:   dense  smooth     PW     G-vecs:    dense   smooth      PW
     Min         109     109     34                 2816     2816     503
     Max         110     110     35                 2818     2818     505
     Sum        1745    1745    553                45063    45063    8067

     Using Slab Decomposition



     bravais-lattice index     =            5
     lattice parameter (alat)  =       9.1027  a.u.
     unit-cell volume          =     568.3999 (a.u.)^3
     number of atoms/cell      =            7
     number of atomic types    =            2
     number of electrons       =        27.00
     number of Kohn-Sham states=           18
     kinetic-energy cutoff     =      70.0000  Ry
     charge density cutoff     =     280.0000  Ry
     scf convergence threshold =      1.0E-08
     mixing beta               =       0.7000
     number of iterations used =            8  plain     mixing
     energy convergence thresh.=      5.0E-04
     force convergence thresh. =      1.0E-03
     press convergence thresh. =      1.0E+00
     Exchange-correlation= PBE
                           (   1   4   3   4   0   0   0)
     nstep                     =           50


     celldm(1)=   9.102664  celldm(2)=   0.000000  celldm(3)=   0.000000
     celldm(4)=  -0.342425  celldm(5)=   0.000000  celldm(6)=   0.000000

     crystal axes: (cart. coord. in units of alat)
               a(1) = (   0.819276  -0.473009   0.324114 )  
               a(2) = (   0.000000   0.946018   0.324114 )  
               a(3) = (  -0.819276  -0.473009   0.324114 )  

     reciprocal axes: (cart. coord. in units 2 pi/alat)
               b(1) = (  0.610295 -0.352354  1.028445 )  
               b(2) = ( -0.000000  0.704708  1.028445 )  
               b(3) = ( -0.610295 -0.352354  1.028445 )  


     PseudoPot. # 1 for Li read from file:
     ../pseudo/Li_ONCV_PBE_sr.upf
     MD5 check sum: 50ff420e78310ffa21704f3361e624a4
     Pseudo is Norm-conserving, Zval =  3.0
     Generated using ONCVPSP code by D. R. Hamann
     Using radial grid of 1944 points,  4 beta functions with: 
                l(1) =   0
                l(2) =   0
                l(3) =   1
                l(4) =   1

     PseudoPot. # 2 for Si read from file:
     ../pseudo/Si_ONCV_PBE_sr.upf
     MD5 check sum: e543d271109d17c80368dfa7c482276d
     Pseudo is Norm-conserving + core correction, Zval =  4.0
     Generated using ONCVPSP code by D. R. Hamann
     Using radial grid of 1510 points,  6 beta functions with: 
                l(1) =   0
                l(2) =   0
                l(3) =   1
                l(4) =   1
                l(5) =   2
                l(6) =   2

     atomic species   valence    mass     pseudopotential
     Li                3.00     6.94100     Li( 1.00)
     Si                4.00    28.08550     Si( 1.00)

     12 Sym. Ops., with inversion, found



   Cartesian axes

     site n.     atom                  positions (alat units)
         1        Li     tau(   1) = (   0.0000000  -0.0000000   0.4861709  )
         2        Si     tau(   2) = (   0.3835906  -0.7245519   0.6144507  )
         3        Si     tau(   3) = (  -1.2028663  -0.6944752   0.3578912  )
         4        Si     tau(   4) = (  -0.3835906  -0.7245519   0.6144507  )
         5        Si     tau(   5) = (  -0.4356851  -0.6944752   0.3578912  )
         6        Si     tau(   6) = (  -0.0000000  -1.3889503   0.6144507  )
         7        Si     tau(   7) = (  -0.8192757  -0.0300767   0.3578912  )

     number of k points=    65  Marzari-Vanderbilt smearing, width (Ry)=  0.0200
                       cart. coord. in units 2pi/alat
        k(    1) = (   0.0000000   0.0000000   0.0000000), wk =   0.0039062
        k(    2) = (  -0.0762869  -0.0440443   0.1285556), wk =   0.0234375
        k(    3) = (  -0.1525738  -0.0880885   0.2571112), wk =   0.0234375
        k(    4) = (  -0.2288607  -0.1321328   0.3856668), wk =   0.0234375
        k(    5) = (   0.3051476   0.1761770  -0.5142224), wk =   0.0117188
        k(    6) = (  -0.0762869   0.0440443   0.2571112), wk =   0.0234375
        k(    7) = (  -0.1525738   0.0000000   0.3856668), wk =   0.0468750
        k(    8) = (  -0.2288607  -0.0440443   0.5142224), wk =   0.0468750
        k(    9) = (   0.3051476   0.2642656  -0.3856668), wk =   0.0468750
        k(   10) = (   0.2288607   0.2202213  -0.2571112), wk =   0.0468750
        k(   11) = (   0.1525738   0.1761770  -0.1285556), wk =   0.0468750
        k(   12) = (   0.0762869   0.1321328   0.0000000), wk =   0.0234375
        k(   13) = (  -0.1525738   0.0880885   0.5142224), wk =   0.0234375
        k(   14) = (  -0.2288607   0.0440443   0.6427780), wk =   0.0468750
        k(   15) = (   0.3051476   0.3523541  -0.2571112), wk =   0.0468750
        k(   16) = (   0.2288607   0.3083098  -0.1285556), wk =   0.0468750
        k(   17) = (   0.1525738   0.2642656   0.0000000), wk =   0.0234375
        k(   18) = (  -0.2288607   0.1321328   0.7713337), wk =   0.0234375
        k(   19) = (   0.3051476   0.4404426  -0.1285556), wk =   0.0468750
        k(   20) = (   0.2288607   0.3963984   0.0000000), wk =   0.0234375
        k(   21) = (   0.3051476  -0.1761770  -1.0284449), wk =   0.0117188
        k(   22) = (   0.0000000   0.0000000   0.3856668), wk =   0.0078125
        k(   23) = (  -0.0762869  -0.0440443   0.5142224), wk =   0.0234375
        k(   24) = (  -0.1525738  -0.0880885   0.6427780), wk =   0.0234375
        k(   25) = (   0.3814345   0.2202213  -0.2571112), wk =   0.0234375
        k(   26) = (   0.3051476   0.1761770  -0.1285556), wk =   0.0234375
        k(   27) = (   0.2288607   0.1321328   0.0000000), wk =   0.0234375
        k(   28) = (   0.1525738   0.0880885   0.1285556), wk =   0.0234375
        k(   29) = (  -0.0762869   0.0440443   0.6427780), wk =   0.0234375
        k(   30) = (  -0.1525738   0.0000000   0.7713337), wk =   0.0468750
        k(   31) = (   0.3814345   0.3083098  -0.1285556), wk =   0.0468750
        k(   32) = (   0.3051476   0.2642656   0.0000000), wk =   0.0468750
        k(   33) = (   0.2288607   0.2202213   0.1285556), wk =   0.0468750
        k(   34) = (   0.1525738   0.1761770   0.2571112), wk =   0.0468750
        k(   35) = (  -0.1525738   0.0880885   0.8998893), wk =   0.0234375
        k(   36) = (   0.3814345   0.3963984   0.0000000), wk =   0.0468750
        k(   37) = (   0.3051476   0.3523541   0.1285556), wk =   0.0468750
        k(   38) = (   0.2288607   0.3083098   0.2571112), wk =   0.0468750
        k(   39) = (   0.1525738   0.2642656   0.3856668), wk =   0.0468750
        k(   40) = (   0.3814345  -0.2202213  -0.8998893), wk =   0.0234375
        k(   41) = (   0.3051476  -0.2642656  -0.7713337), wk =   0.0468750
        k(   42) = (   0.2288607  -0.3083098  -0.6427780), wk =   0.0468750
        k(   43) = (   0.1525738  -0.3523541  -0.5142224), wk =   0.0234375
        k(   44) = (   0.3051476  -0.1761770  -0.6427780), wk =   0.0234375
        k(   45) = (   0.2288607  -0.2202213  -0.5142224), wk =   0.0468750
        k(   46) = (   0.2288607  -0.1321328  -0.3856668), wk =   0.0234375
        k(   47) = (   0.0000000   0.0000000   0.7713337), wk =   0.0078125
        k(   48) = (  -0.0762869  -0.0440443   0.8998893), wk =   0.0234375
        k(   49) = (   0.4577214   0.2642656   0.0000000), wk =   0.0234375
        k(   50) = (   0.3814345   0.2202213   0.1285556), wk =   0.0234375
        k(   51) = (   0.3051476   0.1761770   0.2571112), wk =   0.0234375
        k(   52) = (  -0.0762869   0.0440443   1.0284449), wk =   0.0234375
        k(   53) = (   0.4577214   0.3523541   0.1285556), wk =   0.0468750
        k(   54) = (   0.3814345   0.3083098   0.2571112), wk =   0.0468750
        k(   55) = (   0.3051476   0.2642656   0.3856668), wk =   0.0468750
        k(   56) = (   0.4577214  -0.2642656  -0.7713337), wk =   0.0234375
        k(   57) = (   0.3814345  -0.3083098  -0.6427780), wk =   0.0468750
        k(   58) = (   0.3051476  -0.3523541  -0.5142224), wk =   0.0234375
        k(   59) = (   0.3814345  -0.2202213  -0.5142224), wk =   0.0234375
        k(   60) = (   0.0000000   0.0000000   1.1570005), wk =   0.0078125
        k(   61) = (   0.5340083   0.3083098   0.2571112), wk =   0.0234375
        k(   62) = (   0.4577214   0.2642656   0.3856668), wk =   0.0234375
        k(   63) = (   0.5340083  -0.3083098  -0.6427780), wk =   0.0234375
        k(   64) = (   0.4577214  -0.3523541  -0.5142224), wk =   0.0234375
        k(   65) = (   0.0000000   0.0000000  -1.5426673), wk =   0.0039062

     Dense  grid:    45063 G-vectors     FFT dimensions: (  50,  50,  50)

     Estimated max dynamical RAM per process >      20.15 MB

     Estimated total dynamical RAM >     322.46 MB

     Initial potential from superposition of free atoms

     starting charge      26.9918, renormalised to      27.0000
     Starting wfcs are   26 randomized atomic wfcs

     total cpu time spent up to now is        1.3 secs

     per-process dynamical memory:    37.5 Mb

     Self-consistent Calculation

     iteration #  1     ecut=    70.00 Ry     beta= 0.70
     Davidson diagonalization with overlap
     ethr =  1.00E-02,  avg # of iterations =  5.4

     total cpu time spent up to now is        3.4 secs

     total energy              =     -58.92513675 Ry
     estimated scf accuracy    <       1.12544862 Ry

     iteration #  2     ecut=    70.00 Ry     beta= 0.70
     Davidson diagonalization with overlap
     ethr =  4.17E-03,  avg # of iterations =  2.3

     total cpu time spent up to now is        4.9 secs

     total energy              =     -59.23074189 Ry
     estimated scf accuracy    <       0.23471029 Ry

     iteration #  3     ecut=    70.00 Ry     beta= 0.70
     Davidson diagonalization with overlap
     ethr =  8.69E-04,  avg # of iterations =  2.1

     total cpu time spent up to now is        6.2 secs

     total energy              =     -59.27165869 Ry
     estimated scf accuracy    <       0.00295798 Ry

     iteration #  4     ecut=    70.00 Ry     beta= 0.70
     Davidson diagonalization with overlap
     c_bands:  1 eigenvalues not converged
     c_bands:  1 eigenvalues not converged
     c_bands:  1 eigenvalues not converged
     c_bands:  1 eigenvalues not converged
     ethr =  1.10E-05,  avg # of iterations = 11.1

     total cpu time spent up to now is        8.9 secs

     total energy              =     -59.27443364 Ry
     estimated scf accuracy    <       0.00084416 Ry

     iteration #  5     ecut=    70.00 Ry     beta= 0.70
     Davidson diagonalization with overlap
     ethr =  3.13E-06,  avg # of iterations =  3.5

     total cpu time spent up to now is       10.3 secs

     total energy              =     -59.27452299 Ry
     estimated scf accuracy    <       0.00005020 Ry

     iteration #  6     ecut=    70.00 Ry     beta= 0.70
     Davidson diagonalization with overlap
     c_bands:  1 eigenvalues not converged
     ethr =  1.86E-07,  avg # of iterations =  4.0

     total cpu time spent up to now is       12.0 secs

     total energy              =     -59.27454224 Ry
     estimated scf accuracy    <       0.00000142 Ry

     iteration #  7     ecut=    70.00 Ry     beta= 0.70
     Davidson diagonalization with overlap
     ethr =  5.28E-09,  avg # of iterations =  4.4

     total cpu time spent up to now is       13.7 secs

     total energy              =     -59.27454274 Ry
     estimated scf accuracy    <       0.00000046 Ry

     iteration #  8     ecut=    70.00 Ry     beta= 0.70
     Davidson diagonalization with overlap
     ethr =  1.71E-09,  avg # of iterations =  2.1

     total cpu time spent up to now is       15.1 secs

     End of self-consistent calculation

          k = 0.0000 0.0000 0.0000 (  5617 PWs)   bands (ev):

   -35.3194  -4.6727   1.2432   1.2432   2.2089   3.0558   3.0558   6.1043
     6.1043   6.5791   8.1306   8.1306   8.5878  11.0543  12.4307  12.4307
    12.4502  12.4502

          k =-0.0763-0.0440 0.1286 (  5598 PWs)   bands (ev):

   -35.3194  -4.5511   0.6073   0.9373   2.3991   3.1577   3.6537   5.7147
     6.1237   6.3014   8.4417   8.6609   9.3209  10.7877  11.2015  11.8498
    12.8794  14.3399

          k =-0.1526-0.0881 0.2571 (  5597 PWs)   bands (ev):

   -35.3194  -4.1937  -0.4877   0.4963   2.3523   3.7067   4.6165   5.0899
     5.6509   6.7328   8.8502   9.1075  10.0365  10.5081  11.4999  12.0999
    13.1564  14.4264

          k =-0.2289-0.1321 0.3857 (  5615 PWs)   bands (ev):

   -35.3194  -3.6364  -1.5570   0.1930   2.1897   4.4779   4.6648   4.9551
     6.0854   6.6111   8.3705   8.9415  10.9633  11.7093  12.4445  13.0328
    13.3246  13.7765

          k = 0.3051 0.1762-0.5142 (  5624 PWs)   bands (ev):

   -35.3194  -3.1724  -2.2008   0.0874   2.1208   4.5245   4.8882   5.0320
     6.1040   6.9806   7.4519   9.3755  11.4947  12.5605  13.0799  13.3452
    13.3591  13.5259

          k =-0.0763 0.0440 0.2571 (  5606 PWs)   bands (ev):

   -35.3194  -4.3048  -0.1388   0.5295   2.4405   3.4093   4.4735   5.2425
     5.8516   6.4153   8.5651   9.2429  10.0566  10.4091  11.5045  11.5588
    13.7178  14.3787

          k =-0.1526 0.0000 0.3857 (  5616 PWs)   bands (ev):

   -35.3194  -3.8361  -1.1116   0.0440   2.5190   3.8568   4.6100   5.3965
     5.9357   6.6110   8.2177   9.0631  10.7292  11.1422  12.1308  12.4308
    14.1911  14.4665

          k =-0.2289-0.0440 0.5142 (  5615 PWs)   bands (ev):

   -35.3193  -3.2342  -2.0149  -0.2205   2.5064   4.1344   4.6414   5.4860
     6.0598   6.9327   8.0803   8.8710  11.4400  11.5501  12.6993  13.4060
    13.5021  14.1768

          k = 0.3051 0.2643-0.3857 (  5622 PWs)   bands (ev):

   -35.3194  -3.2646  -1.9795  -0.2456   2.5828   4.1230   4.4939   5.6096
     6.0532   6.9539   8.1460   9.1989  10.9896  11.7168  12.3770  12.9613
    13.3147  14.2250

          k = 0.2289 0.2202-0.2571 (  5622 PWs)   bands (ev):

   -35.3194  -3.8674  -1.0754  -0.0220   2.7886   3.7022   4.3746   5.4902
     6.2292   6.5232   8.7224   9.3055  10.1582  11.3269  11.6651  12.0957
    13.0439  14.1882

          k = 0.1526 0.1762-0.1286 (  5607 PWs)   bands (ev):

   -35.3194  -4.3248  -0.1612   0.4800   2.9186   3.1086   4.3403   5.1116
     6.2026   6.4805   9.0206   9.3039   9.7260  10.1139  11.4448  11.8027
    12.2518  14.8460

          k = 0.0763 0.1321 0.0000 (  5596 PWs)   bands (ev):

   -35.3194  -4.5579   0.5077   1.0047   2.5070   3.3206   3.4300   5.7626
     5.8723   6.6347   8.6739   8.6886   8.9392  11.0393  11.1860  11.5012
    13.1227  13.2938

          k =-0.1526 0.0881 0.5142 (  5623 PWs)   bands (ev):

   -35.3194  -3.2850  -1.7964  -0.5328   2.9996   3.8052   4.2854   5.8837
     6.0792   7.0465   8.2091   8.7856  10.6800  11.5103  12.4364  13.4311
    13.5730  14.3266

          k =-0.2289 0.0440 0.6428 (  5632 PWs)   bands (ev):

   -35.3194  -2.8113  -2.3237  -0.7535   3.2692   3.7816   4.2397   5.4053
     6.4647   7.9787   8.2449   8.7674  10.4596  10.7108  12.6128  13.1183
    13.7343  14.6392

          k = 0.3051 0.3524-0.2571 (  5636 PWs)   bands (ev):

   -35.3194  -3.3573  -1.7523  -0.5349   3.3952   3.6435   3.9738   5.8459
     6.5229   7.0395   8.3442   9.4716  10.3293  10.7528  11.9093  12.8931
    13.4361  14.2458

          k = 0.2289 0.3083-0.1286 (  5626 PWs)   bands (ev):

   -35.3194  -3.8895  -1.1540   0.0846   2.7848   3.8123   4.3771   5.5748
     5.8494   7.0277   8.5735   9.7120  10.1640  10.4878  11.2687  12.3612
    13.2468  14.3838

          k = 0.1526 0.2643 0.0000 (  5624 PWs)   bands (ev):

   -35.3194  -4.2213  -0.5979   0.6103   2.4369   4.0435   4.1927   5.3368
     5.4466   7.0066   9.4516   9.7809   9.7979   9.8752  10.1524  12.3836
    13.3103  13.7710

          k =-0.2289 0.1321 0.7713 (  5629 PWs)   bands (ev):

   -35.3194  -2.9060  -2.2769  -0.7114   3.4395   3.7494   4.0759   5.3817
     7.1457   7.5336   8.1042   9.5452   9.7043  10.7358  12.0250  13.2101
    13.5696  14.8972

          k = 0.3051 0.4404-0.1286 (  5635 PWs)   bands (ev):

   -35.3194  -3.3374  -2.0261  -0.1242   2.6596   4.0705   4.6318   5.4078
     6.4091   7.5443   7.8863   8.9816  10.6312  11.3929  12.0020  12.8306
    13.4278  14.5702

          k = 0.2289 0.3964 0.0000 (  5636 PWs)   bands (ev):

   -35.3194  -3.7020  -1.6326   0.3261   2.2882   4.4407   4.7856   5.3747
     5.3961   7.5200   8.6150   8.7036  10.6773  11.1159  11.2283  13.3252
    13.8109  13.8986

          k = 0.3051-0.1762-1.0284 (  5640 PWs)   bands (ev):

   -35.3194  -3.2904  -2.2234   0.2260   2.2271   4.4553   4.8109   5.6489
     5.6973   7.8974   7.9166   8.2615  11.0017  12.2376  12.2512  13.2428
    13.2661  13.8202

          k = 0.0000 0.0000 0.3857 (  5612 PWs)   bands (ev):

   -35.3194  -3.9389  -0.5268  -0.5268   2.9532   4.3626   4.5292   4.5292
     6.3886   6.3886   8.5360   8.5360  10.4013  11.6307  11.6307  11.7346
    14.0012  14.9819

          k =-0.0763-0.0440 0.5142 (  5618 PWs)   bands (ev):

   -35.3194  -3.3716  -1.5553  -0.8392   3.3155   3.7964   4.8939   5.6607
     6.4317   6.6825   8.0583   8.0813  10.3128  11.9811  12.1437  12.7699
    13.8890  14.2968

          k =-0.1526-0.0881 0.6428 (  5625 PWs)   bands (ev):

   -35.3194  -2.9039  -2.1751  -0.9701   3.4987   3.5806   5.2336   6.0458
     6.1999   7.2218   7.2938   8.8096  10.2828  11.0638  12.0238  12.7887
    14.2764  15.0058

          k = 0.3814 0.2202-0.2571 (  5635 PWs)   bands (ev):

   -35.3194  -3.4419  -1.4634  -0.8941   3.6986   3.7139   4.5105   5.6323
     6.5404   6.7338   8.4597   8.8854  10.1760  10.9964  11.2166  12.7522
    13.7097  14.0612

          k = 0.3051 0.1762-0.1286 (  5629 PWs)   bands (ev):

   -35.3194  -3.9911  -0.6266  -0.4442   3.5747   3.9850   4.0587   4.7789
     6.3392   6.7728   9.1333   9.4540  10.0947  10.4535  10.7692  11.5852
    12.9606  14.8255

          k = 0.2289 0.1321 0.0000 (  5610 PWs)   bands (ev):

   -35.3194  -4.3318  -0.2432   0.5777   2.7517   3.3880   4.2574   5.2039
     5.8820   6.7357   9.2278   9.5014   9.6813   9.8630  10.8404  11.9598
    12.5244  14.5230

          k = 0.1526 0.0881 0.1286 (  5605 PWs)   bands (ev):

   -35.3194  -4.4381   0.0243   1.1817   2.2695   2.7628   4.4344   5.6867
     6.0602   6.2125   8.4859   9.3378   9.6813   9.8046  11.5902  12.5275
    12.7416  13.6918

          k =-0.0763 0.0440 0.6428 (  5636 PWs)   bands (ev):

   -35.3194  -2.7422  -2.0977  -1.4149   3.3893   4.0796   5.2330   6.2046
     6.3424   7.1979   7.7048   8.1957   9.5175  11.0937  11.8542  12.5340
    15.0074  15.0887

          k =-0.1526 0.0000 0.7713 (  5632 PWs)   bands (ev):

   -35.3194  -2.8576  -2.0104  -1.3961   3.3652   4.5386   4.7367   6.2007
     6.3169   7.2138   8.3334   8.6442   9.0380  10.7052  11.2178  12.9623
    14.3110  14.7595

          k = 0.3814 0.3083-0.1286 (  5629 PWs)   bands (ev):

   -35.3194  -3.4680  -1.5871  -0.7438   3.6153   3.7880   4.9261   5.3432
     6.2172   7.2134   8.6830   8.7439   9.6681  11.0499  11.3877  12.3962
    13.8439  14.2473

          k = 0.3051 0.2643 0.0000 (  5628 PWs)   bands (ev):

   -35.3194  -3.8968  -1.1967   0.1372   2.7550   3.8257   4.7936   5.1209
     5.9048   7.0614   8.5212   9.7791  10.2388  10.5515  11.0675  12.2207
    13.2865  14.9238

          k = 0.2289 0.2202 0.1286 (  5622 PWs)   bands (ev):

   -35.3194  -4.1069  -0.8105   0.8127   2.2550   2.8753   5.0774   5.5908
     5.8666   6.6294   8.4978   9.2341  10.3414  10.7681  11.4915  12.4946
    13.4026  13.7697

          k = 0.1526 0.1762 0.2571 (  5602 PWs)   bands (ev):

   -35.3194  -4.0863  -0.7541   0.7537   2.1872   2.8418   5.1378   5.5716
     5.9773   6.2970   8.4195   9.4104   9.9679  11.1263  12.1413  12.4331
    13.1310  14.3377

          k =-0.1526 0.0881 0.8999 (  5623 PWs)   bands (ev):

   -35.3194  -3.0188  -2.1989  -0.8405   3.5032   3.7394   5.5525   5.8191
     5.9247   7.5262   8.0012   8.4248   9.9048  11.2189  11.3108  12.9404
    13.6656  14.8193

          k = 0.3814 0.3964 0.0000 (  5614 PWs)   bands (ev):

   -35.3194  -3.3436  -2.0556  -0.0915   2.6582   4.0749   4.8703   5.3903
     6.3062   7.3802   7.7564   9.0079  10.8743  11.6354  12.0919  12.4870
    13.5769  14.4269

          k = 0.3051 0.3524 0.1286 (  5628 PWs)   bands (ev):

   -35.3194  -3.5964  -1.6886   0.4182   2.0880   3.5150   4.8083   5.2236
     6.7576   7.1202   7.7068  10.1620  10.5024  11.2611  12.0147  13.3439
    13.7686  13.9591

          k = 0.2289 0.3083 0.2571 (  5611 PWs)   bands (ev):

   -35.3194  -3.6683  -1.4273   0.3696   2.4758   2.5768   4.7444   5.6127
     6.4003   7.0573   8.1626   9.8137  10.5623  11.7818  12.2532  13.0047
    13.3315  13.7955

          k = 0.1526 0.2643 0.3857 (  5613 PWs)   bands (ev):

   -35.3194  -3.5391  -1.6295   0.3067   2.0114   3.4793   4.8280   5.3779
     5.8894   7.0141   8.6489   9.4523  10.4825  12.1916  13.0173  13.1087
    13.3140  13.6099

          k = 0.3814-0.2202-0.8999 (  5634 PWs)   bands (ev):

   -35.3194  -3.1867  -2.2357   0.2812   2.0166   4.0680   4.3863   5.0866
     7.1195   7.3339   7.6424   9.5952  11.5444  11.8504  11.9780  13.4230
    13.7952  13.8994

          k = 0.3051-0.2643-0.7713 (  5630 PWs)   bands (ev):

   -35.3194  -3.1347  -2.0992   0.0321   2.3355   3.1600   4.2627   5.1105
     7.1293   7.8181   8.0396  10.5362  10.7453  11.1139  12.2516  13.0822
    13.9279  14.4394

          k = 0.2289-0.3083-0.6428 (  5620 PWs)   bands (ev):

   -35.3193  -3.0891  -2.0894  -0.0244   2.2740   3.2031   4.2771   5.1792
     6.2215   8.2627   8.8158   9.7065  10.5435  11.8565  12.4943  13.2799
    13.6478  14.3239

          k = 0.1526-0.3524-0.5142 (  5624 PWs)   bands (ev):

   -35.3194  -3.0788  -2.2183   0.1550   1.9335   4.0289   4.5016   5.2904
     5.5013   8.0413   8.3460   9.3083  11.1474  12.5321  12.8274  13.4428
    13.4557  14.0212

          k = 0.3051-0.1762-0.6428 (  5624 PWs)   bands (ev):

   -35.3193  -2.6123  -2.5307  -0.2598   2.7303   2.9666   3.8893   4.9738
     6.7289   8.6836   9.0101   9.8332  10.4601  11.0509  12.5513  13.4158
    13.7578  14.7005

          k = 0.2289-0.2202-0.5142 (  5615 PWs)   bands (ev):

   -35.3193  -3.0568  -2.1157  -0.0107   2.1794   3.2745   4.3404   5.1822
     6.0041   8.3603   8.7935   9.4373  10.9684  11.7150  12.7267  13.2243
    13.9543  14.4182

          k = 0.2289-0.1321-0.3857 (  5606 PWs)   bands (ev):

   -35.3193  -3.6361  -1.4254   0.3875   2.1236   2.8327   4.9880   5.6815
     5.7286   7.1069   8.2188  10.1275  10.2316  11.7858  12.5885  13.3789
    13.9999  14.2665

          k = 0.0000 0.0000 0.7713 (  5645 PWs)   bands (ev):

   -35.3194  -2.2197  -2.2197  -2.0403   3.1713   5.1065   5.7287   5.7287
     6.7703   6.7703   8.3490   8.3490   8.4436  10.7306  10.7306  12.6570
    14.8132  15.8082

          k =-0.0763-0.0440 0.8999 (  5622 PWs)   bands (ev):

   -35.3194  -2.8873  -2.1350  -1.2467   3.3647   4.5199   5.1698   5.8618
     6.5781   7.1023   7.7470   8.9554   9.2518  10.8222  11.1526  12.6288
    14.3644  14.7791

          k = 0.4577 0.2643 0.0000 (  5625 PWs)   bands (ev):

   -35.3194  -3.3887  -1.8624  -0.3962   3.3089   3.6405   4.4252   5.9316
     6.6141   6.8890   7.5850   9.8400  10.4271  11.2582  11.9317  12.0512
    13.6610  14.5204

          k = 0.3814 0.2202 0.1286 (  5626 PWs)   bands (ev):

   -35.3194  -3.6897  -1.4903   0.4730   2.3048   2.7890   4.8864   5.6199
     6.6891   6.9480   7.5884  10.0165  11.1239  11.4902  11.8888  12.5956
    13.5085  14.7053

          k = 0.3051 0.1762 0.2571 (  5611 PWs)   bands (ev):

   -35.3194  -3.7736  -1.2590   1.0598   1.8169   2.0998   5.2656   5.5147
     6.2473   7.1285   8.0180   9.2932  11.1595  12.1041  12.7410  12.7727
    13.6401  13.9322

          k =-0.0763 0.0440 1.0284 (  5618 PWs)   bands (ev):

   -35.3194  -2.9245  -2.3878  -0.5904   3.3915   3.7992   4.2759   6.2263
     6.8789   7.0051   7.1816   9.6006  10.5280  11.5014  12.0046  12.4433
    13.5214  14.3293

          k = 0.4577 0.3524 0.1286 (  5614 PWs)   bands (ev):

   -35.3194  -3.1531  -2.1621   0.1207   2.3030   3.2394   4.2111   5.8524
     6.7224   7.2477   7.8475  10.5048  11.2031  12.1668  12.2438  12.8555
    13.3617  13.9683

          k = 0.3814 0.3083 0.2571 (  5627 PWs)   bands (ev):

   -35.3194  -3.2964  -1.8409   0.7056   1.7121   2.2418   4.3202   5.6749
     6.8137   7.6447   8.3205  10.1241  11.7358  12.1325  12.7544  13.3387
    13.6230  13.9930

          k = 0.3051 0.2643 0.3857 (  5627 PWs)   bands (ev):

   -35.3194  -3.2630  -1.8134   0.6287   1.6638   2.2809   4.3450   5.6959
     6.0331   8.4409   8.5923  10.0655  10.8805  12.4783  12.9058  13.3681
    13.6029  14.3383

          k = 0.4577-0.2643-0.7713 (  5619 PWs)   bands (ev):

   -35.3193  -2.9000  -2.2724   0.4924   1.6320   2.6436   3.7527   5.6942
     7.1736   7.4539   8.9668  11.0295  11.4914  11.5180  12.5273  13.4499
    13.9353  14.1020

          k = 0.3814-0.3083-0.6428 (  5633 PWs)   bands (ev):

   -35.3194  -2.7935  -2.2290   0.3874   1.9010   2.0683   3.4906   5.6443
     6.7259   8.6688   9.6073  10.4561  11.2814  11.7939  12.0804  13.1308
    14.2810  14.4699

          k = 0.3051-0.3524-0.5142 (  5636 PWs)   bands (ev):

   -35.3194  -2.8227  -2.2649   0.3844   1.5799   2.7368   3.7082   5.6887
     5.9801   9.1131   9.6705   9.9261  10.6616  12.1359  12.1731  13.5562
    13.6512  14.9448

          k = 0.3814-0.2202-0.5142 (  5621 PWs)   bands (ev):

   -35.3193  -2.7581  -2.2444   0.3798   1.7111   2.2694   3.4554   5.7262
     6.3580   9.0557   9.8687  10.5561  10.6645  11.7696  12.2471  12.8798
    14.7197  14.7726

          k = 0.0000 0.0000 1.1570 (  5606 PWs)   bands (ev):

   -35.3193  -2.6447  -2.6447  -0.1124   2.8784   2.8784   3.7954   6.5274
     6.6660   6.6660   8.3325  11.0010  11.0010  12.2444  12.7130  12.7130
    13.2889  13.2889

          k = 0.5340 0.3083 0.2571 (  5615 PWs)   bands (ev):

   -35.3193  -2.8235  -2.2758   0.5206   1.7990   2.1126   3.5154   6.3243
     6.8642   7.3538   9.3057  11.0165  11.6197  12.3566  12.7584  13.2488
    13.6917  13.7889

          k = 0.4577 0.2643 0.3857 (  5636 PWs)   bands (ev):

   -35.3194  -2.8653  -2.0650   1.0286   1.3283   1.5425   3.3371   6.2169
     6.5589   8.6047   9.7930  10.2322  11.9914  12.1937  12.2674  13.5150
    13.7760  14.0017

          k = 0.5340-0.3083-0.6428 (  5629 PWs)   bands (ev):

   -35.3193  -2.5322  -2.3173   0.8981   1.3553   1.5693   2.7836   6.3911
     6.8391   8.6197  10.4921  10.9243  11.2051  11.8400  12.8102  13.1239
    13.6196  14.1209

          k = 0.4577-0.3524-0.5142 (  5626 PWs)   bands (ev):

   -35.3193  -2.5020  -2.3158   0.7919   1.2861   1.7658   2.7125   6.3593
     6.5415   9.4853  10.3436  10.8550  11.4808  11.5074  11.6076  13.7583
    13.8517  14.1451

          k = 0.0000 0.0000-1.5427 (  5654 PWs)   bands (ev):

   -35.3194  -2.3379  -2.3379   1.1358   1.1358   1.4248   2.1573   6.7222
     6.7222   9.9136  10.2366  11.0793  11.0793  11.5023  12.4492  13.7364
    14.1248  14.1248

     the Fermi energy is    11.2994 ev

!    total energy              =     -59.27454286 Ry
     estimated scf accuracy    <          4.6E-09 Ry
     smearing contrib. (-TS)   =      -0.00035857 Ry
     internal energy E=F+TS    =     -59.27418429 Ry

     The total energy is F=E-TS. E is the sum of the following terms:
     one-electron contribution =      16.01160579 Ry
     hartree contribution      =       7.02264350 Ry
     xc contribution           =     -24.34221291 Ry
     ewald contribution        =     -57.96622067 Ry

     convergence has been achieved in   8 iterations

     Forces acting on atoms (cartesian axes, Ry/au):

     atom    1 type  1   force =     0.00000000   -0.00000000   -0.00000000
     atom    2 type  2   force =    -0.56820664   -0.32805426    3.17238430
     atom    3 type  2   force =     0.56820664    0.32805426   -3.17238430
     atom    4 type  2   force =     0.56820664   -0.32805426    3.17238430
     atom    5 type  2   force =    -0.56820664    0.32805426   -3.17238430
     atom    6 type  2   force =    -0.00000000    0.65610851    3.17238430
     atom    7 type  2   force =    -0.00000000   -0.65610851   -3.17238430

     Total force =     7.935175     Total SCF correction =     0.000049


     Computing stress (Cartesian axis) and pressure

          total   stress  (Ry/bohr**3)                   (kbar)     P=     2315.72
   0.00359647   0.00000000   0.00000000          529.06        0.00        0.00
  -0.00000000   0.00359647   0.00000000           -0.00      529.06        0.00
  -0.00000000   0.00000000   0.04003282           -0.00        0.00     5889.03


     BFGS Geometry Optimization
     Energy error            =      0.0E+00 Ry
     Gradient error          =      3.2E+00 Ry/Bohr
     Cell gradient error     =      5.4E+03 kbar

     number of scf cycles    =   1
     number of bfgs steps    =   0

     enthalpy           new  =     -57.3425908588 Ry

     new trust radius        =       0.5000000000 bohr
ibrav =      5
 celldm(1) =      9.21214187
 celldm(4) =     -0.31219048
Input lattice vectors:
     0.81973891    -0.47327648     0.35810079
     0.00000000     0.94655296     0.35810079
    -0.81973891    -0.47327648     0.35810079
New lattice vectors in INITIAL alat:
     0.81973891    -0.47327648     0.35810079
     0.00000000     0.94655296     0.35810079
    -0.81973891    -0.47327648     0.35810079
New lattice vectors in NEW alat (for information only):
     0.80999706    -0.46765202     0.35384509
     0.00000000     0.93530404     0.35384509
    -0.80999706    -0.46765202     0.35384509
Discrepancy in bohr =     0.000000    0.000000    0.000000
     new conv_thr            =       0.0000000100 Ry

     new unit-cell volume =    628.71314 a.u.^3 (    93.16567 Ang^3 )
     density =      3.12721 g/cm^3

CELL_PARAMETERS (alat=  9.10266401)
   0.819738908  -0.473276479   0.358100787
   0.000000000   0.946552958   0.358100787
  -0.819738908  -0.473276479   0.358100787

ATOMIC_POSITIONS (crystal)
Li               0.5000000000        0.5000000000        0.5000000000
Si               1.1594613301        0.1594613201        0.6999779602
Si              -0.1594613301       -0.1594613201        1.3000220398
Si               0.6999779602        0.1594613301        1.1594613201
Si               0.3000220398       -0.1594613301        0.8405386799
Si               1.1594613201       -0.3000220398        1.1594613301
Si              -0.1594613201        0.3000220398        0.8405386699



     Writing config-only to output data dir ./output/LiSi.save/ :
     XML data file
     NEW-OLD atomic charge density approx. for the potential

     negative rho (up, down):  1.651E-03 0.000E+00

     total cpu time spent up to now is       16.8 secs

     per-process dynamical memory:    40.6 Mb

     Self-consistent Calculation

     iteration #  1     ecut=    70.00 Ry     beta= 0.70
     Davidson diagonalization with overlap
     c_bands:  3 eigenvalues not converged
     c_bands:  3 eigenvalues not converged
     c_bands:  1 eigenvalues not converged
     c_bands:  1 eigenvalues not converged
     c_bands:  1 eigenvalues not converged
     c_bands:  1 eigenvalues not converged
     c_bands:  2 eigenvalues not converged
     c_bands:  1 eigenvalues not converged
     c_bands:  1 eigenvalues not converged
     c_bands:  1 eigenvalues not converged
     c_bands:  1 eigenvalues not converged
     c_bands:  1 eigenvalues not converged
     c_bands:  1 eigenvalues not converged
     c_bands:  1 eigenvalues not converged
     c_bands:  1 eigenvalues not converged
     c_bands:  2 eigenvalues not converged
     c_bands:  1 eigenvalues not converged
     c_bands:  1 eigenvalues not converged
     c_bands:  2 eigenvalues not converged
     c_bands:  1 eigenvalues not converged
     c_bands:  1 eigenvalues not converged
     c_bands:  1 eigenvalues not converged
     c_bands:  1 eigenvalues not converged
     c_bands:  1 eigenvalues not converged
     c_bands:  1 eigenvalues not converged
     c_bands:  1 eigenvalues not converged
     c_bands:  2 eigenvalues not converged
     c_bands:  1 eigenvalues not converged
     c_bands:  1 eigenvalues not converged
     c_bands:  1 eigenvalues not converged
     ethr =  1.00E-06,  avg # of iterations = 18.3

     negative rho (up, down):  1.919E-06 0.000E+00

     total cpu time spent up to now is       22.7 secs

     total energy              =     -64.10970209 Ry
     estimated scf accuracy    <       0.20897825 Ry

     iteration #  2     ecut=    70.00 Ry     beta= 0.70
     Davidson diagonalization with overlap
     ethr =  7.74E-04,  avg # of iterations =  2.1

     total cpu time spent up to now is       24.2 secs

     total energy              =     -64.15256232 Ry
     estimated scf accuracy    <       0.02811123 Ry

     iteration #  3     ecut=    70.00 Ry     beta= 0.70
     Davidson diagonalization with overlap
     ethr =  1.04E-04,  avg # of iterations =  2.0

     total cpu time spent up to now is       25.5 secs

     total energy              =     -64.15808875 Ry
     estimated scf accuracy    <       0.00147568 Ry

     iteration #  4     ecut=    70.00 Ry     beta= 0.70
     Davidson diagonalization with overlap
     ethr =  5.47E-06,  avg # of iterations =  4.2

     total cpu time spent up to now is       27.1 secs

     total energy              =     -64.15845319 Ry
     estimated scf accuracy    <       0.00015923 Ry

     iteration #  5     ecut=    70.00 Ry     beta= 0.70
     Davidson diagonalization with overlap
     c_bands:  1 eigenvalues not converged
     ethr =  5.90E-07,  avg # of iterations =  3.4

     total cpu time spent up to now is       28.6 secs

     total energy              =     -64.15848534 Ry
     estimated scf accuracy    <       0.00000853 Ry

     iteration #  6     ecut=    70.00 Ry     beta= 0.70
     Davidson diagonalization with overlap
     ethr =  3.16E-08,  avg # of iterations =  3.8

     total cpu time spent up to now is       30.2 secs

     total energy              =     -64.15848777 Ry
     estimated scf accuracy    <       0.00000042 Ry

     iteration #  7     ecut=    70.00 Ry     beta= 0.70
     Davidson diagonalization with overlap
     ethr =  1.56E-09,  avg # of iterations =  3.8

     total cpu time spent up to now is       31.9 secs

     total energy              =     -64.15848793 Ry
     estimated scf accuracy    <       0.00000006 Ry

     iteration #  8     ecut=    70.00 Ry     beta= 0.70
     Davidson diagonalization with overlap
     ethr =  2.37E-10,  avg # of iterations =  2.2

     total cpu time spent up to now is       33.3 secs

     End of self-consistent calculation

          k = 0.0000 0.0000 0.0000 (  5617 PWs)   bands (ev):

   -36.0712  -5.0398   0.6413   0.6413   2.0953   2.0953   2.4196   5.9481
     5.9481   6.4434   6.4538   6.6448   6.6448   9.4102  10.6358  10.6358
    12.8867  12.8867

          k =-0.0762-0.0440 0.1164 (  5598 PWs)   bands (ev):

   -36.0710  -4.9307  -0.0610   0.4233   2.0791   2.6673   2.7837   5.3492
     5.5068   6.0933   7.0139   7.2755   7.8058   9.4796   9.7434  10.4733
    12.4535  13.5689

          k =-0.1525-0.0880 0.2327 (  5597 PWs)   bands (ev):

   -36.0709  -4.6098  -1.1496   0.0650   1.8653   3.3766   3.8185   4.7130
     4.9332   6.4801   7.9310   7.9401   8.5434   9.0943   9.8573  10.4232
    12.4886  14.0390

          k =-0.2287-0.1321 0.3491 (  5615 PWs)   bands (ev):

   -36.0709  -4.1112  -2.1599  -0.1925   1.6655   4.1230   4.2307   4.5475
     5.1273   6.3886   7.4886   8.2607   9.1005  10.0121  10.7247  11.3598
    11.8582  12.8822

          k = 0.3050 0.1761-0.4654 (  5624 PWs)   bands (ev):

   -36.0711  -3.7061  -2.7419  -0.2830   1.5896   4.0252   4.4364   4.8534
     5.8137   5.8166   6.8494   8.9583   9.3334  10.8278  10.8556  11.6047
    12.0512  12.2028

          k =-0.0762 0.0440 0.2327 (  5606 PWs)   bands (ev):

   -36.0709  -4.7231  -0.7598  -0.0774   2.4483   2.6310   3.7955   4.5642
     5.5871   6.2445   7.2766   8.0933   8.6361   9.0633   9.6875  10.1080
    12.6958  13.7892

          k =-0.1525-0.0000 0.3491 (  5616 PWs)   bands (ev):

   -36.0710  -4.3134  -1.6861  -0.4781   2.2486   3.3163   4.0010   4.9525
     5.4032   6.4049   7.6285   8.2871   8.6223   9.6534  10.3839  10.6947
    11.9452  12.8940

          k =-0.2287-0.0440 0.4654 (  5615 PWs)   bands (ev):

   -36.0710  -3.7768  -2.5333  -0.6520   2.0632   3.6038   4.2039   5.1349
     5.7909   6.0630   7.4324   8.5815   8.9560  10.0509  11.0615  11.1493
    12.0342  12.3201

          k = 0.3050 0.2641-0.3491 (  5622 PWs)   bands (ev):

   -36.0709  -3.7438  -2.5688  -0.6141   2.0127   3.6064   4.1719   5.0979
     5.7060   6.0907   7.4088   8.1000   9.6929   9.8858  10.7288  11.9578
    12.3023  12.4556

          k = 0.2287 0.2201-0.2327 (  5622 PWs)   bands (ev):

   -36.0710  -4.2774  -1.7208  -0.3784   2.1060   3.2357   4.0055   4.7485
     5.5654   6.0486   7.6350   8.1560   9.1690   9.5683  10.3108  10.7953
    12.7252  12.7680

          k = 0.1525 0.1761-0.1164 (  5607 PWs)   bands (ev):

   -36.0710  -4.6994  -0.7358   0.0129   2.2260   2.5781   3.6580   4.5439
     5.6271   5.9996   7.6984   8.1112   8.5759   8.8309   9.9277  10.2642
    12.1701  14.3320

          k = 0.0762 0.1321 0.0000 (  5596 PWs)   bands (ev):

   -36.0711  -4.9225   0.0552   0.3633   2.0691   2.5053   2.7713   5.3144
     5.3563   6.5324   6.7642   7.4715   7.6042   9.5533   9.8998  10.3483
    12.3435  13.3648

          k =-0.1525 0.0880 0.4654 (  5623 PWs)   bands (ev):

   -36.0710  -3.8336  -2.2844  -1.0160   2.7765   3.1850   3.6349   5.5120
     6.0927   6.2035   7.7008   8.2474   8.8277   9.3528  10.9055  11.2137
    11.7266  12.6842

          k =-0.2287 0.0440 0.5818 (  5632 PWs)   bands (ev):

   -36.0710  -3.3507  -2.8111  -1.1898   2.7999   3.2549   3.7091   4.8802
     6.3601   7.1404   7.5773   7.7974   8.8915   9.0715  10.9312  11.8026
    12.4306  13.0640

          k = 0.3050 0.3522-0.2327 (  5636 PWs)   bands (ev):

   -36.0710  -3.7564  -2.3113  -1.0038   2.7117   3.0539   3.6048   5.2412
     5.8052   6.5086   7.2023   8.4165   8.8975   9.9260  10.4795  11.9286
    12.2704  13.4054

          k = 0.2287 0.3081-0.1164 (  5626 PWs)   bands (ev):

   -36.0710  -4.2530  -1.6013  -0.5134   2.1116   3.1124   3.9283   4.6455
     5.1975   6.6448   7.6141   8.1851   9.0474   9.3930  10.1695  10.9924
    13.0483  13.2699

          k = 0.1525 0.2641 0.0000 (  5624 PWs)   bands (ev):

   -36.0711  -4.5778  -0.9824  -0.0624   1.7973   3.3193   3.4472   4.7133
     4.7712   7.0594   7.4888   8.3762   8.5938   9.0761   9.0954  10.9787
    12.6785  14.0477

          k =-0.2287 0.1321 0.6981 (  5629 PWs)   bands (ev):

   -36.0710  -3.2657  -2.8195  -1.2463   2.7794   3.2710   3.5639   4.7208
     6.5801   6.6111   7.4798   8.1666   8.7223   9.5019  10.6790  12.5673
    12.6494  13.2100

          k = 0.3050 0.4402-0.1164 (  5635 PWs)   bands (ev):

   -36.0710  -3.6758  -2.4513  -0.7766   1.9522   3.5214   3.9905   4.7012
     5.5280   6.3438   7.6323   8.0684   9.3744  10.2777  10.7390  12.0311
    12.2978  13.3035

          k = 0.2287 0.3962 0.0000 (  5636 PWs)   bands (ev):

   -36.0710  -4.0416  -2.0094  -0.3593   1.5578   3.8222   4.1666   4.3795
     4.7304   6.9655   7.4438   8.3306   8.8736   9.8423  10.6345  11.5510
    13.2702  13.3199

          k = 0.3050-0.1761-0.9308 (  5640 PWs)   bands (ev):

   -36.0711  -3.6013  -2.6235  -0.4628   1.4682   3.8501   4.1544   4.8556
     4.9250   6.3362   7.0746   8.7738   9.4302  10.5906  11.4020  11.8550
    12.6553  12.7319

          k = 0.0000 0.0000 0.3491 (  5612 PWs)   bands (ev):

   -36.0710  -4.4195  -1.0877  -1.0877   3.0757   3.7103   3.7853   3.7853
     6.2001   6.2001   7.8637   7.8637   8.8468   9.4810   9.4810  10.3615
    12.5615  12.5878

          k =-0.0762-0.0440 0.4654 (  5618 PWs)   bands (ev):

   -36.0710  -3.9275  -2.0515  -1.3063   3.1596   3.2027   4.3953   4.9648
     6.0266   6.4973   7.4110   7.5608   8.7775   9.5433  10.4674  11.3212
    11.4952  12.0279

          k =-0.1525-0.0880 0.5818 (  5625 PWs)   bands (ev):

   -36.0710  -3.4522  -2.6965  -1.3531   3.0333   3.0700   4.9595   5.6958
     5.7788   5.9786   6.7784   8.3165   8.7313   9.0774  10.2696  12.0055
    12.3287  13.0696

          k = 0.3812 0.2201-0.2327 (  5635 PWs)   bands (ev):

   -36.0711  -3.8489  -2.1437  -1.2186   3.0660   3.1876   4.1201   4.7762
     6.1879   6.2453   7.3005   7.7781   8.5315   9.8334  10.1637  11.7613
    12.5050  13.3412

          k = 0.3050 0.1761-0.1164 (  5629 PWs)   bands (ev):

   -36.0710  -4.3588  -1.1623  -0.9344   2.8956   3.4314   3.5779   3.7165
     5.9177   6.4708   7.4691   8.4724   8.6239   9.4526   9.7802  10.2941
    12.7952  13.4474

          k = 0.2287 0.1321 0.0000 (  5610 PWs)   bands (ev):

   -36.0711  -4.6911  -0.6115  -0.1054   2.2299   2.5239   3.5722   4.4531
     5.5057   6.5621   7.2724   8.1611   8.6799   8.8356   9.7523  10.3637
    12.3305  14.2568

          k = 0.1525 0.0880 0.1164 (  5605 PWs)   bands (ev):

   -36.0710  -4.8149  -0.5127   0.5947   1.8649   2.0204   3.7720   5.3584
     5.4483   5.7415   7.0335   8.2300   8.2309   8.5779  10.1151  10.7462
    12.7191  13.1142

          k =-0.0762 0.0440 0.5818 (  5636 PWs)   bands (ev):

   -36.0711  -3.3736  -2.5123  -1.8277   2.8193   3.9405   4.5830   5.6762
     5.9526   6.5481   7.1142   7.6725   8.0020   9.0003  10.0106  11.5765
    12.3840  13.1569

          k =-0.1525 0.0000 0.6981 (  5632 PWs)   bands (ev):

   -36.0711  -3.2583  -2.5939  -1.8292   2.7906   3.9557   4.3178   5.5538
     5.6275   7.0722   7.2333   7.4451   7.8500   9.3513   9.7561  11.8143
    13.4707  13.7711

          k = 0.3812 0.3081-0.1164 (  5629 PWs)   bands (ev):

   -36.0709  -3.8216  -1.9875  -1.3797   2.9551   3.1057   4.2937   4.3979
     5.8152   6.9237   7.4476   7.6993   8.3025   9.7407  10.6143  11.2943
    12.6781  13.1998

          k = 0.3050 0.2641 0.0000 (  5628 PWs)   bands (ev):

   -36.0711  -4.2445  -1.5427  -0.5516   2.0280   3.0830   3.8564   4.5060
     5.4551   6.6647   7.7219   8.1985   8.8047   9.3207  10.3912  10.8604
    13.2580  13.7931

          k = 0.2287 0.2201 0.1164 (  5622 PWs)   bands (ev):

   -36.0711  -4.4749  -1.2465   0.2001   1.6312   2.1181   4.6453   4.8401
     5.2070   6.1814   7.5251   7.8626   8.9377   9.6433  10.1704  11.0462
    12.8763  13.9386

          k = 0.1525 0.1761 0.2327 (  5602 PWs)   bands (ev):

   -36.0709  -4.4987  -1.3333   0.2406   1.6728   2.2640   4.9179   4.9354
     5.2911   5.8032   7.5645   7.7294   8.9674   9.7589  10.3939  10.7780
    12.7267  13.0858

          k =-0.1525 0.0880 0.8145 (  5623 PWs)   bands (ev):

   -36.0710  -3.3409  -2.6190  -1.4882   2.8767   2.9510   4.8988   5.0951
     5.3709   6.4238   7.3535   7.9871   8.5394   9.9204  10.0864  11.7604
    12.8875  13.4905

          k = 0.3812 0.3962 0.0000 (  5614 PWs)   bands (ev):

   -36.0710  -3.6669  -2.4216  -0.7747   1.8634   3.3444   3.9380   4.9351
     5.6226   6.1451   7.7314   8.2390   9.2801  10.1729  11.2205  11.5026
    12.5097  12.8987

          k = 0.3050 0.3522 0.1164 (  5628 PWs)   bands (ev):

   -36.0710  -3.9473  -2.0815  -0.2411   1.3758   2.7449   4.1543   4.7250
     5.7789   6.1562   7.7505   8.7834   9.1278  10.0187  11.0605  11.7013
    12.7829  13.4515

          k = 0.2287 0.3081 0.2327 (  5611 PWs)   bands (ev):

   -36.0709  -4.0687  -1.9408  -0.1447   1.7104   2.0529   4.3781   5.0972
     5.8221   6.3123   6.9438   8.8200   9.5616  10.0924  10.9772  11.5451
    12.3870  13.2702

          k = 0.1525 0.2641 0.3491 (  5613 PWs)   bands (ev):

   -36.0709  -4.0078  -2.1972  -0.1274   1.4515   2.9640   4.3856   4.9506
     5.5812   6.2580   7.7628   8.6441   8.7871  10.7439  10.8730  11.3990
    11.8424  12.9474

          k = 0.3812-0.2201-0.8145 (  5634 PWs)   bands (ev):

   -36.0710  -3.5094  -2.6422  -0.3914   1.2815   3.2921   3.6834   4.6159
     5.6342   6.6195   8.2046   8.2252  10.1448  10.4899  10.8895  12.3803
    12.5047  12.5446

          k = 0.3050-0.2641-0.6981 (  5630 PWs)   bands (ev):

   -36.0710  -3.5109  -2.5740  -0.5639   1.6873   2.5053   3.6620   4.7394
     6.0353   7.2041   7.4907   9.1063   9.8374  10.0291  10.8597  12.2325
    12.6692  12.9960

          k = 0.2287-0.3081-0.5818 (  5620 PWs)   bands (ev):

   -36.0710  -3.5512  -2.6210  -0.4868   1.6516   2.6558   3.7158   4.8490
     6.0191   7.3931   7.5396   8.9106   9.3581  10.2808  11.0164  11.6795
    12.1057  13.0193

          k = 0.1525-0.3522-0.4654 (  5624 PWs)   bands (ev):

   -36.0711  -3.6043  -2.7396  -0.2535   1.3684   3.5678   3.9150   4.8644
     5.2963   7.2069   7.7961   8.5489   9.0795  10.8631  11.0700  11.3577
    12.0268  12.8777

          k = 0.3050-0.1761-0.5818 (  5624 PWs)   bands (ev):

   -36.0710  -3.0795  -3.0248  -0.7743   2.2175   2.3243   3.2388   4.6918
     6.8517   7.1460   8.3481   8.9020   9.0340   9.6386  11.2810  11.5836
    12.5897  13.2568

          k = 0.2287-0.2201-0.4654 (  5615 PWs)   bands (ev):

   -36.0710  -3.5834  -2.6021  -0.5028   1.6955   2.6801   3.7090   4.9029
     5.9427   7.6479   8.2938   8.3312   8.8137  10.2325  10.6023  12.0785
    12.6711  12.7659

          k = 0.2287-0.1321-0.3491 (  5606 PWs)   bands (ev):

   -36.0709  -4.1042  -1.9605  -0.1693   1.8090   2.1330   4.3715   5.3747
     5.6711   6.3723   7.5359   7.9732   9.5184  10.3985  10.9658  11.4189
    11.5800  13.4666

          k = 0.0000 0.0000 0.6981 (  5645 PWs)   bands (ev):

   -36.0711  -2.7486  -2.5713  -2.5713   2.5694   5.0057   5.0535   5.0535
     6.1379   6.1379   6.8624   7.8105   7.8105   9.0632   9.0632  11.3021
    13.9944  14.3414

          k =-0.0762-0.0440 0.8145 (  5622 PWs)   bands (ev):

   -36.0710  -3.2213  -2.4481  -1.9753   2.7011   3.6854   4.2285   5.4920
     6.1215   6.4029   7.1563   7.9820   8.0948   9.3857   9.8922  11.2898
    13.0957  14.3415

          k = 0.4575 0.2641 0.0000 (  5625 PWs)   bands (ev):

   -36.0710  -3.7204  -2.1730  -1.1073   2.4658   2.9343   3.3928   5.5831
     5.6835   6.3406   7.5091   8.7719   8.7801   9.6630  10.9557  11.2748
    12.4372  13.4485

          k = 0.3812 0.2201 0.1164 (  5626 PWs)   bands (ev):

   -36.0711  -4.0443  -1.8550  -0.1822   1.5873   1.9705   4.0377   5.5275
     5.5453   6.3074   7.3288   8.5757   9.6206   9.9944  11.1569  11.2416
    13.3268  13.6055

          k = 0.3050 0.1761 0.2327 (  5611 PWs)   bands (ev):

   -36.0709  -4.1749  -1.7400   0.4908   1.3037   1.3244   4.6083   5.5012
     5.6903   6.3918   6.8468   7.8869  10.3513  10.3536  11.2238  11.2709
    12.5837  13.5421

          k =-0.0762 0.0440 0.9308 (  5618 PWs)   bands (ev):

   -36.0710  -3.2328  -2.7114  -1.3023   2.5434   2.9860   3.3499   5.2039
     6.2651   6.6328   7.5097   8.3331   9.2098  10.0072  10.7029  11.1999
    12.5746  12.9116

          k = 0.4575 0.3522 0.1164 (  5614 PWs)   bands (ev):

   -36.0709  -3.4856  -2.5099  -0.5507   1.4956   2.4174   3.4207   4.9706
     5.9390   7.2574   7.6677   9.1580   9.8608  10.2589  11.2533  11.9960
    12.1579  12.6399

          k = 0.3812 0.3081 0.2327 (  5627 PWs)   bands (ev):

   -36.0709  -3.6788  -2.2616   0.0884   1.0345   1.5187   3.6112   5.5820
     5.8018   7.1538   7.6260   8.8638  10.2973  10.8161  11.3626  12.1769
    12.4852  12.8031

          k = 0.3050 0.2641 0.3491 (  5627 PWs)   bands (ev):

   -36.0710  -3.7137  -2.3115   0.1025   1.0621   1.6650   3.7006   5.6862
     5.8369   7.1670   7.7421   8.5249  10.1239  10.6655  11.0876  12.1159
    12.5137  12.7029

          k = 0.4575-0.2641-0.6981 (  5619 PWs)   bands (ev):

   -36.0709  -3.2560  -2.6906  -0.1559   0.9337   1.9256   3.0174   5.4960
     5.7859   7.6291   8.3967   9.5672  10.1781  10.3866  11.1149  12.0798
    12.1945  12.9119

          k = 0.3812-0.3081-0.5818 (  5633 PWs)   bands (ev):

   -36.0710  -3.2216  -2.7007  -0.1781   1.2188   1.4727   2.8219   5.6211
     6.6939   7.0372   8.9370   9.1962  10.1917  10.4137  10.8272  11.3268
    12.9108  13.3680

          k = 0.3050-0.3522-0.4654 (  5636 PWs)   bands (ev):

   -36.0710  -3.3221  -2.7421  -0.1073   0.9703   2.1275   3.0863   5.6587
     5.8285   7.9554   8.6739   8.9157   9.1879  10.2990  11.1197  11.2773
    13.1732  13.6681

          k = 0.3812-0.2201-0.4654 (  5621 PWs)   bands (ev):

   -36.0710  -3.2516  -2.7011  -0.1697   1.1948   1.5582   2.8380   5.6440
     6.5255   7.8354   8.3198   9.1519   9.9111   9.9600  11.0562  11.5251
    13.3347  13.7165

          k =-0.0000 0.0000 1.0472 (  5606 PWs)   bands (ev):

   -36.0710  -2.9680  -2.9680  -0.8017   2.0235   2.0235   3.0462   4.7544
     6.9446   6.9446   8.0139   9.5621   9.5621  10.9979  11.0767  11.0767
    12.5305  12.5305

          k = 0.5337 0.3081 0.2327 (  5615 PWs)   bands (ev):

   -36.0709  -3.1864  -2.6475  -0.1422   1.0687   1.3617   2.7784   5.4163
     6.5814   7.2807   8.8056   9.7034  10.2194  10.8672  11.3749  11.6402
    11.7818  12.9939

          k = 0.4575 0.2641 0.3491 (  5636 PWs)   bands (ev):

   -36.0711  -3.2893  -2.5059   0.4427   0.7387   0.8030   2.6690   6.4356
     6.5342   6.9206   8.8234   9.1072  10.2733  10.7092  11.5167  11.6743
    12.7576  13.3645

          k = 0.5337-0.3081-0.5818 (  5629 PWs)   bands (ev):

   -36.0711  -2.9332  -2.7422   0.2512   0.6692   0.9220   2.1055   6.5386
     6.6754   7.2928   9.4888   9.8240  10.0777  10.2166  11.4880  11.6408
    11.9638  13.4083

          k = 0.4575-0.3522-0.4654 (  5626 PWs)   bands (ev):

   -36.0710  -2.9580  -2.7557   0.2231   0.6658   1.0491   2.1041   6.5842
     6.8004   7.5933   8.5093   9.9106  10.0730  10.2632  11.1254  11.6186
    12.6613  13.3909

          k =-0.0000-0.0000-1.3963 (  5654 PWs)   bands (ev):

   -36.0711  -2.7643  -2.7643   0.5243   0.5243   0.6473   1.5664   7.1770
     7.1770   7.4674   8.5927   9.8395   9.8395  10.7175  11.9903  11.9903
    12.0960  12.5077

     the Fermi energy is     9.9609 ev

!    total energy              =     -64.15848795 Ry
     estimated scf accuracy    <          5.7E-10 Ry
     smearing contrib. (-TS)   =      -0.00088882 Ry
     internal energy E=F+TS    =     -64.15759912 Ry

     The total energy is F=E-TS. E is the sum of the following terms:
     one-electron contribution =      15.72778565 Ry
     hartree contribution      =       5.84432577 Ry
     xc contribution           =     -23.27624558 Ry
     ewald contribution        =     -62.45346496 Ry

     convergence has been achieved in   8 iterations

     Forces acting on atoms (cartesian axes, Ry/au):

     atom    1 type  1   force =     0.00000000   -0.00000000    0.00000000
     atom    2 type  2   force =     0.02603392    0.01503069    0.47648227
     atom    3 type  2   force =    -0.02603392   -0.01503069   -0.47648227
     atom    4 type  2   force =    -0.02603392    0.01503069    0.47648227
     atom    5 type  2   force =     0.02603392   -0.01503069   -0.47648227
     atom    6 type  2   force =     0.00000000   -0.03006138    0.47648227
     atom    7 type  2   force =    -0.00000000    0.03006138   -0.47648227

     Total force =     1.169459     Total SCF correction =     0.000020


     Computing stress (Cartesian axis) and pressure

          total   stress  (Ry/bohr**3)                   (kbar)     P=      728.12
   0.00347631  -0.00000000  -0.00000000          511.38       -0.00       -0.00
  -0.00000000   0.00347631   0.00000000           -0.00      511.38        0.00
  -0.00000000   0.00000000   0.00789634           -0.00        0.00     1161.59

     Energy error            =      4.7E+00 Ry
     Gradient error          =      4.8E-01 Ry/Bohr
     Cell gradient error     =      6.6E+02 kbar

     number of scf cycles    =   2
     number of bfgs steps    =   1

     enthalpy           old  =     -57.3425908588 Ry
     enthalpy           new  =     -62.0215354286 Ry

     CASE: enthalpy          _new < enthalpy          _old

     new trust radius        =       0.2000020186 bohr
ibrav =      5
 celldm(1) =      9.21797281
 celldm(4) =     -0.31513752
Input lattice vectors:
     0.82117836    -0.47410755     0.35550496
    -0.00000000     0.94821510     0.35550496
    -0.82117836    -0.47410755     0.35550496
New lattice vectors in INITIAL alat:
     0.82117836    -0.47410755     0.35550496
     0.00000000     0.94821510     0.35550496
    -0.82117836    -0.47410755     0.35550496
New lattice vectors in NEW alat (for information only):
     0.81090614    -0.46817688     0.35105791
     0.00000000     0.93635375     0.35105791
    -0.81090614    -0.46817688     0.35105791
Discrepancy in bohr =     0.000000    0.000000    0.000000
     new conv_thr            =       0.0000000100 Ry

     new unit-cell volume =    626.34963 a.u.^3 (    92.81544 Ang^3 )
     density =      3.13901 g/cm^3

CELL_PARAMETERS (alat=  9.10266401)
   0.821178361  -0.474107548   0.355504963
   0.000000000   0.948215095   0.355504963
  -0.821178361  -0.474107548   0.355504963

ATOMIC_POSITIONS (crystal)
Li               0.5000000000        0.5000000000        0.5000000000
Si               1.1797209329        0.1797209229        0.7044579325
Si              -0.1797209329       -0.1797209229        1.2955420675
Si               0.7044579325        0.1797209329        1.1797209229
Si               0.2955420675       -0.1797209329        0.8202790771
Si               1.1797209229       -0.2955420675        1.1797209329
Si              -0.1797209229        0.2955420675        0.8202790671



     Writing config-only to output data dir ./output/LiSi.save/ :
     XML data file
     NEW-OLD atomic charge density approx. for the potential

     total cpu time spent up to now is       35.0 secs

     per-process dynamical memory:    40.6 Mb

     Self-consistent Calculation

     iteration #  1     ecut=    70.00 Ry     beta= 0.70
     Davidson diagonalization with overlap
     c_bands:  1 eigenvalues not converged
     c_bands:  1 eigenvalues not converged
     c_bands:  2 eigenvalues not converged
     c_bands:  1 eigenvalues not converged
     c_bands:  1 eigenvalues not converged
     c_bands:  1 eigenvalues not converged
     c_bands:  1 eigenvalues not converged
     ethr =  1.00E-06,  avg # of iterations = 14.8

     total cpu time spent up to now is       40.1 secs

     total energy              =     -64.49372662 Ry
     estimated scf accuracy    <       0.03786219 Ry

     iteration #  2     ecut=    70.00 Ry     beta= 0.70
     Davidson diagonalization with overlap
     ethr =  1.40E-04,  avg # of iterations =  2.4

     total cpu time spent up to now is       41.6 secs

     total energy              =     -64.50548684 Ry
     estimated scf accuracy    <       0.01631996 Ry

     iteration #  3     ecut=    70.00 Ry     beta= 0.70
     Davidson diagonalization with overlap
     ethr =  6.04E-05,  avg # of iterations =  2.0

     total cpu time spent up to now is       42.9 secs

     total energy              =     -64.50825152 Ry
     estimated scf accuracy    <       0.00015418 Ry

     iteration #  4     ecut=    70.00 Ry     beta= 0.70
     Davidson diagonalization with overlap
     ethr =  5.71E-07,  avg # of iterations =  5.3

     total cpu time spent up to now is       44.9 secs

     total energy              =     -64.50837756 Ry
     estimated scf accuracy    <       0.00004647 Ry

     iteration #  5     ecut=    70.00 Ry     beta= 0.70
     Davidson diagonalization with overlap
     ethr =  1.72E-07,  avg # of iterations =  1.9

     total cpu time spent up to now is       46.1 secs

     total energy              =     -64.50838115 Ry
     estimated scf accuracy    <       0.00000397 Ry

     iteration #  6     ecut=    70.00 Ry     beta= 0.70
     Davidson diagonalization with overlap
     ethr =  1.47E-08,  avg # of iterations =  3.5

     total cpu time spent up to now is       47.6 secs

     total energy              =     -64.50838245 Ry
     estimated scf accuracy    <       0.00000002 Ry

     iteration #  7     ecut=    70.00 Ry     beta= 0.70
     Davidson diagonalization with overlap
     ethr =  8.95E-11,  avg # of iterations =  5.2

     total cpu time spent up to now is       49.6 secs

     total energy              =     -64.50838250 Ry
     estimated scf accuracy    <       0.00000002 Ry

     iteration #  8     ecut=    70.00 Ry     beta= 0.70
     Davidson diagonalization with overlap
     ethr =  7.21E-11,  avg # of iterations =  2.3

     total cpu time spent up to now is       51.0 secs

     End of self-consistent calculation

          k = 0.0000 0.0000 0.0000 (  5617 PWs)   bands (ev):

   -35.8003  -4.7621   1.2085   1.2085   2.5574   2.6194   2.6194   5.8291
     5.8291   6.1692   6.1692   6.3631   6.8790  10.0464  11.1724  11.1724
    13.1160  13.1160

          k =-0.0761-0.0439 0.1172 (  5598 PWs)   bands (ev):

   -35.8001  -4.6470   0.4443   0.9220   2.4336   3.0093   3.3186   5.2199
     5.5624   5.9546   6.6369   6.9599   8.0762  10.0979  10.1237  10.9594
    12.6671  13.8341

          k =-0.1522-0.0879 0.2344 (  5597 PWs)   bands (ev):

   -35.8001  -4.3064  -0.7227   0.4953   2.1285   3.8220   4.0866   4.8989
     4.9709   6.4770   7.6880   7.9360   8.7038   9.6910   9.8336  11.0480
    12.6975  13.4246

          k =-0.2283-0.1318 0.3516 (  5615 PWs)   bands (ev):

   -35.8001  -3.7662  -1.8127   0.2024   1.8819   4.0063   4.5182   4.7267
     5.7764   6.8784   7.8983   8.0907   9.0649   9.7091  11.3454  11.6554
    11.9448  12.8893

          k = 0.3044 0.1758-0.4688 (  5624 PWs)   bands (ev):

   -35.8002  -3.2868  -2.4820   0.1009   1.7915   3.9140   4.3927   5.4056
     6.2768   6.4726   7.4935   8.4438   9.7228  10.4769  11.1363  11.3662
    11.9288  12.1432

          k =-0.0761 0.0439 0.2344 (  5606 PWs)   bands (ev):

   -35.8000  -4.4215  -0.3241   0.3456   2.5899   3.2045   4.3051   4.5992
     5.5187   6.2201   7.0404   7.9227   8.9272   9.4321  10.2474  10.3842
    12.8218  13.6521

          k =-0.1522-0.0000 0.3516 (  5616 PWs)   bands (ev):

   -35.8002  -3.9784  -1.3171  -0.1152   2.4495   3.6932   4.0894   5.1624
     5.7499   6.7263   7.7948   8.1335   8.8682   9.8260  10.6225  11.1189
    11.8196  12.9057

          k =-0.2283-0.0439 0.4688 (  5615 PWs)   bands (ev):

   -35.8001  -3.3798  -2.2387  -0.3183   2.2809   3.5483   4.6152   5.2275
     6.2217   6.7241   8.0478   8.4016   8.8820  10.4200  10.7865  11.0941
    12.2167  12.7050

          k = 0.3044 0.2637-0.3516 (  5622 PWs)   bands (ev):

   -35.8001  -3.3735  -2.2337  -0.2867   2.2584   3.4774   4.7389   5.1012
     6.2235   6.6742   7.6738   8.0435   9.8381   9.8948  11.1192  11.5582
    12.1563  13.0170

          k = 0.2283 0.2197-0.2344 (  5622 PWs)   bands (ev):

   -35.8002  -3.9687  -1.2865  -0.0297   2.4116   3.4368   4.1025   5.2512
     5.6764   6.2109   7.6342   8.2508   9.2344   9.8124  10.5949  11.2511
    12.6132  12.9145

          k = 0.1522 0.1758-0.1172 (  5607 PWs)   bands (ev):

   -35.8001  -4.4140  -0.2408   0.4434   2.7111   2.8035   4.0970   4.4755
     5.5015   6.0552   7.5201   7.9520   8.8991   9.0035  10.5521  10.6819
    12.3109  14.4633

          k = 0.0761 0.1318 0.0000 (  5596 PWs)   bands (ev):

   -35.8002  -4.6442   0.5532   0.9327   2.4130   3.0127   3.0985   5.1158
     5.1559   6.6246   6.7359   7.1698   7.5195  10.1692  10.3576  10.8464
    12.5526  13.6365

          k =-0.1522 0.0879 0.4688 (  5623 PWs)   bands (ev):

   -35.8001  -3.4493  -1.9526  -0.7264   2.8729   3.3261   4.0431   5.9687
     6.0591   6.8575   7.7791   8.5370   8.9012  10.0147  10.7165  10.7548
    12.3552  12.5330

          k =-0.2283 0.0439 0.5860 (  5632 PWs)   bands (ev):

   -35.8002  -2.9249  -2.4962  -0.9336   2.9855   3.1593   4.3215   5.2437
     6.4928   7.5136   7.7541   8.2144   8.8364   9.6692  10.6963  11.6097
    12.9182  13.0900

          k = 0.3044 0.3515-0.2344 (  5636 PWs)   bands (ev):

   -35.8002  -3.4438  -1.8608  -0.7246   3.0172   3.1311   3.8795   5.5625
     6.0981   6.6580   7.1613   8.7273   9.5173  10.1230  10.4946  11.8113
    12.3744  13.2814

          k = 0.2283 0.3076-0.1172 (  5626 PWs)   bands (ev):

   -35.8002  -3.9662  -1.1523  -0.0955   2.4610   3.3794   3.9469   4.8989
     5.2473   6.7426   7.8905   8.2042   9.3926   9.6231  10.3964  11.1918
    13.0225  13.4149

          k = 0.1522 0.2637 0.0000 (  5624 PWs)   bands (ev):

   -35.8002  -4.2981  -0.5460   0.5093   2.0665   3.7821   3.8007   4.4656
     4.6859   7.2313   7.4125   8.4982   8.8547   9.1034   9.4094  11.5567
    12.8559  14.3067

          k =-0.2283 0.1318 0.7032 (  5629 PWs)   bands (ev):

   -35.8001  -2.9925  -2.3287  -0.9830   2.8808   3.6677   3.6859   5.1568
     6.3424   6.9146   7.7801   8.7554   9.2675   9.4772  10.6872  12.5976
    12.6522  13.2627

          k = 0.3044 0.4394-0.1172 (  5635 PWs)   bands (ev):

   -35.8002  -3.4020  -2.0220  -0.3526   2.2599   3.5797   4.1752   4.7495
     5.8462   6.4830   8.0030   8.3911   9.5783  10.5924  11.2010  11.9772
    12.1443  13.2469

          k = 0.2283 0.3955 0.0000 (  5636 PWs)   bands (ev):

   -35.8002  -3.7649  -1.6055   0.2132   1.7919   4.0357   4.0790   4.6710
     4.7610   7.4254   7.4827   8.7584   9.0137  10.1142  10.5804  11.9930
    13.1468  13.3825

          k = 0.3044-0.1758-0.9376 (  5640 PWs)   bands (ev):

   -35.8002  -3.3467  -2.2094   0.1099   1.6924   3.9066   4.0498   4.9986
     5.2177   6.8135   7.2729   9.3290   9.3915  11.3858  11.4990  12.0560
    12.4859  12.6001

          k = 0.0000 0.0000 0.3516 (  5612 PWs)   bands (ev):

   -35.8001  -4.0882  -0.7218  -0.7218   3.2446   3.6885   4.3150   4.3150
     6.1579   6.1579   8.3110   8.3110   9.1224   9.1224   9.7252  10.7628
    12.4534  12.5560

          k =-0.0761-0.0439 0.4688 (  5618 PWs)   bands (ev):

   -35.8002  -3.5488  -1.7377  -0.9824   3.1333   3.3931   4.9278   5.3196
     6.2060   6.7971   7.8016   8.0464   9.0849   9.5119  10.0668  11.2973
    11.8627  11.9601

          k =-0.1522-0.0879 0.5860 (  5625 PWs)   bands (ev):

   -35.8002  -3.0272  -2.4119  -1.0460   2.9125   3.3530   5.5225   5.7816
     6.2151   6.4808   7.4080   8.1182   8.9091   9.1291  10.1900  12.1569
    12.4221  13.1263

          k = 0.3806 0.2197-0.2344 (  5635 PWs)   bands (ev):

   -35.8002  -3.5331  -1.7103  -0.9039   3.0119   3.4201   4.5239   5.3472
     6.2751   6.4933   7.6177   7.7055   8.8893   9.9498  10.2779  12.1016
    12.1421  13.4955

          k = 0.3044 0.1758-0.1172 (  5629 PWs)   bands (ev):

   -35.8002  -4.0717  -0.6442  -0.5809   3.3473   3.4188   3.6815   4.2103
     5.8411   6.6335   7.2995   8.7166   9.1453   9.7170  10.1123  10.2151
    13.0138  13.2351

          k = 0.2283 0.1318 0.0000 (  5610 PWs)   bands (ev):

   -35.8002  -4.4116  -0.1776   0.4739   2.4502   3.0123   3.9992   4.2377
     5.3631   6.6965   7.1287   8.2724   8.5942   9.1234  10.2019  10.9335
    12.4813  14.5556

          k = 0.1522 0.0879 0.1172 (  5605 PWs)   bands (ev):

   -35.8002  -4.5302  -0.0172   1.1303   2.1261   2.3877   4.2904   5.2272
     5.3211   5.7749   6.8517   7.9422   8.3533   8.9506  10.7575  11.2950
    12.9425  13.3556

          k =-0.0761 0.0439 0.5860 (  5636 PWs)   bands (ev):

   -35.8002  -2.9339  -2.2233  -1.5439   2.7006   4.1426   5.2301   6.0481
     6.3929   6.7434   7.6359   7.9592   8.3003   8.8381   9.5960  11.9942
    12.3105  13.0312

          k =-0.1522 0.0000 0.7032 (  5632 PWs)   bands (ev):

   -35.8002  -2.9428  -2.1499  -1.5367   2.6263   4.4101   4.6479   5.9769
     6.0529   7.1461   7.4008   7.8549   8.2492   9.2797   9.5389  12.0344
    13.5435  13.7964

          k = 0.3806 0.3076-0.1172 (  5629 PWs)   bands (ev):

   -35.8001  -3.5364  -1.5965  -0.9219   2.8825   3.3954   4.6432   4.7558
     5.8790   7.3454   7.3752   8.0238   8.5767  10.0578  10.7028  11.4375
    12.4546  13.0877

          k = 0.3044 0.2637 0.0000 (  5628 PWs)   bands (ev):

   -35.8002  -3.9643  -1.1552   0.0312   2.2518   3.5031   3.6166   4.9367
     5.3867   6.8539   7.8659   8.3016   9.2444   9.5995  10.3337  11.2105
    13.4309  13.6247

          k = 0.2283 0.2197 0.1172 (  5622 PWs)   bands (ev):

   -35.8002  -4.1878  -0.7851   0.7220   1.8508   2.4351   4.6404   5.0083
     5.3756   6.2415   7.7492   7.8911   8.9763   9.5660  10.7143  11.6705
    13.0306  14.1247

          k = 0.1522 0.1758 0.2344 (  5602 PWs)   bands (ev):

   -35.8000  -4.1936  -0.8819   0.6346   1.8595   2.6822   4.9097   5.2199
     5.6047   5.9389   7.3799   7.7973   8.9232  10.0399  10.8280  11.3465
    12.8424  13.1291

          k =-0.1522 0.0879 0.8204 (  5623 PWs)   bands (ev):

   -35.8001  -3.0820  -2.2146  -1.0257   2.7038   3.3443   5.1383   5.3636
     5.6273   6.9243   7.4257   8.4863   8.6092  10.0715  10.1093  11.7892
    13.0333  13.6267

          k = 0.3806 0.3955 0.0000 (  5614 PWs)   bands (ev):

   -35.8001  -3.3971  -2.0425  -0.1945   2.0835   3.2944   4.0991   5.0419
     5.9027   6.4960   7.9847   8.6123   9.3140  10.8410  11.3189  11.5839
    12.3723  12.8409

          k = 0.3044 0.3515 0.1172 (  5628 PWs)   bands (ev):

   -35.8002  -3.6606  -1.6614   0.2723   1.6000   2.9890   4.1967   4.6891
     5.9874   6.4469   8.0087   8.9958   9.4166  10.3067  11.2628  12.0289
    12.7208  13.3763

          k = 0.2283 0.3076 0.2344 (  5611 PWs)   bands (ev):

   -35.8001  -3.7576  -1.4810   0.1370   2.0404   2.3076   4.5279   5.2917
     5.8102   6.7738   6.9478   8.8587   9.7493  10.7058  11.4458  11.5520
    12.3106  13.2674

          k = 0.1522 0.2637 0.3516 (  5613 PWs)   bands (ev):

   -35.8001  -3.6606  -1.8215   0.2110   1.6160   3.3378   4.4634   4.9953
     6.0745   6.8800   7.3826   8.8106   9.2578  10.5590  11.1826  11.5249
    12.2856  12.9405

          k = 0.3806-0.2197-0.8204 (  5634 PWs)   bands (ev):

   -35.8002  -3.2416  -2.2195   0.1237   1.5037   3.4021   3.9626   4.4875
     5.7452   6.9609   8.5582   8.6728  10.2759  11.0031  11.1775  12.2816
    12.5032  12.6586

          k = 0.3044-0.2637-0.7032 (  5630 PWs)   bands (ev):

   -35.8001  -3.2064  -2.1111  -0.3184   2.1004   2.6016   3.9896   4.9333
     5.7304   7.4781   7.9162   9.6860   9.9512  10.5556  11.0941  12.1435
    12.6229  12.8973

          k = 0.2283-0.3076-0.5860 (  5620 PWs)   bands (ev):

   -35.8001  -3.1823  -2.2311  -0.2629   1.8341   3.0289   3.9414   5.0709
     6.2513   7.0401   8.1536   9.5037   9.6211  10.6967  11.0216  11.5652
    11.8737  13.3985

          k = 0.1522-0.3515-0.4688 (  5624 PWs)   bands (ev):

   -35.8002  -3.1832  -2.4524   0.0727   1.5245   3.8846   4.0779   4.9484
     5.6998   7.8523   8.0709   8.4788   9.4614  10.6037  11.0794  11.6464
    11.7957  12.8138

          k = 0.3044-0.1758-0.5860 (  5624 PWs)   bands (ev):

   -35.8001  -2.7085  -2.6104  -0.6024   2.2377   2.8912   3.4652   4.9450
     6.8837   7.0212   8.9588   8.9740   9.6863  10.3208  11.0672  11.6812
    12.3526  13.3952

          k = 0.2283-0.2197-0.4688 (  5615 PWs)   bands (ev):

   -35.8001  -3.1798  -2.2604  -0.2613   1.7877   3.2282   3.7708   5.2382
     6.0728   7.8835   8.2989   8.5961   9.4810  10.1457  11.1111  11.8312
    12.5946  13.3539

          k = 0.2283-0.1318-0.3516 (  5606 PWs)   bands (ev):

   -35.8001  -3.7627  -1.5554   0.1334   1.7988   2.7276   4.4001   5.7271
     5.8742   6.9806   7.2574   7.8861  10.0409  10.8674  11.1587  11.2559
    11.8363  13.4904

          k = 0.0000 0.0000 0.7032 (  5645 PWs)   bands (ev):

   -35.8002  -2.2980  -2.2980  -2.2380   2.4041   5.2795   5.4954   5.4954
     6.5891   6.5891   7.5578   7.9708   7.9708   8.6837   8.6837  11.4947
    13.8448  14.3366

          k =-0.0761-0.0439 0.8204 (  5622 PWs)   bands (ev):

   -35.8001  -2.9438  -2.1645  -1.4049   2.5238   3.9764   4.5395   5.8454
     6.6157   6.7432   7.6274   8.0375   8.1681   9.3589   9.8479  11.3483
    13.2831  14.2336

          k = 0.4567 0.2637 0.0000 (  5625 PWs)   bands (ev):

   -35.8002  -3.4405  -1.8471  -0.4879   2.6210   3.0648   3.4115   5.9651
     5.9888   6.4381   7.8032   8.7426   9.1566  10.2225  11.0085  11.3514
    12.3486  13.1415

          k = 0.3806 0.2197 0.1172 (  5626 PWs)   bands (ev):

   -35.8002  -3.7539  -1.4468   0.4449   1.6012   2.3116   4.0131   5.5734
     5.7472   6.6320   7.5575   8.6170   9.8121  10.5495  11.1764  11.6851
    13.1784  13.9663

          k = 0.3044 0.1758 0.2344 (  5611 PWs)   bands (ev):

   -35.8000  -3.8643  -1.2732   0.9146   1.2511   1.8146   4.8992   5.5980
     5.6195   6.8492   6.9061   7.8777  10.4936  10.5009  11.6291  12.0781
    12.4954  13.7012

          k =-0.0761 0.0439 0.9376 (  5618 PWs)   bands (ev):

   -35.8002  -2.9620  -2.3949  -0.6723   2.7281   2.8869   3.5087   5.5343
     6.5334   7.0109   7.8169   8.6156   9.4094  10.2524  10.7009  11.1819
    12.6654  13.0675

          k = 0.4567 0.3515 0.1172 (  5614 PWs)   bands (ev):

   -35.8001  -3.1946  -2.1417   0.0900   1.5701   2.5647   3.6273   4.8900
     6.1193   7.6687   7.9424   9.6145  10.0087  10.7175  11.5091  11.9370
    12.0976  12.7257

          k = 0.3806 0.3076 0.2344 (  5627 PWs)   bands (ev):

   -35.8001  -3.3602  -1.8160   0.4526   1.2706   1.6719   4.0454   5.3094
     5.8740   7.3787   8.1597   8.9487  10.7778  11.3187  11.7128  12.2298
    12.5106  12.7446

          k = 0.3044 0.2637 0.3516 (  5627 PWs)   bands (ev):

   -35.8001  -3.3582  -1.8810   0.3175   1.1077   2.1654   3.9841   5.8460
     6.0858   6.8001   8.3772   8.6502  10.5645  10.8213  11.6706  12.0899
    12.4727  12.9541

          k = 0.4567-0.2637-0.7032 (  5619 PWs)   bands (ev):

   -35.8001  -2.9449  -2.2518   0.2100   1.1998   1.9359   3.5658   5.1679
     5.8932   7.9068   8.9316  10.2595  10.4179  10.4735  11.5551  11.7804
    12.3462  13.0460

          k = 0.3806-0.3076-0.5860 (  5633 PWs)   bands (ev):

   -35.8002  -2.8530  -2.2539  -0.0716   1.3263   1.9024   3.1927   5.7926
     6.4929   7.1634   9.4229   9.6003  10.4753  10.9452  11.1104  11.3710
    12.9194  13.2822

          k = 0.3044-0.3515-0.4688 (  5636 PWs)   bands (ev):

   -35.8002  -2.8948  -2.3866   0.0748   1.0356   2.7076   3.2659   5.8966
     5.9612   7.5833   9.0252   9.6231   9.9016  10.0991  11.0485  11.8994
    12.8865  14.0822

          k = 0.3806-0.2197-0.4688 (  5621 PWs)   bands (ev):

   -35.8001  -2.8317  -2.3085  -0.0468   1.1102   2.2725   3.0606   5.8544
     6.7088   7.4723   8.6318   9.7579   9.8759  10.6998  11.5495  11.6356
    13.2985  13.4257

          k = 0.0000 0.0000 1.0548 (  5606 PWs)   bands (ev):

   -35.8001  -2.6539  -2.6539  -0.1357   2.0723   2.0723   3.4106   4.6356
     7.1824   7.1824   8.5083  10.0858  10.0858  10.9653  11.0536  11.0536
    12.6643  12.6643

          k = 0.5328 0.3076 0.2344 (  5615 PWs)   bands (ev):

   -35.8001  -2.8481  -2.2524   0.5069   0.9956   1.4036   3.3584   5.0400
     6.7866   7.5369   9.3896   9.9496  10.9712  11.3097  11.4717  11.5001
    11.6047  13.1626

          k = 0.4567 0.2637 0.3516 (  5636 PWs)   bands (ev):

   -35.8002  -2.9150  -2.0514   0.5881   0.5978   1.3988   3.0638   6.3622
     6.6269   7.0399   8.9966   9.7941  10.2450  11.2978  11.8683  12.0269
    12.7711  13.3534

          k = 0.5328-0.3076-0.5860 (  5629 PWs)   bands (ev):

   -35.8002  -2.5432  -2.2938   0.3299   0.8220   1.1570   2.6088   6.2513
     6.8930   7.5710   9.7314  10.1490  10.4806  10.6719  11.6867  11.9006
    12.0715  13.1704

          k = 0.4567-0.3515-0.4688 (  5626 PWs)   bands (ev):

   -35.8001  -2.5179  -2.3319   0.2159   0.5846   1.7404   2.4100   6.8195
     7.0226   7.2575   8.8082   9.8969  10.4912  11.0311  11.3938  12.1581
    12.6917  13.1180

          k =-0.0000-0.0000-1.4065 (  5654 PWs)   bands (ev):

   -35.8002  -2.3134  -2.3134   0.3533   0.3533   1.4102   2.0015   7.1423
     7.4536   7.4536   8.8192  10.0453  10.0453  11.5457  12.0828  12.1122
    12.4065  12.4065

     the Fermi energy is    10.1983 ev

!    total energy              =     -64.50838251 Ry
     estimated scf accuracy    <          3.1E-11 Ry
     smearing contrib. (-TS)   =       0.00012446 Ry
     internal energy E=F+TS    =     -64.50850696 Ry

     The total energy is F=E-TS. E is the sum of the following terms:
     one-electron contribution =      17.24109613 Ry
     hartree contribution      =       5.20091237 Ry
     xc contribution           =     -23.05218866 Ry
     ewald contribution        =     -63.89832680 Ry

     convergence has been achieved in   8 iterations

     Forces acting on atoms (cartesian axes, Ry/au):

     atom    1 type  1   force =     0.00000000   -0.00000000    0.00000000
     atom    2 type  2   force =     0.03674950    0.02121733    0.30588893
     atom    3 type  2   force =    -0.03674950   -0.02121733   -0.30588893
     atom    4 type  2   force =    -0.03674950    0.02121733    0.30588893
     atom    5 type  2   force =     0.03674950   -0.02121733   -0.30588893
     atom    6 type  2   force =    -0.00000000   -0.04243467    0.30588893
     atom    7 type  2   force =    -0.00000000    0.04243467   -0.30588893

     Total force =     0.756447     Total SCF correction =     0.000001


     Computing stress (Cartesian axis) and pressure

          total   stress  (Ry/bohr**3)                   (kbar)     P=      505.58
   0.00249932   0.00000000  -0.00000000          367.66        0.00       -0.00
  -0.00000000   0.00249932   0.00000000           -0.00      367.66        0.00
   0.00000000   0.00000000   0.00531199            0.00        0.00      781.42

     Energy error            =      3.6E-01 Ry
     Gradient error          =      3.1E-01 Ry/Bohr
     Cell gradient error     =      2.8E+02 kbar

     number of scf cycles    =   3
     number of bfgs steps    =   2

     enthalpy           old  =     -62.0215354286 Ry
     enthalpy           new  =     -62.3794633993 Ry

     CASE: enthalpy          _new < enthalpy          _old

     new trust radius        =       0.2990797800 bohr
ibrav =      5
 celldm(1) =      8.91362120
 celldm(4) =     -0.31444343
Input lattice vectors:
     0.79385578    -0.45833285     0.34441194
     0.00000000     0.91666570     0.34441194
    -0.79385578    -0.45833285     0.34441194
New lattice vectors in INITIAL alat:
     0.79385578    -0.45833285     0.34441194
     0.00000000     0.91666570     0.34441194
    -0.79385578    -0.45833285     0.34441194
New lattice vectors in NEW alat (for information only):
     0.81069212    -0.46805331     0.35171634
     0.00000000     0.93610663     0.35171634
    -0.81069212    -0.46805331     0.35171634
Discrepancy in bohr =     0.000000    0.000000    0.000000
     new conv_thr            =       0.0000000100 Ry

     new unit-cell volume =    567.09732 a.u.^3 (    84.03515 Ang^3 )
     density =      3.46698 g/cm^3

CELL_PARAMETERS (alat=  9.10266401)
   0.793855783  -0.458332850   0.344411945
   0.000000000   0.916665700   0.344411945
  -0.793855783  -0.458332850   0.344411945

ATOMIC_POSITIONS (crystal)
Li               0.5000000000        0.5000000000        0.5000000000
Si               1.2102426780        0.2102426680        0.7115806420
Si              -0.2102426780       -0.2102426680        1.2884193580
Si               0.7115806420        0.2102426780        1.2102426680
Si               0.2884193580       -0.2102426780        0.7897573320
Si               1.2102426680       -0.2884193580        1.2102426780
Si              -0.2102426680        0.2884193580        0.7897573220



     Writing config-only to output data dir ./output/LiSi.save/ :
     XML data file
     NEW-OLD atomic charge density approx. for the potential

     total cpu time spent up to now is       52.6 secs

     per-process dynamical memory:    40.9 Mb

     Self-consistent Calculation

     iteration #  1     ecut=    70.00 Ry     beta= 0.70
     Davidson diagonalization with overlap
     c_bands:  1 eigenvalues not converged
     c_bands:  1 eigenvalues not converged
     c_bands:  1 eigenvalues not converged
     c_bands:  1 eigenvalues not converged
     c_bands:  1 eigenvalues not converged
     c_bands:  1 eigenvalues not converged
     c_bands:  1 eigenvalues not converged
     c_bands:  1 eigenvalues not converged
     c_bands:  1 eigenvalues not converged
     c_bands:  1 eigenvalues not converged
     c_bands:  1 eigenvalues not converged
     c_bands:  1 eigenvalues not converged
     c_bands:  1 eigenvalues not converged
     c_bands:  1 eigenvalues not converged
     c_bands:  1 eigenvalues not converged
     c_bands:  1 eigenvalues not converged
     ethr =  1.00E-06,  avg # of iterations = 17.1

     total cpu time spent up to now is       58.3 secs

     total energy              =     -64.63538163 Ry
     estimated scf accuracy    <       0.08014537 Ry

     iteration #  2     ecut=    70.00 Ry     beta= 0.70
     Davidson diagonalization with overlap
     ethr =  2.97E-04,  avg # of iterations =  2.7

     total cpu time spent up to now is       59.9 secs

     total energy              =     -64.65969911 Ry
     estimated scf accuracy    <       0.03125523 Ry

     iteration #  3     ecut=    70.00 Ry     beta= 0.70
     Davidson diagonalization with overlap
     ethr =  1.16E-04,  avg # of iterations =  2.0

     total cpu time spent up to now is       61.1 secs

     total energy              =     -64.66533975 Ry
     estimated scf accuracy    <       0.00023442 Ry

     iteration #  4     ecut=    70.00 Ry     beta= 0.70
     Davidson diagonalization with overlap
     ethr =  8.68E-07,  avg # of iterations =  6.2

     total cpu time spent up to now is       63.2 secs

     total energy              =     -64.66553118 Ry
     estimated scf accuracy    <       0.00007567 Ry

     iteration #  5     ecut=    70.00 Ry     beta= 0.70
     Davidson diagonalization with overlap
     ethr =  2.80E-07,  avg # of iterations =  2.0

     total cpu time spent up to now is       64.6 secs

     total energy              =     -64.66554608 Ry
     estimated scf accuracy    <       0.00000024 Ry

     iteration #  6     ecut=    70.00 Ry     beta= 0.70
     Davidson diagonalization with overlap
     ethr =  8.78E-10,  avg # of iterations =  6.0

     total cpu time spent up to now is       66.9 secs

     total energy              =     -64.66554675 Ry
     estimated scf accuracy    <       0.00000022 Ry

     iteration #  7     ecut=    70.00 Ry     beta= 0.70
     Davidson diagonalization with overlap
     ethr =  8.06E-10,  avg # of iterations =  2.0

     total cpu time spent up to now is       68.2 secs

     End of self-consistent calculation

[...]
     Davidson diagonalization with overlap
     ethr =  3.33E-11,  avg # of iterations =  5.0

     total cpu time spent up to now is      264.9 secs

     total energy              =     -64.73087296 Ry
     estimated scf accuracy    <          1.7E-09 Ry

     iteration #  9     ecut=    70.00 Ry     beta= 0.70
     Davidson diagonalization with overlap
     ethr =  6.13E-12,  avg # of iterations =  2.0

     total cpu time spent up to now is      266.0 secs

     total energy              =     -64.73087297 Ry
     estimated scf accuracy    <          1.2E-10 Ry

     iteration # 10     ecut=    70.00 Ry     beta= 0.70
     Davidson diagonalization with overlap
     ethr =  4.51E-13,  avg # of iterations =  3.2

     total cpu time spent up to now is      267.2 secs

     End of self-consistent calculation

          k = 0.0000 0.0000 0.0000 (  5257 PWs)   bands (ev):

   -33.3023  -3.4331   4.0937   4.8802   4.8802   5.6455   5.6455   5.9668
     5.9668   7.0553   7.0553   7.5659   9.6422  12.3790  14.8296  14.8296
    15.6820  15.6820

          k =-0.0791-0.0457 0.1281 (  5257 PWs)   bands (ev):

   -33.3022  -3.2881   3.3485   3.7986   4.1863   5.7292   6.1549   6.6135
     6.8616   7.3589   7.4902   7.5779  10.6006  12.5132  13.0990  14.3308
    15.9701  17.3287

          k =-0.1583-0.0914 0.2563 (  5242 PWs)   bands (ev):

   -33.3022  -2.8547   1.6404   3.3033   3.4874   5.4029   6.2386   6.6218
     8.1130   8.1329   8.8437   9.3251  11.2813  12.0543  12.8464  14.0814
    16.4528  17.3561

          k =-0.2374-0.1371 0.3844 (  5245 PWs)   bands (ev):

   -33.3021  -2.1381   0.1354   2.9431   3.0602   5.1853   5.7764   7.3495
     8.9793   9.4849   9.9644  10.5623  11.2155  11.4441  14.6845  14.9580
    15.3136  15.3240

          k = 0.3166 0.1828-0.5126 (  5240 PWs)   bands (ev):

   -33.3021  -1.2516  -1.0170   2.8155   2.9179   5.1126   5.6169   8.2584
     8.4500   9.6190  10.5747  10.9893  11.8776  13.0938  13.4084  13.8840
    14.0622  15.8557

          k =-0.0791 0.0457 0.2563 (  5237 PWs)   bands (ev):

   -33.3022  -2.9862   2.1675   2.8449   4.0854   5.9266   6.0826   6.4056
     7.6051   7.8685   8.3660   9.1688  11.4652  12.1653  12.9016  13.3883
    16.5208  17.4862

          k =-0.1583-0.0000 0.3844 (  5232 PWs)   bands (ev):

   -33.3021  -2.3969   0.7712   2.1064   4.0061   5.1925   6.2038   6.8566
     8.6489   8.8118   9.7590  10.2773  11.2837  12.3196  13.6161  14.1898
    14.9656  16.0640

          k =-0.2374-0.0457 0.5126 (  5245 PWs)   bands (ev):

   -33.3021  -1.5296  -0.5303   1.7617   3.9158   4.7382   6.3529   7.5408
     8.5997   9.8885  10.0629  11.1972  11.9608  12.8007  13.2763  14.1670
    14.9040  15.2915

          k = 0.3166 0.2742-0.3844 (  5240 PWs)   bands (ev):

   -33.3021  -1.6409  -0.3572   1.7230   4.0059   4.5629   6.5811   7.4354
     8.6710   9.6132  10.0580  11.2414  11.7271  12.3128  13.3086  14.8351
    15.4193  15.7351

          k = 0.2374 0.2285-0.2563 (  5241 PWs)   bands (ev):

   -33.3021  -2.4686   1.0540   1.9665   4.3369   4.6411   6.5556   7.0273
     7.8663   9.1861   9.6974  10.1364  10.6884  12.4766  14.0061  14.5120
    15.3845  15.6781

          k = 0.1583 0.1828-0.1281 (  5244 PWs)   bands (ev):

   -33.3022  -3.0262   2.4583   2.7142   4.8888   4.9314   5.9510   6.3173
     7.3522   8.1256   8.5506   9.1483  11.2275  11.8511  13.3069  14.2075
    15.1483  17.8079

          k = 0.0791 0.1371 0.0000 (  5265 PWs)   bands (ev):

   -33.3022  -3.3010   3.1392   4.4800   4.5582   5.3311   5.7265   6.1366
     6.1435   7.8170   7.9445   8.1672  10.0033  12.6237  13.6713  14.0032
    15.9845  16.5236

          k =-0.1583 0.0914 0.5126 (  5231 PWs)   bands (ev):

   -33.3021  -1.6546  -0.0627   1.1004   4.4576   4.5529   6.6420   7.6589
     8.5178   9.0021  10.0372  11.8047  12.2166  12.6514  13.6670  13.8306
    14.3590  15.1067

          k =-0.2374 0.0457 0.6407 (  5233 PWs)   bands (ev):

   -33.3021  -1.0175  -0.6222   0.6869   4.2255   4.7690   7.0895   7.4695
     8.3300   9.2264  11.2484  11.4097  11.7037  12.4072  13.6521  14.4139
    14.8914  15.1408

          k = 0.3166 0.3655-0.2563 (  5238 PWs)   bands (ev):

   -33.3021  -1.8753   0.5942   0.7881   4.1772   5.1136   6.4076   7.3488
     8.1458   9.1341  10.2872  10.8816  12.4936  12.9299  13.4169  13.6011
    15.3354  15.7559

          k = 0.2374 0.3198-0.1281 (  5231 PWs)   bands (ev):

   -33.3021  -2.5240   1.0418   2.2436   4.3544   5.4238   5.5938   6.1923
     8.0074   9.1582  10.0553  10.5403  11.0130  12.4283  13.0741  14.6139
    15.5629  15.7820

          k = 0.1583 0.2742 0.0000 (  5237 PWs)   bands (ev):

   -33.3021  -2.9135   1.6553   3.9705   4.0680   4.6456   5.6468   6.4035
     6.8754   9.0500   9.4683   9.7108  11.0267  12.1377  12.1703  14.5213
    16.1111  17.3823

          k =-0.2374 0.1371 0.7688 (  5238 PWs)   bands (ev):

   -33.3020  -1.4201  -0.0198   0.5854   4.0266   5.5186   6.2967   7.2407
     8.1894   9.2978  11.0211  11.6663  12.1373  13.0210  13.1653  14.0115
    14.3388  15.4747

          k = 0.3166 0.4569-0.1281 (  5230 PWs)   bands (ev):

   -33.3020  -1.9080  -0.0602   1.9990   4.0627   5.2791   5.8023   6.2440
     8.6093   9.2286  10.8336  11.7376  11.8804  12.7942  13.6333  14.3319
    14.7659  15.1773

          k = 0.2374 0.4112 0.0000 (  5247 PWs)   bands (ev):

   -33.3021  -2.3211   0.3371   3.6304   3.7235   4.2132   5.5353   6.6868
     7.6717  10.0046  10.7524  11.2790  11.4611  11.7912  12.5661  15.3067
    15.9050  15.9798

          k = 0.3166-0.1828-1.0251 (  5228 PWs)   bands (ev):

   -33.3020  -1.8755  -0.3574   3.5128   3.6030   4.0673   5.4934   6.8176
     8.1742  10.0652  10.1381  12.0956  12.7287  13.0011  13.7701  14.1127
    14.1895  15.1776

          k =-0.0000 0.0000 0.3844 (  5264 PWs)   bands (ev):

   -33.3022  -2.5285   1.4294   1.4294   4.8607   4.9450   6.8115   6.8115
     7.8676   7.8676  10.5720  10.5720  11.6800  11.6800  12.6664  13.4666
    15.5214  15.5214

          k =-0.0791-0.0457 0.5126 (  5227 PWs)   bands (ev):

   -33.3021  -1.7856   0.1089   0.9821   4.1488   5.2302   7.0914   7.6024
     8.7785   8.8333   9.9044  10.9672  12.4053  12.7867  13.1965  13.3779
    13.7488  14.7307

          k =-0.1583-0.0914 0.6407 (  5237 PWs)   bands (ev):

   -33.3021  -1.0688  -0.7309   0.8283   3.7855   5.3268   7.2882   8.5307
     8.7557   9.4448   9.8050  10.4803  11.5919  11.8113  14.0288  14.0642
    14.6606  15.4405

          k = 0.3957 0.2285-0.2563 (  5245 PWs)   bands (ev):

   -33.3021  -1.9741   0.5520   0.9669   3.7323   5.5424   7.5041   7.6094
     7.9827   9.2791   9.7873   9.9511  11.6612  12.7831  13.3740  13.5996
    15.2298  15.5271

          k = 0.3166 0.1828-0.1281 (  5245 PWs)   bands (ev):

   -33.3021  -2.6430   1.3915   2.1159   3.9606   5.6983   6.4737   6.9542
     7.1714   8.6906   8.7816  11.1580  11.5856  12.1226  12.7916  13.4996
    15.3799  15.8257

          k = 0.2374 0.1371 0.0000 (  5255 PWs)   bands (ev):

   -33.3022  -3.0404   2.0875   3.9034   4.4396   4.4659   5.8793   6.4464
     6.9467   8.1282   8.7722   9.7527  10.7020  12.0099  13.3608  13.8224
    15.5166  17.8596

          k = 0.1583 0.0914 0.1281 (  5247 PWs)   bands (ev):

   -33.3022  -3.1564   3.0192   3.1891   4.2555   5.1839   6.0306   6.3021
     7.4525   7.8971   7.9174   8.6080  10.8243  11.7124  13.3477  15.0643
    15.9831  16.7435

          k =-0.0791 0.0457 0.6407 (  5225 PWs)   bands (ev):

   -33.3021  -0.8939  -0.5131   0.1884   3.5260   6.0701   7.9796   8.1543
     8.9120   9.1689   9.8750  10.7506  11.2363  11.7075  12.8214  14.2110
    14.6304  15.5026

          k =-0.1583-0.0000 0.7688 (  5222 PWs)   bands (ev):

   -33.3020  -1.3323   0.0117   0.3016   3.2819   6.5185   7.7145   7.9519
     8.4008   9.3078  10.1974  10.4532  11.4493  11.7367  12.5027  13.4630
    15.1213  16.1104

          k = 0.3957 0.3198-0.1281 (  5236 PWs)   bands (ev):

   -33.3021  -2.0488   0.2737   1.7258   3.3693   5.9348   6.8749   7.2321
     7.6648   9.6559   9.8468  10.7075  11.4785  12.9522  13.2840  14.0031
    14.2643  14.7470

          k = 0.3166 0.2742 0.0000 (  5228 PWs)   bands (ev):

   -33.3021  -2.5396   0.8315   3.3617   3.7834   4.3170   5.9904   6.6324
     7.8752   9.2702   9.5440  11.0262  11.8139  12.0013  12.4122  14.7205
    15.5564  16.0869

          k = 0.2374 0.2285 0.1281 (  5233 PWs)   bands (ev):

   -33.3021  -2.7698   1.6677   2.8543   4.2597   4.6619   5.4638   6.3786
     8.3713   8.8306   8.9685  10.2283  10.5396  11.9424  14.0874  14.7594
    16.2439  17.1160

          k = 0.1583 0.1828 0.2563 (  5243 PWs)   bands (ev):

   -33.3021  -2.7244   1.6789   2.7469   3.3114   5.2530   6.2690   6.7391
     7.7494   8.7731   9.4379   9.8548  10.0148  12.8521  13.7400  14.6115
    16.4775  16.8669

          k =-0.1583 0.0914 0.8970 (  5228 PWs)   bands (ev):

   -33.3020  -1.5713  -0.3966   1.5928   3.1805   5.9361   7.0914   7.1265
     8.2304   9.9117  10.7148  10.8121  11.2046  12.4123  13.1312  13.2702
    15.1711  15.9002

          k = 0.3957 0.4112 0.0000 (  5233 PWs)   bands (ev):

   -33.3020  -1.9153  -0.2194   3.0616   3.4856   4.1930   6.2367   6.5363
     8.6550   9.4800  10.8149  11.0766  11.9044  13.6163  13.7062  13.8729
    14.5573  15.0720

          k = 0.3166 0.3655 0.1281 (  5246 PWs)   bands (ev):

   -33.3021  -2.1765   0.3995   2.5778   3.8675   4.9276   5.1583   6.2210
     8.5134   9.5441  10.5087  10.6459  12.4838  12.8862  13.4778  14.8528
    15.3540  16.1687

          k = 0.2374 0.3198 0.2563 (  5249 PWs)   bands (ev):

   -33.3021  -2.2223   1.2374   1.3737   3.8249   4.6758   6.0797   7.0494
     7.8128   8.9598  10.3423  10.6948  11.3668  13.8773  14.7334  14.9298
    15.1541  15.7075

          k = 0.1583 0.2742 0.3844 (  5242 PWs)   bands (ev):

   -33.3021  -2.0107   0.2320   2.5128   2.7842   5.5162   6.0455   6.6419
     8.4903   9.4701  10.2494  10.5062  11.9602  12.8251  14.2880  14.9708
    15.2401  15.5899

          k = 0.3957-0.2285-0.8970 (  5240 PWs)   bands (ev):

   -33.3020  -1.7236  -0.2891   2.4756   3.7224   4.9143   5.2870   6.1014
     8.2370   9.8268  11.7034  12.0543  12.1703  13.1985  13.9586  14.1264
    14.8130  15.5781

          k = 0.3166-0.2742-0.7688 (  5255 PWs)   bands (ev):

   -33.3020  -1.6055   0.2263   1.0659   4.2705   4.4006   5.8702   6.7940
     7.5287   9.7732  11.4220  12.0733  12.7400  13.2960  13.9381  14.5532
    14.9858  15.9722

          k = 0.2374-0.3198-0.6407 (  5250 PWs)   bands (ev):

   -33.3021  -1.4191  -0.1206   1.2311   3.3851   5.0872   6.1864   6.7729
     8.1379   9.1632  11.7967  12.1452  12.4139  13.0767  13.5389  13.9703
    15.7375  16.4093

          k = 0.1583-0.3655-0.5126 (  5244 PWs)   bands (ev):

   -33.3021  -1.1212  -0.9113   2.4317   2.6057   5.6528   5.8991   6.9281
     7.7282  10.6937  11.3002  11.4111  12.1174  12.7289  13.3267  13.9431
    14.7940  16.4023

          k = 0.3166-0.1828-0.6407 (  5250 PWs)   bands (ev):

   -33.3020  -0.9667  -0.2631   0.5576   3.7216   4.9390   5.8819   6.7057
     8.8183   9.0549  11.3118  13.0133  13.1597  13.2678  13.6283  14.0541
    15.2529  15.5805

          k = 0.2374-0.2285-0.5126 (  5246 PWs)   bands (ev):

   -33.3021  -1.2713  -0.3944   1.4251   3.1308   5.4865   5.7847   7.1152
     7.8194   9.8340  11.3282  11.8601  12.1580  13.2373  14.1377  14.7110
    15.2053  15.7177

          k = 0.2374-0.1371-0.3844 (  5245 PWs)   bands (ev):

   -33.3021  -2.1366   0.6844   2.0726   2.9609   5.3233   5.9914   7.2936
     8.2618   8.9366   9.5563  10.6232  12.1466  13.9895  14.2385  14.6211
    14.8715  16.2425

          k =-0.0000 0.0000 0.7688 (  5231 PWs)   bands (ev):

   -33.3020  -0.6641  -0.6641   0.1435   2.9472   7.4996   8.0402   8.0402
     9.4086   9.4086  10.0658  10.0658  10.8706  10.8706  11.9057  12.5610
    15.8461  17.1002

          k =-0.0791-0.0457 0.8970 (  5219 PWs)   bands (ev):

   -33.3020  -1.3988  -0.5155   1.4343   2.8025   6.3986   6.9736   8.3750
     8.5392   9.5396  10.4109  10.8333  10.8390  11.9860  12.3338  12.6863
    15.8801  15.9713

          k = 0.4749 0.2742 0.0000 (  5236 PWs)   bands (ev):

   -33.3020  -1.9514  -0.0699   2.7269   3.2750   4.6188   5.7077   7.7665
     9.0028   9.1256   9.5579  11.1884  12.3238  13.4124  13.6677  13.9909
    14.0300  14.6917

          k = 0.3957 0.2285 0.1281 (  5240 PWs)   bands (ev):

   -33.3021  -2.2745   0.6668   3.0404   3.3556   4.3959   5.0164   7.3327
     8.3085   9.1259   9.9280  10.4223  12.7235  12.8133  14.1733  14.9787
    15.5141  15.8459

          k = 0.3166 0.1828 0.2563 (  5246 PWs)   bands (ev):

   -33.3021  -2.3410   1.6822   1.7236   3.1140   4.3049   6.8566   7.1766
     7.6688   8.6272   9.2054  10.9320  11.5565  13.6196  14.9687  15.6980
    16.1297  16.2409

          k =-0.0791 0.0457 1.0251 (  5230 PWs)   bands (ev):

   -33.3020  -1.4197  -0.7171   2.4800   3.1305   4.7824   5.5819   8.1083
     8.9011   9.7662   9.9505  11.8465  12.0811  12.3718  13.3554  13.5527
    15.1331  15.9382

          k = 0.4749 0.3655 0.1281 (  5250 PWs)   bands (ev):

   -33.3020  -1.6338  -0.2736   2.8697   3.1645   4.4025   4.7284   7.4852
     7.8902  10.0992  10.8459  11.7658  13.1470  13.3560  14.1128  14.3235
    15.0544  15.4953

          k = 0.3957 0.3198 0.2563 (  5246 PWs)   bands (ev):

   -33.3020  -1.7466   0.5699   1.6721   3.2061   3.7113   6.5274   6.9426
     7.5353   9.8082  10.0864  11.9394  13.6022  14.1409  14.4890  14.6970
    15.3698  16.6197

          k = 0.3166 0.2742 0.3844 (  5247 PWs)   bands (ev):

   -33.3020  -1.6361   0.4980   1.7101   2.2939   4.5877   6.4181   7.3019
     7.9759   8.9969  10.0859  12.6311  13.0096  13.5981  14.3907  15.0209
    15.9290  16.4297

          k = 0.4749-0.2742-0.7688 (  5227 PWs)   bands (ev):

   -33.3020  -1.2690  -0.0990   1.6275   3.3896   3.4611   6.2931   6.6509
     7.5571  10.7658  11.3113  12.4043  12.6931  13.3184  14.6503  15.2442
    16.1244  16.4478

          k = 0.3957-0.3198-0.6407 (  5246 PWs)   bands (ev):

   -33.3020  -1.0099   0.3363   0.6849   2.6282   4.1566   5.7953   7.3164
     8.5530   9.4354  11.4678  12.2255  12.9810  13.9354  14.7194  15.5954
    15.6669  16.2139

          k = 0.3166-0.3655-0.5126 (  5250 PWs)   bands (ev):

   -33.3020  -0.7413  -0.6004   1.7890   1.9628   5.0503   5.6803   7.2533
     7.8667  10.2697  11.2640  12.1289  12.6075  13.5898  14.2252  15.0255
    15.8784  16.8012

          k = 0.3957-0.2285-0.5126 (  5251 PWs)   bands (ev):

   -33.3020  -0.7742  -0.2144   1.1892   2.1424   4.6499   5.4876   7.4658
     8.7097   9.7561  11.0206  11.6721  13.1535  14.0619  15.0456  15.8030
    15.9313  16.2759

          k =-0.0000 0.0000 1.1533 (  5225 PWs)   bands (ev):

   -33.3020  -0.9668  -0.9668   2.5614   3.7583   3.7583   4.5833   7.3814
     9.1861   9.1861  11.7226  12.1648  12.8795  12.8795  14.2374  14.2374
    15.5556  15.5556

          k = 0.5540 0.3198 0.2563 (  5235 PWs)   bands (ev):

   -33.3020  -1.0973  -0.2168   2.1608   2.7612   3.0216   6.0917   6.6068
     8.7540   9.8782  11.3374  12.6757  12.8653  13.3578  15.3490  15.4758
    16.0322  16.2512

          k = 0.4749 0.2742 0.3844 (  5240 PWs)   bands (ev):

   -33.3020  -1.0474   0.8195   0.8350   1.9526   3.7039   5.6460   8.3187
     8.5973   9.4794  10.1569  12.8666  12.9855  14.3205  15.1077  15.1925
    16.0167  16.6885

          k = 0.5540-0.3198-0.6407 (  5238 PWs)   bands (ev):

   -33.3019  -0.5151   0.1792   0.9949   1.8626   3.3513   5.3070   8.2795
     9.0042  10.4794  10.9287  11.7198  12.2301  14.5258  14.9467  15.7069
    16.5752  16.7150

          k = 0.4749-0.3655-0.5126 (  5238 PWs)   bands (ev):

   -33.3019  -0.1552  -0.1051   1.1773   1.2445   3.9049   5.0359   8.8251
     9.1172   9.9706  11.0336  11.5577  11.8104  14.7460  15.4936  15.8278
    16.5208  16.6184

          k = 0.0000-0.0000-1.5377 (  5210 PWs)   bands (ev):

   -33.3019   0.5253   0.5253   0.5385   0.5385   3.4571   4.7834   9.6913
    10.3594  10.3594  10.7947  10.7947  10.9604  13.7678  15.2130  16.1501
    17.7731  17.8291

     the Fermi energy is    12.8606 ev

!    total energy              =     -64.73087297 Ry
     estimated scf accuracy    <          4.3E-12 Ry
     smearing contrib. (-TS)   =      -0.00035342 Ry
     internal energy E=F+TS    =     -64.73051955 Ry

     The total energy is F=E-TS. E is the sum of the following terms:
     one-electron contribution =      24.40120183 Ry
     hartree contribution      =       4.01081678 Ry
     xc contribution           =     -23.44709391 Ry
     ewald contribution        =     -69.69544425 Ry

     convergence has been achieved in  10 iterations

     Forces acting on atoms (cartesian axes, Ry/au):

     atom    1 type  1   force =     0.00000000    0.00000000    0.00000000
     atom    2 type  2   force =    -0.00000546   -0.00000315   -0.00003094
     atom    3 type  2   force =     0.00000546    0.00000315    0.00003094
     atom    4 type  2   force =     0.00000546   -0.00000315   -0.00003094
     atom    5 type  2   force =    -0.00000546    0.00000315    0.00003094
     atom    6 type  2   force =     0.00000000    0.00000630   -0.00003094
     atom    7 type  2   force =    -0.00000000   -0.00000630    0.00003094

     Total force =     0.000077     Total SCF correction =     0.000000


     Computing stress (Cartesian axis) and pressure

          total   stress  (Ry/bohr**3)                   (kbar)     P=      499.69
   0.00339701  -0.00000000   0.00000000          499.72       -0.00        0.00
  -0.00000000   0.00339701   0.00000000           -0.00      499.72        0.00
   0.00000000   0.00000000   0.00339642            0.00        0.00      499.63


     Writing all to output data dir ./output/LiSi.save/ :
     XML data file, charge density, pseudopotentials, collected wavefunctions

     init_run     :      1.56s CPU      1.89s WALL (       2 calls)
     electrons    :    222.49s CPU    235.20s WALL (      19 calls)
     update_pot   :      0.15s CPU      0.31s WALL (      17 calls)
     forces       :      3.51s CPU      3.74s WALL (      19 calls)
     stress       :     25.76s CPU     26.26s WALL (      19 calls)

     Called by init_run:
     wfcinit      :      1.00s CPU      1.10s WALL (       2 calls)
     potinit      :      0.03s CPU      0.04s WALL (       2 calls)
     hinit0       :      0.50s CPU      0.68s WALL (       2 calls)

     Called by electrons:
     c_bands      :    201.79s CPU    212.75s WALL (     128 calls)
     sum_band     :     19.74s CPU     20.44s WALL (     128 calls)
     v_of_rho     :      0.85s CPU      0.95s WALL (     145 calls)
     mix_rho      :      0.09s CPU      0.17s WALL (     128 calls)

     Called by c_bands:
     init_us_2    :      4.25s CPU      5.03s WALL (   19240 calls)
     cegterg      :    190.56s CPU    197.03s WALL (    8320 calls)

     Called by *egterg:
     cdiaghg      :     20.63s CPU     21.55s WALL (   42859 calls)
     h_psi        :    148.73s CPU    153.55s WALL (   44224 calls)
     g_psi        :      0.56s CPU      0.58s WALL (   35774 calls)

     Called by h_psi:
     h_psi:calbec :     18.77s CPU     19.43s WALL (   44224 calls)
     vloc_psi     :    117.67s CPU    121.48s WALL (   44224 calls)
     add_vuspsi   :     11.59s CPU     11.90s WALL (   44224 calls)

     General routines
     calbec       :     21.66s CPU     22.43s WALL (   50399 calls)
     fft          :      0.80s CPU      1.00s WALL (    1925 calls)
     ffts         :      0.03s CPU      0.03s WALL (     128 calls)
     fftw         :    121.33s CPU    125.20s WALL ( 1177590 calls)

     Parallel routines

     PWSCF        :    254.07s CPU    269.21s WALL


   This run was terminated on:  19:31:34  27Feb2025            

=------------------------------------------------------------------------------=
   JOB DONE.
=------------------------------------------------------------------------------=
