
     Program PWSCF v.7.2 starts on 30Dec2024 at  3:54:29 

     This program is part of the open-source Quantum ESPRESSO suite
     for quantum simulation of materials; please cite
         "P. Giannozzi et al., J. Phys.:Condens. Matter 21 395502 (2009);
         "P. Giannozzi et al., J. Phys.:Condens. Matter 29 465901 (2017);
         "P. Giannozzi et al., J. Chem. Phys. 152 154105 (2020);
          URL http://www.quantum-espresso.org", 
     in publications or presentations arising from this work. More details at
     http://www.quantum-espresso.org/quote

     Parallel version (MPI & OpenMP), running on       8 processor cores
     Number of MPI processes:                 8
     Threads/MPI process:                     1

     MPI processes distributed on     1 nodes
     482741 MiB available memory on the printing compute node when the environment starts

     Waiting for input...
     Reading input from standard input

     Current dimensions of program PWSCF are:
     Max number of different atomic species (ntypx) = 10
     Max number of k-points (npk) =  40000
     Max angular momentum in pseudopotentials (lmaxx) =  4

     R & G space division:  proc/nbgrp/npool/nimage =       8
     Subspace diagonalization in iterative solution of the eigenvalue problem:
     a serial algorithm will be used


     Parallelization info
     --------------------
     sticks:   dense  smooth     PW     G-vecs:    dense   smooth      PW
     Min         628     628    171                28180    28180    4010
     Max         629     629    172                28182    28182    4011
     Sum        5029    5029   1375               225447   225447   32085

     Using Slab Decomposition



     bravais-lattice index     =            3
     lattice parameter (alat)  =      16.7077  a.u.
     unit-cell volume          =    2331.9651 (a.u.)^3
     number of atoms/cell      =            7
     number of atomic types    =            2
     number of electrons       =        22.00
     number of Kohn-Sham states=           15
     kinetic-energy cutoff     =      80.0000  Ry
     charge density cutoff     =     320.0000  Ry
     scf convergence threshold =      1.0E-08
     mixing beta               =       0.7000
     number of iterations used =            8  plain     mixing
     energy convergence thresh.=      1.0E-04
     force convergence thresh. =      1.0E-03
     press convergence thresh. =      1.0E+00
     Exchange-correlation= PBE
                           (   1   4   3   4   0   0   0)
     nstep                     =           50


     celldm(1)=  16.707726  celldm(2)=   0.000000  celldm(3)=   0.000000
     celldm(4)=   0.000000  celldm(5)=   0.000000  celldm(6)=   0.000000

     crystal axes: (cart. coord. in units of alat)
               a(1) = (   0.500000   0.500000   0.500000 )  
               a(2) = (  -0.500000   0.500000   0.500000 )  
               a(3) = (  -0.500000  -0.500000   0.500000 )  

     reciprocal axes: (cart. coord. in units 2 pi/alat)
               b(1) = (  1.000000  0.000000  1.000000 )  
               b(2) = ( -1.000000  1.000000  0.000000 )  
               b(3) = (  0.000000 -1.000000  1.000000 )  


     PseudoPot. # 1 for Li read from file:
     ../pseudo/Li_ONCV_PBE_sr.upf
     MD5 check sum: 50ff420e78310ffa21704f3361e624a4
     Pseudo is Norm-conserving, Zval =  3.0
     Generated using ONCVPSP code by D. R. Hamann
     Using radial grid of 1944 points,  4 beta functions with: 
                l(1) =   0
                l(2) =   0
                l(3) =   1
                l(4) =   1

     PseudoPot. # 2 for Si read from file:
     ../pseudo/Si_ONCV_PBE_sr.upf
     MD5 check sum: e543d271109d17c80368dfa7c482276d
     Pseudo is Norm-conserving + core correction, Zval =  4.0
     Generated using ONCVPSP code by D. R. Hamann
     Using radial grid of 1510 points,  6 beta functions with: 
                l(1) =   0
                l(2) =   0
                l(3) =   1
                l(4) =   1
                l(5) =   2
                l(6) =   2

     atomic species   valence    mass     pseudopotential
        Li             3.00     6.94100     Li( 1.00)
        Si             4.00    28.08550     Si( 1.00)

     48 Sym. Ops., with inversion, found



   Cartesian axes

     site n.     atom                  positions (alat units)
         1           Li  tau(   1) = (   0.0000000   0.0000000   0.3414995  )
         2           Li  tau(   2) = (   0.0000000   0.0000000   0.6585005  )
         3           Li  tau(   3) = (   0.3414995   0.0000000   0.0000000  )
         4           Li  tau(   4) = (   0.6585005   0.0000000   0.0000000  )
         5           Li  tau(   5) = (   0.0000000   0.3414995   0.0000000  )
         6           Li  tau(   6) = (   0.0000000   0.6585005   0.0000000  )
         7           Si  tau(   7) = (   0.0000000   0.0000000   0.0000000  )

     number of k points=     8  Marzari-Vanderbilt smearing, width (Ry)=  0.0200
                       cart. coord. in units 2pi/alat
        k(    1) = (   0.0000000   0.0000000   0.0000000), wk =   0.0312500
        k(    2) = (   0.0000000  -0.2500000   0.2500000), wk =   0.3750000
        k(    3) = (   0.0000000   0.5000000  -0.5000000), wk =   0.1875000
        k(    4) = (  -0.2500000   0.7500000  -0.5000000), wk =   0.7500000
        k(    5) = (   0.0000000   0.0000000   0.5000000), wk =   0.1875000
        k(    6) = (   0.0000000   0.7500000  -0.2500000), wk =   0.3750000
        k(    7) = (   0.5000000  -0.5000000   0.5000000), wk =   0.0625000
        k(    8) = (   0.0000000   0.0000000  -1.0000000), wk =   0.0312500

     Dense  grid:   225447 G-vectors     FFT dimensions: (  90,  90,  90)

     Estimated max dynamical RAM per process >      44.82 MB

     Estimated total dynamical RAM >     358.60 MB

     Initial potential from superposition of free atoms

     starting charge      21.9720, renormalised to      22.0000
     Starting wfcs are   16 randomized atomic wfcs

     total cpu time spent up to now is        2.6 secs

     Self-consistent Calculation

     iteration #  1     ecut=    80.00 Ry     beta= 0.70
     Davidson diagonalization with overlap
     ethr =  1.00E-02,  avg # of iterations =  4.2

     total cpu time spent up to now is        3.6 secs

     total energy              =     -94.02447909 Ry
     estimated scf accuracy    <       0.89937044 Ry

     iteration #  2     ecut=    80.00 Ry     beta= 0.70
     Davidson diagonalization with overlap
     ethr =  4.09E-03,  avg # of iterations =  6.0

     total cpu time spent up to now is        4.7 secs

     total energy              =     -94.20590782 Ry
     estimated scf accuracy    <       4.46569479 Ry

     iteration #  3     ecut=    80.00 Ry     beta= 0.70
     Davidson diagonalization with overlap
     ethr =  4.09E-03,  avg # of iterations =  3.0

     total cpu time spent up to now is        5.6 secs

     total energy              =     -94.56270418 Ry
     estimated scf accuracy    <       0.09362380 Ry

     iteration #  4     ecut=    80.00 Ry     beta= 0.70
     Davidson diagonalization with overlap
     ethr =  4.26E-04,  avg # of iterations =  5.8

     total cpu time spent up to now is        6.6 secs

     total energy              =     -94.57609742 Ry
     estimated scf accuracy    <       0.00821747 Ry

     iteration #  5     ecut=    80.00 Ry     beta= 0.70
     Davidson diagonalization with overlap
     ethr =  3.74E-05,  avg # of iterations =  3.2

     total cpu time spent up to now is        7.5 secs

     total energy              =     -94.56962747 Ry
     estimated scf accuracy    <       0.05595184 Ry

     iteration #  6     ecut=    80.00 Ry     beta= 0.70
     Davidson diagonalization with overlap
     ethr =  3.74E-05,  avg # of iterations =  2.6

     total cpu time spent up to now is        8.4 secs

     total energy              =     -94.57682024 Ry
     estimated scf accuracy    <       0.00127875 Ry

     iteration #  7     ecut=    80.00 Ry     beta= 0.70
     Davidson diagonalization with overlap
     ethr =  5.81E-06,  avg # of iterations =  1.5

     total cpu time spent up to now is        9.1 secs

     total energy              =     -94.57696750 Ry
     estimated scf accuracy    <       0.00000808 Ry

     iteration #  8     ecut=    80.00 Ry     beta= 0.70
     Davidson diagonalization with overlap
     ethr =  3.67E-08,  avg # of iterations =  4.6

     total cpu time spent up to now is       10.3 secs

     total energy              =     -94.57700003 Ry
     estimated scf accuracy    <       0.00017307 Ry

     iteration #  9     ecut=    80.00 Ry     beta= 0.70
     Davidson diagonalization with overlap
     ethr =  3.67E-08,  avg # of iterations =  1.0

     total cpu time spent up to now is       11.0 secs

     total energy              =     -94.57699260 Ry
     estimated scf accuracy    <       0.00020427 Ry

     iteration # 10     ecut=    80.00 Ry     beta= 0.70
     Davidson diagonalization with overlap
     ethr =  3.67E-08,  avg # of iterations =  1.0

     total cpu time spent up to now is       11.7 secs

     total energy              =     -94.57695660 Ry
     estimated scf accuracy    <       0.00015143 Ry

     iteration # 11     ecut=    80.00 Ry     beta= 0.70
     Davidson diagonalization with overlap
     ethr =  3.67E-08,  avg # of iterations =  3.9

     total cpu time spent up to now is       12.7 secs

     total energy              =     -94.57697495 Ry
     estimated scf accuracy    <       0.00000090 Ry

     iteration # 12     ecut=    80.00 Ry     beta= 0.70
     Davidson diagonalization with overlap
     ethr =  4.07E-09,  avg # of iterations =  1.4

     total cpu time spent up to now is       13.5 secs

     total energy              =     -94.57697500 Ry
     estimated scf accuracy    <       0.00000024 Ry

     iteration # 13     ecut=    80.00 Ry     beta= 0.70
     Davidson diagonalization with overlap
     ethr =  1.07E-09,  avg # of iterations =  1.1

     total cpu time spent up to now is       14.2 secs

     total energy              =     -94.57697500 Ry
     estimated scf accuracy    <       0.00000021 Ry

     iteration # 14     ecut=    80.00 Ry     beta= 0.70
     Davidson diagonalization with overlap
     ethr =  9.70E-10,  avg # of iterations =  1.0

     total cpu time spent up to now is       14.9 secs

     total energy              =     -94.57697495 Ry
     estimated scf accuracy    <       0.00000021 Ry

     iteration # 15     ecut=    80.00 Ry     beta= 0.70
     Davidson diagonalization with overlap
     ethr =  9.48E-10,  avg # of iterations =  2.1

     total cpu time spent up to now is       15.6 secs

     End of self-consistent calculation

          k = 0.0000 0.0000 0.0000 ( 28075 PWs)   bands (ev):

   -48.8140 -48.8139 -48.8139 -48.8063 -48.8063 -48.8063  -7.0174  -2.4723
    -1.4400  -1.4400  -1.4400  -0.2648  -0.2648   0.3395   0.3395

          k = 0.0000-0.2500 0.2500 ( 28216 PWs)   bands (ev):

   -48.8140 -48.8139 -48.8139 -48.8063 -48.8063 -48.8063  -7.0102  -2.4743
    -1.5196  -1.4511  -1.3905  -0.8152  -0.4357  -0.0675   0.6897

          k = 0.0000 0.5000-0.5000 ( 28198 PWs)   bands (ev):

   -48.8140 -48.8139 -48.8139 -48.8063 -48.8063 -48.8063  -7.0029  -2.4324
    -1.6220  -1.5896  -1.4671  -0.8090  -0.5025  -0.2785   0.9341

          k =-0.2500 0.7500-0.5000 ( 28155 PWs)   bands (ev):

   -48.8140 -48.8139 -48.8139 -48.8063 -48.8063 -48.8063  -7.0029  -2.3749
    -1.9091  -1.5175  -1.1664  -0.9639  -0.7533   0.4970   0.5891

          k = 0.0000 0.0000 0.5000 ( 28220 PWs)   bands (ev):

   -48.8140 -48.8139 -48.8139 -48.8063 -48.8063 -48.8063  -7.0039  -2.4084
    -1.6577  -1.6577  -1.2012  -1.0931  -0.2567   0.0772   0.0772

          k = 0.0000 0.7500-0.2500 ( 28206 PWs)   bands (ev):

   -48.8140 -48.8139 -48.8139 -48.8063 -48.8063 -48.8063  -6.9975  -2.2611
    -1.8970  -1.7667  -1.2579  -1.1004  -0.5210   0.1121   0.7377

          k = 0.5000-0.5000 0.5000 ( 28256 PWs)   bands (ev):

   -48.8139 -48.8139 -48.8139 -48.8063 -48.8063 -48.8063  -7.0020  -2.0573
    -2.0573  -2.0573  -0.8354  -0.8354  -0.8354   0.6015   1.3691

          k = 0.0000 0.0000-1.0000 ( 28184 PWs)   bands (ev):

   -48.8140 -48.8139 -48.8139 -48.8063 -48.8063 -48.8063  -6.9922  -1.8961
    -1.8961  -1.8961  -1.5969  -1.5969   0.1855   0.4920   0.4920

     the Fermi energy is    -1.1130 ev

!    total energy              =     -94.57697497 Ry
     estimated scf accuracy    <          3.3E-09 Ry
     smearing contrib. (-TS)   =       0.00163583 Ry
     internal energy E=F+TS    =     -94.57861080 Ry

     The total energy is F=E-TS. E is the sum of the following terms:
     one-electron contribution =     -75.10001917 Ry
     hartree contribution      =      29.01026372 Ry
     xc contribution           =     -22.38939593 Ry
     ewald contribution        =     -26.09945942 Ry

     convergence has been achieved in  15 iterations

     Forces acting on atoms (cartesian axes, Ry/au):

     atom    1 type  1   force =     0.00000000    0.00000000   -0.03914623
     atom    2 type  1   force =     0.00000000    0.00000000    0.03914623
     atom    3 type  1   force =    -0.03914623    0.00000000    0.00000000
     atom    4 type  1   force =     0.03914623   -0.00000000    0.00000000
     atom    5 type  1   force =     0.00000000   -0.03914623    0.00000000
     atom    6 type  1   force =     0.00000000    0.03914623    0.00000000
     atom    7 type  2   force =    -0.00000000    0.00000000    0.00000000
     The non-local contrib.  to forces
     atom    1 type  1   force =     0.00000000   -0.00000000    0.04845614
     atom    2 type  1   force =     0.00000000    0.00000000   -0.04845614
     atom    3 type  1   force =     0.04845614    0.00000000   -0.00000000
     atom    4 type  1   force =    -0.04845614    0.00000000    0.00000000
     atom    5 type  1   force =     0.00000000    0.04845614   -0.00000000
     atom    6 type  1   force =     0.00000000   -0.04845614    0.00000000
     atom    7 type  2   force =     0.00000000   -0.00000000    0.00000000
     The ionic contribution  to forces
     atom    1 type  1   force =    -0.00000000   -0.00000000    0.21947695
     atom    2 type  1   force =     0.00000000    0.00000000   -0.21947695
     atom    3 type  1   force =     0.21947695   -0.00000000   -0.00000000
     atom    4 type  1   force =    -0.21947695    0.00000000    0.00000000
     atom    5 type  1   force =    -0.00000000    0.21947695   -0.00000000
     atom    6 type  1   force =     0.00000000   -0.21947695    0.00000000
     atom    7 type  2   force =    -0.00000000   -0.00000000   -0.00000000
     The local contribution  to forces
     atom    1 type  1   force =     0.00000000   -0.00000000   -0.30707660
     atom    2 type  1   force =    -0.00000000    0.00000000    0.30707660
     atom    3 type  1   force =    -0.30707660   -0.00000000   -0.00000000
     atom    4 type  1   force =     0.30707660    0.00000000    0.00000000
     atom    5 type  1   force =     0.00000000   -0.30707660    0.00000000
     atom    6 type  1   force =    -0.00000000    0.30707660   -0.00000000
     atom    7 type  2   force =    -0.00000000   -0.00000000   -0.00000000
     The core correction contribution to forces
     atom    1 type  1   force =     0.00000000    0.00000000    0.00000000
     atom    2 type  1   force =     0.00000000    0.00000000    0.00000000
     atom    3 type  1   force =     0.00000000    0.00000000    0.00000000
     atom    4 type  1   force =     0.00000000    0.00000000    0.00000000
     atom    5 type  1   force =     0.00000000    0.00000000    0.00000000
     atom    6 type  1   force =     0.00000000    0.00000000    0.00000000
     atom    7 type  2   force =     0.00000000   -0.00000000    0.00000000
     The Hubbard contrib.    to forces
     atom    1 type  1   force =     0.00000000    0.00000000    0.00000000
     atom    2 type  1   force =     0.00000000    0.00000000    0.00000000
     atom    3 type  1   force =     0.00000000    0.00000000    0.00000000
     atom    4 type  1   force =     0.00000000    0.00000000    0.00000000
     atom    5 type  1   force =     0.00000000    0.00000000    0.00000000
     atom    6 type  1   force =     0.00000000    0.00000000    0.00000000
     atom    7 type  2   force =     0.00000000    0.00000000    0.00000000
     The SCF correction term to forces
     atom    1 type  1   force =    -0.00000000   -0.00000000   -0.00000272
     atom    2 type  1   force =     0.00000000   -0.00000000    0.00000272
     atom    3 type  1   force =    -0.00000272   -0.00000000   -0.00000000
     atom    4 type  1   force =     0.00000272    0.00000000   -0.00000000
     atom    5 type  1   force =    -0.00000000   -0.00000272    0.00000000
     atom    6 type  1   force =    -0.00000000    0.00000272   -0.00000000
     atom    7 type  2   force =     0.00000000    0.00000000   -0.00000000

     Total force =     0.095888     Total SCF correction =     0.000007


     Computing stress (Cartesian axis) and pressure

          total   stress  (Ry/bohr**3)                   (kbar)     P=      -24.23
  -0.00016471   0.00000000  -0.00000000          -24.23        0.00       -0.00
   0.00000000  -0.00016471   0.00000000            0.00      -24.23        0.00
  -0.00000000   0.00000000  -0.00016471           -0.00        0.00      -24.23


     BFGS Geometry Optimization
     Energy error            =      0.0E+00 Ry
     Gradient error          =      3.9E-02 Ry/Bohr
     Cell gradient error     =      5.2E+02 kbar

     number of scf cycles    =   1
     number of bfgs steps    =   0

     enthalpy           new  =     -86.6507867267 Ry

     new trust radius        =       0.5000000000 bohr
ibrav =      3
 celldm(1) =     15.84276547
Input lattice vectors:
     0.47411495     0.47411495     0.47411495
    -0.47411495     0.47411495     0.47411495
    -0.47411495    -0.47411495     0.47411495
New lattice vectors in INITIAL alat:
     0.47411495     0.47411495     0.47411495
    -0.47411495     0.47411495     0.47411495
    -0.47411495    -0.47411495     0.47411495
New lattice vectors in NEW alat (for information only):
     0.50000000     0.50000000     0.50000000
    -0.50000000     0.50000000     0.50000000
    -0.50000000    -0.50000000     0.50000000
Discrepancy in bohr =     0.000000    0.000000    0.000000
     new conv_thr            =       0.0000000100 Ry

     new unit-cell volume =   1988.21334 a.u.^3 (   294.62282 Ang^3 )
     density =      0.39302 g/cm^3

CELL_PARAMETERS (alat= 16.70772609)
   0.474114951   0.474114951   0.474114951
  -0.474114951   0.474114951   0.474114951
  -0.474114951  -0.474114951   0.474114951

ATOMIC_POSITIONS (crystal)
Li            0.3401380007        0.0000000000        0.3401380007
Li            0.6598619993        0.0000000000        0.6598619993
Li            0.3401380007       -0.3401380007       -0.0000000000
Li            0.6598619993       -0.6598619993       -0.0000000000
Li            0.0000000000        0.3401380007       -0.3401380007
Li            0.0000000000        0.6598619993       -0.6598619993
Si           -0.0000000000        0.0000000000       -0.0000000000



     Writing config-only to output data dir ./output/LiSi.save/
     NEW-OLD atomic charge density approx. for the potential
     extrapolated charge   18.20115, renormalised to   22.00000

     total cpu time spent up to now is       23.3 secs

     Self-consistent Calculation

     iteration #  1     ecut=    80.00 Ry     beta= 0.70
     Davidson diagonalization with overlap
     c_bands:  1 eigenvalues not converged
     ethr =  1.00E-06,  avg # of iterations = 11.9

     total cpu time spent up to now is       25.5 secs

     total energy              =     -93.93261602 Ry
     estimated scf accuracy    <       0.59618686 Ry

     iteration #  2     ecut=    80.00 Ry     beta= 0.70
     Davidson diagonalization with overlap
     ethr =  2.71E-03,  avg # of iterations =  5.0

     total cpu time spent up to now is       26.6 secs

     total energy              =     -94.54738151 Ry
     estimated scf accuracy    <       4.85672975 Ry

     iteration #  3     ecut=    80.00 Ry     beta= 0.70
     Davidson diagonalization with overlap
     ethr =  2.71E-03,  avg # of iterations =  2.6

     total cpu time spent up to now is       27.5 secs

     total energy              =     -94.58035534 Ry
     estimated scf accuracy    <       0.91132609 Ry

     iteration #  4     ecut=    80.00 Ry     beta= 0.70
     Davidson diagonalization with overlap
     ethr =  2.71E-03,  avg # of iterations =  2.0

     total cpu time spent up to now is       28.2 secs

     total energy              =     -94.64337201 Ry
     estimated scf accuracy    <       0.06165155 Ry

     iteration #  5     ecut=    80.00 Ry     beta= 0.70
     Davidson diagonalization with overlap
     ethr =  2.80E-04,  avg # of iterations =  2.0

     total cpu time spent up to now is       29.0 secs

     total energy              =     -94.63145379 Ry
     estimated scf accuracy    <       0.07188171 Ry

     iteration #  6     ecut=    80.00 Ry     beta= 0.70
     Davidson diagonalization with overlap
     ethr =  2.80E-04,  avg # of iterations =  2.1

     total cpu time spent up to now is       29.8 secs

     total energy              =     -94.63902122 Ry
     estimated scf accuracy    <       0.00133597 Ry

     iteration #  7     ecut=    80.00 Ry     beta= 0.70
     Davidson diagonalization with overlap
     ethr =  6.07E-06,  avg # of iterations =  4.9

     total cpu time spent up to now is       30.7 secs

     total energy              =     -94.63885652 Ry
     estimated scf accuracy    <       0.00278821 Ry

     iteration #  8     ecut=    80.00 Ry     beta= 0.70
     Davidson diagonalization with overlap
     ethr =  6.07E-06,  avg # of iterations =  1.9

     total cpu time spent up to now is       31.5 secs

     total energy              =     -94.63876561 Ry
     estimated scf accuracy    <       0.00061591 Ry

     iteration #  9     ecut=    80.00 Ry     beta= 0.70
     Davidson diagonalization with overlap
     ethr =  2.80E-06,  avg # of iterations =  2.1

     total cpu time spent up to now is       32.3 secs

     total energy              =     -94.63888924 Ry
     estimated scf accuracy    <       0.00003600 Ry

     iteration # 10     ecut=    80.00 Ry     beta= 0.70
     Davidson diagonalization with overlap
     ethr =  1.64E-07,  avg # of iterations =  2.6

     total cpu time spent up to now is       33.1 secs

     total energy              =     -94.63888478 Ry
     estimated scf accuracy    <       0.00003382 Ry

     iteration # 11     ecut=    80.00 Ry     beta= 0.70
     Davidson diagonalization with overlap
     ethr =  1.54E-07,  avg # of iterations =  1.1

     total cpu time spent up to now is       33.8 secs

     total energy              =     -94.63888543 Ry
     estimated scf accuracy    <       0.00000388 Ry

     iteration # 12     ecut=    80.00 Ry     beta= 0.70
     Davidson diagonalization with overlap
     ethr =  1.76E-08,  avg # of iterations =  2.6

     total cpu time spent up to now is       34.6 secs

     total energy              =     -94.63888639 Ry
     estimated scf accuracy    <       0.00000044 Ry

     iteration # 13     ecut=    80.00 Ry     beta= 0.70
     Davidson diagonalization with overlap
     ethr =  2.02E-09,  avg # of iterations =  2.1

     total cpu time spent up to now is       35.3 secs

     total energy              =     -94.63888637 Ry
     estimated scf accuracy    <       0.00000017 Ry

     iteration # 14     ecut=    80.00 Ry     beta= 0.70
     Davidson diagonalization with overlap
     ethr =  7.56E-10,  avg # of iterations =  2.2

     total cpu time spent up to now is       36.1 secs

     End of self-consistent calculation

          k = 0.0000 0.0000 0.0000 ( 28075 PWs)   bands (ev):

   -48.2837 -48.2834 -48.2834 -48.2711 -48.2711 -48.2711  -6.8166  -2.2698
    -1.1941  -1.1941  -1.1941   0.3111   0.3111   0.6782   0.6782

          k =-0.0000-0.2636 0.2636 ( 28216 PWs)   bands (ev):

   -48.2836 -48.2834 -48.2834 -48.2712 -48.2711 -48.2711  -6.8044  -2.3032
    -1.2947  -1.1934  -1.1242  -0.4521   0.0214   0.1941   1.1629

          k = 0.0000 0.5273-0.5273 ( 28198 PWs)   bands (ev):

   -48.2835 -48.2835 -48.2835 -48.2712 -48.2711 -48.2711  -6.7921  -2.2917
    -1.3813  -1.3537  -1.1968  -0.4787  -0.0865  -0.0463   1.5370

          k =-0.2636 0.7909-0.5273 ( 28155 PWs)   bands (ev):

   -48.2835 -48.2835 -48.2834 -48.2712 -48.2711 -48.2711  -6.7921  -2.2206
    -1.7144  -1.2684  -0.8827  -0.6386  -0.4360   0.8847   1.0644

          k =-0.0000 0.0000 0.5273 ( 28220 PWs)   bands (ev):

   -48.2836 -48.2835 -48.2834 -48.2711 -48.2711 -48.2711  -6.7938  -2.2427
    -1.4708  -1.4708  -0.8372  -0.7755   0.2680   0.3944   0.3944

          k = 0.0000 0.7909-0.2636 ( 28206 PWs)   bands (ev):

   -48.2835 -48.2835 -48.2834 -48.2712 -48.2711 -48.2711  -6.7831  -2.1098
    -1.7043  -1.6045  -0.9455  -0.7851  -0.0727   0.4412   1.1924

          k = 0.5273-0.5273 0.5273 ( 28256 PWs)   bands (ev):

   -48.2835 -48.2835 -48.2835 -48.2713 -48.2711 -48.2711  -6.7905  -1.8703
    -1.8703  -1.8703  -0.5284  -0.5284  -0.5284   1.1777   1.9425

          k = 0.0000 0.0000-1.0546 ( 28184 PWs)   bands (ev):

   -48.2836 -48.2834 -48.2834 -48.2711 -48.2711 -48.2711  -6.7740  -1.7605
    -1.7605  -1.7605  -1.2760  -1.2760   0.8918   0.9243   0.9243

     the Fermi energy is    -0.7976 ev

!    total energy              =     -94.63888638 Ry
     estimated scf accuracy    <          8.6E-09 Ry
     smearing contrib. (-TS)   =       0.00055994 Ry
     internal energy E=F+TS    =     -94.63944632 Ry

     The total energy is F=E-TS. E is the sum of the following terms:
     one-electron contribution =     -72.97847736 Ry
     hartree contribution      =      28.34881410 Ry
     xc contribution           =     -22.51877645 Ry
     ewald contribution        =     -27.49100660 Ry

     convergence has been achieved in  14 iterations

     Forces acting on atoms (cartesian axes, Ry/au):

     atom    1 type  1   force =    -0.00000000   -0.00000000   -0.04170700
     atom    2 type  1   force =    -0.00000000    0.00000000    0.04170700
     atom    3 type  1   force =    -0.04170700    0.00000000    0.00000000
     atom    4 type  1   force =     0.04170700    0.00000000   -0.00000000
     atom    5 type  1   force =    -0.00000000   -0.04170700    0.00000000
     atom    6 type  1   force =     0.00000000    0.04170700   -0.00000000
     atom    7 type  2   force =    -0.00000000   -0.00000000    0.00000000
     The non-local contrib.  to forces
     atom    1 type  1   force =    -0.00000000   -0.00000000    0.06768929
     atom    2 type  1   force =     0.00000000   -0.00000000   -0.06768929
     atom    3 type  1   force =     0.06768929    0.00000000   -0.00000000
     atom    4 type  1   force =    -0.06768929    0.00000000   -0.00000000
     atom    5 type  1   force =     0.00000000    0.06768929    0.00000000
     atom    6 type  1   force =     0.00000000   -0.06768929    0.00000000
     atom    7 type  2   force =     0.00000000   -0.00000000    0.00000000
     The ionic contribution  to forces
     atom    1 type  1   force =    -0.00000000   -0.00000000    0.27194001
     atom    2 type  1   force =     0.00000000   -0.00000000   -0.27194001
     atom    3 type  1   force =     0.27194001    0.00000000   -0.00000000
     atom    4 type  1   force =    -0.27194001    0.00000000    0.00000000
     atom    5 type  1   force =     0.00000000    0.27194001    0.00000000
     atom    6 type  1   force =    -0.00000000   -0.27194001   -0.00000000
     atom    7 type  2   force =    -0.00000000   -0.00000000   -0.00000000
     The local contribution  to forces
     atom    1 type  1   force =     0.00000000    0.00000000   -0.38130942
     atom    2 type  1   force =    -0.00000000    0.00000000    0.38130942
     atom    3 type  1   force =    -0.38130942   -0.00000000   -0.00000000
     atom    4 type  1   force =     0.38130942    0.00000000    0.00000000
     atom    5 type  1   force =     0.00000000   -0.38130942   -0.00000000
     atom    6 type  1   force =    -0.00000000    0.38130942    0.00000000
     atom    7 type  2   force =     0.00000000   -0.00000000    0.00000000
     The core correction contribution to forces
     atom    1 type  1   force =     0.00000000    0.00000000    0.00000000
     atom    2 type  1   force =     0.00000000    0.00000000    0.00000000
     atom    3 type  1   force =     0.00000000    0.00000000    0.00000000
     atom    4 type  1   force =     0.00000000    0.00000000    0.00000000
     atom    5 type  1   force =     0.00000000    0.00000000    0.00000000
     atom    6 type  1   force =     0.00000000    0.00000000    0.00000000
     atom    7 type  2   force =    -0.00000000    0.00000000    0.00000000
     The Hubbard contrib.    to forces
     atom    1 type  1   force =     0.00000000    0.00000000    0.00000000
     atom    2 type  1   force =     0.00000000    0.00000000    0.00000000
     atom    3 type  1   force =     0.00000000    0.00000000    0.00000000
     atom    4 type  1   force =     0.00000000    0.00000000    0.00000000
     atom    5 type  1   force =     0.00000000    0.00000000    0.00000000
     atom    6 type  1   force =     0.00000000    0.00000000    0.00000000
     atom    7 type  2   force =     0.00000000    0.00000000    0.00000000
     The SCF correction term to forces
     atom    1 type  1   force =    -0.00000000    0.00000000   -0.00002688
     atom    2 type  1   force =    -0.00000000    0.00000000    0.00002688
     atom    3 type  1   force =    -0.00002688    0.00000000   -0.00000000
     atom    4 type  1   force =     0.00002688    0.00000000   -0.00000000
     atom    5 type  1   force =     0.00000000   -0.00002688    0.00000000
     atom    6 type  1   force =     0.00000000    0.00002688   -0.00000000
     atom    7 type  2   force =     0.00000000   -0.00000000    0.00000000

     Total force =     0.102161     Total SCF correction =     0.000066


     Computing stress (Cartesian axis) and pressure

          total   stress  (Ry/bohr**3)                   (kbar)     P=      -23.66
  -0.00016086   0.00000000  -0.00000000          -23.66        0.00       -0.00
   0.00000000  -0.00016086   0.00000000            0.00      -23.66        0.00
  -0.00000000   0.00000000  -0.00016086           -0.00        0.00      -23.66

     Energy error            =      1.2E+00 Ry
     Gradient error          =      4.2E-02 Ry/Bohr
     Cell gradient error     =      5.2E+02 kbar

     number of scf cycles    =   2
     number of bfgs steps    =   1

     enthalpy           old  =     -86.6507867267 Ry
     enthalpy           new  =     -87.8810865755 Ry

     CASE: enthalpy          _new < enthalpy          _old


     WARNING: bfgs curvature condition failed, Theta= 0.969
     new trust radius        =       0.7303282275 bohr
ibrav =      3
 celldm(1) =     14.54532455
Input lattice vectors:
     0.43528738     0.43528738     0.43528738
    -0.43528738     0.43528738     0.43528738
    -0.43528738    -0.43528738     0.43528738
New lattice vectors in INITIAL alat:
     0.43528738     0.43528738     0.43528738
    -0.43528738     0.43528738     0.43528738
    -0.43528738    -0.43528738     0.43528738
New lattice vectors in NEW alat (for information only):
     0.50000000     0.50000000     0.50000000
    -0.50000000     0.50000000     0.50000000
    -0.50000000    -0.50000000     0.50000000
Discrepancy in bohr =     0.000000    0.000000    0.000000
     new conv_thr            =       0.0000000042 Ry

     new unit-cell volume =   1538.65146 a.u.^3 (   228.00462 Ang^3 )
     density =      0.50785 g/cm^3

CELL_PARAMETERS (alat= 16.70772609)
   0.435287378   0.435287378   0.435287378
  -0.435287378   0.435287378   0.435287378
  -0.435287378  -0.435287378   0.435287378

ATOMIC_POSITIONS (crystal)
Li            0.3376711809        0.0000000000        0.3376711809
Li            0.6623288191        0.0000000000        0.6623288191
Li            0.3376711809       -0.3376711809       -0.0000000000
Li            0.6623288191       -0.6623288191       -0.0000000000
Li            0.0000000000        0.3376711809       -0.3376711809
Li            0.0000000000        0.6623288191       -0.6623288191
Si            0.0000000000       -0.0000000000        0.0000000000



     Writing config-only to output data dir ./output/LiSi.save/
     NEW-OLD atomic charge density approx. for the potential
     extrapolated charge   15.58023, renormalised to   22.00000

     total cpu time spent up to now is       43.5 secs

     Self-consistent Calculation

     iteration #  1     ecut=    80.00 Ry     beta= 0.70
     Davidson diagonalization with overlap
     ethr =  1.00E-06,  avg # of iterations = 12.5

     total cpu time spent up to now is       45.7 secs

     total energy              =     -93.52518766 Ry
     estimated scf accuracy    <       0.96279681 Ry

     iteration #  2     ecut=    80.00 Ry     beta= 0.70
     Davidson diagonalization with overlap
     ethr =  4.38E-03,  avg # of iterations =  4.5

     total cpu time spent up to now is       46.7 secs

     total energy              =     -94.58366997 Ry
     estimated scf accuracy    <       5.21893131 Ry

     iteration #  3     ecut=    80.00 Ry     beta= 0.70
     Davidson diagonalization with overlap
     ethr =  4.38E-03,  avg # of iterations =  2.2

     total cpu time spent up to now is       47.5 secs

     total energy              =     -94.61986334 Ry
     estimated scf accuracy    <       0.91720538 Ry

     iteration #  4     ecut=    80.00 Ry     beta= 0.70
     Davidson diagonalization with overlap
     ethr =  4.17E-03,  avg # of iterations =  1.9

     total cpu time spent up to now is       48.3 secs

     total energy              =     -94.70733720 Ry
     estimated scf accuracy    <       0.03780902 Ry

     iteration #  5     ecut=    80.00 Ry     beta= 0.70
     Davidson diagonalization with overlap
     ethr =  1.72E-04,  avg # of iterations =  3.6

     total cpu time spent up to now is       49.1 secs

     total energy              =     -94.70760272 Ry
     estimated scf accuracy    <       0.02030713 Ry

     iteration #  6     ecut=    80.00 Ry     beta= 0.70
     Davidson diagonalization with overlap
     ethr =  9.23E-05,  avg # of iterations =  2.6

     total cpu time spent up to now is       49.8 secs

     total energy              =     -94.70935753 Ry
     estimated scf accuracy    <       0.00092374 Ry

     iteration #  7     ecut=    80.00 Ry     beta= 0.70
     Davidson diagonalization with overlap
     ethr =  4.20E-06,  avg # of iterations =  5.1

     total cpu time spent up to now is       50.8 secs

     total energy              =     -94.71023377 Ry
     estimated scf accuracy    <       0.00191997 Ry

     iteration #  8     ecut=    80.00 Ry     beta= 0.70
     Davidson diagonalization with overlap
     ethr =  4.20E-06,  avg # of iterations =  1.0

     total cpu time spent up to now is       51.5 secs

     total energy              =     -94.70938518 Ry
     estimated scf accuracy    <       0.00238611 Ry

     iteration #  9     ecut=    80.00 Ry     beta= 0.70
     Davidson diagonalization with overlap
     ethr =  4.20E-06,  avg # of iterations =  2.0

     total cpu time spent up to now is       52.3 secs

     total energy              =     -94.70981559 Ry
     estimated scf accuracy    <       0.00004852 Ry

     iteration # 10     ecut=    80.00 Ry     beta= 0.70
     Davidson diagonalization with overlap
     ethr =  2.21E-07,  avg # of iterations =  2.6

     total cpu time spent up to now is       53.1 secs

     total energy              =     -94.70980436 Ry
     estimated scf accuracy    <       0.00003998 Ry

     iteration # 11     ecut=    80.00 Ry     beta= 0.70
     Davidson diagonalization with overlap
     ethr =  1.82E-07,  avg # of iterations =  2.0

     total cpu time spent up to now is       53.9 secs

     total energy              =     -94.70981107 Ry
     estimated scf accuracy    <       0.00000117 Ry

     iteration # 12     ecut=    80.00 Ry     beta= 0.70
     Davidson diagonalization with overlap
     ethr =  5.30E-09,  avg # of iterations =  2.0

     total cpu time spent up to now is       54.7 secs

     total energy              =     -94.70981126 Ry
     estimated scf accuracy    <       0.00000003 Ry

     iteration # 13     ecut=    80.00 Ry     beta= 0.70
     Davidson diagonalization with overlap
     ethr =  1.42E-10,  avg # of iterations =  3.9

     total cpu time spent up to now is       55.5 secs

     total energy              =     -94.70981127 Ry
     estimated scf accuracy    <       0.00000003 Ry

     iteration # 14     ecut=    80.00 Ry     beta= 0.70
     Davidson diagonalization with overlap
     ethr =  1.25E-10,  avg # of iterations =  1.0

     total cpu time spent up to now is       56.2 secs

     total energy              =     -94.70981126 Ry
     estimated scf accuracy    <       0.00000002 Ry

     iteration # 15     ecut=    80.00 Ry     beta= 0.70
     Davidson diagonalization with overlap
     ethr =  8.48E-11,  avg # of iterations =  1.9

     total cpu time spent up to now is       56.9 secs

     End of self-consistent calculation

          k = 0.0000 0.0000 0.0000 ( 28075 PWs)   bands (ev):

   -47.3182 -47.3170 -47.3170 -47.2925 -47.2925 -47.2925  -6.5018  -1.8165
    -0.7163  -0.7163  -0.7163   1.3626   1.3626   1.4682   1.4682

          k =-0.0000-0.2872 0.2872 ( 28216 PWs)   bands (ev):

   -47.3179 -47.3172 -47.3171 -47.2927 -47.2925 -47.2924  -6.4772  -1.9302
    -0.8593  -0.7026  -0.6042   0.2428   0.7153   0.9021   2.1255

          k = 0.0000 0.5743-0.5743 ( 28198 PWs)   bands (ev):

   -47.3175 -47.3174 -47.3173 -47.2929 -47.2925 -47.2923  -6.4519  -1.9937
    -0.9778  -0.8130  -0.6905   0.1737   0.4198   0.7495   2.7008

          k =-0.2872 0.8615-0.5743 ( 28155 PWs)   bands (ev):

   -47.3176 -47.3174 -47.3173 -47.2929 -47.2924 -47.2923  -6.4520  -1.8956
    -1.3332  -0.7996  -0.3273   0.0033   0.1780   1.6611   2.0273

          k =-0.0000 0.0000 0.5743 ( 28220 PWs)   bands (ev):

   -47.3178 -47.3174 -47.3171 -47.2925 -47.2925 -47.2925  -6.4557  -1.8875
    -1.1094  -1.1094  -0.1623  -0.0996   1.0290   1.0290   1.3185

          k = 0.0000 0.8615-0.2872 ( 28206 PWs)   bands (ev):

   -47.3177 -47.3173 -47.3172 -47.2927 -47.2925 -47.2924  -6.4338  -1.8032
    -1.3339  -1.2881  -0.2991  -0.1401   0.7728   1.0918   2.0973

          k = 0.5743-0.5743 0.5743 ( 28256 PWs)   bands (ev):

   -47.3174 -47.3174 -47.3174 -47.2932 -47.2923 -47.2923  -6.4484  -1.4949
    -1.4949  -1.4949   0.0671   0.0671   0.0671   2.2720   3.0727

          k = 0.0000 0.0000-1.1487 ( 28184 PWs)   bands (ev):

   -47.3179 -47.3172 -47.3172 -47.2926 -47.2926 -47.2926  -6.4155  -1.4913
    -1.4913  -1.4913  -0.6030  -0.6030   1.7871   1.7871   1.7871

     the Fermi energy is    -0.1634 ev

!    total energy              =     -94.70981127 Ry
     estimated scf accuracy    <          2.8E-10 Ry
     smearing contrib. (-TS)   =      -0.00191831 Ry
     internal energy E=F+TS    =     -94.70789296 Ry

     The total energy is F=E-TS. E is the sum of the following terms:
     one-electron contribution =     -69.35952212 Ry
     hartree contribution      =      27.27647733 Ry
     xc contribution           =     -22.75751982 Ry
     ewald contribution        =     -29.86732835 Ry

     convergence has been achieved in  15 iterations

     Forces acting on atoms (cartesian axes, Ry/au):

     atom    1 type  1   force =    -0.00000000    0.00000000   -0.03840438
     atom    2 type  1   force =     0.00000000   -0.00000000    0.03840438
     atom    3 type  1   force =    -0.03840438    0.00000000   -0.00000000
     atom    4 type  1   force =     0.03840438    0.00000000   -0.00000000
     atom    5 type  1   force =    -0.00000000   -0.03840438    0.00000000
     atom    6 type  1   force =     0.00000000    0.03840438   -0.00000000
     atom    7 type  2   force =     0.00000000   -0.00000000    0.00000000
     The non-local contrib.  to forces
     atom    1 type  1   force =     0.00000000    0.00000000    0.09731750
     atom    2 type  1   force =     0.00000000   -0.00000000   -0.09731750
     atom    3 type  1   force =     0.09731750   -0.00000000   -0.00000000
     atom    4 type  1   force =    -0.09731750   -0.00000000   -0.00000000
     atom    5 type  1   force =    -0.00000000    0.09731750    0.00000000
     atom    6 type  1   force =     0.00000000   -0.09731750   -0.00000000
     atom    7 type  2   force =     0.00000000   -0.00000000    0.00000000
     The ionic contribution  to forces
     atom    1 type  1   force =     0.00000000    0.00000000    0.38218314
     atom    2 type  1   force =    -0.00000000   -0.00000000   -0.38218314
     atom    3 type  1   force =     0.38218314   -0.00000000   -0.00000000
     atom    4 type  1   force =    -0.38218314    0.00000000    0.00000000
     atom    5 type  1   force =     0.00000000    0.38218314    0.00000000
     atom    6 type  1   force =    -0.00000000   -0.38218314   -0.00000000
     atom    7 type  2   force =    -0.00000000   -0.00000000   -0.00000000
     The local contribution  to forces
     atom    1 type  1   force =    -0.00000000   -0.00000000   -0.51789035
     atom    2 type  1   force =     0.00000000   -0.00000000    0.51789035
     atom    3 type  1   force =    -0.51789035   -0.00000000   -0.00000000
     atom    4 type  1   force =     0.51789035   -0.00000000    0.00000000
     atom    5 type  1   force =    -0.00000000   -0.51789035    0.00000000
     atom    6 type  1   force =     0.00000000    0.51789035    0.00000000
     atom    7 type  2   force =     0.00000000    0.00000000   -0.00000000
     The core correction contribution to forces
     atom    1 type  1   force =     0.00000000    0.00000000    0.00000000
     atom    2 type  1   force =     0.00000000    0.00000000    0.00000000
     atom    3 type  1   force =     0.00000000    0.00000000    0.00000000
     atom    4 type  1   force =     0.00000000    0.00000000    0.00000000
     atom    5 type  1   force =     0.00000000    0.00000000    0.00000000
     atom    6 type  1   force =     0.00000000    0.00000000    0.00000000
     atom    7 type  2   force =     0.00000000   -0.00000000    0.00000000
     The Hubbard contrib.    to forces
     atom    1 type  1   force =     0.00000000    0.00000000    0.00000000
     atom    2 type  1   force =     0.00000000    0.00000000    0.00000000
     atom    3 type  1   force =     0.00000000    0.00000000    0.00000000
     atom    4 type  1   force =     0.00000000    0.00000000    0.00000000
     atom    5 type  1   force =     0.00000000    0.00000000    0.00000000
     atom    6 type  1   force =     0.00000000    0.00000000    0.00000000
     atom    7 type  2   force =     0.00000000    0.00000000    0.00000000
     The SCF correction term to forces
     atom    1 type  1   force =    -0.00000000    0.00000000   -0.00001468
     atom    2 type  1   force =     0.00000000    0.00000000    0.00001468
     atom    3 type  1   force =    -0.00001468    0.00000000   -0.00000000
     atom    4 type  1   force =     0.00001468   -0.00000000   -0.00000000
     atom    5 type  1   force =     0.00000000   -0.00001468   -0.00000000
     atom    6 type  1   force =    -0.00000000    0.00001468   -0.00000000
     atom    7 type  2   force =    -0.00000000    0.00000000    0.00000000

     Total force =     0.094071     Total SCF correction =     0.000036


     Computing stress (Cartesian axis) and pressure

          total   stress  (Ry/bohr**3)                   (kbar)     P=      -13.97
  -0.00009497  -0.00000000  -0.00000000          -13.97       -0.00       -0.00
  -0.00000000  -0.00009497  -0.00000000           -0.00      -13.97       -0.00
  -0.00000000  -0.00000000  -0.00009497           -0.00       -0.00      -13.97

     Energy error            =      1.6E+00 Ry
     Gradient error          =      3.8E-02 Ry/Bohr
     Cell gradient error     =      5.1E+02 kbar

     number of scf cycles    =   3
     number of bfgs steps    =   2

     enthalpy           old  =     -87.8810865755 Ry
     enthalpy           new  =     -89.4800412498 Ry

     CASE: enthalpy          _new < enthalpy          _old

     new trust radius        =       0.8000000000 bohr
ibrav =      3
 celldm(1) =     13.06207822
Input lattice vectors:
     0.39089934     0.39089934     0.39089934
    -0.39089934     0.39089934     0.39089934
    -0.39089934    -0.39089934     0.39089934
New lattice vectors in INITIAL alat:
     0.39089934     0.39089934     0.39089934
    -0.39089934     0.39089934     0.39089934
    -0.39089934    -0.39089934     0.39089934
New lattice vectors in NEW alat (for information only):
     0.50000000     0.50000000     0.50000000
    -0.50000000     0.50000000     0.50000000
    -0.50000000    -0.50000000     0.50000000
Discrepancy in bohr =     0.000000    0.000000    0.000000
     new conv_thr            =       0.0000000038 Ry

     new unit-cell volume =   1114.31210 a.u.^3 (   165.12402 Ang^3 )
     density =      0.70124 g/cm^3

CELL_PARAMETERS (alat= 16.70772609)
   0.390899341   0.390899341   0.390899341
  -0.390899341   0.390899341   0.390899341
  -0.390899341  -0.390899341   0.390899341

ATOMIC_POSITIONS (crystal)
Li            0.3347919568        0.0000000000        0.3347919568
Li            0.6652080432        0.0000000000        0.6652080432
Li            0.3347919568       -0.3347919568       -0.0000000000
Li            0.6652080432       -0.6652080432       -0.0000000000
Li            0.0000000000        0.3347919568       -0.3347919568
Li            0.0000000000        0.6652080432       -0.6652080432
Si            0.0000000000       -0.0000000000        0.0000000000



     Writing config-only to output data dir ./output/LiSi.save/
     NEW-OLD atomic charge density approx. for the potential

     negative rho (up, down):  4.333E-07 0.000E+00
     extrapolated charge   13.63287, renormalised to   22.00000

     total cpu time spent up to now is       64.4 secs

     Self-consistent Calculation

     iteration #  1     ecut=    80.00 Ry     beta= 0.70
     Davidson diagonalization with overlap
     ethr =  1.00E-06,  avg # of iterations = 13.9

     total cpu time spent up to now is       66.7 secs

     total energy              =     -93.22850857 Ry
     estimated scf accuracy    <       1.28054564 Ry

     iteration #  2     ecut=    80.00 Ry     beta= 0.70
     Davidson diagonalization with overlap
     ethr =  5.82E-03,  avg # of iterations =  3.8

     total cpu time spent up to now is       67.7 secs

     total energy              =     -94.47135845 Ry
     estimated scf accuracy    <       4.94238970 Ry

     iteration #  3     ecut=    80.00 Ry     beta= 0.70
     Davidson diagonalization with overlap
     ethr =  5.82E-03,  avg # of iterations =  2.0

     total cpu time spent up to now is       68.5 secs

     total energy              =     -94.65381355 Ry
     estimated scf accuracy    <       0.55405890 Ry

     iteration #  4     ecut=    80.00 Ry     beta= 0.70
     Davidson diagonalization with overlap
     ethr =  2.52E-03,  avg # of iterations =  1.9

     total cpu time spent up to now is       69.2 secs

     total energy              =     -94.70400651 Ry
     estimated scf accuracy    <       0.03262074 Ry

     iteration #  5     ecut=    80.00 Ry     beta= 0.70
     Davidson diagonalization with overlap
     ethr =  1.48E-04,  avg # of iterations =  3.8

     total cpu time spent up to now is       70.1 secs

     total energy              =     -94.70925447 Ry
     estimated scf accuracy    <       0.00146205 Ry

     iteration #  6     ecut=    80.00 Ry     beta= 0.70
     Davidson diagonalization with overlap
     ethr =  6.65E-06,  avg # of iterations =  3.6

     total cpu time spent up to now is       71.0 secs

     total energy              =     -94.70959834 Ry
     estimated scf accuracy    <       0.00005033 Ry

     iteration #  7     ecut=    80.00 Ry     beta= 0.70
     Davidson diagonalization with overlap
     ethr =  2.29E-07,  avg # of iterations =  2.6

     total cpu time spent up to now is       71.8 secs

     total energy              =     -94.70959633 Ry
     estimated scf accuracy    <       0.00001471 Ry

     iteration #  8     ecut=    80.00 Ry     beta= 0.70
     Davidson diagonalization with overlap
     ethr =  6.69E-08,  avg # of iterations =  2.0

     total cpu time spent up to now is       72.6 secs

     total energy              =     -94.70960066 Ry
     estimated scf accuracy    <       0.00000475 Ry

     iteration #  9     ecut=    80.00 Ry     beta= 0.70
     Davidson diagonalization with overlap
     ethr =  2.16E-08,  avg # of iterations =  1.0

     total cpu time spent up to now is       73.3 secs

     total energy              =     -94.70960054 Ry
     estimated scf accuracy    <       0.00000093 Ry

     iteration # 10     ecut=    80.00 Ry     beta= 0.70
     Davidson diagonalization with overlap
     ethr =  4.22E-09,  avg # of iterations =  2.0

     total cpu time spent up to now is       74.0 secs

     End of self-consistent calculation

          k = 0.0000 0.0000 0.0000 ( 28075 PWs)   bands (ev):

   -45.9394 -45.9337 -45.9337 -45.8789 -45.8789 -45.8789  -6.0137  -0.9972
     0.1309   0.1309   0.1309   2.4858   2.4858   3.3593   3.3593

          k =-0.0000-0.3198 0.3198 ( 28216 PWs)   bands (ev):

   -45.9382 -45.9345 -45.9342 -45.8796 -45.8789 -45.8781  -5.9636  -1.2587
    -0.0894   0.1493   0.2773   1.3300   1.5560   2.2516   3.7066

          k = 0.0000 0.6396-0.6396 ( 28198 PWs)   bands (ev):

   -45.9359 -45.9357 -45.9352 -45.8804 -45.8789 -45.8774  -5.9108  -1.4522
    -0.2616   0.0691   0.1680   1.1780   1.2726   2.1121   4.5589

          k =-0.3198 0.9593-0.6396 ( 28155 PWs)   bands (ev):

   -45.9365 -45.9354 -45.9348 -45.8808 -45.8781 -45.8777  -5.9112  -1.3133
    -0.6788   0.0046   0.5669   1.0570   1.1829   2.9417   3.6048

          k = 0.0000-0.0000 0.6396 ( 28220 PWs)   bands (ev):

   -45.9374 -45.9354 -45.9341 -45.8789 -45.8789 -45.8789  -5.9201  -1.2505
    -0.4722  -0.4722   0.8768   1.1172   2.0799   2.0799   3.0245

          k = 0.0000 0.9593-0.3198 ( 28206 PWs)   bands (ev):

   -45.9370 -45.9352 -45.9346 -45.8796 -45.8789 -45.8781  -5.8747  -1.2637
    -0.7225  -0.7081   0.8139   0.9712   2.0913   2.1547   3.6030

          k = 0.6396-0.6396 0.6396 ( 28256 PWs)   bands (ev):

   -45.9355 -45.9355 -45.9355 -45.8820 -45.8774 -45.8774  -5.9027  -0.8441
    -0.8441  -0.8441   1.0461   1.0461   1.0461   3.9921   4.8972

          k =-0.0000 0.0000-1.2791 ( 28184 PWs)   bands (ev):

   -45.9379 -45.9344 -45.9344 -45.8789 -45.8789 -45.8789  -5.8371  -0.9985
    -0.9985  -0.9985   0.5520   0.5520   3.2374   3.2374   3.2374

     the Fermi energy is     0.8911 ev

!    total energy              =     -94.70960071 Ry
     estimated scf accuracy    <          1.9E-09 Ry
     smearing contrib. (-TS)   =      -0.00227022 Ry
     internal energy E=F+TS    =     -94.70733049 Ry

     The total energy is F=E-TS. E is the sum of the following terms:
     one-electron contribution =     -64.30981941 Ry
     hartree contribution      =      25.85430293 Ry
     xc contribution           =     -23.10956443 Ry
     ewald contribution        =     -33.14224959 Ry

     convergence has been achieved in  10 iterations

     Forces acting on atoms (cartesian axes, Ry/au):

     atom    1 type  1   force =    -0.00000000    0.00000000   -0.01532621
     atom    2 type  1   force =     0.00000000    0.00000000    0.01532621
     atom    3 type  1   force =    -0.01532621   -0.00000000    0.00000000
     atom    4 type  1   force =     0.01532621    0.00000000    0.00000000
     atom    5 type  1   force =    -0.00000000   -0.01532621    0.00000000
     atom    6 type  1   force =     0.00000000    0.01532621    0.00000000
     atom    7 type  2   force =     0.00000000   -0.00000000    0.00000000
     The non-local contrib.  to forces
     atom    1 type  1   force =    -0.00000000   -0.00000000    0.13368218
     atom    2 type  1   force =    -0.00000000    0.00000000   -0.13368218
     atom    3 type  1   force =     0.13368218    0.00000000   -0.00000000
     atom    4 type  1   force =    -0.13368218   -0.00000000    0.00000000
     atom    5 type  1   force =     0.00000000    0.13368218   -0.00000000
     atom    6 type  1   force =     0.00000000   -0.13368218    0.00000000
     atom    7 type  2   force =    -0.00000000   -0.00000000   -0.00000000
     The ionic contribution  to forces
     atom    1 type  1   force =     0.00000000    0.00000000    0.55967186
     atom    2 type  1   force =     0.00000000    0.00000000   -0.55967186
     atom    3 type  1   force =     0.55967186    0.00000000    0.00000000
     atom    4 type  1   force =    -0.55967186   -0.00000000    0.00000000
     atom    5 type  1   force =     0.00000000    0.55967186   -0.00000000
     atom    6 type  1   force =    -0.00000000   -0.55967186    0.00000000
     atom    7 type  2   force =    -0.00000000   -0.00000000   -0.00000000
     The local contribution  to forces
     atom    1 type  1   force =     0.00000000    0.00000000   -0.70867825
     atom    2 type  1   force =    -0.00000000   -0.00000000    0.70867825
     atom    3 type  1   force =    -0.70867825   -0.00000000   -0.00000000
     atom    4 type  1   force =     0.70867825   -0.00000000    0.00000000
     atom    5 type  1   force =     0.00000000   -0.70867825    0.00000000
     atom    6 type  1   force =    -0.00000000    0.70867825   -0.00000000
     atom    7 type  2   force =    -0.00000000   -0.00000000   -0.00000000
     The core correction contribution to forces
     atom    1 type  1   force =     0.00000000    0.00000000    0.00000000
     atom    2 type  1   force =     0.00000000    0.00000000    0.00000000
     atom    3 type  1   force =     0.00000000    0.00000000    0.00000000
     atom    4 type  1   force =     0.00000000    0.00000000    0.00000000
     atom    5 type  1   force =     0.00000000    0.00000000    0.00000000
     atom    6 type  1   force =     0.00000000    0.00000000    0.00000000
     atom    7 type  2   force =    -0.00000000   -0.00000000    0.00000000
     The Hubbard contrib.    to forces
     atom    1 type  1   force =     0.00000000    0.00000000    0.00000000
     atom    2 type  1   force =     0.00000000    0.00000000    0.00000000
     atom    3 type  1   force =     0.00000000    0.00000000    0.00000000
     atom    4 type  1   force =     0.00000000    0.00000000    0.00000000
     atom    5 type  1   force =     0.00000000    0.00000000    0.00000000
     atom    6 type  1   force =     0.00000000    0.00000000    0.00000000
     atom    7 type  2   force =     0.00000000    0.00000000    0.00000000
     The SCF correction term to forces
     atom    1 type  1   force =    -0.00000000    0.00000000   -0.00000199
     atom    2 type  1   force =    -0.00000000   -0.00000000    0.00000199
     atom    3 type  1   force =    -0.00000199   -0.00000000   -0.00000000
     atom    4 type  1   force =     0.00000199   -0.00000000    0.00000000
     atom    5 type  1   force =     0.00000000   -0.00000199    0.00000000
     atom    6 type  1   force =    -0.00000000    0.00000199   -0.00000000
     atom    7 type  2   force =     0.00000000    0.00000000   -0.00000000

     Total force =     0.037541     Total SCF correction =     0.000005


     Computing stress (Cartesian axis) and pressure

          total   stress  (Ry/bohr**3)                   (kbar)     P=       29.32
   0.00019929   0.00000000  -0.00000000           29.32        0.00       -0.00
   0.00000000   0.00019929  -0.00000000            0.00       29.32       -0.00
  -0.00000000  -0.00000000   0.00019929           -0.00       -0.00       29.32

     Energy error            =      1.4E+00 Ry
     Gradient error          =      1.5E-02 Ry/Bohr
     Cell gradient error     =      4.7E+02 kbar

     number of scf cycles    =   4
     number of bfgs steps    =   3

     enthalpy           old  =     -89.4800412498 Ry
     enthalpy           new  =     -90.9221308701 Ry

     CASE: enthalpy          _new < enthalpy          _old

     new trust radius        =       0.8000000000 bohr
ibrav =      3
 celldm(1) =     11.49688179
Input lattice vectors:
     0.34405884     0.34405884     0.34405884
    -0.34405884     0.34405884     0.34405884
    -0.34405884    -0.34405884     0.34405884
New lattice vectors in INITIAL alat:
     0.34405884     0.34405884     0.34405884
    -0.34405884     0.34405884     0.34405884
    -0.34405884    -0.34405884     0.34405884
New lattice vectors in NEW alat (for information only):
     0.50000000     0.50000000     0.50000000
    -0.50000000     0.50000000     0.50000000
    -0.50000000    -0.50000000     0.50000000
Discrepancy in bohr =     0.000000    0.000000    0.000000
     new conv_thr            =       0.0000000015 Ry

     new unit-cell volume =    759.81909 a.u.^3 (   112.59357 Ang^3 )
     density =      1.02841 g/cm^3

CELL_PARAMETERS (alat= 16.70772609)
   0.344058842   0.344058842   0.344058842
  -0.344058842   0.344058842   0.344058842
  -0.344058842  -0.344058842   0.344058842

ATOMIC_POSITIONS (crystal)
Li            0.3328377257        0.0000000000        0.3328377257
Li            0.6671622743        0.0000000000        0.6671622743
Li            0.3328377257       -0.3328377257       -0.0000000000
Li            0.6671622743       -0.6671622743       -0.0000000000
Li            0.0000000000        0.3328377257       -0.3328377257
Li            0.0000000000        0.6671622743       -0.6671622743
Si            0.0000000000       -0.0000000000        0.0000000000



     Writing config-only to output data dir ./output/LiSi.save/
     NEW-OLD atomic charge density approx. for the potential

     negative rho (up, down):  3.300E-04 0.000E+00
     extrapolated charge   11.74897, renormalised to   22.00000

     total cpu time spent up to now is       81.1 secs

     Self-consistent Calculation

     iteration #  1     ecut=    80.00 Ry     beta= 0.70
     Davidson diagonalization with overlap
     c_bands:  1 eigenvalues not converged
     ethr =  1.00E-06,  avg # of iterations = 15.5

     total cpu time spent up to now is       83.5 secs

     total energy              =     -92.67207958 Ry
     estimated scf accuracy    <       1.82336134 Ry

     iteration #  2     ecut=    80.00 Ry     beta= 0.70
     Davidson diagonalization with overlap
     ethr =  8.29E-03,  avg # of iterations =  4.2

     total cpu time spent up to now is       84.5 secs

     total energy              =     -94.16286216 Ry
     estimated scf accuracy    <       4.52673189 Ry

     iteration #  3     ecut=    80.00 Ry     beta= 0.70
     Davidson diagonalization with overlap
     ethr =  8.29E-03,  avg # of iterations =  2.0

     total cpu time spent up to now is       85.3 secs

     total energy              =     -94.47739070 Ry
     estimated scf accuracy    <       0.28360359 Ry

     iteration #  4     ecut=    80.00 Ry     beta= 0.70
     Davidson diagonalization with overlap
     ethr =  1.29E-03,  avg # of iterations =  2.1

     total cpu time spent up to now is       86.0 secs

     total energy              =     -94.49427226 Ry
     estimated scf accuracy    <       0.02692866 Ry

     iteration #  5     ecut=    80.00 Ry     beta= 0.70
     Davidson diagonalization with overlap
     ethr =  1.22E-04,  avg # of iterations =  3.2

     total cpu time spent up to now is       86.8 secs

     total energy              =     -94.50010363 Ry
     estimated scf accuracy    <       0.00043817 Ry

     iteration #  6     ecut=    80.00 Ry     beta= 0.70
     Davidson diagonalization with overlap
     ethr =  1.99E-06,  avg # of iterations =  4.1

     total cpu time spent up to now is       87.7 secs

     total energy              =     -94.50027030 Ry
     estimated scf accuracy    <       0.00006263 Ry

     iteration #  7     ecut=    80.00 Ry     beta= 0.70
     Davidson diagonalization with overlap
     ethr =  2.85E-07,  avg # of iterations =  2.0

     total cpu time spent up to now is       88.5 secs

     total energy              =     -94.50028355 Ry
     estimated scf accuracy    <       0.00000631 Ry

     iteration #  8     ecut=    80.00 Ry     beta= 0.70
     Davidson diagonalization with overlap
     ethr =  2.87E-08,  avg # of iterations =  1.8

     total cpu time spent up to now is       89.2 secs

     total energy              =     -94.50028439 Ry
     estimated scf accuracy    <       0.00000005 Ry

     iteration #  9     ecut=    80.00 Ry     beta= 0.70
     Davidson diagonalization with overlap
     ethr =  2.50E-10,  avg # of iterations =  3.5

     total cpu time spent up to now is       90.0 secs

     total energy              =     -94.50028442 Ry
     estimated scf accuracy    <          4.4E-09 Ry

     iteration # 10     ecut=    80.00 Ry     beta= 0.70
     Davidson diagonalization with overlap
     ethr =  2.01E-11,  avg # of iterations =  2.1

     total cpu time spent up to now is       90.8 secs

     total energy              =     -94.50028442 Ry
     estimated scf accuracy    <          2.0E-09 Ry

     iteration # 11     ecut=    80.00 Ry     beta= 0.70
     Davidson diagonalization with overlap
     ethr =  8.99E-12,  avg # of iterations =  1.0

     total cpu time spent up to now is       91.4 secs

     End of self-consistent calculation

          k = 0.0000 0.0000 0.0000 ( 28075 PWs)   bands (ev):

   -44.1360 -44.1066 -44.1066 -43.9700 -43.9700 -43.9700  -5.0450   0.4422
     1.7204   1.7204   1.7204   4.2535   4.2535   6.3222   6.3222

          k =-0.0000-0.3633 0.3633 ( 28216 PWs)   bands (ev):

   -44.1298 -44.1103 -44.1091 -43.9738 -43.9701 -43.9663  -4.9460  -0.0396
     1.3442   1.7205   1.7669   2.8675   3.0452   4.2577   5.6305

          k = 0.0000 0.7266-0.7266 ( 28198 PWs)   bands (ev):

   -44.1178 -44.1172 -44.1138 -43.9777 -43.9701 -43.9627  -4.8361  -0.4414
     1.0797   1.4721   1.7194   2.3717   3.1266   4.2613   7.4699

          k =-0.3633 1.0899-0.7266 ( 28155 PWs)   bands (ev):

   -44.1213 -44.1151 -44.1123 -43.9801 -43.9663 -43.9643  -4.8369  -0.2421
     0.4891   1.4685   1.9457   2.7718   2.8792   4.9984   6.0740

          k = 0.0000-0.0000 0.7266 ( 28220 PWs)   bands (ev):

   -44.1258 -44.1150 -44.1085 -43.9701 -43.9701 -43.9699  -4.8606  -0.0902
     0.6932   0.6932   2.6694   3.0704   3.8093   3.8093   5.7356

          k =-0.0000 1.0899-0.3633 ( 28206 PWs)   bands (ev):

   -44.1235 -44.1142 -44.1113 -43.9738 -43.9701 -43.9663  -4.7671  -0.2729
     0.3265   0.4069   2.6771   2.8567   3.8695   4.1739   6.0799

          k = 0.7266-0.7266 0.7266 ( 28256 PWs)   bands (ev):

   -44.1158 -44.1158 -44.1158 -43.9865 -43.9627 -43.9627  -4.8141   0.3153
     0.3153   0.3153   2.6664   2.6664   2.6664   7.7732   7.7732

          k =-0.0000 0.0000-1.4532 ( 28184 PWs)   bands (ev):

   -44.1279 -44.1105 -44.1105 -43.9701 -43.9701 -43.9701  -4.6926  -0.0631
    -0.0631  -0.0631   2.4939   2.4939   5.6766   5.6766   5.6766

     the Fermi energy is     2.6354 ev

!    total energy              =     -94.50028442 Ry
     estimated scf accuracy    <          1.9E-10 Ry
     smearing contrib. (-TS)   =      -0.00513274 Ry
     internal energy E=F+TS    =     -94.49515168 Ry

     The total energy is F=E-TS. E is the sum of the following terms:
     one-electron contribution =     -57.28953227 Ry
     hartree contribution      =      23.94519349 Ry
     xc contribution           =     -23.59898359 Ry
     ewald contribution        =     -37.55182931 Ry

     convergence has been achieved in  11 iterations

     Forces acting on atoms (cartesian axes, Ry/au):

     atom    1 type  1   force =    -0.00000000   -0.00000000    0.05219011
     atom    2 type  1   force =    -0.00000000    0.00000000   -0.05219011
     atom    3 type  1   force =     0.05219011    0.00000000   -0.00000000
     atom    4 type  1   force =    -0.05219011    0.00000000    0.00000000
     atom    5 type  1   force =    -0.00000000    0.05219011    0.00000000
     atom    6 type  1   force =     0.00000000   -0.05219011    0.00000000
     atom    7 type  2   force =     0.00000000    0.00000000    0.00000000
     The non-local contrib.  to forces
     atom    1 type  1   force =     0.00000000   -0.00000000    0.17590931
     atom    2 type  1   force =     0.00000000    0.00000000   -0.17590931
     atom    3 type  1   force =     0.17590931   -0.00000000   -0.00000000
     atom    4 type  1   force =    -0.17590931    0.00000000   -0.00000000
     atom    5 type  1   force =     0.00000000    0.17590931   -0.00000000
     atom    6 type  1   force =    -0.00000000   -0.17590931   -0.00000000
     atom    7 type  2   force =    -0.00000000    0.00000000   -0.00000000
     The ionic contribution  to forces
     atom    1 type  1   force =    -0.00000000    0.00000000    0.79732674
     atom    2 type  1   force =    -0.00000000    0.00000000   -0.79732674
     atom    3 type  1   force =     0.79732674   -0.00000000    0.00000000
     atom    4 type  1   force =    -0.79732674   -0.00000000    0.00000000
     atom    5 type  1   force =    -0.00000000    0.79732674   -0.00000000
     atom    6 type  1   force =    -0.00000000   -0.79732674   -0.00000000
     atom    7 type  2   force =    -0.00000000   -0.00000000   -0.00000000
     The local contribution  to forces
     atom    1 type  1   force =     0.00000000    0.00000000   -0.92105182
     atom    2 type  1   force =     0.00000000   -0.00000000    0.92105182
     atom    3 type  1   force =    -0.92105182   -0.00000000   -0.00000000
     atom    4 type  1   force =     0.92105182    0.00000000    0.00000000
     atom    5 type  1   force =     0.00000000   -0.92105182    0.00000000
     atom    6 type  1   force =    -0.00000000    0.92105182   -0.00000000
     atom    7 type  2   force =     0.00000000   -0.00000000   -0.00000000
     The core correction contribution to forces
     atom    1 type  1   force =     0.00000000    0.00000000    0.00000000
     atom    2 type  1   force =     0.00000000    0.00000000    0.00000000
     atom    3 type  1   force =     0.00000000    0.00000000    0.00000000
     atom    4 type  1   force =     0.00000000    0.00000000    0.00000000
     atom    5 type  1   force =     0.00000000    0.00000000    0.00000000
     atom    6 type  1   force =     0.00000000    0.00000000    0.00000000
     atom    7 type  2   force =    -0.00000000    0.00000000   -0.00000000
     The Hubbard contrib.    to forces
     atom    1 type  1   force =     0.00000000    0.00000000    0.00000000
     atom    2 type  1   force =     0.00000000    0.00000000    0.00000000
     atom    3 type  1   force =     0.00000000    0.00000000    0.00000000
     atom    4 type  1   force =     0.00000000    0.00000000    0.00000000
     atom    5 type  1   force =     0.00000000    0.00000000    0.00000000
     atom    6 type  1   force =     0.00000000    0.00000000    0.00000000
     atom    7 type  2   force =     0.00000000    0.00000000    0.00000000
     The SCF correction term to forces
     atom    1 type  1   force =     0.00000000   -0.00000000    0.00000588
     atom    2 type  1   force =    -0.00000000    0.00000000   -0.00000588
     atom    3 type  1   force =     0.00000588    0.00000000    0.00000000
     atom    4 type  1   force =    -0.00000588    0.00000000   -0.00000000
     atom    5 type  1   force =     0.00000000    0.00000588   -0.00000000
     atom    6 type  1   force =    -0.00000000   -0.00000588    0.00000000
     atom    7 type  2   force =    -0.00000000   -0.00000000    0.00000000

     Total force =     0.127839     Total SCF correction =     0.000014


     Computing stress (Cartesian axis) and pressure

          total   stress  (Ry/bohr**3)                   (kbar)     P=      176.24
   0.00119804  -0.00000000   0.00000000          176.24       -0.00        0.00
  -0.00000000   0.00119804  -0.00000000           -0.00      176.24       -0.00
   0.00000000  -0.00000000   0.00119804            0.00       -0.00      176.24

     Energy error            =      1.0E+00 Ry
     Gradient error          =      5.2E-02 Ry/Bohr
     Cell gradient error     =      3.2E+02 kbar

     number of scf cycles    =   5
     number of bfgs steps    =   4

     enthalpy           old  =     -90.9221308701 Ry
     enthalpy           new  =     -91.9177118083 Ry

     CASE: enthalpy          _new < enthalpy          _old

     new trust radius        =       0.8000000000 bohr
ibrav =      3
 celldm(1) =      9.82854028
Input lattice vectors:
     0.29413160     0.29413160     0.29413160
    -0.29413160     0.29413160     0.29413160
    -0.29413160    -0.29413160     0.29413160
New lattice vectors in INITIAL alat:
     0.29413160     0.29413160     0.29413160
    -0.29413160     0.29413160     0.29413160
    -0.29413160    -0.29413160     0.29413160
New lattice vectors in NEW alat (for information only):
     0.50000000     0.50000000     0.50000000
    -0.50000000     0.50000000     0.50000000
    -0.50000000    -0.50000000     0.50000000
Discrepancy in bohr =     0.000000    0.000000    0.000000
     new conv_thr            =       0.0000000052 Ry

     new unit-cell volume =    474.71950 a.u.^3 (    70.34617 Ang^3 )
     density =      1.64603 g/cm^3

CELL_PARAMETERS (alat= 16.70772609)
   0.294131596   0.294131596   0.294131596
  -0.294131596   0.294131596   0.294131596
  -0.294131596  -0.294131596   0.294131596

ATOMIC_POSITIONS (crystal)
Li            0.3356805300        0.0000000000        0.3356805300
Li            0.6643194700        0.0000000000        0.6643194700
Li            0.3356805300       -0.3356805300       -0.0000000000
Li            0.6643194700       -0.6643194700       -0.0000000000
Li           -0.0000000000        0.3356805300       -0.3356805300
Li           -0.0000000000        0.6643194700       -0.6643194700
Si            0.0000000000       -0.0000000000        0.0000000000



     Writing config-only to output data dir ./output/LiSi.save/
     NEW-OLD atomic charge density approx. for the potential

     negative rho (up, down):  1.485E-02 0.000E+00
     extrapolated charge    8.80439, renormalised to   22.00000

     total cpu time spent up to now is       98.5 secs

     Self-consistent Calculation

     iteration #  1     ecut=    80.00 Ry     beta= 0.70
     Davidson diagonalization with overlap
     c_bands:  1 eigenvalues not converged
     ethr =  1.00E-06,  avg # of iterations = 13.1

     negative rho (up, down):  6.561E-05 0.000E+00

     total cpu time spent up to now is      100.8 secs

     total energy              =     -91.38710373 Ry
     estimated scf accuracy    <       4.13437272 Ry

     iteration #  2     ecut=    80.00 Ry     beta= 0.70
     Davidson diagonalization with overlap
     ethr =  1.00E-02,  avg # of iterations =  3.4

     negative rho (up, down):  2.336E-05 0.000E+00

     total cpu time spent up to now is      101.8 secs

     total energy              =     -93.33875156 Ry
     estimated scf accuracy    <       3.86552918 Ry

     iteration #  3     ecut=    80.00 Ry     beta= 0.70
     Davidson diagonalization with overlap
     ethr =  1.00E-02,  avg # of iterations =  2.1

     total cpu time spent up to now is      102.5 secs

     total energy              =     -93.82148105 Ry
     estimated scf accuracy    <       0.08466727 Ry

     iteration #  4     ecut=    80.00 Ry     beta= 0.70
     Davidson diagonalization with overlap
     ethr =  3.85E-04,  avg # of iterations =  2.6
     Minimization algorithm failed to find Fermi energy: reverting to bisection
     Possible cause: smearing is larger than the electronic band-gap.

     total cpu time spent up to now is      103.3 secs

     total energy              =     -93.83194905 Ry
     estimated scf accuracy    <       0.00349975 Ry

     iteration #  5     ecut=    80.00 Ry     beta= 0.70
     Davidson diagonalization with overlap
     ethr =  1.59E-05,  avg # of iterations =  3.1

     total cpu time spent up to now is      104.0 secs

     total energy              =     -93.83229395 Ry
     estimated scf accuracy    <       0.00009448 Ry

     iteration #  6     ecut=    80.00 Ry     beta= 0.70
     Davidson diagonalization with overlap
     ethr =  4.29E-07,  avg # of iterations =  2.2

     total cpu time spent up to now is      104.8 secs

     total energy              =     -93.83231706 Ry
     estimated scf accuracy    <       0.00000091 Ry

     iteration #  7     ecut=    80.00 Ry     beta= 0.70
     Davidson diagonalization with overlap
     ethr =  4.15E-09,  avg # of iterations =  3.0

     total cpu time spent up to now is      105.5 secs

     total energy              =     -93.83231752 Ry
     estimated scf accuracy    <       0.00000015 Ry

     iteration #  8     ecut=    80.00 Ry     beta= 0.70
     Davidson diagonalization with overlap
     ethr =  6.66E-10,  avg # of iterations =  2.0

     total cpu time spent up to now is      106.2 secs

     End of self-consistent calculation

          k = 0.0000 0.0000 0.0000 ( 28075 PWs)   bands (ev):

   -41.8003 -41.6533 -41.6533 -41.2082 -41.2082 -41.2082  -2.7565   3.3320
     5.0333   5.0333   5.0333   7.1907   7.1907  11.3096  11.3096

          k = 0.0000-0.4250 0.4250 ( 28216 PWs)   bands (ev):

   -41.7703 -41.6694 -41.6660 -41.2262 -41.2084 -41.1914  -2.5548   2.4705
     4.2627   4.4186   4.9249   5.0912   6.2501   7.5225   8.9004

          k =-0.0000 0.8500-0.8500 ( 28198 PWs)   bands (ev):

   -41.7105 -41.7078 -41.6844 -41.2451 -41.2087 -41.1756  -2.3027   1.6364
     3.8345   3.9672   4.4107   4.8100   6.6371   7.9639  12.5491

          k =-0.4250 1.2749-0.8500 ( 28155 PWs)   bands (ev):

   -41.7271 -41.6918 -41.6822 -41.2569 -41.1916 -41.1825  -2.3047   1.9468
     2.7401   4.1508   4.5053   5.9223   6.1434   8.5540  10.2322

          k = 0.0000-0.0000 0.8500 ( 28220 PWs)   bands (ev):

   -41.7494 -41.6910 -41.6658 -41.2087 -41.2087 -41.2082  -2.3859   2.2926
     2.9504   2.9504   6.1269   6.5158   7.0155   7.0155  10.4913

          k =-0.0000 1.2749-0.4250 ( 28206 PWs)   bands (ev):

   -41.7293 -41.6949 -41.6803 -41.2265 -41.2089 -41.1919  -2.1786   1.7298
     2.3952   2.5886   6.1314   6.4302   6.9366   7.8738  10.4894

          k = 0.8500-0.8500 0.8500 ( 28256 PWs)   bands (ev):

   -41.6975 -41.6975 -41.6975 -41.2887 -41.1756 -41.1756  -2.2205   2.5525
     2.5525   2.5525   5.6976   5.6976   5.6976  12.8445  12.8445

          k =-0.0000 0.0000-1.6999 ( 28184 PWs)   bands (ev):

   -41.7475 -41.6783 -41.6783 -41.2091 -41.2091 -41.2091  -2.0290   1.8313
     1.8313   1.8313   6.1641   6.1641  10.2053  10.2053  10.2053

     the Fermi energy is     5.6461 ev

!    total energy              =     -93.83231754 Ry
     estimated scf accuracy    <          7.4E-10 Ry
     smearing contrib. (-TS)   =      -0.00025413 Ry
     internal energy E=F+TS    =     -93.83206341 Ry

     The total energy is F=E-TS. E is the sum of the following terms:
     one-electron contribution =     -46.47742718 Ry
     hartree contribution      =      21.04437254 Ry
     xc contribution           =     -24.30255836 Ry
     ewald contribution        =     -44.09645041 Ry

     convergence has been achieved in   8 iterations

     Forces acting on atoms (cartesian axes, Ry/au):

     atom    1 type  1   force =     0.00000000   -0.00000000    0.19805291
     atom    2 type  1   force =    -0.00000000    0.00000000   -0.19805291
     atom    3 type  1   force =     0.19805291    0.00000000   -0.00000000
     atom    4 type  1   force =    -0.19805291   -0.00000000   -0.00000000
     atom    5 type  1   force =    -0.00000000    0.19805291    0.00000000
     atom    6 type  1   force =     0.00000000   -0.19805291    0.00000000
     atom    7 type  2   force =     0.00000000   -0.00000000    0.00000000
     The non-local contrib.  to forces
     atom    1 type  1   force =    -0.00000000    0.00000000    0.21717412
     atom    2 type  1   force =     0.00000000   -0.00000000   -0.21717412
     atom    3 type  1   force =     0.21717412   -0.00000000    0.00000000
     atom    4 type  1   force =    -0.21717412    0.00000000   -0.00000000
     atom    5 type  1   force =     0.00000000    0.21717412   -0.00000000
     atom    6 type  1   force =     0.00000000   -0.21717412   -0.00000000
     atom    7 type  2   force =     0.00000000    0.00000000    0.00000000
     The ionic contribution  to forces
     atom    1 type  1   force =    -0.00000000    0.00000000    0.94183236
     atom    2 type  1   force =    -0.00000000    0.00000000   -0.94183236
     atom    3 type  1   force =     0.94183236    0.00000000    0.00000000
     atom    4 type  1   force =    -0.94183236   -0.00000000    0.00000000
     atom    5 type  1   force =    -0.00000000    0.94183236   -0.00000000
     atom    6 type  1   force =     0.00000000   -0.94183236   -0.00000000
     atom    7 type  2   force =    -0.00000000   -0.00000000   -0.00000000
     The local contribution  to forces
     atom    1 type  1   force =     0.00000000    0.00000000   -0.96094110
     atom    2 type  1   force =     0.00000000   -0.00000000    0.96094110
     atom    3 type  1   force =    -0.96094110   -0.00000000    0.00000000
     atom    4 type  1   force =     0.96094110   -0.00000000    0.00000000
     atom    5 type  1   force =     0.00000000   -0.96094110    0.00000000
     atom    6 type  1   force =    -0.00000000    0.96094110   -0.00000000
     atom    7 type  2   force =     0.00000000   -0.00000000    0.00000000
     The core correction contribution to forces
     atom    1 type  1   force =     0.00000000    0.00000000    0.00000000
     atom    2 type  1   force =     0.00000000    0.00000000    0.00000000
     atom    3 type  1   force =     0.00000000    0.00000000    0.00000000
     atom    4 type  1   force =     0.00000000    0.00000000    0.00000000
     atom    5 type  1   force =     0.00000000    0.00000000    0.00000000
     atom    6 type  1   force =     0.00000000    0.00000000    0.00000000
     atom    7 type  2   force =     0.00000000    0.00000000   -0.00000000
     The Hubbard contrib.    to forces
     atom    1 type  1   force =     0.00000000    0.00000000    0.00000000
     atom    2 type  1   force =     0.00000000    0.00000000    0.00000000
     atom    3 type  1   force =     0.00000000    0.00000000    0.00000000
     atom    4 type  1   force =     0.00000000    0.00000000    0.00000000
     atom    5 type  1   force =     0.00000000    0.00000000    0.00000000
     atom    6 type  1   force =     0.00000000    0.00000000    0.00000000
     atom    7 type  2   force =     0.00000000    0.00000000    0.00000000
     The SCF correction term to forces
     atom    1 type  1   force =    -0.00000000   -0.00000000   -0.00001248
     atom    2 type  1   force =    -0.00000000    0.00000000    0.00001248
     atom    3 type  1   force =    -0.00001248    0.00000000   -0.00000000
     atom    4 type  1   force =     0.00001248    0.00000000   -0.00000000
     atom    5 type  1   force =     0.00000000   -0.00001248   -0.00000000
     atom    6 type  1   force =     0.00000000    0.00001248    0.00000000
     atom    7 type  2   force =    -0.00000000    0.00000000   -0.00000000

     Total force =     0.485129     Total SCF correction =     0.000031


[...]
     atom    5 type  1   force =     0.00000000    0.00000000    0.00000000
     atom    6 type  1   force =     0.00000000    0.00000000    0.00000000
     atom    7 type  2   force =     0.00000000    0.00000000    0.00000000
     The SCF correction term to forces
     atom    1 type  1   force =     0.00000000   -0.00000000   -0.00000050
     atom    2 type  1   force =    -0.00000000   -0.00000000    0.00000050
     atom    3 type  1   force =    -0.00000050   -0.00000000    0.00000000
     atom    4 type  1   force =     0.00000050   -0.00000000    0.00000000
     atom    5 type  1   force =     0.00000000   -0.00000050    0.00000000
     atom    6 type  1   force =    -0.00000000    0.00000050   -0.00000000
     atom    7 type  2   force =     0.00000000    0.00000000   -0.00000000

     Total force =     0.000112     Total SCF correction =     0.000001


     Computing stress (Cartesian axis) and pressure

          total   stress  (Ry/bohr**3)                   (kbar)     P=      499.73
   0.00339706   0.00000000  -0.00000000          499.73        0.00       -0.00
   0.00000000   0.00339706   0.00000000            0.00      499.73        0.00
  -0.00000000   0.00000000   0.00339706           -0.00        0.00      499.73

     Energy error            =      2.4E-05 Ry
     Gradient error          =      4.6E-05 Ry/Bohr
     Cell gradient error     =      2.7E-01 kbar
ibrav =      3
 celldm(1) =      9.85414417
Input lattice vectors:
     0.29489783     0.29489783     0.29489783
    -0.29489783     0.29489783     0.29489783
    -0.29489783    -0.29489783     0.29489783
New lattice vectors in INITIAL alat:
     0.29489783     0.29489783     0.29489783
    -0.29489783     0.29489783     0.29489783
    -0.29489783    -0.29489783     0.29489783
New lattice vectors in NEW alat (for information only):
     0.50000000     0.50000000     0.50000000
    -0.50000000     0.50000000     0.50000000
    -0.50000000    -0.50000000     0.50000000
Discrepancy in bohr =     0.000000    0.000000    0.000000

     bfgs converged in  11 scf cycles and  10 bfgs steps
     (criteria: energy <  1.0E-04 Ry, force <  1.0E-03 Ry/Bohr, cell <  1.0E+00 kbar)

     End of BFGS Geometry Optimization

     Final enthalpy           =     -92.3808216950 Ry

     File ./output/LiSi.bfgs deleted, as requested
Begin final coordinates
     new unit-cell volume =    478.43918 a.u.^3 (    70.89737 Ang^3 )
     density =      1.63323 g/cm^3

CELL_PARAMETERS (alat= 16.70772609)
   0.294897825   0.294897825   0.294897825
  -0.294897825   0.294897825   0.294897825
  -0.294897825  -0.294897825   0.294897825

ATOMIC_POSITIONS (crystal)
Li            0.3630884374       -0.0000000000        0.3630884374
Li            0.6369115626       -0.0000000000        0.6369115626
Li            0.3630884374       -0.3630884374       -0.0000000000
Li            0.6369115626       -0.6369115626       -0.0000000000
Li            0.0000000000        0.3630884374       -0.3630884374
Li            0.0000000000        0.6369115626       -0.6369115626
Si            0.0000000000       -0.0000000000        0.0000000000
End final coordinates



     Writing config-only to output data dir ./output/LiSi.save/

     Final scf calculation at the relaxed structure.
     The G-vectors are recalculated for the final unit cell
     Results may differ from those at the preceding step.

     Parallelization info
     --------------------
     sticks:   dense  smooth     PW     G-vecs:    dense   smooth      PW
     Min         219     219     60                 5780     5780     874
     Max         220     220     61                 5781     5781     878
     Sum        1755    1755    487                46241    46241    7011

     Using Slab Decomposition



     bravais-lattice index     =            3
     lattice parameter (alat)  =      16.7077  a.u.
     unit-cell volume          =     478.4392 (a.u.)^3
     number of atoms/cell      =            7
     number of atomic types    =            2
     number of electrons       =        22.00
     number of Kohn-Sham states=           15
     kinetic-energy cutoff     =      80.0000  Ry
     charge density cutoff     =     320.0000  Ry
     scf convergence threshold =      1.0E-10
     mixing beta               =       0.7000
     number of iterations used =            8  plain     mixing
     press convergence thresh. =      1.0E+00
     Exchange-correlation= PBE
                           (   1   4   3   4   0   0   0)

     celldm(1)=  16.707726  celldm(2)=   0.000000  celldm(3)=   0.000000
     celldm(4)=   0.000000  celldm(5)=   0.000000  celldm(6)=   0.000000

     crystal axes: (cart. coord. in units of alat)
               a(1) = (   0.294898   0.294898   0.294898 )  
               a(2) = (  -0.294898   0.294898   0.294898 )  
               a(3) = (  -0.294898  -0.294898   0.294898 )  

     reciprocal axes: (cart. coord. in units 2 pi/alat)
               b(1) = (  1.695503  0.000000  1.695503 )  
               b(2) = ( -1.695503  1.695503  0.000000 )  
               b(3) = ( -0.000000 -1.695503  1.695503 )  


     PseudoPot. # 1 for Li read from file:
     ../pseudo/Li_ONCV_PBE_sr.upf
     MD5 check sum: 50ff420e78310ffa21704f3361e624a4
     Pseudo is Norm-conserving, Zval =  3.0
     Generated using ONCVPSP code by D. R. Hamann
     Using radial grid of 1944 points,  4 beta functions with: 
                l(1) =   0
                l(2) =   0
                l(3) =   1
                l(4) =   1

     PseudoPot. # 2 for Si read from file:
     ../pseudo/Si_ONCV_PBE_sr.upf
     MD5 check sum: e543d271109d17c80368dfa7c482276d
     Pseudo is Norm-conserving + core correction, Zval =  4.0
     Generated using ONCVPSP code by D. R. Hamann
     Using radial grid of 1510 points,  6 beta functions with: 
                l(1) =   0
                l(2) =   0
                l(3) =   1
                l(4) =   1
                l(5) =   2
                l(6) =   2

     atomic species   valence    mass     pseudopotential
        Li             3.00     6.94100     Li( 1.00)
        Si             4.00    28.08550     Si( 1.00)

     48 Sym. Ops., with inversion, found



   Cartesian axes

     site n.     atom                  positions (alat units)
         1           Li  tau(   1) = (  -0.0000000  -0.0000000   0.2141480  )
         2           Li  tau(   2) = (  -0.0000000  -0.0000000   0.3756477  )
         3           Li  tau(   3) = (   0.2141480  -0.0000000  -0.0000000  )
         4           Li  tau(   4) = (   0.3756477   0.0000000  -0.0000000  )
         5           Li  tau(   5) = (   0.0000000   0.2141480  -0.0000000  )
         6           Li  tau(   6) = (   0.0000000   0.3756477  -0.0000000  )
         7           Si  tau(   7) = (   0.0000000  -0.0000000   0.0000000  )

     number of k points=     8  Marzari-Vanderbilt smearing, width (Ry)=  0.0200
                       cart. coord. in units 2pi/alat
        k(    1) = (   0.0000000   0.0000000   0.0000000), wk =   0.0312500
        k(    2) = (  -0.0000000  -0.4238756   0.4238756), wk =   0.3750000
        k(    3) = (   0.0000000   0.8477513  -0.8477513), wk =   0.1875000
        k(    4) = (  -0.4238756   1.2716269  -0.8477513), wk =   0.7500000
        k(    5) = (   0.0000000  -0.0000000   0.8477513), wk =   0.1875000
        k(    6) = (   0.0000000   1.2716269  -0.4238756), wk =   0.3750000
        k(    7) = (   0.8477513  -0.8477513   0.8477513), wk =   0.0625000
        k(    8) = (  -0.0000000   0.0000000  -1.6955025), wk =   0.0312500

     Dense  grid:    46241 G-vectors     FFT dimensions: (  50,  50,  50)

     Estimated max dynamical RAM per process >      18.63 MB

     Estimated total dynamical RAM >     149.06 MB

     Initial potential from superposition of free atoms

     starting charge      21.9720, renormalised to      22.0000
     Starting wfcs are   16 randomized atomic wfcs

     total cpu time spent up to now is      178.7 secs

     Self-consistent Calculation

     iteration #  1     ecut=    80.00 Ry     beta= 0.70
     Davidson diagonalization with overlap
     c_bands:  2 eigenvalues not converged
     c_bands:  1 eigenvalues not converged
     c_bands:  1 eigenvalues not converged
     c_bands:  1 eigenvalues not converged
     ethr =  1.00E-06,  avg # of iterations = 17.2

     total cpu time spent up to now is      179.2 secs

     total energy              =     -93.90916228 Ry
     estimated scf accuracy    <       0.25598131 Ry

     iteration #  2     ecut=    80.00 Ry     beta= 0.70
     Davidson diagonalization with overlap
     ethr =  1.16E-03,  avg # of iterations =  2.0

     total cpu time spent up to now is      179.4 secs

     total energy              =     -93.98207585 Ry
     estimated scf accuracy    <       0.13566415 Ry

     iteration #  3     ecut=    80.00 Ry     beta= 0.70
     Davidson diagonalization with overlap
     ethr =  6.17E-04,  avg # of iterations =  1.8

     total cpu time spent up to now is      179.5 secs

     total energy              =     -94.00656239 Ry
     estimated scf accuracy    <       0.00050089 Ry

     iteration #  4     ecut=    80.00 Ry     beta= 0.70
     Davidson diagonalization with overlap
     ethr =  2.28E-06,  avg # of iterations =  3.8

     total cpu time spent up to now is      179.7 secs

     total energy              =     -94.00679288 Ry
     estimated scf accuracy    <       0.00013314 Ry

     iteration #  5     ecut=    80.00 Ry     beta= 0.70
     Davidson diagonalization with overlap
     ethr =  6.05E-07,  avg # of iterations =  2.0

     total cpu time spent up to now is      179.9 secs

     total energy              =     -94.00681490 Ry
     estimated scf accuracy    <       0.00000100 Ry

     iteration #  6     ecut=    80.00 Ry     beta= 0.70
     Davidson diagonalization with overlap
     ethr =  4.56E-09,  avg # of iterations =  3.5

     total cpu time spent up to now is      180.1 secs

     total energy              =     -94.00681535 Ry
     estimated scf accuracy    <       0.00000031 Ry

     iteration #  7     ecut=    80.00 Ry     beta= 0.70
     Davidson diagonalization with overlap
     ethr =  1.41E-09,  avg # of iterations =  1.9

     total cpu time spent up to now is      180.2 secs

     total energy              =     -94.00681539 Ry
     estimated scf accuracy    <       0.00000001 Ry

     iteration #  8     ecut=    80.00 Ry     beta= 0.70
     Davidson diagonalization with overlap
     ethr =  4.77E-11,  avg # of iterations =  2.6

     total cpu time spent up to now is      180.4 secs

     total energy              =     -94.00681539 Ry
     estimated scf accuracy    <          3.7E-10 Ry

     iteration #  9     ecut=    80.00 Ry     beta= 0.70
     Davidson diagonalization with overlap
     ethr =  1.66E-12,  avg # of iterations =  2.0

     total cpu time spent up to now is      180.5 secs

     End of self-consistent calculation

          k = 0.0000 0.0000 0.0000 (  5775 PWs)   bands (ev):

   -42.8658 -42.7745 -42.7745 -41.3579 -41.3579 -41.3579  -2.8750   4.1576
     5.1261   5.1261   5.1261   6.4124   6.4124   6.4125   7.5311

          k =-0.0000-0.4239 0.4239 (  5766 PWs)   bands (ev):

   -42.8487 -42.7837 -42.7810 -41.3668 -41.3580 -41.3505  -2.6174   2.6326
     4.3521   4.5882   4.8815   5.0363   6.5865   6.8928   9.4236

          k = 0.0000 0.8478-0.8478 (  5788 PWs)   bands (ev):

   -42.8194 -42.8050 -42.7873 -41.3759 -41.3582 -41.3432  -2.2783   1.5094
     3.9018   4.1239   4.2224   4.9450   7.4146   7.6130  10.4244

          k =-0.4239 1.2716-0.8478 (  5786 PWs)   bands (ev):

   -42.8239 -42.7969 -42.7909 -41.3802 -41.3507 -41.3465  -2.2819   1.8844
     2.6289   4.1668   4.5439   6.2143   6.7581   7.9922  10.0621

          k = 0.0000-0.0000 0.8478 (  5762 PWs)   bands (ev):

   -42.8354 -42.7902 -42.7873 -41.3594 -41.3582 -41.3582  -2.4000   2.4104
     2.8748   2.8748   6.4772   6.8371   6.8371   6.8424   8.7598

          k = 0.0000 1.2716-0.4239 (  5796 PWs)   bands (ev):

   -42.8127 -42.8049 -42.7948 -41.3672 -41.3584 -41.3508  -2.1197   1.6014
     2.2926   2.5729   6.5048   6.9104   7.0657   7.6300   9.6906

          k = 0.8478-0.8478 0.8478 (  5828 PWs)   bands (ev):

   -42.8034 -42.8034 -42.8034 -41.3927 -41.3432 -41.3432  -2.1556   2.4219
     2.4219   2.4219   6.0877   6.0877   6.0877  10.4423  10.4423

          k =-0.0000 0.0000-1.6955 (  5738 PWs)   bands (ev):

   -42.8059 -42.8059 -42.8010 -41.3585 -41.3585 -41.3585  -1.9194   1.7031
     1.7031   1.7031   6.5970   6.5970   9.6714   9.6714   9.6714

     the Fermi energy is     6.0092 ev

!    total energy              =     -94.00681539 Ry
     estimated scf accuracy    <          9.0E-11 Ry
     smearing contrib. (-TS)   =      -0.00162105 Ry
     internal energy E=F+TS    =     -94.00519434 Ry

     The total energy is F=E-TS. E is the sum of the following terms:
     one-electron contribution =     -45.98016875 Ry
     hartree contribution      =      20.41372120 Ry
     xc contribution           =     -24.13508439 Ry
     ewald contribution        =     -44.30366240 Ry

     convergence has been achieved in   9 iterations

     Forces acting on atoms (cartesian axes, Ry/au):

     atom    1 type  1   force =    -0.00000000    0.00000000    0.00006360
     atom    2 type  1   force =    -0.00000000   -0.00000000   -0.00006360
     atom    3 type  1   force =     0.00006360    0.00000000   -0.00000000
     atom    4 type  1   force =    -0.00006360    0.00000000   -0.00000000
     atom    5 type  1   force =    -0.00000000    0.00006360   -0.00000000
     atom    6 type  1   force =    -0.00000000   -0.00006360   -0.00000000
     atom    7 type  2   force =    -0.00000000   -0.00000000    0.00000000
     The non-local contrib.  to forces
     atom    1 type  1   force =     0.00000000    0.00000000    0.33387164
     atom    2 type  1   force =    -0.00000000   -0.00000000   -0.33387164
     atom    3 type  1   force =     0.33387164   -0.00000000   -0.00000000
     atom    4 type  1   force =    -0.33387164   -0.00000000    0.00000000
     atom    5 type  1   force =    -0.00000000    0.33387164   -0.00000000
     atom    6 type  1   force =    -0.00000000   -0.33387164   -0.00000000
     atom    7 type  2   force =    -0.00000000   -0.00000000   -0.00000000
     The ionic contribution  to forces
     atom    1 type  1   force =     0.00000000    0.00000000   -0.57537568
     atom    2 type  1   force =    -0.00000000   -0.00000000    0.57537568
     atom    3 type  1   force =    -0.57537568   -0.00000000   -0.00000000
     atom    4 type  1   force =     0.57537568    0.00000000    0.00000000
     atom    5 type  1   force =    -0.00000000   -0.57537568   -0.00000000
     atom    6 type  1   force =     0.00000000    0.57537568   -0.00000000
     atom    7 type  2   force =     0.00000000   -0.00000000   -0.00000000
     The local contribution  to forces
     atom    1 type  1   force =     0.00000000    0.00000000    0.24156027
     atom    2 type  1   force =     0.00000000    0.00000000   -0.24156027
     atom    3 type  1   force =     0.24156027    0.00000000    0.00000000
     atom    4 type  1   force =    -0.24156027   -0.00000000    0.00000000
     atom    5 type  1   force =     0.00000000    0.24156027    0.00000000
     atom    6 type  1   force =    -0.00000000   -0.24156027   -0.00000000
     atom    7 type  2   force =    -0.00000000   -0.00000000   -0.00000000
     The core correction contribution to forces
     atom    1 type  1   force =     0.00000000    0.00000000    0.00000000
     atom    2 type  1   force =     0.00000000    0.00000000    0.00000000
     atom    3 type  1   force =     0.00000000    0.00000000    0.00000000
     atom    4 type  1   force =     0.00000000    0.00000000    0.00000000
     atom    5 type  1   force =     0.00000000    0.00000000    0.00000000
     atom    6 type  1   force =     0.00000000    0.00000000    0.00000000
     atom    7 type  2   force =     0.00000000    0.00000000   -0.00000000
     The Hubbard contrib.    to forces
     atom    1 type  1   force =     0.00000000    0.00000000    0.00000000
     atom    2 type  1   force =     0.00000000    0.00000000    0.00000000
     atom    3 type  1   force =     0.00000000    0.00000000    0.00000000
     atom    4 type  1   force =     0.00000000    0.00000000    0.00000000
     atom    5 type  1   force =     0.00000000    0.00000000    0.00000000
     atom    6 type  1   force =     0.00000000    0.00000000    0.00000000
     atom    7 type  2   force =     0.00000000    0.00000000    0.00000000
     The SCF correction term to forces
     atom    1 type  1   force =     0.00000000   -0.00000000    0.00000737
     atom    2 type  1   force =    -0.00000000   -0.00000000   -0.00000737
     atom    3 type  1   force =     0.00000737    0.00000000   -0.00000000
     atom    4 type  1   force =    -0.00000737   -0.00000000    0.00000000
     atom    5 type  1   force =     0.00000000    0.00000737   -0.00000000
     atom    6 type  1   force =    -0.00000000   -0.00000737   -0.00000000
     atom    7 type  2   force =    -0.00000000    0.00000000    0.00000000

     Total force =     0.000156     Total SCF correction =     0.000018
     SCF correction compared to forces is large: reduce conv_thr to get better values


     Computing stress (Cartesian axis) and pressure

          total   stress  (Ry/bohr**3)                   (kbar)     P=      499.67
   0.00339667   0.00000000  -0.00000000          499.67        0.00       -0.00
   0.00000000   0.00339667   0.00000000            0.00      499.67        0.00
  -0.00000000   0.00000000   0.00339667           -0.00        0.00      499.67


     Writing all to output data dir ./output/LiSi.save/

     init_run     :      2.57s CPU      2.87s WALL (       2 calls)
     electrons    :     92.77s CPU    101.76s WALL (      12 calls)
     update_pot   :     22.22s CPU     22.43s WALL (      10 calls)
     forces       :     13.20s CPU     13.35s WALL (      12 calls)
     stress       :     37.84s CPU     40.50s WALL (      12 calls)

     Called by init_run:
     wfcinit      :      0.35s CPU      0.47s WALL (       2 calls)
     potinit      :      1.31s CPU      1.37s WALL (       2 calls)
     hinit0       :      0.83s CPU      0.90s WALL (       2 calls)

     Called by electrons:
     c_bands      :     75.08s CPU     82.01s WALL (     122 calls)
     sum_band     :     11.80s CPU     13.00s WALL (     122 calls)
     v_of_rho     :      5.91s CPU      6.61s WALL (     133 calls)
     mix_rho      :      0.44s CPU      0.50s WALL (     122 calls)

     Called by c_bands:
     init_us_2    :      2.09s CPU      2.23s WALL (    2160 calls)
     init_us_2:cp :      2.09s CPU      2.23s WALL (    2160 calls)
     cegterg      :     71.36s CPU     77.89s WALL (     976 calls)

     Called by *egterg:
     cdiaghg      :      0.97s CPU      1.01s WALL (    3991 calls)
     h_psi        :     63.81s CPU     70.29s WALL (    4095 calls)
     g_psi        :      0.30s CPU      0.30s WALL (    3103 calls)

     Called by h_psi:
     h_psi:calbec :      3.61s CPU      3.83s WALL (    4095 calls)
     vloc_psi     :     56.67s CPU     62.86s WALL (    4095 calls)
     add_vuspsi   :      3.34s CPU      3.41s WALL (    4095 calls)

     General routines
     calbec       :      4.26s CPU      4.49s WALL (    4575 calls)
     fft          :      2.35s CPU      3.27s WALL (    1629 calls)
     ffts         :      0.12s CPU      0.18s WALL (     122 calls)
     fftw         :     58.23s CPU     64.52s WALL (   97216 calls)

     Parallel routines

     PWSCF        :   2m48.89s CPU   3m 1.59s WALL


   This run was terminated on:   3:57:30  30Dec2024            

=------------------------------------------------------------------------------=
   JOB DONE.
=------------------------------------------------------------------------------=
