
     Program PWSCF v.7.2 starts on 31Dec2024 at 15:56:40 

     This program is part of the open-source Quantum ESPRESSO suite
     for quantum simulation of materials; please cite
         "P. Giannozzi et al., J. Phys.:Condens. Matter 21 395502 (2009);
         "P. Giannozzi et al., J. Phys.:Condens. Matter 29 465901 (2017);
         "P. Giannozzi et al., J. Chem. Phys. 152 154105 (2020);
          URL http://www.quantum-espresso.org", 
     in publications or presentations arising from this work. More details at
     http://www.quantum-espresso.org/quote

     Parallel version (MPI & OpenMP), running on       8 processor cores
     Number of MPI processes:                 8
     Threads/MPI process:                     1

     MPI processes distributed on     1 nodes
     482091 MiB available memory on the printing compute node when the environment starts

     Waiting for input...
     Reading input from standard input

     Current dimensions of program PWSCF are:
     Max number of different atomic species (ntypx) = 10
     Max number of k-points (npk) =  40000
     Max angular momentum in pseudopotentials (lmaxx) =  4

     R & G space division:  proc/nbgrp/npool/nimage =       8
     Subspace diagonalization in iterative solution of the eigenvalue problem:
     a serial algorithm will be used


     Parallelization info
     --------------------
     sticks:   dense  smooth     PW     G-vecs:    dense   smooth      PW
     Min         248     248     83                 4952     4952     992
     Max         249     249     84                 4953     4953     994
     Sum        1989    1989    669                39621    39621    7943

     Using Slab Decomposition



     bravais-lattice index     =            7
     lattice parameter (alat)  =       5.3631  a.u.
     unit-cell volume          =     410.2904 (a.u.)^3
     number of atoms/cell      =            7
     number of atomic types    =            2
     number of electrons       =        22.00
     number of Kohn-Sham states=           15
     kinetic-energy cutoff     =      80.0000  Ry
     charge density cutoff     =     320.0000  Ry
     scf convergence threshold =      1.0E-08
     mixing beta               =       0.7000
     number of iterations used =            8  plain     mixing
     energy convergence thresh.=      1.0E-04
     force convergence thresh. =      1.0E-03
     press convergence thresh. =      1.0E+00
     Exchange-correlation= PBE
                           (   1   4   3   4   0   0   0)
     nstep                     =           50


     celldm(1)=   5.363126  celldm(2)=   0.000000  celldm(3)=   5.319458
     celldm(4)=   0.000000  celldm(5)=   0.000000  celldm(6)=   0.000000

     crystal axes: (cart. coord. in units of alat)
               a(1) = (   0.500000  -0.500000   2.659729 )  
               a(2) = (   0.500000   0.500000   2.659729 )  
               a(3) = (  -0.500000  -0.500000   2.659729 )  

     reciprocal axes: (cart. coord. in units 2 pi/alat)
               b(1) = (  1.000000 -1.000000  0.000000 )  
               b(2) = (  0.000000  1.000000  0.187989 )  
               b(3) = ( -1.000000  0.000000  0.187989 )  


     PseudoPot. # 1 for Li read from file:
     ../pseudo/Li_ONCV_PBE_sr.upf
     MD5 check sum: 50ff420e78310ffa21704f3361e624a4
     Pseudo is Norm-conserving, Zval =  3.0
     Generated using ONCVPSP code by D. R. Hamann
     Using radial grid of 1944 points,  4 beta functions with: 
                l(1) =   0
                l(2) =   0
                l(3) =   1
                l(4) =   1

     PseudoPot. # 2 for Si read from file:
     ../pseudo/Si_ONCV_PBE_sr.upf
     MD5 check sum: e543d271109d17c80368dfa7c482276d
     Pseudo is Norm-conserving + core correction, Zval =  4.0
     Generated using ONCVPSP code by D. R. Hamann
     Using radial grid of 1510 points,  6 beta functions with: 
                l(1) =   0
                l(2) =   0
                l(3) =   1
                l(4) =   1
                l(5) =   2
                l(6) =   2

     atomic species   valence    mass     pseudopotential
        Li             3.00     6.94100     Li( 1.00)
        Si             4.00    28.08550     Si( 1.00)

     16 Sym. Ops., with inversion, found



   Cartesian axes

     site n.     atom                  positions (alat units)
         1           Li  tau(   1) = (   0.0000000   0.5000000   0.4506086  )
         2           Li  tau(   2) = (   0.0000000   0.5000000   4.8688491  )
         3           Li  tau(   3) = (   0.5000000   0.0000000   0.4506086  )
         4           Li  tau(   4) = (   0.5000000   0.0000000   4.8688491  )
         5           Li  tau(   5) = (   0.0000000   0.0000000   1.4266280  )
         6           Li  tau(   6) = (   0.0000000   0.0000000   3.8928297  )
         7           Si  tau(   7) = (   0.0000000   0.0000000   2.6597288  )

     number of k points=    66  Marzari-Vanderbilt smearing, width (Ry)=  0.0200
                       cart. coord. in units 2pi/alat
        k(    1) = (   0.0000000   0.0000000   0.0000000), wk =   0.0123457
        k(    2) = (   0.5000000   0.0000000  -0.0939945), wk =   0.0123457
        k(    3) = (   0.0000000   0.1111111   0.0208877), wk =   0.0493827
        k(    4) = (   0.5000000   0.1111111  -0.0731069), wk =   0.0246914
        k(    5) = (   0.0000000   0.2222222   0.0417754), wk =   0.0493827
        k(    6) = (   0.5000000   0.2222222  -0.0522192), wk =   0.0246914
        k(    7) = (   0.0000000   0.3333333   0.0626630), wk =   0.0493827
        k(    8) = (   0.5000000   0.3333333  -0.0313315), wk =   0.0246914
        k(    9) = (   0.0000000   0.4444444   0.0835507), wk =   0.0493827
        k(   10) = (   0.5000000   0.4444444  -0.0104438), wk =   0.0246914
        k(   11) = (   0.1111111  -0.1111111   0.0000000), wk =   0.0246914
        k(   12) = (   0.6111111  -0.1111111  -0.0939945), wk =   0.0246914
        k(   13) = (   0.6111111   0.0000000  -0.0731069), wk =   0.0246914
        k(   14) = (   0.1111111   0.1111111   0.0417754), wk =   0.0246914
        k(   15) = (   0.6111111   0.1111111  -0.0522192), wk =   0.0246914
        k(   16) = (   0.1111111   0.2222222   0.0626630), wk =   0.0493827
        k(   17) = (   0.6111111   0.2222222  -0.0313315), wk =   0.0246914
        k(   18) = (   0.1111111   0.3333333   0.0835507), wk =   0.0493827
        k(   19) = (   0.6111111   0.3333333  -0.0104438), wk =   0.0246914
        k(   20) = (   0.1111111  -0.5555556  -0.0835507), wk =   0.0493827
        k(   21) = (   0.6111111  -0.5555556  -0.1775452), wk =   0.0246914
        k(   22) = (   0.1111111  -0.4444444  -0.0626630), wk =   0.0493827
        k(   23) = (   0.6111111  -0.4444444  -0.1566576), wk =   0.0246914
        k(   24) = (   0.1111111  -0.3333333  -0.0417754), wk =   0.0493827
        k(   25) = (   0.6111111  -0.3333333  -0.1357699), wk =   0.0246914
        k(   26) = (   0.1111111  -0.2222222  -0.0208877), wk =   0.0493827
        k(   27) = (   0.6111111  -0.2222222  -0.1148822), wk =   0.0246914
        k(   28) = (   0.2222222  -0.2222222   0.0000000), wk =   0.0246914
        k(   29) = (   0.7222222  -0.2222222  -0.0939945), wk =   0.0246914
        k(   30) = (   0.7222222  -0.1111111  -0.0731069), wk =   0.0246914
        k(   31) = (   0.7222222   0.0000000  -0.0522192), wk =   0.0246914
        k(   32) = (   0.7222222   0.1111111  -0.0313315), wk =   0.0246914
        k(   33) = (   0.2222222   0.2222222   0.0835507), wk =   0.0246914
        k(   34) = (   0.7222222   0.2222222  -0.0104438), wk =   0.0246914
        k(   35) = (   0.2222222  -0.6666667  -0.0835507), wk =   0.0493827
        k(   36) = (   0.7222222  -0.6666667  -0.1775452), wk =   0.0246914
        k(   37) = (   0.2222222  -0.5555556  -0.0626630), wk =   0.0493827
        k(   38) = (   0.7222222  -0.5555556  -0.1566576), wk =   0.0246914
        k(   39) = (   0.2222222  -0.4444444  -0.0417754), wk =   0.0493827
        k(   40) = (   0.7222222  -0.4444444  -0.1357699), wk =   0.0246914
        k(   41) = (   0.2222222  -0.3333333  -0.0208877), wk =   0.0493827
        k(   42) = (   0.7222222  -0.3333333  -0.1148822), wk =   0.0246914
        k(   43) = (   0.3333333  -0.3333333   0.0000000), wk =   0.0246914
        k(   44) = (   0.8333333  -0.3333333  -0.0939945), wk =   0.0246914
        k(   45) = (   0.8333333  -0.2222222  -0.0731069), wk =   0.0246914
        k(   46) = (   0.8333333  -0.1111111  -0.0522192), wk =   0.0246914
        k(   47) = (   0.8333333   0.0000000  -0.0313315), wk =   0.0246914
        k(   48) = (   0.8333333   0.1111111  -0.0104438), wk =   0.0246914
        k(   49) = (   0.8333333  -0.7777778  -0.1775452), wk =   0.0246914
        k(   50) = (   0.3333333  -0.6666667  -0.0626630), wk =   0.0246914
        k(   51) = (   0.8333333  -0.6666667  -0.1566576), wk =   0.0246914
        k(   52) = (   0.3333333  -0.5555556  -0.0417754), wk =   0.0493827
        k(   53) = (   0.8333333  -0.5555556  -0.1357699), wk =   0.0246914
        k(   54) = (   0.3333333  -0.4444444  -0.0208877), wk =   0.0493827
        k(   55) = (   0.8333333  -0.4444444  -0.1148822), wk =   0.0246914
        k(   56) = (   0.4444444  -0.4444444   0.0000000), wk =   0.0246914
        k(   57) = (   0.9444444  -0.4444444  -0.0939945), wk =   0.0246914
        k(   58) = (   0.9444444  -0.3333333  -0.0731069), wk =   0.0246914
        k(   59) = (   0.9444444  -0.2222222  -0.0522192), wk =   0.0246914
        k(   60) = (   0.9444444  -0.1111111  -0.0313315), wk =   0.0246914
        k(   61) = (   0.9444444   0.0000000  -0.0104438), wk =   0.0246914
        k(   62) = (   0.9444444  -0.8888889  -0.1775452), wk =   0.0246914
        k(   63) = (   0.9444444  -0.7777778  -0.1566576), wk =   0.0246914
        k(   64) = (   0.9444444  -0.6666667  -0.1357699), wk =   0.0246914
        k(   65) = (   0.4444444  -0.5555556  -0.0208877), wk =   0.0246914
        k(   66) = (   0.9444444  -0.5555556  -0.1148822), wk =   0.0246914

     Dense  grid:    39621 G-vectors     FFT dimensions: (  90,  90,  90)

     Estimated max dynamical RAM per process >      31.11 MB

     Estimated total dynamical RAM >     248.90 MB

     Initial potential from superposition of free atoms

     starting charge      21.9720, renormalised to      22.0000
     Starting wfcs are   16 randomized atomic wfcs

     total cpu time spent up to now is        7.3 secs

     Self-consistent Calculation

     iteration #  1     ecut=    80.00 Ry     beta= 0.70
     Davidson diagonalization with overlap
     ethr =  1.00E-02,  avg # of iterations =  5.6

     total cpu time spent up to now is       14.6 secs

     total energy              =     -93.08947300 Ry
     estimated scf accuracy    <       1.38909644 Ry

     iteration #  2     ecut=    80.00 Ry     beta= 0.70
     Davidson diagonalization with overlap
     ethr =  6.31E-03,  avg # of iterations =  4.6

     total cpu time spent up to now is       21.6 secs

     total energy              =     -91.88071454 Ry
     estimated scf accuracy    <      22.39600087 Ry

     iteration #  3     ecut=    80.00 Ry     beta= 0.70
     Davidson diagonalization with overlap
     ethr =  6.31E-03,  avg # of iterations =  3.9

     total cpu time spent up to now is       28.0 secs

     total energy              =     -94.03494616 Ry
     estimated scf accuracy    <       0.03966285 Ry

     iteration #  4     ecut=    80.00 Ry     beta= 0.70
     Davidson diagonalization with overlap
     ethr =  1.80E-04,  avg # of iterations =  4.1

     total cpu time spent up to now is       34.0 secs

     total energy              =     -94.05526531 Ry
     estimated scf accuracy    <       0.00192066 Ry

     iteration #  5     ecut=    80.00 Ry     beta= 0.70
     Davidson diagonalization with overlap
     ethr =  8.73E-06,  avg # of iterations =  4.1

     total cpu time spent up to now is       39.2 secs

     total energy              =     -94.05625010 Ry
     estimated scf accuracy    <       0.00040735 Ry

     iteration #  6     ecut=    80.00 Ry     beta= 0.70
     Davidson diagonalization with overlap
     ethr =  1.85E-06,  avg # of iterations =  2.4

     total cpu time spent up to now is       44.3 secs

     total energy              =     -94.05631125 Ry
     estimated scf accuracy    <       0.00000704 Ry

     iteration #  7     ecut=    80.00 Ry     beta= 0.70
     Davidson diagonalization with overlap
     ethr =  3.20E-08,  avg # of iterations =  2.3

     total cpu time spent up to now is       49.4 secs

     total energy              =     -94.05631229 Ry
     estimated scf accuracy    <       0.00000020 Ry

     iteration #  8     ecut=    80.00 Ry     beta= 0.70
     Davidson diagonalization with overlap
     ethr =  9.27E-10,  avg # of iterations =  3.0

     total cpu time spent up to now is       54.8 secs

     total energy              =     -94.05631235 Ry
     estimated scf accuracy    <       0.00000002 Ry

     iteration #  9     ecut=    80.00 Ry     beta= 0.70
     Davidson diagonalization with overlap
     ethr =  1.10E-10,  avg # of iterations =  2.0

     total cpu time spent up to now is       59.6 secs

     End of self-consistent calculation

          k = 0.0000 0.0000 0.0000 (  4945 PWs)   bands (ev):

   -39.8773 -39.8249 -39.8010 -39.3601 -39.1200 -39.0956  -3.8746   2.8203
     3.2531   6.3847   8.5680   8.5680   9.9372  12.5842  12.5908

          k = 0.5000 0.0000-0.0940 (  4954 PWs)   bands (ev):

   -39.5957 -39.5953 -39.4715 -39.4659 -39.4362 -39.4349  -1.3463   0.9096
     4.4036   5.5374   5.8269   7.2035   9.2359   9.6221  12.4415

          k = 0.0000 0.1111 0.0209 (  4954 PWs)   bands (ev):

   -39.8568 -39.8059 -39.7781 -39.3733 -39.1401 -39.1154  -3.7067   2.9478
     3.3838   6.4158   7.0742   8.7572  10.0905  11.5576  12.7628

          k = 0.5000 0.1111-0.0731 (  4961 PWs)   bands (ev):

   -39.5936 -39.5932 -39.4686 -39.4636 -39.4340 -39.4329  -1.2253   1.0756
     4.3139   5.6382   5.9019   7.0741   9.0320   9.4198  10.5809

          k = 0.0000 0.2222 0.0418 (  4960 PWs)   bands (ev):

   -39.8016 -39.7476 -39.7131 -39.4120 -39.1989 -39.1730  -3.2115   3.3084
     3.7693   4.8038   6.4753   9.3123   9.8442  10.2205  11.5739

          k = 0.5000 0.2222-0.0522 (  4951 PWs)   bands (ev):

   -39.5881 -39.5879 -39.4613 -39.4580 -39.4284 -39.4276  -0.8830   1.5717
     4.0832   5.8496   6.0803   6.4345   8.4601   8.5909  10.3816

          k = 0.0000 0.3333 0.0627 (  4971 PWs)   bands (ev):

   -39.7253 -39.6523 -39.6156 -39.4728 -39.2907 -39.2627  -2.4277   2.7156
     3.8322   4.4474   6.3723   8.5660   9.6266  10.4333  11.8205

          k = 0.5000 0.3333-0.0313 (  4948 PWs)   bands (ev):

   -39.5819 -39.5818 -39.4530 -39.4516 -39.4220 -39.4217  -0.3988   2.3909
     3.8198   5.0509   6.0978   6.4282   7.2854   8.0385  10.5237

          k = 0.0000 0.4444 0.0836 (  4972 PWs)   bands (ev):

   -39.6391 -39.5553 -39.5302 -39.4961 -39.4061 -39.3749  -1.5449   1.1893
     4.3126   5.2884   5.9697   7.4522   9.1994   9.7872  12.2082

          k = 0.5000 0.4444-0.0104 (  4946 PWs)   bands (ev):

   -39.5778 -39.5778 -39.4476 -39.4474 -39.4178 -39.4178   0.0183   3.5143
     3.6493   4.2135   4.9073   6.9037   7.0507   7.5553  11.3744

          k = 0.1111-0.1111 0.0000 (  4961 PWs)   bands (ev):

   -39.8383 -39.7860 -39.7572 -39.3856 -39.1589 -39.1338  -3.5405   3.0949
     3.4686   6.4907   6.8876   7.5800  10.1867  11.1890  11.9675

          k = 0.6111-0.1111-0.0940 (  4950 PWs)   bands (ev):

   -39.6754 -39.5858 -39.5496 -39.5118 -39.3512 -39.3219  -1.8283   1.9964
     4.0449   5.0451   6.2330   7.5324   8.9660   9.3481  11.0557

          k = 0.6111 0.0000-0.0731 (  4963 PWs)   bands (ev):

   -39.6825 -39.5965 -39.5576 -39.5092 -39.3461 -39.3168  -1.9685   1.8554
     4.0017   5.1373   6.0794   7.6704   9.0785  10.6483  10.6760

          k = 0.1111 0.1111 0.0418 (  4964 PWs)   bands (ev):

   -39.8375 -39.7882 -39.7557 -39.3856 -39.1589 -39.1338  -3.5405   3.0474
     3.5440   6.3882   6.9055   7.5796  10.3330  11.2011  11.9836

          k = 0.6111 0.1111-0.0522 (  4963 PWs)   bands (ev):

   -39.6751 -39.5874 -39.5478 -39.5123 -39.3511 -39.3220  -1.8284   1.9964
     3.9780   5.3143   6.0759   7.3635   8.9077   9.2265  11.4930

          k = 0.1111 0.2222 0.0627 (  4973 PWs)   bands (ev):

   -39.7863 -39.7317 -39.6943 -39.4217 -39.2135 -39.1875  -3.0512   3.3608
     3.9516   4.8953   6.3979   7.7136   9.8559  10.6333  10.9282

          k = 0.6111 0.2222-0.0313 (  4953 PWs)   bands (ev):

   -39.6549 -39.5607 -39.5238 -39.5190 -39.3664 -39.3376  -1.4249   2.4014
     3.9383   5.5157   6.0441   6.5106   8.1516   8.7201  10.9592

          k = 0.1111 0.3333 0.0836 (  4960 PWs)   bands (ev):

   -39.7152 -39.6404 -39.6024 -39.4783 -39.2992 -39.2713  -2.2787   2.8392
     3.8165   4.6539   6.3171   7.9004   8.9136   9.7054  10.9994

          k = 0.6111 0.3333-0.0104 (  4943 PWs)   bands (ev):

   -39.6263 -39.5433 -39.5153 -39.4837 -39.3924 -39.3636  -0.8267   2.9518
     3.8321   4.7834   5.8340   6.4510   7.7068   8.3908   9.9628

          k = 0.1111-0.5556-0.0836 (  4954 PWs)   bands (ev):

   -39.6343 -39.5554 -39.5242 -39.4906 -39.4073 -39.3765  -1.4164   1.3464
     4.2290   5.4171   6.1140   7.1248   9.0452   9.3008  10.8039

          k = 0.6111-0.5556-0.1775 (  4952 PWs)   bands (ev):

   -39.5946 -39.5653 -39.4717 -39.4408 -39.4284 -39.3990  -0.2614   3.0046
     3.7303   4.4421   5.8409   6.3449   7.2697   8.0092  10.3112

          k = 0.1111-0.4444-0.0627 (  4957 PWs)   bands (ev):

   -39.6345 -39.5547 -39.5248 -39.4905 -39.4075 -39.3764  -1.4164   1.3463
     4.2736   5.2875   6.0558   7.3863   9.0057   9.4742  10.6143

          k = 0.6111-0.4444-0.1567 (  4942 PWs)   bands (ev):

   -39.5947 -39.5652 -39.4716 -39.4409 -39.4284 -39.3990  -0.2609   3.0014
     3.7369   4.4449   5.6456   6.8783   7.1255   7.6099  11.3840

          k = 0.1111-0.3333-0.0418 (  4961 PWs)   bands (ev):

   -39.7156 -39.6385 -39.6038 -39.4782 -39.2993 -39.2713  -2.2786   2.8392
     3.9488   4.3889   6.5082   7.9711   8.9370   9.9795  10.5219

          k = 0.6111-0.3333-0.1358 (  4948 PWs)   bands (ev):

   -39.6265 -39.5423 -39.5163 -39.4835 -39.3924 -39.3636  -0.8262   2.9485
     3.8662   4.7814   5.4973   6.9657   7.7554   8.0675  10.3929

          k = 0.1111-0.2222-0.0209 (  4969 PWs)   bands (ev):

   -39.7872 -39.7292 -39.6960 -39.4216 -39.2135 -39.1875  -3.0511   3.4734
     3.7734   4.8861   6.5926   7.7006   9.8777  10.2753  11.0461

          k = 0.6111-0.2222-0.1149 (  4943 PWs)   bands (ev):

   -39.6552 -39.5579 -39.5306 -39.5147 -39.3665 -39.3375  -1.4246   2.4007
     4.0155   5.1241   6.2676   6.5881   8.3377   9.0905  10.4115

          k = 0.2222-0.2222 0.0000 (  4967 PWs)   bands (ev):

   -39.7466 -39.6788 -39.6452 -39.4499 -39.2566 -39.2300  -2.5804   3.8652
     3.8885   4.7463   6.0227   6.7597   9.7666   9.7696  10.0557

          k = 0.7222-0.2222-0.0940 (  4965 PWs)   bands (ev):

   -39.7182 -39.6459 -39.6073 -39.4705 -39.2878 -39.2607  -2.2403   3.7121
     3.9664   4.7269   5.9256   6.3903   9.0934   9.3974  10.9292

          k = 0.7222-0.1111-0.0731 (  4967 PWs)   bands (ev):

   -39.7516 -39.6925 -39.6496 -39.4478 -39.2529 -39.2261  -2.6953   3.4768
     3.7864   4.5971   6.0542   7.9120   9.2969   9.9918  11.4155

          k = 0.7222 0.0000-0.0522 (  4959 PWs)   bands (ev):

   -39.7631 -39.7098 -39.6639 -39.4401 -39.2411 -39.2144  -2.8509   3.3693
     3.6833   4.6141   5.8992   9.1737   9.7052   9.8559  11.5915

          k = 0.7222 0.1111-0.0313 (  4964 PWs)   bands (ev):

   -39.7508 -39.6945 -39.6483 -39.4478 -39.2529 -39.2261  -2.6953   3.4244
     3.7838   4.8680   5.7423   7.9175   9.4199   9.7301  12.0226

          k = 0.2222 0.2222 0.0836 (  4963 PWs)   bands (ev):

   -39.7456 -39.6820 -39.6429 -39.4499 -39.2566 -39.2300  -2.5805   3.5762
     4.2867   4.8143   6.0227   6.3701   9.5576   9.7643  10.8637

          k = 0.7222 0.2222-0.0104 (  4973 PWs)   bands (ev):

   -39.7174 -39.6486 -39.6053 -39.4707 -39.2878 -39.2607  -2.2404   3.6093
     3.9672   5.3813   5.5819   6.0000   9.1584   9.1980  12.2043

          k = 0.2222-0.6667-0.0836 (  4955 PWs)   bands (ev):

   -39.6877 -39.6043 -39.5667 -39.4947 -39.3247 -39.2968  -1.8454   3.1632
     3.8550   4.9954   6.0490   6.4714   8.5669   9.1254  10.9096

          k = 0.7222-0.6667-0.1775 (  4959 PWs)   bands (ev):

   -39.6689 -39.5802 -39.5410 -39.5071 -39.3436 -39.3156  -1.5372   3.3195
     3.8217   5.2634   5.5413   6.1805   8.3407   8.7456  10.8356

          k = 0.2222-0.5556-0.0627 (  4941 PWs)   bands (ev):

   -39.6214 -39.5563 -39.5080 -39.4749 -39.4118 -39.3817  -1.0505   1.8120
     4.0470   5.6430   6.2622   6.4271   8.2257   8.6543  10.5047

          k = 0.7222-0.5556-0.1567 (  4948 PWs)   bands (ev):

   -39.6129 -39.5581 -39.4968 -39.4643 -39.4158 -39.3861  -0.7991   2.1543
     3.9301   5.5582   5.9027   6.5295   7.7405   8.3925  10.1373

          k = 0.2222-0.4444-0.0418 (  4942 PWs)   bands (ev):

   -39.6216 -39.5559 -39.5081 -39.4750 -39.4119 -39.3816  -1.0503   1.8115
     4.0835   5.4487   6.3432   6.4308   8.4025   8.9895  10.3819

          k = 0.7222-0.4444-0.1358 (  4944 PWs)   bands (ev):

   -39.6131 -39.5579 -39.4968 -39.4645 -39.4159 -39.3860  -0.7987   2.1533
     3.9540   5.4487   5.8829   6.5470   8.0230   8.3290  10.5269

          k = 0.2222-0.3333-0.0209 (  4944 PWs)   bands (ev):

   -39.6882 -39.6017 -39.5691 -39.4944 -39.3248 -39.2968  -1.8452   3.1620
     4.0130   4.5872   6.1082   6.7867   8.7434   9.5492   9.9055

          k = 0.7222-0.3333-0.1149 (  4937 PWs)   bands (ev):

   -39.6693 -39.5777 -39.5440 -39.5061 -39.3436 -39.3156  -1.5369   3.3169
     3.9163   4.9841   5.3187   6.7624   8.3674   8.9395  10.2344

          k = 0.3333-0.3333 0.0000 (  4937 PWs)   bands (ev):

   -39.6487 -39.5475 -39.5292 -39.5091 -39.3663 -39.3380  -1.1862   3.2855
     3.9254   4.8122   5.1206   7.1060   8.0439   8.4904  10.1021

          k = 0.8333-0.3333-0.0940 (  4952 PWs)   bands (ev):

   -39.7033 -39.6251 -39.5870 -39.4852 -39.3099 -39.2820  -2.0955   2.9846
     3.8353   4.8102   6.3119   7.0598   8.7284   9.4240  11.0709

          k = 0.8333-0.2222-0.0731 (  4974 PWs)   bands (ev):

   -39.7674 -39.7140 -39.6703 -39.4336 -39.2317 -39.2054  -2.8531   3.3588
     4.3366   4.9984   6.0410   6.7216   9.7655  10.2801  11.3632

          k = 0.8333-0.1111-0.0522 (  4975 PWs)   bands (ev):

   -39.8109 -39.7740 -39.7245 -39.4009 -39.1819 -39.1565  -3.3349   3.0270
     4.0927   5.8233   6.0505   7.5474  10.6239  11.3727  11.5646

          k = 0.8333 0.0000-0.0313 (  4974 PWs)   bands (ev):

   -39.8256 -39.7963 -39.7427 -39.3897 -39.1649 -39.1397  -3.4987   2.9049
     4.0050   5.7773   5.9721   8.9807  10.9608  11.3369  11.7796

          k = 0.8333 0.1111-0.0104 (  4968 PWs)   bands (ev):

   -39.8095 -39.7765 -39.7234 -39.4009 -39.1819 -39.1565  -3.3350   2.9990
     4.1987   5.7085   6.0238   7.5488  10.6635  11.3498  11.9584

          k = 0.8333-0.7778-0.1775 (  4974 PWs)   bands (ev):

   -39.7662 -39.7168 -39.6686 -39.4336 -39.2317 -39.2054  -2.8531   3.2949
     4.5324   5.1457   5.6362   6.7219   9.8044  10.2017  12.2268

          k = 0.3333-0.6667-0.0627 (  4951 PWs)   bands (ev):

   -39.6484 -39.5511 -39.5232 -39.5118 -39.3663 -39.3380  -1.1866   3.2893
     3.8564   4.8108   5.4683   6.5901   8.0439   8.5602  10.2166

          k = 0.8333-0.6667-0.1567 (  4961 PWs)   bands (ev):

   -39.7027 -39.6272 -39.5853 -39.4854 -39.3098 -39.2820  -2.0956   2.9850
     3.7391   5.2896   5.8197   7.0656   8.7492   9.0978  12.0295

          k = 0.3333-0.5556-0.0418 (  4949 PWs)   bands (ev):

   -39.6039 -39.5610 -39.4845 -39.4528 -39.4213 -39.3918  -0.5250   2.5596
     3.8229   4.9552   6.0292   6.4285   7.4109   8.1739  10.1456

          k = 0.8333-0.5556-0.1358 (  4959 PWs)   bands (ev):

   -39.6286 -39.5558 -39.5172 -39.4838 -39.4090 -39.3787  -1.2602   1.5415
     4.1361   5.5777   6.2893   6.6984   8.7362   8.7685  11.0309

          k = 0.3333-0.4444-0.0209 (  4937 PWs)   bands (ev):

   -39.6040 -39.5609 -39.4843 -39.4529 -39.4213 -39.3918  -0.5246   2.5576
     3.8366   4.9513   5.7925   6.7704   7.4647   7.9067  10.9984

          k = 0.8333-0.4444-0.1149 (  4953 PWs)   bands (ev):

   -39.6288 -39.5551 -39.5176 -39.4838 -39.4092 -39.3785  -1.2601   1.5413
     4.1799   5.4020   6.2021   6.9482   8.6830   9.2254  10.5905

          k = 0.4444-0.4444 0.0000 (  4948 PWs)   bands (ev):

   -39.5859 -39.5709 -39.4591 -39.4371 -39.4290 -39.4077  -0.0592   3.3893
     3.6724   4.1732   5.2105   6.9425   7.1618   7.3677  11.7398

          k = 0.9444-0.4444-0.0940 (  4963 PWs)   bands (ev):

   -39.6379 -39.5555 -39.5286 -39.4947 -39.4064 -39.3753  -1.5125   1.2287
     4.2838   5.3401   6.0134   7.3325   9.1381   9.7318  10.9002

          k = 0.9444-0.3333-0.0731 (  4965 PWs)   bands (ev):

   -39.7220 -39.6517 -39.6104 -39.4743 -39.2928 -39.2649  -2.3904   2.7470
     3.7085   4.8266   6.0791   8.2724   9.2935   9.7953  11.2953

          k = 0.9444-0.2222-0.0522 (  4964 PWs)   bands (ev):

   -39.7942 -39.7518 -39.7035 -39.4145 -39.2025 -39.1767  -3.1714   3.1453
     4.2146   4.8807   5.8841   8.7390  10.0660  10.6613  11.6088

          k = 0.9444-0.1111-0.0313 (  4970 PWs)   bands (ev):

   -39.8430 -39.8190 -39.7637 -39.3765 -39.1449 -39.1200  -3.6651   2.7893
     3.8421   5.7871   7.1099   8.3029  11.5307  11.7309  12.3804

          k = 0.9444 0.0000-0.0104 (  4966 PWs)   bands (ev):

   -39.8596 -39.8437 -39.7842 -39.3635 -39.1251 -39.1005  -3.8325   2.6670
     3.6992   5.7566   8.0970   8.6031  11.6633  12.5331  12.5987

          k = 0.9444-0.8889-0.1775 (  4972 PWs)   bands (ev):

   -39.8420 -39.8204 -39.7632 -39.3765 -39.1449 -39.1200  -3.6651   2.7811
     3.8704   5.7459   7.1106   8.3028  11.6313  11.8125  12.3381

          k = 0.9444-0.7778-0.1567 (  4965 PWs)   bands (ev):

   -39.7935 -39.7532 -39.7029 -39.4145 -39.2025 -39.1767  -3.1714   3.1257
     4.2791   4.9028   5.7747   8.7408  10.1510  10.5365  11.8540

          k = 0.9444-0.6667-0.1358 (  4966 PWs)   bands (ev):

   -39.7217 -39.6526 -39.6098 -39.4744 -39.2928 -39.2649  -2.3904   2.7470
     3.6740   4.9820   5.9265   8.2398   9.2484   9.7565  11.5934

          k = 0.4444-0.5556-0.0209 (  4946 PWs)   bands (ev):

   -39.5858 -39.5709 -39.4592 -39.4372 -39.4290 -39.4077  -0.0596   3.3932
     3.6699   4.1689   5.2570   6.6180   7.1731   7.7781  10.8061

          k = 0.9444-0.5556-0.1149 (  4965 PWs)   bands (ev):

   -39.6378 -39.5559 -39.5282 -39.4948 -39.4063 -39.3754  -1.5126   1.2287
     4.2585   5.4146   6.0438   7.1894   8.9942   9.9475  10.9259

     the Fermi energy is     6.5034 ev

!    total energy              =     -94.05631235 Ry
     estimated scf accuracy    <          1.2E-09 Ry
     smearing contrib. (-TS)   =       0.00010109 Ry
     internal energy E=F+TS    =     -94.05641344 Ry

     The total energy is F=E-TS. E is the sum of the following terms:
     one-electron contribution =     -46.19855356 Ry
     hartree contribution      =      22.24929483 Ry
     xc contribution           =     -24.52523912 Ry
     ewald contribution        =     -45.58191559 Ry

     convergence has been achieved in   9 iterations

     Forces acting on atoms (cartesian axes, Ry/au):

     atom    1 type  1   force =     0.00000000    0.00000000    0.20520691
     atom    2 type  1   force =     0.00000000    0.00000000   -0.20520691
     atom    3 type  1   force =     0.00000000    0.00000000    0.20520691
     atom    4 type  1   force =    -0.00000000    0.00000000   -0.20520691
     atom    5 type  1   force =     0.00000000    0.00000000    0.04826843
     atom    6 type  1   force =     0.00000000    0.00000000   -0.04826843
     atom    7 type  2   force =    -0.00000000    0.00000000    0.00000000
     The non-local contrib.  to forces
     atom    1 type  1   force =     0.00000000   -0.00000000    0.04067620
     atom    2 type  1   force =     0.00000000    0.00000000   -0.04067620
     atom    3 type  1   force =    -0.00000000    0.00000000    0.04067620
     atom    4 type  1   force =     0.00000000    0.00000000   -0.04067620
     atom    5 type  1   force =     0.00000000    0.00000000    0.00190874
     atom    6 type  1   force =     0.00000000    0.00000000   -0.00190874
     atom    7 type  2   force =     0.00000000    0.00000000    0.00000000
     The ionic contribution  to forces
     atom    1 type  1   force =    -0.00000000   -0.00000000    3.05612704
     atom    2 type  1   force =     0.00000000    0.00000000   -3.05612704
     atom    3 type  1   force =     0.00000000    0.00000000    3.05612704
     atom    4 type  1   force =    -0.00000000   -0.00000000   -3.05612704
     atom    5 type  1   force =    -0.00000000   -0.00000000   -0.23450513
     atom    6 type  1   force =    -0.00000000    0.00000000    0.23450513
     atom    7 type  2   force =    -0.00000000    0.00000000    0.00000000
     The local contribution  to forces
     atom    1 type  1   force =     0.00000000    0.00000000   -2.89164191
     atom    2 type  1   force =    -0.00000000    0.00000000    2.89164191
     atom    3 type  1   force =     0.00000000    0.00000000   -2.89164191
     atom    4 type  1   force =     0.00000000   -0.00000000    2.89164191
     atom    5 type  1   force =    -0.00000000    0.00000000    0.28086916
     atom    6 type  1   force =     0.00000000    0.00000000   -0.28086916
     atom    7 type  2   force =    -0.00000000   -0.00000000    0.00000000
     The core correction contribution to forces
     atom    1 type  1   force =     0.00000000    0.00000000    0.00000000
     atom    2 type  1   force =     0.00000000    0.00000000    0.00000000
     atom    3 type  1   force =     0.00000000    0.00000000    0.00000000
     atom    4 type  1   force =     0.00000000    0.00000000    0.00000000
     atom    5 type  1   force =     0.00000000    0.00000000    0.00000000
     atom    6 type  1   force =     0.00000000    0.00000000    0.00000000
     atom    7 type  2   force =    -0.00000000   -0.00000000    0.00000000
     The Hubbard contrib.    to forces
     atom    1 type  1   force =     0.00000000    0.00000000    0.00000000
     atom    2 type  1   force =     0.00000000    0.00000000    0.00000000
     atom    3 type  1   force =     0.00000000    0.00000000    0.00000000
     atom    4 type  1   force =     0.00000000    0.00000000    0.00000000
     atom    5 type  1   force =     0.00000000    0.00000000    0.00000000
     atom    6 type  1   force =     0.00000000    0.00000000    0.00000000
     atom    7 type  2   force =     0.00000000    0.00000000    0.00000000
     The SCF correction term to forces
     atom    1 type  1   force =     0.00000000   -0.00000000    0.00004557
     atom    2 type  1   force =     0.00000000    0.00000000   -0.00004557
     atom    3 type  1   force =     0.00000000    0.00000000    0.00004557
     atom    4 type  1   force =     0.00000000   -0.00000000   -0.00004557
     atom    5 type  1   force =     0.00000000    0.00000000   -0.00000433
     atom    6 type  1   force =    -0.00000000   -0.00000000    0.00000433
     atom    7 type  2   force =     0.00000000   -0.00000000   -0.00000000

     Total force =     0.416052     Total SCF correction =     0.000091


     Computing stress (Cartesian axis) and pressure

          total   stress  (Ry/bohr**3)                   (kbar)     P=      785.04
   0.00547854   0.00000000   0.00000000          805.92        0.00        0.00
   0.00000000   0.00547854  -0.00000000            0.00      805.92       -0.00
   0.00000000   0.00000000   0.00505276            0.00        0.00      743.29


     BFGS Geometry Optimization
     Energy error            =      0.0E+00 Ry
     Gradient error          =      2.1E-01 Ry/Bohr
     Cell gradient error     =      3.1E+02 kbar

     number of scf cycles    =   1
     number of bfgs steps    =   0

     enthalpy           new  =     -92.6617636339 Ry

     new trust radius        =       0.2106186443 bohr
ibrav =      7
 celldm(1) =      5.64195572
 celldm(3) =      5.26563309
Input lattice vectors:
     0.52599508    -0.52599508     2.76969709
     0.52599508     0.52599508     2.76969709
    -0.52599508    -0.52599508     2.76969709
New lattice vectors in INITIAL alat:
     0.52599508    -0.52599508     2.76969709
     0.52599508     0.52599508     2.76969709
    -0.52599508    -0.52599508     2.76969709
New lattice vectors in NEW alat (for information only):
     0.50000000    -0.50000000     2.63281654
     0.50000000     0.50000000     2.63281654
    -0.50000000    -0.50000000     2.63281654
Discrepancy in bohr =     0.000000    0.000000    0.000000
     new conv_thr            =       0.0000000100 Ry

     new unit-cell volume =    472.83500 a.u.^3 (    70.06692 Ang^3 )
     density =      1.65259 g/cm^3

CELL_PARAMETERS (alat=  5.36312595)
   0.525995079  -0.525995079   2.769697094
   0.525995079   0.525995079   2.769697094
  -0.525995079  -0.525995079   2.769697094

ATOMIC_POSITIONS (crystal)
Li           -0.5000000000        0.5919024429        0.0919024429
Li           -0.5000000000        1.4080975571        0.9080975571
Li            0.5000000000        0.0919024429       -0.4080975571
Li            0.5000000000        0.9080975571        0.4080975571
Li           -0.0000000000        0.2698824121        0.2698824121
Li           -0.0000000000        0.7301175879        0.7301175879
Si           -0.0000000000        0.5000000000        0.5000000000



     Writing config-only to output data dir ./output/LiSi.save/
     NEW-OLD atomic charge density approx. for the potential
     extrapolated charge   24.90637, renormalised to   22.00000

     total cpu time spent up to now is       62.6 secs

     Self-consistent Calculation

     iteration #  1     ecut=    80.00 Ry     beta= 0.70
     Davidson diagonalization with overlap
     c_bands:  1 eigenvalues not converged
     ethr =  1.00E-06,  avg # of iterations = 12.9

     total cpu time spent up to now is       78.2 secs

     total energy              =     -89.75428575 Ry
     estimated scf accuracy    <       5.16320224 Ry

     iteration #  2     ecut=    80.00 Ry     beta= 0.70
     Davidson diagonalization with overlap
     ethr =  1.00E-02,  avg # of iterations =  6.6

     total cpu time spent up to now is       86.9 secs

     total energy              =     -95.04281668 Ry
     estimated scf accuracy    <      21.54292860 Ry

     iteration #  3     ecut=    80.00 Ry     beta= 0.70
     Davidson diagonalization with overlap
     ethr =  1.00E-02,  avg # of iterations =  2.8

     total cpu time spent up to now is       92.5 secs

     total energy              =     -94.68682910 Ry
     estimated scf accuracy    <       7.28732766 Ry

     iteration #  4     ecut=    80.00 Ry     beta= 0.70
     Davidson diagonalization with overlap
     ethr =  1.00E-02,  avg # of iterations =  2.1

     total cpu time spent up to now is       97.3 secs

     total energy              =     -94.70465207 Ry
     estimated scf accuracy    <       2.79703485 Ry

     iteration #  5     ecut=    80.00 Ry     beta= 0.70
     Davidson diagonalization with overlap
     ethr =  1.00E-02,  avg # of iterations =  1.0

     total cpu time spent up to now is      101.9 secs

     total energy              =     -94.24740155 Ry
     estimated scf accuracy    <       2.05839700 Ry

     iteration #  6     ecut=    80.00 Ry     beta= 0.70
     Davidson diagonalization with overlap
     ethr =  9.36E-03,  avg # of iterations =  2.5

     total cpu time spent up to now is      107.0 secs

     total energy              =     -94.44890860 Ry
     estimated scf accuracy    <       0.02493771 Ry

     iteration #  7     ecut=    80.00 Ry     beta= 0.70
     Davidson diagonalization with overlap
     ethr =  1.13E-04,  avg # of iterations =  4.7

     total cpu time spent up to now is      113.0 secs

     total energy              =     -94.45574355 Ry
     estimated scf accuracy    <       0.02270326 Ry

     iteration #  8     ecut=    80.00 Ry     beta= 0.70
     Davidson diagonalization with overlap
     ethr =  1.03E-04,  avg # of iterations =  2.2

     total cpu time spent up to now is      118.3 secs

     total energy              =     -94.45802360 Ry
     estimated scf accuracy    <       0.09793925 Ry

     iteration #  9     ecut=    80.00 Ry     beta= 0.70
     Davidson diagonalization with overlap
     ethr =  1.03E-04,  avg # of iterations =  1.0

     total cpu time spent up to now is      122.8 secs

     total energy              =     -94.43684161 Ry
     estimated scf accuracy    <       0.06838716 Ry

     iteration # 10     ecut=    80.00 Ry     beta= 0.70
     Davidson diagonalization with overlap
     ethr =  1.03E-04,  avg # of iterations =  2.3

     total cpu time spent up to now is      128.1 secs

     total energy              =     -94.44901814 Ry
     estimated scf accuracy    <       0.00608579 Ry

     iteration # 11     ecut=    80.00 Ry     beta= 0.70
     Davidson diagonalization with overlap
     ethr =  2.77E-05,  avg # of iterations =  1.0

     total cpu time spent up to now is      132.7 secs

     total energy              =     -94.44807254 Ry
     estimated scf accuracy    <       0.00432410 Ry

     iteration # 12     ecut=    80.00 Ry     beta= 0.70
     Davidson diagonalization with overlap
     ethr =  1.97E-05,  avg # of iterations =  1.2

     total cpu time spent up to now is      137.1 secs

     total energy              =     -94.44841503 Ry
     estimated scf accuracy    <       0.00005393 Ry

     iteration # 13     ecut=    80.00 Ry     beta= 0.70
     Davidson diagonalization with overlap
     ethr =  2.45E-07,  avg # of iterations =  4.0

     total cpu time spent up to now is      142.6 secs

     total energy              =     -94.44843010 Ry
     estimated scf accuracy    <       0.00015201 Ry

     iteration # 14     ecut=    80.00 Ry     beta= 0.70
     Davidson diagonalization with overlap
     ethr =  2.45E-07,  avg # of iterations =  2.0

     total cpu time spent up to now is      147.3 secs

     total energy              =     -94.44843873 Ry
     estimated scf accuracy    <       0.00000805 Ry

     iteration # 15     ecut=    80.00 Ry     beta= 0.70
     Davidson diagonalization with overlap
     ethr =  3.66E-08,  avg # of iterations =  1.9

     total cpu time spent up to now is      152.0 secs

     total energy              =     -94.44843935 Ry
     estimated scf accuracy    <       0.00000089 Ry

     iteration # 16     ecut=    80.00 Ry     beta= 0.70
     Davidson diagonalization with overlap
     ethr =  4.05E-09,  avg # of iterations =  1.8

     total cpu time spent up to now is      156.7 secs

     total energy              =     -94.44843938 Ry
     estimated scf accuracy    <       0.00000021 Ry

     iteration # 17     ecut=    80.00 Ry     beta= 0.70
     Davidson diagonalization with overlap
     ethr =  9.36E-10,  avg # of iterations =  1.3

     total cpu time spent up to now is      161.3 secs

     total energy              =     -94.44843937 Ry
     estimated scf accuracy    <       0.00000013 Ry

     iteration # 18     ecut=    80.00 Ry     beta= 0.70
     Davidson diagonalization with overlap
     ethr =  5.70E-10,  avg # of iterations =  1.3

     total cpu time spent up to now is      165.8 secs

     total energy              =     -94.44843937 Ry
     estimated scf accuracy    <       0.00000001 Ry

     iteration # 19     ecut=    80.00 Ry     beta= 0.70
     Davidson diagonalization with overlap
     ethr =  5.16E-11,  avg # of iterations =  2.4

     total cpu time spent up to now is      170.8 secs

     End of self-consistent calculation

          k = 0.0000 0.0000 0.0000 (  4945 PWs)   bands (ev):

   -40.7314 -40.5853 -40.5778 -40.4145 -40.1171 -40.1103  -4.5009   1.8347
     2.1571   4.6754   7.6312   7.6312   8.7412  11.0745  11.0745

          k = 0.4753-0.0000-0.0903 (  4954 PWs)   bands (ev):

   -40.5649 -40.5649 -40.3454 -40.3434 -40.3352 -40.3344  -2.2248   0.4447
     3.1981   4.3456   4.6529   6.0516   7.7565   8.1316   9.8636

          k =-0.0000 0.1056 0.0201 (  4954 PWs)   bands (ev):

   -40.7207 -40.5709 -40.5628 -40.4227 -40.1304 -40.1234  -4.3426   1.9410
     2.2803   4.7723   6.1996   7.7977   8.8645  10.0123  11.2790

          k = 0.4753 0.1056-0.0702 (  4961 PWs)   bands (ev):

   -40.5637 -40.5636 -40.3440 -40.3421 -40.3339 -40.3333  -2.0945   0.6021
     3.1628   4.4526   4.7348   6.0004   7.6311   8.0593   9.0853

          k =-0.0000 0.2112 0.0401 (  4960 PWs)   bands (ev):

   -40.6904 -40.5293 -40.5206 -40.4459 -40.1688 -40.1615  -3.8779   2.2369
     2.6626   4.0297   5.0169   8.2823   8.3531   8.9147  10.1310

          k = 0.4753 0.2112-0.0501 (  4951 PWs)   bands (ev):

   -40.5606 -40.5606 -40.3403 -40.3391 -40.3307 -40.3303  -1.7217   1.0704
     3.0698   4.7344   4.9420   5.4835   7.1438   7.4810   8.9132

          k =-0.0000 0.3169 0.0602 (  4971 PWs)   bands (ev):

   -40.6454 -40.4940 -40.4624 -40.4491 -40.2287 -40.2207  -3.1537   2.0758
     2.6695   3.3174   5.1461   7.1301   8.1457   9.0160   9.0928

          k = 0.4753 0.3169-0.0301 (  4948 PWs)   bands (ev):

   -40.5571 -40.5570 -40.3361 -40.3355 -40.3271 -40.3269  -1.1804   1.8334
     2.9591   4.1616   5.1562   5.2711   6.3334   6.8459   8.8933

          k =-0.0000 0.4225 0.0802 (  4972 PWs)   bands (ev):

   -40.5922 -40.5383 -40.3854 -40.3752 -40.3038 -40.2948  -2.3827   0.6810
     3.1104   4.1185   4.7982   6.2639   7.6611   8.3514  10.8236

          k = 0.4753 0.4225-0.0100 (  4946 PWs)   bands (ev):

   -40.5548 -40.5548 -40.3333 -40.3332 -40.3247 -40.3247  -0.6928   2.8079
     2.8847   3.2550   4.3871   5.7946   5.9645   6.4143   9.4363

          k = 0.1056-0.1056-0.0000 (  4961 PWs)   bands (ev):

   -40.7106 -40.5565 -40.5493 -40.4302 -40.1427 -40.1357  -4.1855   2.0947
     2.3280   4.9145   6.0920   6.5900   8.9437   9.7130  10.3521

          k = 0.5809-0.1056-0.0903 (  4950 PWs)   bands (ev):

   -40.6149 -40.5155 -40.4192 -40.4085 -40.2684 -40.2600  -2.6022   1.4189
     2.8838   3.9070   5.0930   6.3917   7.5498   8.0185   9.5588

          k = 0.5809-0.0000-0.0702 (  4963 PWs)   bands (ev):

   -40.6193 -40.5137 -40.4252 -40.4144 -40.2648 -40.2564  -2.7428   1.2756
     2.8205   3.9666   4.9399   6.3995   7.5104   9.2631  11.0312

          k = 0.1056 0.1056 0.0401 (  4964 PWs)   bands (ev):

   -40.7106 -40.5577 -40.5481 -40.4303 -40.1427 -40.1357  -4.1855   2.0040
     2.4584   4.8183   6.1001   6.5894   9.0743   9.7268  10.3715

          k = 0.5809 0.1056-0.0501 (  4963 PWs)   bands (ev):

   -40.6149 -40.5155 -40.4192 -40.4085 -40.2683 -40.2600  -2.6023   1.4188
     2.8206   4.1422   4.9874   6.2025   7.4065   8.0167   9.9287

          k = 0.1056 0.2112 0.0602 (  4973 PWs)   bands (ev):

   -40.6820 -40.5189 -40.5083 -40.4513 -40.1785 -40.1712  -3.7245   2.2605
     2.8762   4.1335   5.0106   6.7442   8.3661   9.2971   9.5160

          k = 0.5809 0.2112-0.0301 (  4953 PWs)   bands (ev):

   -40.6026 -40.5213 -40.4023 -40.3920 -40.2790 -40.2708  -2.1959   1.8352
     2.8677   4.3812   5.1175   5.4624   6.9032   7.3286   9.7561

          k = 0.1056 0.3169 0.0802 (  4960 PWs)   bands (ev):

   -40.6395 -40.4961 -40.4541 -40.4424 -40.2345 -40.2266  -3.0076   2.2077
     2.6619   3.5324   5.1405   6.8028   7.5123   8.2863   9.6286

          k = 0.5809 0.3169-0.0100 (  4943 PWs)   bands (ev):

   -40.5849 -40.5317 -40.3773 -40.3677 -40.2967 -40.2884  -1.5891   2.4366
     2.9051   3.8512   4.7152   5.5330   6.5541   7.1416   8.6806

          k = 0.1056-0.5281-0.0802 (  4954 PWs)   bands (ev):

   -40.5894 -40.5387 -40.3817 -40.3715 -40.3049 -40.2960  -2.2487   0.8337
     3.0729   4.2523   4.9525   6.0325   7.5587   8.0515   9.2746

          k = 0.5809-0.5281-0.1705 (  4952 PWs)   bands (ev):

   -40.5652 -40.5467 -40.3486 -40.3397 -40.3206 -40.3121  -1.0095   2.4359
     2.9122   3.5083   5.1175   5.2296   6.1661   6.8450   8.7474

          k = 0.1056-0.4225-0.0602 (  4957 PWs)   bands (ev):

   -40.5894 -40.5387 -40.3816 -40.3716 -40.3050 -40.2960  -2.2487   0.8337
     3.1144   4.1457   4.8737   6.2984   7.6676   8.0104   9.1252

          k = 0.5809-0.4225-0.1504 (  4942 PWs)   bands (ev):

   -40.5652 -40.5467 -40.3486 -40.3397 -40.3206 -40.3121  -1.0091   2.4333
     2.9212   3.5092   4.8112   5.8060   6.0906   6.4636   9.5108

          k = 0.1056-0.3169-0.0401 (  4961 PWs)   bands (ev):

   -40.6395 -40.4958 -40.4549 -40.4419 -40.2346 -40.2266  -3.0076   2.2080
     2.7841   3.2798   5.3165   6.9313   7.4564   8.5477   9.2325

          k = 0.5809-0.3169-0.1304 (  4948 PWs)   bands (ev):

   -40.5849 -40.5317 -40.3772 -40.3678 -40.2967 -40.2885  -1.5888   2.4337
     2.9472   3.8481   4.4361   5.8409   6.6420   7.0886   8.9048

          k = 0.1056-0.2112-0.0201 (  4969 PWs)   bands (ev):

   -40.6820 -40.5167 -40.5106 -40.4511 -40.1785 -40.1712  -3.7245   2.4169
     2.6338   4.1341   5.2014   6.7348   8.3463   9.0301   9.6178

          k = 0.5809-0.2112-0.1103 (  4943 PWs)   bands (ev):

   -40.6026 -40.5213 -40.4022 -40.3920 -40.2790 -40.2707  -2.1957   1.8346
     2.9474   4.0363   5.3359   5.4563   7.0912   7.7845   9.1746

          k = 0.2112-0.2112-0.0000 (  4967 PWs)   bands (ev):

   -40.6582 -40.4879 -40.4826 -40.4587 -40.2070 -40.1995  -3.2756   2.7124
     2.8544   4.1145   5.0160   5.5237   8.2376   8.9030  11.8463

          k = 0.6865-0.2112-0.0903 (  4965 PWs)   bands (ev):

   -40.6416 -40.4920 -40.4572 -40.4460 -40.2276 -40.2199  -2.9532   2.5936
     3.3651   3.6255   4.9572   5.2579   7.7152   8.0473   9.6579

          k = 0.6865-0.1056-0.0702 (  4967 PWs)   bands (ev):

   -40.6620 -40.4972 -40.4790 -40.4622 -40.2043 -40.1967  -3.3920   2.3431
     3.1105   3.5002   4.7743   6.9104   7.8318   8.5635  10.0124

          k = 0.6865 0.0000-0.0501 (  4959 PWs)   bands (ev):

   -40.6693 -40.5060 -40.4869 -40.4608 -40.1964 -40.1888  -3.5423   2.2312
     2.9952   3.5655   4.5157   7.7449   8.3616   8.6174  10.1640

          k = 0.6865 0.1056-0.0301 (  4964 PWs)   bands (ev):

   -40.6620 -40.4985 -40.4765 -40.4634 -40.2043 -40.1967  -3.3921   2.2849
     3.1134   3.8336   4.4072   6.9119   7.9658   8.3035  10.5057

          k = 0.2112 0.2112 0.0802 (  4963 PWs)   bands (ev):

   -40.6581 -40.4919 -40.4771 -40.4602 -40.2070 -40.1995  -3.2757   2.4523
     3.2881   4.1171   5.0159   5.1513   8.1360   8.3991   9.5565

          k = 0.6865 0.2112-0.0100 (  4973 PWs)   bands (ev):

   -40.6415 -40.4927 -40.4551 -40.4475 -40.2276 -40.2199  -2.9534   2.4863
     3.3861   4.2211   4.5069   5.0287   7.7725   7.8680  10.8958

          k = 0.2112-0.6337-0.0802 (  4955 PWs)   bands (ev):

   -40.6228 -40.5046 -40.4315 -40.4208 -40.2518 -40.2438  -2.5828   2.5735
     2.7495   3.8963   5.1006   5.3925   7.2522   7.7617   9.7002

          k = 0.6865-0.6337-0.1705 (  4959 PWs)   bands (ev):

   -40.6114 -40.5119 -40.4154 -40.4052 -40.2644 -40.2564  -2.2809   2.7661
     2.7873   4.3244   4.4024   5.1694   7.1131   7.3977   9.6814

          k = 0.2112-0.5281-0.0602 (  4941 PWs)   bands (ev):

   -40.5816 -40.5402 -40.3713 -40.3615 -40.3086 -40.3000  -1.8639   1.2858
     3.0155   4.5173   5.2679   5.3690   7.0167   7.3475   9.1846

          k = 0.6865-0.5281-0.1504 (  4948 PWs)   bands (ev):

   -40.5765 -40.5417 -40.3643 -40.3548 -40.3116 -40.3031  -1.5959   1.6173
     2.9761   4.6583   4.7859   5.4729   6.6372   7.1222   8.7996

          k = 0.2112-0.4225-0.0401 (  4942 PWs)   bands (ev):

   -40.5816 -40.5402 -40.3712 -40.3616 -40.3086 -40.2999  -1.8637   1.2854
     3.0557   4.3599   5.1582   5.5074   7.1479   7.8896   8.8368

          k = 0.6865-0.4225-0.1304 (  4944 PWs)   bands (ev):

   -40.5765 -40.5417 -40.3642 -40.3549 -40.3117 -40.3031  -1.5957   1.6164
     3.0048   4.4811   4.8758   5.3782   6.9081   7.2837   8.9807

          k = 0.2112-0.3169-0.0201 (  4944 PWs)   bands (ev):

   -40.6229 -40.5044 -40.4318 -40.4205 -40.2518 -40.2438  -2.5826   2.5730
     2.9008   3.5075   5.1836   5.6419   7.4251   8.1784   8.7304

          k = 0.6865-0.3169-0.1103 (  4937 PWs)   bands (ev):

   -40.6115 -40.5118 -40.4155 -40.4051 -40.2644 -40.2564  -2.2807   2.7855
     2.8645   3.9124   4.3579   5.6589   7.1423   7.7020   8.9794

          k = 0.3169-0.3169-0.0000 (  4937 PWs)   bands (ev):

   -40.5986 -40.5209 -40.3971 -40.3873 -40.2795 -40.2714  -1.9382   2.8193
     2.9464   3.8205   4.0438   5.9497   7.6115   8.5621  10.0966

          k = 0.7921-0.3169-0.0903 (  4952 PWs)   bands (ev):

   -40.6323 -40.4994 -40.4445 -40.4334 -40.2418 -40.2338  -2.8279   2.3668
     2.6972   3.6981   5.1892   6.0887   7.3301   8.0203   9.7499

          k = 0.7921-0.2112-0.0702 (  4974 PWs)   bands (ev):

   -40.6717 -40.5081 -40.4917 -40.4577 -40.1905 -40.1831  -3.5353   2.2340
     3.3541   4.2204   4.7331   5.7531   8.3375   8.8673   9.9687

          k = 0.7921-0.1056-0.0501 (  4975 PWs)   bands (ev):

   -40.6982 -40.5449 -40.5271 -40.4397 -40.1578 -40.1507  -3.9915   1.9151
     3.1743   4.2860   5.2129   6.5798   9.2007   9.8554  10.1141

          k = 0.7921 0.0000-0.0301 (  4974 PWs)   bands (ev):

   -40.7075 -40.5585 -40.5394 -40.4330 -40.1466 -40.1395  -4.1471   1.7958
     3.1636   4.0883   5.1268   7.9878   9.4944   9.8679  10.2906

          k = 0.7921 0.1056-0.0100 (  4968 PWs)   bands (ev):

   -40.6982 -40.5456 -40.5263 -40.4398 -40.1578 -40.1507  -3.9915   1.8818
     3.3864   4.0490   5.2133   6.5810   9.2468   9.8224  10.4366

          k = 0.7921-0.7393-0.1705 (  4974 PWs)   bands (ev):

   -40.6717 -40.5097 -40.4896 -40.4582 -40.1905 -40.1831  -3.5354   2.1643
     3.7778   4.1548   4.3264   5.7553   8.3925   8.7822  10.6634

          k = 0.3169-0.6337-0.0602 (  4951 PWs)   bands (ev):

   -40.5986 -40.5209 -40.3972 -40.3872 -40.2795 -40.2714  -1.9385   2.8226
     2.8671   3.8200   4.3765   5.5638   6.8607   7.3301   8.9836

          k = 0.7921-0.6337-0.1504 (  4961 PWs)   bands (ev):

   -40.6323 -40.4996 -40.4437 -40.4339 -40.2417 -40.2339  -2.8280   2.3667
     2.6043   4.1400   4.7459   6.0841   7.3948   7.6661  10.5683

          k = 0.3169-0.5281-0.0401 (  4949 PWs)   bands (ev):

   -40.5709 -40.5439 -40.3566 -40.3474 -40.3156 -40.3072  -1.2998   2.0085
     2.9442   4.0616   4.9364   5.4836   6.3451   6.9708   8.6842

          k = 0.7921-0.5281-0.1304 (  4959 PWs)   bands (ev):

   -40.5860 -40.5393 -40.3772 -40.3671 -40.3063 -40.2977  -2.0850   1.0233
     3.0339   4.4153   5.1441   5.7149   7.3406   7.5204   9.4818

          k = 0.3169-0.4225-0.0201 (  4937 PWs)   bands (ev):

   -40.5709 -40.5438 -40.3565 -40.3475 -40.3157 -40.3071  -1.2995   2.0069
     2.9619   4.0563   4.7746   5.6039   6.5790   6.7475   9.2745

          k = 0.7921-0.4225-0.1103 (  4953 PWs)   bands (ev):

   -40.5860 -40.5393 -40.3771 -40.3673 -40.3064 -40.2976  -2.0850   1.0232
     3.0781   4.2727   5.0251   5.9659   7.4119   7.8377   9.0245

          k = 0.4225-0.4225-0.0000 (  4948 PWs)   bands (ev):

   -40.5598 -40.5504 -40.3407 -40.3320 -40.3265 -40.3180  -0.7818   2.7805
     2.8949   3.1961   4.5791   5.8821   6.1929   9.6214  10.6278

          k = 0.8978-0.4225-0.0903 (  4963 PWs)   bands (ev):

   -40.5915 -40.5384 -40.3845 -40.3742 -40.3041 -40.2951  -2.3490   0.7192
     3.0941   4.1679   4.8471   6.1703   7.6089   8.3656   9.5052

          k = 0.8978-0.3169-0.0702 (  4965 PWs)   bands (ev):

   -40.6438 -40.4950 -40.4587 -40.4485 -40.2301 -40.2222  -3.1171   2.1086
     2.5498   3.6999   4.8732   6.9547   7.8172   8.5774   9.8723

          k = 0.8978-0.2112-0.0501 (  4964 PWs)   bands (ev):

   -40.6881 -40.5308 -40.5131 -40.4477 -40.1712 -40.1639  -3.8395   2.0234
     3.2983   4.0575   4.3870   7.7232   8.5871   9.1915  10.1697

          k = 0.8978-0.1056-0.0301 (  4970 PWs)   bands (ev):

   -40.7179 -40.5731 -40.5536 -40.4248 -40.1335 -40.1265  -4.3033   1.6895
     3.0190   4.0256   6.2329   7.3422  10.1469  10.2185  10.8605

          k = 0.8978 0.0000-0.0100 (  4966 PWs)   bands (ev):

   -40.7283 -40.5882 -40.5677 -40.4168 -40.1205 -40.1136  -4.4613   1.5741
     2.9275   3.8991   7.1704   7.6552  10.1944  11.1036  11.3175

          k = 0.8978-0.8450-0.1705 (  4972 PWs)   bands (ev):

   -40.7178 -40.5734 -40.5534 -40.4249 -40.1335 -40.1265  -4.3033   1.6791
     3.0831   3.9531   6.2334   7.3420  10.2411  10.2785  10.8247

          k = 0.8978-0.7393-0.1504 (  4965 PWs)   bands (ev):

   -40.6881 -40.5313 -40.5125 -40.4478 -40.1712 -40.1639  -3.8395   2.0007
     3.4312   4.0604   4.2354   7.7244   8.6728   9.0671  10.3663

          k = 0.8978-0.6337-0.1304 (  4966 PWs)   bands (ev):

   -40.6438 -40.4952 -40.4580 -40.4490 -40.2301 -40.2222  -3.1171   2.1085
     2.5155   3.8605   4.7187   6.9364   7.7381   8.5706  10.1199

          k = 0.4225-0.5281-0.0201 (  4946 PWs)   bands (ev):

   -40.5598 -40.5504 -40.3407 -40.3320 -40.3265 -40.3180  -0.7821   2.7838
     2.8914   3.1939   4.6573   5.5018   6.0773   6.6381   9.0942

          k = 0.8978-0.5281-0.1103 (  4965 PWs)   bands (ev):

   -40.5915 -40.5384 -40.3845 -40.3742 -40.3040 -40.2952  -2.3490   0.7192
     3.0712   4.2278   4.8890   6.0376   7.4636   8.5958   9.5055

     the Fermi energy is     5.3684 ev

!    total energy              =     -94.44843937 Ry
     estimated scf accuracy    <          3.2E-10 Ry
     smearing contrib. (-TS)   =       0.00090157 Ry
     internal energy E=F+TS    =     -94.44934094 Ry

     The total energy is F=E-TS. E is the sum of the following terms:
     one-electron contribution =     -45.68290368 Ry
     hartree contribution      =      21.01202068 Ry
     xc contribution           =     -24.16944783 Ry
     ewald contribution        =     -45.60901011 Ry

     convergence has been achieved in  19 iterations

     Forces acting on atoms (cartesian axes, Ry/au):

     atom    1 type  1   force =     0.00000000    0.00000000    0.11486172
     atom    2 type  1   force =     0.00000000   -0.00000000   -0.11486172
     atom    3 type  1   force =    -0.00000000    0.00000000    0.11486172
     atom    4 type  1   force =    -0.00000000   -0.00000000   -0.11486172
     atom    5 type  1   force =    -0.00000000   -0.00000000    0.02692397
     atom    6 type  1   force =     0.00000000    0.00000000   -0.02692397
     atom    7 type  2   force =     0.00000000   -0.00000000   -0.00000000
     The non-local contrib.  to forces
     atom    1 type  1   force =     0.00000000    0.00000000    0.05027381
     atom    2 type  1   force =     0.00000000   -0.00000000   -0.05027381
     atom    3 type  1   force =     0.00000000    0.00000000    0.05027381
     atom    4 type  1   force =     0.00000000    0.00000000   -0.05027381
     atom    5 type  1   force =     0.00000000    0.00000000    0.00808808
     atom    6 type  1   force =    -0.00000000   -0.00000000   -0.00808808
     atom    7 type  2   force =     0.00000000   -0.00000000   -0.00000000
     The ionic contribution  to forces
     atom    1 type  1   force =    -0.00000000    0.00000000    2.08162559
     atom    2 type  1   force =     0.00000000   -0.00000000   -2.08162559
     atom    3 type  1   force =     0.00000000   -0.00000000    2.08162559
     atom    4 type  1   force =    -0.00000000    0.00000000   -2.08162559
     atom    5 type  1   force =     0.00000000    0.00000000   -0.26113666
     atom    6 type  1   force =    -0.00000000    0.00000000    0.26113666
     atom    7 type  2   force =     0.00000000   -0.00000000    0.00000000
     The local contribution  to forces
     atom    1 type  1   force =    -0.00000000   -0.00000000   -2.01702587
     atom    2 type  1   force =    -0.00000000   -0.00000000    2.01702587
     atom    3 type  1   force =     0.00000000   -0.00000000   -2.01702587
     atom    4 type  1   force =    -0.00000000   -0.00000000    2.01702587
     atom    5 type  1   force =     0.00000000    0.00000000    0.27996429
     atom    6 type  1   force =    -0.00000000   -0.00000000   -0.27996429
     atom    7 type  2   force =    -0.00000000    0.00000000    0.00000000
     The core correction contribution to forces
     atom    1 type  1   force =     0.00000000    0.00000000    0.00000000
     atom    2 type  1   force =     0.00000000    0.00000000    0.00000000
     atom    3 type  1   force =     0.00000000    0.00000000    0.00000000
     atom    4 type  1   force =     0.00000000    0.00000000    0.00000000
     atom    5 type  1   force =     0.00000000    0.00000000    0.00000000
     atom    6 type  1   force =     0.00000000    0.00000000    0.00000000
     atom    7 type  2   force =    -0.00000000   -0.00000000   -0.00000000
     The Hubbard contrib.    to forces
     atom    1 type  1   force =     0.00000000    0.00000000    0.00000000
     atom    2 type  1   force =     0.00000000    0.00000000    0.00000000
     atom    3 type  1   force =     0.00000000    0.00000000    0.00000000
     atom    4 type  1   force =     0.00000000    0.00000000    0.00000000
     atom    5 type  1   force =     0.00000000    0.00000000    0.00000000
     atom    6 type  1   force =     0.00000000    0.00000000    0.00000000
     atom    7 type  2   force =     0.00000000    0.00000000    0.00000000
     The SCF correction term to forces
     atom    1 type  1   force =     0.00000000    0.00000000   -0.00001181
     atom    2 type  1   force =    -0.00000000   -0.00000000    0.00001181
     atom    3 type  1   force =     0.00000000    0.00000000   -0.00001181
     atom    4 type  1   force =    -0.00000000    0.00000000    0.00001181
     atom    5 type  1   force =     0.00000000   -0.00000000    0.00000825
     atom    6 type  1   force =    -0.00000000    0.00000000   -0.00000825
     atom    7 type  2   force =     0.00000000   -0.00000000   -0.00000000

     Total force =     0.232858     Total SCF correction =     0.000026


     Computing stress (Cartesian axis) and pressure

          total   stress  (Ry/bohr**3)                   (kbar)     P=      447.64
   0.00302994   0.00000000  -0.00000000          445.72        0.00       -0.00
   0.00000000   0.00302994   0.00000000            0.00      445.72        0.00
   0.00000000  -0.00000000   0.00306903            0.00       -0.00      451.47

     Energy error            =      1.8E-01 Ry
     Gradient error          =      1.1E-01 Ry/Bohr
     Cell gradient error     =      5.4E+01 kbar

     number of scf cycles    =   2
     number of bfgs steps    =   1

     enthalpy           old  =     -92.6617636339 Ry
     enthalpy           new  =     -92.8413058640 Ry

     CASE: enthalpy          _new < enthalpy          _old

     new trust radius        =       0.2287553599 bohr
ibrav =      7
 celldm(1) =      5.64470563
 celldm(3) =      5.25760681
Input lattice vectors:
     0.52625145    -0.52625145     2.76682322
     0.52625145     0.52625145     2.76682322
    -0.52625145    -0.52625145     2.76682322
New lattice vectors in INITIAL alat:
     0.52625145    -0.52625145     2.76682322
     0.52625145     0.52625145     2.76682322
    -0.52625145    -0.52625145     2.76682322
New lattice vectors in NEW alat (for information only):
     0.50000000    -0.50000000     2.62880341
     0.50000000     0.50000000     2.62880341
    -0.50000000    -0.50000000     2.62880341
Discrepancy in bohr =     0.000000    0.000000    0.000000
     new conv_thr            =       0.0000000100 Ry

     new unit-cell volume =    472.80494 a.u.^3 (    70.06246 Ang^3 )
     density =      1.65269 g/cm^3

CELL_PARAMETERS (alat=  5.36312595)
   0.526251451  -0.526251451   2.766823215
   0.526251451   0.526251451   2.766823215
  -0.526251451  -0.526251451   2.766823215

ATOMIC_POSITIONS (crystal)
Li           -0.5000000000        0.5996024480        0.0996024480
Li           -0.5000000000        1.4003975520        0.9003975520
Li            0.5000000000        0.0996024480       -0.4003975520
Li            0.5000000000        0.9003975520        0.4003975520
Li            0.0000000000        0.2716889315        0.2716889315
Li            0.0000000000        0.7283110685        0.7283110685
Si            0.0000000000        0.5000000000        0.5000000000



     Writing config-only to output data dir ./output/LiSi.save/
     NEW-OLD atomic charge density approx. for the potential
     extrapolated charge   21.99860, renormalised to   22.00000

     total cpu time spent up to now is      173.8 secs

     Self-consistent Calculation

     iteration #  1     ecut=    80.00 Ry     beta= 0.70
     Davidson diagonalization with overlap
     ethr =  1.00E-06,  avg # of iterations =  9.5

     total cpu time spent up to now is      187.6 secs

     total energy              =     -94.43301630 Ry
     estimated scf accuracy    <       0.14904944 Ry

     iteration #  2     ecut=    80.00 Ry     beta= 0.70
     Davidson diagonalization with overlap
     ethr =  6.77E-04,  avg # of iterations =  4.0

     total cpu time spent up to now is      193.7 secs

     total energy              =     -94.26560985 Ry
     estimated scf accuracy    <       2.37806624 Ry

     iteration #  3     ecut=    80.00 Ry     beta= 0.70
     Davidson diagonalization with overlap
     ethr =  6.77E-04,  avg # of iterations =  3.2

     total cpu time spent up to now is      199.7 secs

     total energy              =     -94.53582784 Ry
     estimated scf accuracy    <       0.00077360 Ry

     iteration #  4     ecut=    80.00 Ry     beta= 0.70
     Davidson diagonalization with overlap
     ethr =  3.52E-06,  avg # of iterations =  5.4

     total cpu time spent up to now is      206.6 secs

     total energy              =     -94.53602551 Ry
     estimated scf accuracy    <       0.00017401 Ry

     iteration #  5     ecut=    80.00 Ry     beta= 0.70
     Davidson diagonalization with overlap
     ethr =  7.91E-07,  avg # of iterations =  1.7

     total cpu time spent up to now is      211.4 secs

     total energy              =     -94.53604950 Ry
     estimated scf accuracy    <       0.00003785 Ry

     iteration #  6     ecut=    80.00 Ry     beta= 0.70
     Davidson diagonalization with overlap
     ethr =  1.72E-07,  avg # of iterations =  1.4

     total cpu time spent up to now is      216.0 secs

     total energy              =     -94.53605548 Ry
     estimated scf accuracy    <       0.00000249 Ry

     iteration #  7     ecut=    80.00 Ry     beta= 0.70
     Davidson diagonalization with overlap
     ethr =  1.13E-08,  avg # of iterations =  1.4

     total cpu time spent up to now is      220.7 secs

     End of self-consistent calculation

          k = 0.0000 0.0000 0.0000 (  4945 PWs)   bands (ev):

   -40.5772 -40.5410 -40.4961 -40.2346 -40.0823 -40.0796  -4.4976   1.8779
     2.0708   4.3079   8.0916   8.0916   9.0501  11.0523  11.0523

          k = 0.4751 0.0000-0.0904 (  4954 PWs)   bands (ev):

   -40.3834 -40.3830 -40.3040 -40.3006 -40.2979 -40.2941  -2.1122   0.5761
     3.1424   4.2767   4.5804   6.0501   7.6835   7.9233  10.3164

          k = 0.0000 0.1056 0.0201 (  4954 PWs)   bands (ev):

   -40.5633 -40.5265 -40.4853 -40.2423 -40.0952 -40.0925  -4.3329   1.9615
     2.2051   4.4403   6.5556   8.2576   9.1517   9.9331  11.2607

          k = 0.4751 0.1056-0.0703 (  4961 PWs)   bands (ev):

   -40.3814 -40.3810 -40.3029 -40.2994 -40.2974 -40.2936  -1.9694   0.7359
     3.1274   4.3848   4.6681   6.0181   7.5615   8.0099   9.2813

          k = 0.0000 0.2111 0.0402 (  4960 PWs)   bands (ev):

   -40.5243 -40.4853 -40.4537 -40.2651 -40.1329 -40.1298  -3.8488   2.2096
     2.6091   4.2986   4.7899   8.2237   8.7407   9.0336  10.2329

          k = 0.4751 0.2111-0.0502 (  4951 PWs)   bands (ev):

   -40.3763 -40.3760 -40.2998 -40.2967 -40.2958 -40.2924  -1.5579   1.2097
     3.0874   4.6842   4.8947   5.6020   7.1329   7.6006   8.8785

          k = 0.0000 0.3167 0.0602 (  4971 PWs)   bands (ev):

   -40.4691 -40.4237 -40.4027 -40.3007 -40.1913 -40.1876  -3.0925   2.2796
     2.6083   3.2708   5.0580   7.0003   7.9886   9.1492   9.4720

          k = 0.4751 0.3167-0.0301 (  4948 PWs)   bands (ev):

   -40.3703 -40.3702 -40.2964 -40.2948 -40.2928 -40.2911  -0.9485   1.9744
     3.0383   4.3147   5.1787   5.2082   6.5078   6.8119   8.7584

          k = 0.0000 0.4223 0.0803 (  4972 PWs)   bands (ev):

   -40.4101 -40.3668 -40.3360 -40.3290 -40.2635 -40.2591  -2.2805   0.8252
     3.0500   4.0623   4.7258   6.2615   7.4803   8.2436  10.1859

          k = 0.4751 0.4223-0.0100 (  4946 PWs)   bands (ev):

   -40.3664 -40.3664 -40.2942 -40.2940 -40.2906 -40.2904  -0.3761   2.9143
     3.0045   3.3354   4.6269   5.7643   6.0150   6.3539   9.0108

          k = 0.1056-0.1056-0.0000 (  4961 PWs)   bands (ev):

   -40.5503 -40.5125 -40.4752 -40.2496 -40.1073 -40.1045  -4.1691   2.1274
     2.2299   4.6143   6.4861   6.8924   9.2396   9.6363  10.3005

          k = 0.5806-0.1056-0.0904 (  4950 PWs)   bands (ev):

   -40.4338 -40.3843 -40.3652 -40.3224 -40.2297 -40.2261  -2.5104   1.5956
     2.8325   3.8570   5.0425   6.4112   7.3840   8.1935   9.6134

          k = 0.5806 0.0000-0.0703 (  4963 PWs)   bands (ev):

   -40.4390 -40.3908 -40.3694 -40.3211 -40.2259 -40.2226  -2.6612   1.4473
     2.7640   3.8947   4.8921   6.3762   7.2930   9.2313   9.8596

          k = 0.1056 0.1056 0.0402 (  4964 PWs)   bands (ev):

   -40.5499 -40.5132 -40.4749 -40.2496 -40.1073 -40.1045  -4.1691   1.9978
     2.4014   4.5275   6.4931   6.8914   9.3569   9.6556  10.3218

          k = 0.5806 0.1056-0.0502 (  4963 PWs)   bands (ev):

   -40.4335 -40.3856 -40.3641 -40.3226 -40.2294 -40.2264  -2.5105   1.5957
     2.7746   4.0686   4.9601   6.2152   7.2129   8.2987   9.8949

          k = 0.1056 0.2111 0.0602 (  4973 PWs)   bands (ev):

   -40.5132 -40.4745 -40.4444 -40.2707 -40.1424 -40.1394  -3.6880   2.2237
     2.8298   4.4095   4.8303   7.0497   8.2397   9.3725   9.6566

          k = 0.5806 0.2111-0.0301 (  4953 PWs)   bands (ev):

   -40.4188 -40.3703 -40.3501 -40.3266 -40.2403 -40.2373  -2.0723   2.0279
     2.8549   4.3310   5.1850   5.5446   6.9830   7.1845   9.9486

          k = 0.1056 0.3167 0.0803 (  4960 PWs)   bands (ev):

   -40.4616 -40.4165 -40.3956 -40.3038 -40.1970 -40.1936  -2.9374   2.4186
     2.6080   3.4835   5.0792   6.8423   7.4870   8.3274   9.7358

          k = 0.5806 0.3167-0.0100 (  4943 PWs)   bands (ev):

   -40.3985 -40.3544 -40.3292 -40.3274 -40.2582 -40.2548  -1.4087   2.6657
     2.9516   3.9864   4.6790   5.5660   6.5937   7.0454   8.8025

          k = 0.1056-0.5278-0.0803 (  4954 PWs)   bands (ev):

   -40.4064 -40.3650 -40.3327 -40.3277 -40.2646 -40.2608  -2.1349   0.9812
     3.0314   4.1944   4.8833   6.0613   7.3933   8.1764   9.3806

          k = 0.5806-0.5278-0.1707 (  4952 PWs)   bands (ev):

   -40.3774 -40.3600 -40.3080 -40.3040 -40.2816 -40.2781  -0.7524   2.6042
     3.0089   3.6195   5.1587   5.2929   6.2181   6.7915   8.6242

          k = 0.1056-0.4223-0.0602 (  4957 PWs)   bands (ev):

   -40.4066 -40.3645 -40.3337 -40.3270 -40.2650 -40.2603  -2.1348   0.9811
     3.0693   4.1030   4.7983   6.3229   7.6447   7.8825   9.3290

          k = 0.5806-0.4223-0.1506 (  4942 PWs)   bands (ev):

   -40.3775 -40.3599 -40.3078 -40.3043 -40.2817 -40.2781  -0.7519   2.6008
     3.0175   3.6201   4.8676   5.7702   6.2398   6.4521   9.1380

          k = 0.1056-0.3167-0.0402 (  4961 PWs)   bands (ev):

   -40.4620 -40.4150 -40.3969 -40.3037 -40.1971 -40.1935  -2.9373   2.4188
     2.7159   3.2513   5.2464   7.0048   7.4028   8.5172   9.3908

          k = 0.5806-0.3167-0.1305 (  4948 PWs)   bands (ev):

   -40.3988 -40.3533 -40.3325 -40.3251 -40.2583 -40.2548  -1.4082   2.6618
     2.9938   3.9817   4.4190   5.7831   6.6838   7.2599   8.7717

          k = 0.1056-0.2111-0.0201 (  4969 PWs)   bands (ev):

   -40.5137 -40.4732 -40.4453 -40.2707 -40.1424 -40.1394  -3.6880   2.3791
     2.5871   4.4156   5.0025   7.0407   8.1968   9.2620   9.6416

          k = 0.5806-0.2111-0.1104 (  4943 PWs)   bands (ev):

   -40.4191 -40.3683 -40.3523 -40.3260 -40.2406 -40.2370  -2.0720   2.0269
     2.9306   4.0109   5.3646   5.5635   7.1398   7.6633   9.3117

          k = 0.2111-0.2111-0.0000 (  4967 PWs)   bands (ev):

   -40.4840 -40.4402 -40.4198 -40.2871 -40.1704 -40.1673  -3.2164   2.6224
     2.8633   4.4666   5.1846   5.4165   8.0172   9.1206  11.6025

          k = 0.6862-0.2111-0.0904 (  4965 PWs)   bands (ev):

   -40.4633 -40.4201 -40.3990 -40.2991 -40.1905 -40.1873  -2.8768   2.5500
     3.5199   3.7187   5.0911   5.2833   7.5969   8.0133   9.7693

          k = 0.6862-0.1056-0.0703 (  4967 PWs)   bands (ev):

   -40.4879 -40.4492 -40.4210 -40.2860 -40.1675 -40.1645  -3.3404   2.3003
     3.3446   3.4522   4.6727   7.1398   7.7411   8.5541  10.1586

          k = 0.6862 0.0000-0.0502 (  4959 PWs)   bands (ev):

   -40.4966 -40.4600 -40.4282 -40.2816 -40.1596 -40.1567  -3.4988   2.1913
     3.2335   3.5051   4.3833   7.6530   8.2321   9.0683  10.3093

          k = 0.6862 0.1056-0.0301 (  4964 PWs)   bands (ev):

   -40.4874 -40.4505 -40.4201 -40.2860 -40.1675 -40.1645  -3.3404   2.2447
     3.3614   3.7601   4.3205   7.1394   7.8587   8.3250  10.6213

          k = 0.2111 0.2111 0.0803 (  4963 PWs)   bands (ev):

   -40.4833 -40.4425 -40.4181 -40.2872 -40.1704 -40.1673  -3.2165   2.4065
     3.2537   4.4521   5.0750   5.1845   7.9819   8.4082   9.6906

          k = 0.6862 0.2111-0.0100 (  4973 PWs)   bands (ev):

   -40.4626 -40.4224 -40.3974 -40.2992 -40.1905 -40.1874  -2.8770   2.4498
     3.6793   4.1006   4.5469   5.2202   7.6278   7.8800  10.9233

          k = 0.2111-0.6334-0.0803 (  4955 PWs)   bands (ev):

   -40.4414 -40.3948 -40.3765 -40.3129 -40.2141 -40.2108  -2.4847   2.7161
     2.8109   3.8580   5.2013   5.4784   7.2085   7.6659   9.8352

          k = 0.6862-0.6334-0.1707 (  4959 PWs)   bands (ev):

   -40.4279 -40.3810 -40.3618 -40.3195 -40.2266 -40.2233  -2.1612   2.7560
     3.0566   4.3467   4.4886   5.1847   7.1392   7.2548   9.8583

          k = 0.2111-0.5278-0.0602 (  4941 PWs)   bands (ev):

   -40.3968 -40.3608 -40.3251 -40.3219 -40.2686 -40.2654  -1.7137   1.4419
     3.0229   4.4711   5.2231   5.4946   7.1218   7.2791   9.2570

          k = 0.6862-0.5278-0.1506 (  4948 PWs)   bands (ev):

   -40.3905 -40.3593 -40.3202 -40.3169 -40.2720 -40.2689  -1.4172   1.7786
     3.0151   4.6781   4.8837   5.4492   6.7326   7.0480   8.9077

          k = 0.2111-0.4223-0.0402 (  4942 PWs)   bands (ev):

   -40.3969 -40.3602 -40.3261 -40.3212 -40.2692 -40.2648  -1.7135   1.4413
     3.0620   4.3353   5.0806   5.6682   7.1766   7.9577   8.7245

          k = 0.6862-0.4223-0.1305 (  4944 PWs)   bands (ev):

   -40.3907 -40.3589 -40.3206 -40.3166 -40.2725 -40.2685  -1.4169   1.7773
     3.0437   4.5023   5.0054   5.3064   6.9379   7.4432   8.8258

          k = 0.2111-0.3167-0.0201 (  4944 PWs)   bands (ev):

   -40.4419 -40.3921 -40.3788 -40.3127 -40.2142 -40.2107  -2.4845   2.8102
     2.8532   3.4925   5.3926   5.6085   7.3759   8.0020   8.9212

          k = 0.6862-0.3167-0.1104 (  4937 PWs)   bands (ev):

   -40.4283 -40.3785 -40.3642 -40.3192 -40.2266 -40.2233  -2.1609   2.8492
     3.0544   3.8918   4.5150   5.6403   7.1633   7.5973   9.0932

          k = 0.3167-0.3167-0.0000 (  4937 PWs)   bands (ev):

   -40.4139 -40.3616 -40.3502 -40.3253 -40.2415 -40.2381  -1.7908   2.9611
     3.1237   3.9178   4.0231   5.9012   7.8691   8.3074   9.7412

          k = 0.7918-0.3167-0.0904 (  4952 PWs)   bands (ev):

   -40.4528 -40.4073 -40.3875 -40.3076 -40.2042 -40.2009  -2.7463   2.5873
     2.6508   3.6529   5.1549   6.2812   7.2557   7.9619   9.8326

          k = 0.7918-0.2111-0.0703 (  4974 PWs)   bands (ev):

   -40.4995 -40.4628 -40.4321 -40.2777 -40.1542 -40.1512  -3.4895   2.1956
     3.3120   4.4482   4.6785   6.0024   8.2200   8.8592  10.1154

          k = 0.7918-0.1056-0.0502 (  4975 PWs)   bands (ev):

   -40.5323 -40.5006 -40.4600 -40.2585 -40.1221 -40.1193  -3.9667   1.8893
     3.1613   4.0494   5.5339   6.8962   9.1217   9.8292  10.3319

          k = 0.7918-0.0000-0.0301 (  4974 PWs)   bands (ev):

   -40.5437 -40.5143 -40.4693 -40.2520 -40.1111 -40.1083  -4.1293   1.7747
     3.2039   3.7701   5.4319   8.4369   9.4199   9.8144  10.5354

          k = 0.7918 0.1056-0.0100 (  4968 PWs)   bands (ev):

   -40.5317 -40.5017 -40.4595 -40.2585 -40.1221 -40.1193  -3.9668   1.8561
     3.4753   3.7162   5.5356   6.8977   9.1691   9.7976  10.6524

          k = 0.7918-0.7390-0.1707 (  4974 PWs)   bands (ev):

   -40.4988 -40.4645 -40.4311 -40.2777 -40.1542 -40.1512  -3.4896   2.1284
     3.8158   3.9958   4.5849   6.0060   8.2770   8.7797  10.7972

          k = 0.3167-0.6334-0.0602 (  4951 PWs)   bands (ev):

   -40.4135 -40.3642 -40.3472 -40.3260 -40.2415 -40.2381  -1.7913   2.8830
     3.1284   3.9171   4.3486   5.5623   6.8926   7.2452   9.1275

          k = 0.7918-0.6334-0.1506 (  4961 PWs)   bands (ev):

   -40.4524 -40.4092 -40.3860 -40.3077 -40.2040 -40.2010  -2.7464   2.5642
     2.5877   4.0540   4.7498   6.2606   7.3379   7.6308  10.5914

          k = 0.3167-0.5278-0.0402 (  4949 PWs)   bands (ev):

   -40.3839 -40.3589 -40.3145 -40.3107 -40.2764 -40.2731  -1.0851   2.1742
     3.0145   4.2155   4.8972   5.5095   6.4376   6.9277   8.6671

          k = 0.7918-0.5278-0.1305 (  4959 PWs)   bands (ev):

   -40.4021 -40.3631 -40.3287 -40.3260 -40.2659 -40.2630  -1.9563   1.1747
     3.0143   4.3547   5.0817   5.7920   7.2014   7.7355   9.4148

          k = 0.3167-0.4223-0.0201 (  4937 PWs)   bands (ev):

   -40.3840 -40.3587 -40.3144 -40.3108 -40.2767 -40.2728  -1.0847   2.1720
     3.0322   4.2070   4.7736   5.5303   6.7149   6.8383   9.0247

          k = 0.7918-0.4223-0.1104 (  4953 PWs)   bands (ev):

   -40.4023 -40.3625 -40.3302 -40.3249 -40.2666 -40.2623  -1.9562   1.1744
     3.0559   4.2325   4.9514   6.0507   7.5164   7.7138   9.0475

          k = 0.4223-0.4223-0.0000 (  4948 PWs)   bands (ev):

   -40.3715 -40.3625 -40.3008 -40.2974 -40.2875 -40.2840  -0.4838   2.9382
     3.0085   3.2620   4.7531   5.9777   6.0649   6.1119   9.1496

          k = 0.8973-0.4223-0.0904 (  4963 PWs)   bands (ev):

   -40.4091 -40.3664 -40.3350 -40.3288 -40.2637 -40.2596  -2.2439   0.8643
     3.0392   4.1089   4.7762   6.1771   7.4283   8.3151   9.8601

          k = 0.8973-0.3167-0.0703 (  4965 PWs)   bands (ev):

   -40.4666 -40.4238 -40.3994 -40.3015 -40.1925 -40.1894  -3.0536   2.3142
     2.4996   3.6317   4.8072   6.8939   7.6580   8.9162   9.9638

          k = 0.8973-0.2111-0.0502 (  4964 PWs)   bands (ev):

   -40.5197 -40.4865 -40.4491 -40.2666 -40.1352 -40.1323  -3.8086   1.9924
     3.2760   4.1375   4.3682   8.0610   8.5056   9.1604  10.3823

          k = 0.8973-0.1056-0.0301 (  4970 PWs)   bands (ev):

   -40.5569 -40.5288 -40.4801 -40.2442 -40.0983 -40.0955  -4.2919   1.6742
     3.0769   3.6625   6.5902   7.7396  10.1330  10.4313  10.8620

          k = 0.8973 0.0000-0.0100 (  4966 PWs)   bands (ev):

   -40.5700 -40.5438 -40.4906 -40.2366 -40.0856 -40.0828  -4.4564   1.5644
     3.0540   3.4422   7.5791   8.1030  10.4273  11.1692  11.4022

          k = 0.8973-0.8445-0.1707 (  4972 PWs)   bands (ev):

   -40.5566 -40.5292 -40.4799 -40.2442 -40.0983 -40.0955  -4.2919   1.6635
     3.1983   3.5355   6.5906   7.7392  10.1649  10.5765  10.8042

          k = 0.8973-0.7390-0.1506 (  4965 PWs)   bands (ev):

   -40.5194 -40.4872 -40.4488 -40.2666 -40.1352 -40.1323  -3.8086   1.9699
     3.4404   3.9734   4.3560   8.0643   8.5820   9.0478  10.5646

          k = 0.8973-0.6334-0.1305 (  4966 PWs)   bands (ev):

   -40.4664 -40.4245 -40.3989 -40.3015 -40.1924 -40.1894  -3.0536   2.3141
     2.4674   3.7800   4.6647   6.8894   7.5643   8.9361  10.1790

          k = 0.4223-0.5278-0.0201 (  4946 PWs)   bands (ev):

   -40.3715 -40.3625 -40.3010 -40.2972 -40.2875 -40.2840  -0.4842   2.9429
     3.0054   3.2594   4.8712   5.4643   6.1183   6.5859   8.8162

          k = 0.8973-0.5278-0.1104 (  4965 PWs)   bands (ev):

   -40.4091 -40.3667 -40.3344 -40.3292 -40.2634 -40.2599  -2.2439   0.8643
     3.0185   4.1594   4.8211   6.0531   7.2816   8.5651   9.8302

     the Fermi energy is     5.4235 ev

!    total energy              =     -94.53605577 Ry
     estimated scf accuracy    <          9.9E-09 Ry
     smearing contrib. (-TS)   =       0.00050393 Ry
     internal energy E=F+TS    =     -94.53655971 Ry

     The total energy is F=E-TS. E is the sum of the following terms:
     one-electron contribution =     -42.92627237 Ry
     hartree contribution      =      19.64278820 Ry
     xc contribution           =     -24.09902724 Ry
     ewald contribution        =     -47.15404830 Ry

     convergence has been achieved in   7 iterations

     Forces acting on atoms (cartesian axes, Ry/au):

     atom    1 type  1   force =     0.00000000    0.00000000    0.07266818
     atom    2 type  1   force =    -0.00000000   -0.00000000   -0.07266818
     atom    3 type  1   force =     0.00000000    0.00000000    0.07266818
     atom    4 type  1   force =    -0.00000000   -0.00000000   -0.07266818
     atom    5 type  1   force =    -0.00000000    0.00000000    0.01202121
     atom    6 type  1   force =    -0.00000000    0.00000000   -0.01202121
     atom    7 type  2   force =    -0.00000000   -0.00000000    0.00000000
     The non-local contrib.  to forces
     atom    1 type  1   force =     0.00000000   -0.00000000    0.03279300
     atom    2 type  1   force =    -0.00000000   -0.00000000   -0.03279300
     atom    3 type  1   force =    -0.00000000   -0.00000000    0.03279300
     atom    4 type  1   force =    -0.00000000    0.00000000   -0.03279300
     atom    5 type  1   force =     0.00000000   -0.00000000    0.01459755
     atom    6 type  1   force =    -0.00000000    0.00000000   -0.01459755
     atom    7 type  2   force =     0.00000000    0.00000000    0.00000000
     The ionic contribution  to forces
     atom    1 type  1   force =    -0.00000000   -0.00000000    1.34647491
     atom    2 type  1   force =     0.00000000   -0.00000000   -1.34647491
     atom    3 type  1   force =     0.00000000   -0.00000000    1.34647491
     atom    4 type  1   force =     0.00000000   -0.00000000   -1.34647491
     atom    5 type  1   force =     0.00000000    0.00000000   -0.29986412
     atom    6 type  1   force =    -0.00000000    0.00000000    0.29986412
     atom    7 type  2   force =     0.00000000    0.00000000   -0.00000000
     The local contribution  to forces
     atom    1 type  1   force =    -0.00000000   -0.00000000   -1.30653064
     atom    2 type  1   force =    -0.00000000   -0.00000000    1.30653064
     atom    3 type  1   force =     0.00000000   -0.00000000   -1.30653064
     atom    4 type  1   force =    -0.00000000    0.00000000    1.30653064
     atom    5 type  1   force =     0.00000000    0.00000000    0.29724401
     atom    6 type  1   force =     0.00000000   -0.00000000   -0.29724401
     atom    7 type  2   force =     0.00000000    0.00000000   -0.00000000
     The core correction contribution to forces
     atom    1 type  1   force =     0.00000000    0.00000000    0.00000000
     atom    2 type  1   force =     0.00000000    0.00000000    0.00000000
     atom    3 type  1   force =     0.00000000    0.00000000    0.00000000
     atom    4 type  1   force =     0.00000000    0.00000000    0.00000000
     atom    5 type  1   force =     0.00000000    0.00000000    0.00000000
     atom    6 type  1   force =     0.00000000    0.00000000    0.00000000
     atom    7 type  2   force =    -0.00000000   -0.00000000   -0.00000000
     The Hubbard contrib.    to forces
[...]

          k = 0.0000 0.2236 0.0412 (  4972 PWs)   bands (ev):

   -39.4994 -39.4732 -39.1599 -38.9263 -38.9253 -38.7703  -3.0400   3.1573
     3.6008   5.3493   6.2369   9.3945  10.8017  11.7554  11.9317

          k = 0.5031 0.2236-0.0516 (  4938 PWs)   bands (ev):

   -39.1933 -39.1925 -39.1806 -39.1799 -38.9565 -38.9565   0.0285   2.3118
     4.4033   5.6459   5.8578   6.9852   8.1728   9.0338  10.2771

          k = 0.0000 0.3354 0.0619 (  4969 PWs)   bands (ev):

   -39.3946 -39.3748 -39.0931 -39.0192 -39.0115 -38.8344  -2.0857   3.6261
     3.8104   4.2744   5.9708   7.8858   9.1229  10.5714  12.4225

          k = 0.5031 0.3354-0.0309 (  4949 PWs)   bands (ev):

   -39.1798 -39.1790 -39.1742 -39.1735 -38.9568 -38.9567   0.8640   3.1847
     4.4552   5.8426   6.1020   6.2720   7.7226   7.8983  10.0118

          k = 0.0000 0.4472 0.0825 (  4971 PWs)   bands (ev):

   -39.2690 -39.2568 -39.1372 -39.1338 -38.9993 -38.9139  -0.9670   1.9472
     4.1964   5.0913   5.7487   7.4146   8.1810   9.2484  12.7980

          k = 0.5031 0.4472-0.0103 (  4941 PWs)   bands (ev):

   -39.1707 -39.1700 -39.1699 -39.1692 -38.9572 -38.9572   1.7559   4.2396
     4.4876   4.7636   5.9892   6.6047   6.9627   7.2000   9.6744

          k = 0.1118-0.1118 0.0000 (  4975 PWs)   bands (ev):

   -39.5458 -39.5167 -39.1910 -38.8865 -38.8860 -38.7423  -3.4353   2.9868
     3.2898   5.0429   8.9416   9.1661  11.1311  11.5567  11.6595

          k = 0.6149-0.1118-0.0928 (  4953 PWs)   bands (ev):

   -39.3220 -39.3075 -39.0843 -39.0799 -39.0324 -38.8777  -1.3235   2.9480
     3.9374   4.8611   6.0963   7.5143   8.1859   9.8439  11.7598

          k = 0.6149 0.0000-0.0722 (  4975 PWs)   bands (ev):

   -39.3329 -39.3176 -39.0835 -39.0762 -39.0341 -38.8727  -1.5143   2.7743
     3.8546   4.8723   5.9445   7.4335   8.0997  10.4720  13.1000

          k = 0.1118 0.1118 0.0412 (  4980 PWs)   bands (ev):

   -39.5457 -39.5169 -39.1910 -38.8865 -38.8860 -38.7423  -3.4353   2.9439
     3.3626   4.9910   8.9479   9.1642  11.1466  11.6745  11.6767

          k = 0.6149 0.1118-0.0516 (  4955 PWs)   bands (ev):

   -39.3216 -39.3079 -39.0841 -39.0801 -39.0324 -38.8777  -1.3238   2.9486
     3.8891   5.0418   6.0255   7.3370   7.9973  10.3117  11.5653

          k = 0.1118 0.2236 0.0619 (  4978 PWs)   bands (ev):

   -39.4795 -39.4551 -39.1471 -38.9404 -38.9397 -38.7815  -2.8418   3.2077
     3.7875   5.4646   6.3805   9.2261   9.4494  10.8467  11.7113

          k = 0.6149 0.2236-0.0309 (  4942 PWs)   bands (ev):

   -39.2905 -39.2803 -39.0929 -39.0925 -39.0223 -38.8921  -0.7627   3.4571
     4.0384   5.3293   6.3028   6.9726   7.9266   8.5505  11.6270

          k = 0.1118 0.3354 0.0825 (  4963 PWs)   bands (ev):

   -39.3800 -39.3620 -39.0845 -39.0269 -39.0200 -38.8417  -1.8919   3.6569
     3.9753   4.4643   6.0432   7.8877   8.7253  10.0712  11.7882

          k = 0.6149 0.3354-0.0103 (  4943 PWs)   bands (ev):

   -39.2458 -39.2402 -39.1162 -39.1154 -39.0005 -38.9143   0.1217   4.2292
     4.2647   5.5884   5.6548   6.6633   7.5792   7.8403  10.4239

          k = 0.1118-0.5590-0.0825 (  4950 PWs)   bands (ev):

   -39.2612 -39.2505 -39.1375 -39.1341 -38.9969 -38.9164  -0.7803   2.1284
     4.2108   5.2134   5.8883   7.2379   8.1246   9.4473  11.6972

          k = 0.6149-0.5590-0.1753 (  4950 PWs)   bands (ev):

   -39.1965 -39.1948 -39.1517 -39.1507 -38.9720 -38.9420   1.1132   4.0012
     4.4476   5.1420   6.0481   6.5420   7.1970   7.6399   9.7925

          k = 0.1118-0.4472-0.0619 (  4955 PWs)   bands (ev):

   -39.2615 -39.2502 -39.1373 -39.1343 -38.9969 -38.9164  -0.7800   2.1279
     4.2487   5.1242   5.8066   7.5117   8.4293   8.9312  11.7193

          k = 0.6149-0.4472-0.1547 (  4939 PWs)   bands (ev):

   -39.1972 -39.1941 -39.1514 -39.1510 -38.9721 -38.9420   1.1156   3.9909
     4.4553   5.1411   5.8831   6.6646   7.3082   7.6807   9.9200

          k = 0.1118-0.3354-0.0412 (  4964 PWs)   bands (ev):

   -39.3804 -39.3616 -39.0846 -39.0267 -39.0202 -38.8417  -1.8917   3.7312
     3.9750   4.2862   6.1980   7.9264   8.8909   9.8737  11.6125

          k = 0.6149-0.3354-0.1341 (  4946 PWs)   bands (ev):

   -39.2465 -39.2395 -39.1161 -39.1155 -39.0005 -38.9143   0.1235   4.2182
     4.3159   5.3463   5.6184   6.7789   7.6527   8.5835   9.8706

          k = 0.1118-0.2236-0.0206 (  4975 PWs)   bands (ev):

   -39.4798 -39.4548 -39.1471 -38.9402 -38.9399 -38.7815  -2.8417   3.2799
     3.6486   5.5898   6.3762   9.2531   9.3524  11.0069  11.4552

          k = 0.6149-0.2236-0.1134 (  4940 PWs)   bands (ev):

   -39.2911 -39.2797 -39.0931 -39.0923 -39.0223 -38.8920  -0.7620   3.4541
     4.1134   5.0155   6.4179   7.1930   8.2249   8.5958  10.9463

          k = 0.2236-0.2236 0.0000 (  4983 PWs)   bands (ev):

   -39.4238 -39.4027 -39.1108 -38.9824 -38.9819 -38.8136  -2.2555   3.5555
     3.9450   6.1681   6.5786   6.9722   9.0430   9.5270  11.0179

          k = 0.7267-0.2236-0.0928 (  4967 PWs)   bands (ev):

   -39.3841 -39.3669 -39.0857 -39.0132 -39.0124 -38.8364  -1.8266   3.6108
     4.5057   5.5410   6.1373   7.0682   8.5329   9.1010  11.4555

          k = 0.7267-0.1118-0.0722 (  4966 PWs)   bands (ev):

   -39.4327 -39.4122 -39.1168 -38.9802 -38.9775 -38.8094  -2.4068   3.3429
     4.3105   5.1207   5.5509   8.6008   9.1480  10.2282  12.1988

          k = 0.7267 0.0000-0.0516 (  4965 PWs)   bands (ev):

   -39.4497 -39.4284 -39.1277 -38.9693 -38.9656 -38.8000  -2.6031   3.2397
     4.3081   4.9637   5.2793   8.7584   9.4049  12.0957  12.2732

          k = 0.7267 0.1118-0.0309 (  4960 PWs)   bands (ev):

   -39.4324 -39.4126 -39.1167 -38.9803 -38.9774 -38.8094  -2.4069   3.3032
     4.5174   5.1032   5.3373   8.6893   9.0457  10.1738  12.7465

          k = 0.2236 0.2236 0.0825 (  4968 PWs)   bands (ev):

   -39.4233 -39.4033 -39.1107 -38.9824 -38.9819 -38.8137  -2.2556   3.4333
     4.2112   5.8545   6.6223   6.9721   9.0454   9.5268  11.5177

          k = 0.7267 0.2236-0.0103 (  4976 PWs)   bands (ev):

   -39.3834 -39.3676 -39.0857 -39.0134 -39.0122 -38.8364  -1.8270   3.5341
     4.9057   5.4621   5.7337   7.0760   8.5906   8.9827  12.0778

          k = 0.2236-0.6708-0.0825 (  4958 PWs)   bands (ev):

   -39.3393 -39.3253 -39.0627 -39.0502 -39.0428 -38.8627  -1.3200   3.8270
     4.4480   4.8417   6.3235   7.2049   8.1248   8.7290  11.4400

          k = 0.7267-0.6708-0.1753 (  4953 PWs)   bands (ev):

   -39.3109 -39.3003 -39.0683 -39.0681 -39.0392 -38.8777  -0.9034   3.9215
     4.7704   5.3223   6.0866   6.3849   8.0547   8.1774  11.2897

          k = 0.2236-0.5590-0.0619 (  4941 PWs)   bands (ev):

   -39.2402 -39.2327 -39.1393 -39.1366 -38.9898 -38.9236  -0.2325   2.6616
     4.2909   5.4639   6.1950   6.8898   8.0866   8.7529  10.8015

          k = 0.7267-0.5590-0.1547 (  4945 PWs)   bands (ev):

   -39.2262 -39.2210 -39.1417 -39.1395 -38.9848 -38.9289   0.1630   3.0501
     4.3412   5.6507   6.3191   6.5647   7.8792   8.1127  10.6584

          k = 0.2236-0.4472-0.0412 (  4948 PWs)   bands (ev):

   -39.2407 -39.2322 -39.1388 -39.1370 -38.9899 -38.9236  -0.2318   2.6597
     4.3373   5.3230   6.0422   7.2057   8.3032   8.9336  10.2137

          k = 0.7267-0.4472-0.1341 (  4941 PWs)   bands (ev):

   -39.2269 -39.2203 -39.1412 -39.1400 -38.9848 -38.9289   0.1642   3.0465
     4.3765   5.4982   6.2364   6.6301   8.0025   8.7635  10.0034

          k = 0.2236-0.3354-0.0206 (  4950 PWs)   bands (ev):

   -39.3399 -39.3247 -39.0629 -39.0499 -39.0431 -38.8627  -1.3195   3.9436
     4.4454   4.5150   6.6681   7.2425   8.1502   8.9554  10.6416

          k = 0.7267-0.3354-0.1134 (  4953 PWs)   bands (ev):

   -39.3116 -39.2995 -39.0686 -39.0678 -39.0392 -38.8777  -0.9026   4.0100
     4.7619   4.8917   6.2213   6.7450   8.1230   8.4213  10.6784

          k = 0.3354-0.3354 0.0000 (  4959 PWs)   bands (ev):

   -39.2804 -39.2704 -39.0902 -39.0896 -39.0212 -38.8950  -0.4116   4.2047
     4.9156   5.0104   5.4230   6.9911   8.9135   9.5427  10.6826

          k = 0.8385-0.3354-0.0928 (  4959 PWs)   bands (ev):

   -39.3626 -39.3463 -39.0744 -39.0365 -39.0303 -38.8506  -1.6517   3.7249
     4.1768   4.6317   6.1694   7.7911   8.3412   9.3285  11.5984

          k = 0.8385-0.2236-0.0722 (  4974 PWs)   bands (ev):

   -39.4551 -39.4336 -39.1315 -38.9581 -38.9574 -38.7952  -2.5960   3.2320
     4.1818   5.3939   6.5551   8.0596   9.3842  10.0613  12.1062

          k = 0.8385-0.1118-0.0516 (  4975 PWs)   bands (ev):

   -39.5165 -39.4917 -39.1721 -38.9092 -38.9086 -38.7590  -3.1865   2.9295
     3.9147   4.8140   7.7020   9.1993  10.5147  11.1429  12.6373

          k = 0.8385 0.0000-0.0309 (  4982 PWs)   bands (ev):

   -39.5380 -39.5122 -39.1864 -38.8928 -38.8918 -38.7463  -3.3861   2.8228
     3.8641   4.5716   7.5705  10.8335  11.2156  11.3269  13.0073

          k = 0.8385 0.1118-0.0103 (  4978 PWs)   bands (ev):

   -39.5163 -39.4920 -39.1721 -38.9093 -38.9086 -38.7590  -3.1865   2.9071
     4.0537   4.6650   7.7034   9.2015  10.5943  11.0682  13.3130

          k = 0.8385-0.7826-0.1753 (  4977 PWs)   bands (ev):

   -39.4546 -39.4340 -39.1314 -38.9582 -38.9573 -38.7952  -2.5961   3.1848
     4.4517   5.0883   6.5602   8.0655   9.4639   9.9640  12.8280

          k = 0.3354-0.6708-0.0619 (  4952 PWs)   bands (ev):

   -39.2797 -39.2711 -39.0903 -39.0896 -39.0212 -38.8950  -0.4129   4.1154
     4.9488   5.3413   5.4193   6.6534   7.8589   8.0650  10.7323

          k = 0.8385-0.6708-0.1547 (  4955 PWs)   bands (ev):

   -39.3621 -39.3469 -39.0743 -39.0368 -39.0300 -38.8506  -1.6520   3.6573
     4.1776   4.9454   5.8267   7.7532   8.2907   9.2806  12.2635

          k = 0.3354-0.5590-0.0412 (  4949 PWs)   bands (ev):

   -39.2115 -39.2080 -39.1456 -39.1442 -38.9788 -38.9351   0.6226   3.5048
     4.4015   5.7756   5.8815   6.5579   7.5795   7.8412  10.1183

          k = 0.8385-0.5590-0.1341 (  4942 PWs)   bands (ev):

   -39.2519 -39.2430 -39.1381 -39.1348 -38.9939 -38.9194  -0.5498   2.3528
     4.2312   5.3627   6.0693   7.0296   7.9688   9.5281  10.8569

          k = 0.3354-0.4472-0.0206 (  4943 PWs)   bands (ev):

   -39.2122 -39.2073 -39.1451 -39.1448 -38.9788 -38.9351   0.6244   3.4985
     4.4226   5.6185   5.9622   6.4290   7.6736   8.3758  10.0519

          k = 0.8385-0.4472-0.1134 (  4945 PWs)   bands (ev):

   -39.2524 -39.2425 -39.1378 -39.1351 -38.9939 -38.9194  -0.5493   2.3518
     4.2757   5.2402   5.9389   7.3260   8.4837   8.8549  11.0494

          k = 0.4472-0.4472 0.0000 (  4934 PWs)   bands (ev):

   -39.1831 -39.1812 -39.1598 -39.1592 -38.9648 -38.9495   1.5566   4.3767
     4.4788   4.6341   5.9586   6.9005   6.9833   7.1517   9.7806

          k = 0.9503-0.4472-0.0928 (  4965 PWs)   bands (ev):

   -39.2670 -39.2553 -39.1373 -39.1338 -38.9986 -38.9145  -0.9201   1.9927
     4.1945   5.1343   5.7938   7.3353   8.1363   9.3691  12.6918

          k = 0.9503-0.3354-0.0722 (  4968 PWs)   bands (ev):

   -39.3904 -39.3720 -39.0909 -39.0214 -39.0134 -38.8362  -2.0373   3.5572
     3.8517   4.5541   5.7733   7.9141   8.6938  11.0400  12.2230

          k = 0.9503-0.2236-0.0516 (  4975 PWs)   bands (ev):

   -39.4934 -39.4697 -39.1566 -38.9302 -38.9285 -38.7732  -2.9904   3.0345
     4.0498   4.9667   6.2774   9.6492  10.1646  11.0969  12.6617

          k = 0.9503-0.1118-0.0309 (  4975 PWs)   bands (ev):

   -39.5616 -39.5345 -39.2024 -38.8728 -38.8722 -38.7321  -3.5856   2.7225
     3.7214   4.4185   8.9654  10.3498  11.8039  12.2063  13.0318

          k = 0.9503-0.0000-0.0103 (  4980 PWs)   bands (ev):

   -39.5854 -39.5573 -39.2185 -38.8533 -38.8528 -38.7177  -3.7867   2.6179
     3.6194   4.2208  10.2052  10.9265  12.9251  12.9943  13.3241

          k = 0.9503-0.8944-0.1753 (  4978 PWs)   bands (ev):

   -39.5615 -39.5347 -39.2024 -38.8728 -38.8722 -38.7321  -3.5857   2.7155
     3.7675   4.3706   8.9650  10.3484  11.8698  12.1720  13.3342

          k = 0.9503-0.7826-0.1547 (  4973 PWs)   bands (ev):

   -39.4933 -39.4699 -39.1566 -38.9302 -38.9285 -38.7732  -2.9904   3.0192
     4.1385   4.8709   6.2777   9.7377  10.0718  11.0619  12.9748

          k = 0.9503-0.6708-0.1341 (  4962 PWs)   bands (ev):

   -39.3902 -39.3722 -39.0908 -39.0215 -39.0133 -38.8362  -2.0373   3.5335
     3.8516   4.6605   5.6650   7.9476   8.5662  11.2772  12.2146

          k = 0.4472-0.5590-0.0206 (  4945 PWs)   bands (ev):

   -39.1824 -39.1819 -39.1599 -39.1591 -38.9648 -38.9495   1.5544   4.3957
     4.4781   4.6250   6.2122   6.3557   7.0084   7.4368   9.6629

          k = 0.9503-0.5590-0.1134 (  4962 PWs)   bands (ev):

   -39.2668 -39.2555 -39.1375 -39.1337 -38.9986 -38.9145  -0.9202   1.9929
     4.1752   5.1809   5.8370   7.2170   7.9969   9.6279  12.5225

     the Fermi energy is     6.6747 ev

!    total energy              =     -94.43028547 Ry
     estimated scf accuracy    <          1.2E-12 Ry
     smearing contrib. (-TS)   =       0.00095213 Ry
     internal energy E=F+TS    =     -94.43123760 Ry

     The total energy is F=E-TS. E is the sum of the following terms:
     one-electron contribution =     -37.75686360 Ry
     hartree contribution      =      18.12725949 Ry
     xc contribution           =     -24.26118187 Ry
     ewald contribution        =     -50.54045162 Ry

     convergence has been achieved in  10 iterations

     Forces acting on atoms (cartesian axes, Ry/au):

     atom    1 type  1   force =    -0.00000000    0.00000000   -0.00008340
     atom    2 type  1   force =    -0.00000000    0.00000000    0.00008340
     atom    3 type  1   force =    -0.00000000    0.00000000   -0.00008340
     atom    4 type  1   force =     0.00000000   -0.00000000    0.00008340
     atom    5 type  1   force =    -0.00000000    0.00000000   -0.00000819
     atom    6 type  1   force =    -0.00000000    0.00000000    0.00000819
     atom    7 type  2   force =     0.00000000    0.00000000   -0.00000000
     The non-local contrib.  to forces
     atom    1 type  1   force =     0.00000000    0.00000000   -0.01191253
     atom    2 type  1   force =    -0.00000000   -0.00000000    0.01191253
     atom    3 type  1   force =     0.00000000   -0.00000000   -0.01191253
     atom    4 type  1   force =    -0.00000000   -0.00000000    0.01191253
     atom    5 type  1   force =     0.00000000   -0.00000000    0.04636688
     atom    6 type  1   force =     0.00000000   -0.00000000   -0.04636688
     atom    7 type  2   force =     0.00000000    0.00000000   -0.00000000
     The ionic contribution  to forces
     atom    1 type  1   force =     0.00000000    0.00000000   -0.38764094
     atom    2 type  1   force =    -0.00000000   -0.00000000    0.38764094
     atom    3 type  1   force =    -0.00000000   -0.00000000   -0.38764094
     atom    4 type  1   force =     0.00000000    0.00000000    0.38764094
     atom    5 type  1   force =     0.00000000    0.00000000   -0.11340285
     atom    6 type  1   force =    -0.00000000   -0.00000000    0.11340285
     atom    7 type  2   force =     0.00000000    0.00000000   -0.00000000
     The local contribution  to forces
     atom    1 type  1   force =     0.00000000    0.00000000    0.39947045
     atom    2 type  1   force =    -0.00000000   -0.00000000   -0.39947045
     atom    3 type  1   force =     0.00000000   -0.00000000    0.39947045
     atom    4 type  1   force =    -0.00000000   -0.00000000   -0.39947045
     atom    5 type  1   force =     0.00000000    0.00000000    0.06702760
     atom    6 type  1   force =    -0.00000000   -0.00000000   -0.06702760
     atom    7 type  2   force =    -0.00000000   -0.00000000   -0.00000000
     The core correction contribution to forces
     atom    1 type  1   force =     0.00000000    0.00000000    0.00000000
     atom    2 type  1   force =     0.00000000    0.00000000    0.00000000
     atom    3 type  1   force =     0.00000000    0.00000000    0.00000000
     atom    4 type  1   force =     0.00000000    0.00000000    0.00000000
     atom    5 type  1   force =     0.00000000    0.00000000    0.00000000
     atom    6 type  1   force =     0.00000000    0.00000000    0.00000000
     atom    7 type  2   force =    -0.00000000   -0.00000000   -0.00000000
     The Hubbard contrib.    to forces
     atom    1 type  1   force =     0.00000000    0.00000000    0.00000000
     atom    2 type  1   force =     0.00000000    0.00000000    0.00000000
     atom    3 type  1   force =     0.00000000    0.00000000    0.00000000
     atom    4 type  1   force =     0.00000000    0.00000000    0.00000000
     atom    5 type  1   force =     0.00000000    0.00000000    0.00000000
     atom    6 type  1   force =     0.00000000    0.00000000    0.00000000
     atom    7 type  2   force =     0.00000000    0.00000000    0.00000000
     The SCF correction term to forces
     atom    1 type  1   force =     0.00000000    0.00000000   -0.00000039
     atom    2 type  1   force =    -0.00000000   -0.00000000    0.00000039
     atom    3 type  1   force =     0.00000000    0.00000000   -0.00000039
     atom    4 type  1   force =     0.00000000    0.00000000    0.00000039
     atom    5 type  1   force =    -0.00000000   -0.00000000    0.00000017
     atom    6 type  1   force =     0.00000000    0.00000000   -0.00000017
     atom    7 type  2   force =     0.00000000    0.00000000   -0.00000000

     Total force =     0.000167     Total SCF correction =     0.000001


     Computing stress (Cartesian axis) and pressure

          total   stress  (Ry/bohr**3)                   (kbar)     P=      499.72
   0.00339669   0.00000000   0.00000000          499.67        0.00        0.00
   0.00000000   0.00339669   0.00000000            0.00      499.67        0.00
   0.00000000  -0.00000000   0.00339766            0.00       -0.00      499.81


     Writing all to output data dir ./output/LiSi.save/

     init_run     :      5.46s CPU      9.83s WALL (       2 calls)
     electrons    :    720.76s CPU    781.58s WALL (      15 calls)
     update_pot   :      6.26s CPU      6.41s WALL (      13 calls)
     forces       :      5.82s CPU      5.99s WALL (      15 calls)
     stress       :     27.50s CPU     28.59s WALL (      15 calls)

     Called by init_run:
     wfcinit      :      4.37s CPU      7.78s WALL (       2 calls)
     potinit      :      0.54s CPU      1.12s WALL (       2 calls)
     hinit0       :      0.49s CPU      0.74s WALL (       2 calls)

     Called by electrons:
     c_bands      :    607.87s CPU    659.30s WALL (     137 calls)
     sum_band     :    105.46s CPU    113.79s WALL (     137 calls)
     v_of_rho     :      7.78s CPU      8.96s WALL (     150 calls)
     mix_rho      :      0.34s CPU      0.47s WALL (     137 calls)

     Called by c_bands:
     init_us_2    :      4.72s CPU      5.52s WALL (   20196 calls)
     init_us_2:cp :      4.67s CPU      5.48s WALL (   20196 calls)
     cegterg      :    598.46s CPU    645.71s WALL (    9042 calls)

     Called by *egterg:
     cdiaghg      :     10.67s CPU     11.29s WALL (   35854 calls)
     h_psi        :    574.64s CPU    623.90s WALL (   36976 calls)
     g_psi        :      0.60s CPU      0.62s WALL (   27802 calls)

     Called by h_psi:
     h_psi:calbec :     10.31s CPU     11.15s WALL (   36976 calls)
     vloc_psi     :    556.95s CPU    604.83s WALL (   36976 calls)
     add_vuspsi   :      6.65s CPU      7.14s WALL (   36976 calls)

     General routines
     calbec       :     12.10s CPU     13.00s WALL (   41926 calls)
     fft          :      2.79s CPU      4.26s WALL (    1875 calls)
     ffts         :      0.14s CPU      0.18s WALL (     137 calls)
     fftw         :    569.84s CPU    617.98s WALL (  876902 calls)

     Parallel routines

     PWSCF        :  12m46.36s CPU  13m53.72s WALL


   This run was terminated on:  16:10:33  31Dec2024            

=------------------------------------------------------------------------------=
   JOB DONE.
=------------------------------------------------------------------------------=
