
     Program PWSCF v.7.3.1 starts on 27Feb2025 at 19:27: 6 

     This program is part of the open-source Quantum ESPRESSO suite
     for quantum simulation of materials; please cite
         "P. Giannozzi et al., J. Phys.:Condens. Matter 21 395502 (2009);
         "P. Giannozzi et al., J. Phys.:Condens. Matter 29 465901 (2017);
         "P. Giannozzi et al., J. Chem. Phys. 152 154105 (2020);
          URL http://www.quantum-espresso.org", 
     in publications or presentations arising from this work. More details at
     http://www.quantum-espresso.org/quote

     Parallel version (MPI & OpenMP), running on      16 processor cores
     Number of MPI processes:                16
     Threads/MPI process:                     1

     MPI processes distributed on     1 nodes
     491495 MiB available memory on the printing compute node when the environment starts

     Waiting for input...
     Reading input from standard input

     Current dimensions of program PWSCF are:
     Max number of different atomic species (ntypx) = 10
     Max number of k-points (npk) =  40000
     Max angular momentum in pseudopotentials (lmaxx) =  4

     R & G space division:  proc/nbgrp/npool/nimage =      16
     Subspace diagonalization in iterative solution of the eigenvalue problem:
     a serial algorithm will be used


     Parallelization info
     --------------------
     sticks:   dense  smooth     PW     G-vecs:    dense   smooth      PW
     Min          41      41     12                 4061     4061     648
     Max          42      42     13                 4078     4078     670
     Sum         657     657    193                65021    65021   10497

     Using Slab Decomposition



     bravais-lattice index     =            6
     lattice parameter (alat)  =       5.4086  a.u.
     unit-cell volume          =     820.1805 (a.u.)^3
     number of atoms/cell      =           14
     number of atomic types    =            2
     number of electrons       =        44.00
     number of Kohn-Sham states=           26
     kinetic-energy cutoff     =      70.0000  Ry
     charge density cutoff     =     280.0000  Ry
     scf convergence threshold =      1.0E-08
     mixing beta               =       0.7000
     number of iterations used =            8  plain     mixing
     energy convergence thresh.=      5.0E-04
     force convergence thresh. =      1.0E-03
     press convergence thresh. =      1.0E+00
     Exchange-correlation= PBE
                           (   1   4   3   4   0   0   0)
     nstep                     =           50


     celldm(1)=   5.408640  celldm(2)=   0.000000  celldm(3)=   5.183765
     celldm(4)=   0.000000  celldm(5)=   0.000000  celldm(6)=   0.000000

     crystal axes: (cart. coord. in units of alat)
               a(1) = (   1.000000   0.000000   0.000000 )  
               a(2) = (   0.000000   1.000000   0.000000 )  
               a(3) = (   0.000000   0.000000   5.183765 )  

     reciprocal axes: (cart. coord. in units 2 pi/alat)
               b(1) = (  1.000000  0.000000  0.000000 )  
               b(2) = (  0.000000  1.000000  0.000000 )  
               b(3) = (  0.000000  0.000000  0.192910 )  


     PseudoPot. # 1 for Li read from file:
     ../pseudo/Li_ONCV_PBE_sr.upf
     MD5 check sum: 50ff420e78310ffa21704f3361e624a4
     Pseudo is Norm-conserving, Zval =  3.0
     Generated using ONCVPSP code by D. R. Hamann
     Using radial grid of 1944 points,  4 beta functions with: 
                l(1) =   0
                l(2) =   0
                l(3) =   1
                l(4) =   1

     PseudoPot. # 2 for Si read from file:
     ../pseudo/Si_ONCV_PBE_sr.upf
     MD5 check sum: e543d271109d17c80368dfa7c482276d
     Pseudo is Norm-conserving + core correction, Zval =  4.0
     Generated using ONCVPSP code by D. R. Hamann
     Using radial grid of 1510 points,  6 beta functions with: 
                l(1) =   0
                l(2) =   0
                l(3) =   1
                l(4) =   1
                l(5) =   2
                l(6) =   2

     atomic species   valence    mass     pseudopotential
     Li                3.00     6.94100     Li( 1.00)
     Si                4.00    28.08550     Si( 1.00)

     16 Sym. Ops., with inversion, found ( 8 have fractional translation)



   Cartesian axes

     site n.     atom                  positions (alat units)
         1        Li     tau(   1) = (   0.0000000   0.0000000   1.0509513  )
         2        Li     tau(   2) = (   0.5000000   0.5000000   1.0509513  )
         3        Li     tau(   3) = (   0.5000000   0.5000000   4.1328134  )
         4        Li     tau(   4) = (   0.0000000   0.0000000   4.1328134  )
         5        Li     tau(   5) = (   0.0000000   0.0000000   0.0000000  )
         6        Li     tau(   6) = (   0.5000000   0.5000000   0.0000000  )
         7        Li     tau(   7) = (   0.0000000   0.0000000   2.5918823  )
         8        Li     tau(   8) = (   0.5000000   0.5000000   2.5918823  )
         9        Li     tau(   9) = (   0.0000000   0.5000000   1.8157639  )
        10        Li     tau(  10) = (   0.5000000   0.0000000   3.3680008  )
        11        Li     tau(  11) = (   0.0000000   0.5000000   3.3207559  )
        12        Li     tau(  12) = (   0.5000000   0.0000000   1.8630087  )
        13        Si     tau(  13) = (   0.0000000   0.5000000   4.6717176  )
        14        Si     tau(  14) = (   0.5000000   0.0000000   0.5120471  )

     number of k points=    42  Marzari-Vanderbilt smearing, width (Ry)=  0.0200
                       cart. coord. in units 2pi/alat
        k(    1) = (   0.0000000   0.0000000   0.0000000), wk =   0.0055096
        k(    2) = (   0.0000000   0.0000000   0.0643033), wk =   0.0110193
        k(    3) = (   0.0000000   0.0909091   0.0000000), wk =   0.0220386
        k(    4) = (   0.0000000   0.0909091   0.0643033), wk =   0.0440771
        k(    5) = (   0.0000000   0.1818182   0.0000000), wk =   0.0220386
        k(    6) = (   0.0000000   0.1818182   0.0643033), wk =   0.0440771
        k(    7) = (   0.0000000   0.2727273   0.0000000), wk =   0.0220386
        k(    8) = (   0.0000000   0.2727273   0.0643033), wk =   0.0440771
        k(    9) = (   0.0000000   0.3636364   0.0000000), wk =   0.0220386
        k(   10) = (   0.0000000   0.3636364   0.0643033), wk =   0.0440771
        k(   11) = (   0.0000000   0.4545455   0.0000000), wk =   0.0220386
        k(   12) = (   0.0000000   0.4545455   0.0643033), wk =   0.0440771
        k(   13) = (   0.0909091   0.0909091   0.0000000), wk =   0.0220386
        k(   14) = (   0.0909091   0.0909091   0.0643033), wk =   0.0440771
        k(   15) = (   0.0909091   0.1818182   0.0000000), wk =   0.0440771
        k(   16) = (   0.0909091   0.1818182   0.0643033), wk =   0.0881543
        k(   17) = (   0.0909091   0.2727273   0.0000000), wk =   0.0440771
        k(   18) = (   0.0909091   0.2727273   0.0643033), wk =   0.0881543
        k(   19) = (   0.0909091   0.3636364   0.0000000), wk =   0.0440771
        k(   20) = (   0.0909091   0.3636364   0.0643033), wk =   0.0881543
        k(   21) = (   0.0909091   0.4545455   0.0000000), wk =   0.0440771
        k(   22) = (   0.0909091   0.4545455   0.0643033), wk =   0.0881543
        k(   23) = (   0.1818182   0.1818182   0.0000000), wk =   0.0220386
        k(   24) = (   0.1818182   0.1818182   0.0643033), wk =   0.0440771
        k(   25) = (   0.1818182   0.2727273   0.0000000), wk =   0.0440771
        k(   26) = (   0.1818182   0.2727273   0.0643033), wk =   0.0881543
        k(   27) = (   0.1818182   0.3636364   0.0000000), wk =   0.0440771
        k(   28) = (   0.1818182   0.3636364   0.0643033), wk =   0.0881543
        k(   29) = (   0.1818182   0.4545455   0.0000000), wk =   0.0440771
        k(   30) = (   0.1818182   0.4545455   0.0643033), wk =   0.0881543
        k(   31) = (   0.2727273   0.2727273   0.0000000), wk =   0.0220386
        k(   32) = (   0.2727273   0.2727273   0.0643033), wk =   0.0440771
        k(   33) = (   0.2727273   0.3636364   0.0000000), wk =   0.0440771
        k(   34) = (   0.2727273   0.3636364   0.0643033), wk =   0.0881543
        k(   35) = (   0.2727273   0.4545455   0.0000000), wk =   0.0440771
        k(   36) = (   0.2727273   0.4545455   0.0643033), wk =   0.0881543
        k(   37) = (   0.3636364   0.3636364   0.0000000), wk =   0.0220386
        k(   38) = (   0.3636364   0.3636364   0.0643033), wk =   0.0440771
        k(   39) = (   0.3636364   0.4545455   0.0000000), wk =   0.0440771
        k(   40) = (   0.3636364   0.4545455   0.0643033), wk =   0.0881543
        k(   41) = (   0.4545455   0.4545455   0.0000000), wk =   0.0220386
        k(   42) = (   0.4545455   0.4545455   0.0643033), wk =   0.0440771

     Dense  grid:    65021 G-vectors     FFT dimensions: (  30,  30, 150)

     Estimated max dynamical RAM per process >      23.83 MB

     Estimated total dynamical RAM >     381.32 MB

     Initial potential from superposition of free atoms

     starting charge      43.9440, renormalised to      44.0000
     Starting wfcs are   32 randomized atomic wfcs

     total cpu time spent up to now is        1.3 secs

     per-process dynamical memory:    40.4 Mb

     Self-consistent Calculation

     iteration #  1     ecut=    70.00 Ry     beta= 0.70
     Davidson diagonalization with overlap
     ethr =  1.00E-02,  avg # of iterations =  5.3

     Threshold (ethr) on eigenvalues was too large:
     Diagonalizing with lowered threshold

     Davidson diagonalization with overlap
     ethr =  8.15E-04,  avg # of iterations =  2.0

     total cpu time spent up to now is        3.9 secs

     total energy              =    -188.41539677 Ry
     estimated scf accuracy    <       0.35148915 Ry

     iteration #  2     ecut=    70.00 Ry     beta= 0.70
     Davidson diagonalization with overlap
     ethr =  7.99E-04,  avg # of iterations =  7.5

     total cpu time spent up to now is        5.7 secs

     total energy              =    -186.38641254 Ry
     estimated scf accuracy    <      64.29969559 Ry

     iteration #  3     ecut=    70.00 Ry     beta= 0.70
     Davidson diagonalization with overlap
     ethr =  7.99E-04,  avg # of iterations =  6.5

     total cpu time spent up to now is        7.5 secs

     total energy              =    -188.49460108 Ry
     estimated scf accuracy    <       1.18869645 Ry

     iteration #  4     ecut=    70.00 Ry     beta= 0.70
     Davidson diagonalization with overlap
     ethr =  7.99E-04,  avg # of iterations =  3.5

     total cpu time spent up to now is        8.7 secs

     total energy              =    -188.59919667 Ry
     estimated scf accuracy    <       0.13131214 Ry

     iteration #  5     ecut=    70.00 Ry     beta= 0.70
     Davidson diagonalization with overlap
     ethr =  2.98E-04,  avg # of iterations =  1.7

     total cpu time spent up to now is        9.7 secs

     total energy              =    -188.60952393 Ry
     estimated scf accuracy    <       0.02035220 Ry

     iteration #  6     ecut=    70.00 Ry     beta= 0.70
     Davidson diagonalization with overlap
     ethr =  4.63E-05,  avg # of iterations =  4.5

     total cpu time spent up to now is       10.9 secs

     total energy              =    -188.61106112 Ry
     estimated scf accuracy    <       0.00076418 Ry

     iteration #  7     ecut=    70.00 Ry     beta= 0.70
     Davidson diagonalization with overlap
     ethr =  1.74E-06,  avg # of iterations =  5.5

     total cpu time spent up to now is       12.5 secs

     total energy              =    -188.61126597 Ry
     estimated scf accuracy    <       0.00033100 Ry

     iteration #  8     ecut=    70.00 Ry     beta= 0.70
     Davidson diagonalization with overlap
     ethr =  7.52E-07,  avg # of iterations =  1.4

     total cpu time spent up to now is       13.4 secs

     total energy              =    -188.61126145 Ry
     estimated scf accuracy    <       0.00012007 Ry

     iteration #  9     ecut=    70.00 Ry     beta= 0.70
     Davidson diagonalization with overlap
     ethr =  2.73E-07,  avg # of iterations =  2.2

     total cpu time spent up to now is       14.5 secs

     total energy              =    -188.61127307 Ry
     estimated scf accuracy    <       0.00001788 Ry

     iteration # 10     ecut=    70.00 Ry     beta= 0.70
     Davidson diagonalization with overlap
     ethr =  4.06E-08,  avg # of iterations =  1.2

     total cpu time spent up to now is       15.5 secs

     total energy              =    -188.61127414 Ry
     estimated scf accuracy    <       0.00000094 Ry

     iteration # 11     ecut=    70.00 Ry     beta= 0.70
     Davidson diagonalization with overlap
     ethr =  2.15E-09,  avg # of iterations =  3.5

     total cpu time spent up to now is       16.7 secs

     total energy              =    -188.61127435 Ry
     estimated scf accuracy    <       0.00000005 Ry

     iteration # 12     ecut=    70.00 Ry     beta= 0.70
     Davidson diagonalization with overlap
     ethr =  1.16E-10,  avg # of iterations =  3.2

     total cpu time spent up to now is       17.8 secs

     End of self-consistent calculation

          k = 0.0000 0.0000 0.0000 (  8051 PWs)   bands (ev):

   -39.7808 -39.7471 -39.6477 -39.3843 -39.3842 -39.1322 -39.1322 -39.0631
   -38.9858 -38.7408 -38.7408 -38.2916  -3.6464  -3.5678   2.4880   2.8457
     3.1869   3.8650   4.2483   5.5901   9.0932   9.0932  10.6264  10.6264
    12.0291  12.4700

          k = 0.0000 0.0000 0.0643 (  8063 PWs)   bands (ev):

   -39.7808 -39.7471 -39.6476 -39.3843 -39.3841 -39.1322 -39.1322 -39.0632
   -38.9858 -38.7408 -38.7408 -38.2916  -3.6464  -3.5678   2.4956   2.8030
     3.2866   3.7183   4.3496   5.5673   9.0933   9.0933  10.6236  10.6236
    12.1764  12.6054

          k = 0.0000 0.0909 0.0000 (  8097 PWs)   bands (ev):

   -39.7667 -39.7341 -39.6354 -39.3705 -39.3704 -39.1435 -39.1434 -39.0748
   -38.9708 -38.7529 -38.7529 -38.3046  -3.5319  -3.4384   2.5621   2.9308
     3.2663   3.9883   4.3278   5.6621   7.9598   9.2043   9.2229  10.7497
    11.5351  11.9958

          k = 0.0000 0.0909 0.0643 (  8099 PWs)   bands (ev):

   -39.7668 -39.7341 -39.6354 -39.3705 -39.3704 -39.1435 -39.1434 -39.0748
   -38.9708 -38.7529 -38.7529 -38.3046  -3.5319  -3.4384   2.5707   2.8822
     3.3792   3.8143   4.4521   5.6350   7.9595   9.2040   9.2230  10.7471
    11.6108  11.8721

          k = 0.0000 0.1818 0.0000 (  8093 PWs)   bands (ev):

   -39.7258 -39.6963 -39.5998 -39.3303 -39.3302 -39.1767 -39.1763 -39.1087
   -38.9270 -38.7885 -38.7885 -38.3427  -3.1913  -3.0542   2.7869   3.1866
     3.4924   4.3481   4.5781   5.7533   6.1633   7.0941   9.6085   9.8674
    10.6492  10.6761

          k = 0.0000 0.1818 0.0643 (  8105 PWs)   bands (ev):

   -39.7259 -39.6963 -39.5998 -39.3304 -39.3302 -39.1767 -39.1763 -39.1088
   -38.9270 -38.7885 -38.7885 -38.3427  -3.1913  -3.0542   2.7988   3.1166
     3.6477   4.0852   4.7826   5.7230   6.1489   7.0940   9.6086   9.9110
    10.3260  11.1341

          k = 0.0000 0.2727 0.0000 (  8108 PWs)   bands (ev):

   -39.6624 -39.6376 -39.5441 -39.2685 -39.2685 -39.2290 -39.2276 -39.1623
   -38.8587 -38.8453 -38.8453 -38.4035  -2.6350  -2.4315   3.1670   3.6132
     3.8249   4.1444   4.9048   4.9555   5.1765   6.2029   8.2403   8.9637
     9.3977  10.9011

          k = 0.0000 0.2727 0.0643 (  8119 PWs)   bands (ev):

   -39.6624 -39.6376 -39.5441 -39.2686 -39.2684 -39.2290 -39.2276 -39.1623
   -38.8587 -38.8453 -38.8453 -38.4035  -2.6350  -2.4316   3.1872   3.4906
     4.0560   4.1486   4.4965   5.0991   5.3904   6.1154   8.2485   8.8632
     9.6617  10.2332

          k = 0.0000 0.3636 0.0000 (  8118 PWs)   bands (ev):

   -39.5833 -39.5647 -39.4734 -39.3007 -39.2969 -39.2311 -39.1867 -39.1866
   -38.9195 -38.9194 -38.7721 -38.4832  -1.8937  -1.6242   2.5585   3.2145
     3.7339   4.2033   4.3439   5.4326   5.7176   6.4782   6.8388   7.4844
     8.5626   9.5356

          k = 0.0000 0.3636 0.0643 (  8129 PWs)   bands (ev):

   -39.5834 -39.5647 -39.4734 -39.3007 -39.2969 -39.2311 -39.1867 -39.1866
   -38.9195 -38.9195 -38.7721 -38.4833  -1.8937  -1.6242   2.5585   3.2153
     3.7544   4.0467   4.6221   5.0752   6.0274   6.4008   6.8072   7.5809
     8.4557   9.2265

          k = 0.0000 0.4545 0.0000 (  8122 PWs)   bands (ev):

   -39.5021 -39.4921 -39.3963 -39.3742 -39.3653 -39.3093 -39.0973 -39.0973
   -39.0057 -39.0057 -38.6751 -38.5761  -1.0970  -0.8947   1.5089   1.8520
     4.4072   4.7975   4.8640   5.3748   5.8151   6.2653   6.5945   7.0761
     7.7673   8.3061

          k = 0.0000 0.4545 0.0643 (  8145 PWs)   bands (ev):

   -39.5021 -39.4922 -39.3963 -39.3742 -39.3654 -39.3094 -39.0974 -39.0973
   -39.0057 -39.0057 -38.6751 -38.5762  -1.0970  -0.8947   1.5089   1.8520
     4.4579   4.6124   5.0164   5.4230   5.7475   6.2648   6.5479   7.1646
     7.5800   8.6381

          k = 0.0909 0.0909 0.0000 (  8087 PWs)   bands (ev):

   -39.7531 -39.7215 -39.6236 -39.3571 -39.3570 -39.1542 -39.1541 -39.0859
   -38.9562 -38.7645 -38.7645 -38.3169  -3.4180  -3.3094   2.6350   3.0143
     3.3417   4.1092   4.4074   5.7293   7.7749   8.4007   9.2065   9.3543
    11.4051  11.8294

          k = 0.0909 0.0909 0.0643 (  8105 PWs)   bands (ev):

   -39.7531 -39.7215 -39.6236 -39.3572 -39.3570 -39.1542 -39.1541 -39.0859
   -38.9562 -38.7645 -38.7645 -38.3169  -3.4180  -3.3094   2.6447   2.9590
     3.4685   3.9055   4.5577   5.6972   7.7740   8.4007   9.2063   9.3539
    11.4238  11.6613

          k = 0.0909 0.1818 0.0000 (  8095 PWs)   bands (ev):

   -39.7136 -39.6851 -39.5893 -39.3184 -39.3184 -39.1856 -39.1854 -39.1184
   -38.9140 -38.7984 -38.7984 -38.3532  -3.0790  -2.9266   2.8558   3.2649
     3.5553   4.4595   4.6579   5.7849   6.2341   7.1776   8.4966   9.4183
     9.8644  10.4671

          k = 0.0909 0.1818 0.0643 (  8105 PWs)   bands (ev):

   -39.7136 -39.6851 -39.5893 -39.3185 -39.3183 -39.1856 -39.1854 -39.1184
   -38.9140 -38.7984 -38.7984 -38.3532  -3.0790  -2.9266   2.8691   3.1859
     3.7266   4.1641   4.8945   5.7507   6.2148   7.1776   8.4960   9.4120
     9.9352  10.2348

          k = 0.0909 0.2727 0.0000 (  8110 PWs)   bands (ev):

   -39.6524 -39.6286 -39.5358 -39.2598 -39.2597 -39.2345 -39.2334 -39.1697
   -38.8527 -38.8526 -38.8481 -38.4113  -2.5254  -2.3067   3.2287   3.6819
     3.8683   4.2105   4.9937   5.0423   5.2669   6.2547   8.2485   8.8016
     8.9273   9.3351

          k = 0.0909 0.2727 0.0643 (  8112 PWs)   bands (ev):

   -39.6524 -39.6286 -39.5358 -39.2598 -39.2596 -39.2345 -39.2334 -39.1697
   -38.8527 -38.8526 -38.8481 -38.4113  -2.5254  -2.3067   3.2512   3.5451
     4.1158   4.2157   4.5631   5.2003   5.4982   6.1526   8.2468   8.7946
     8.9301   9.3026

          k = 0.0909 0.3636 0.0000 (  8122 PWs)   bands (ev):

   -39.5763 -39.5587 -39.4679 -39.3038 -39.3004 -39.2355 -39.1800 -39.1800
   -38.9236 -38.9236 -38.7647 -38.4875  -1.7883  -1.5044   2.6455   3.3109
     3.7913   4.2554   4.3745   5.4562   5.7829   6.5421   6.8580   7.4594
     8.5437   9.2288

          k = 0.0909 0.3636 0.0643 (  8119 PWs)   bands (ev):

   -39.5763 -39.5587 -39.4679 -39.3037 -39.3004 -39.2355 -39.1800 -39.1799
   -38.9236 -38.9236 -38.7647 -38.4875  -1.7883  -1.5044   2.6455   3.3122
     3.8114   4.0908   4.6611   5.1137   6.0566   6.4907   6.8275   7.5651
     8.3536   9.1091

          k = 0.0909 0.4545 0.0000 (  8123 PWs)   bands (ev):

   -39.4988 -39.4896 -39.3942 -39.3734 -39.3651 -39.3105 -39.0942 -39.0941
   -39.0062 -39.0062 -38.6715 -38.5765  -0.9957  -0.7859   1.6138   1.9650
     4.4351   4.8036   4.8781   5.4096   5.8264   6.2850   6.6337   7.1292
     7.7657   8.2664

          k = 0.0909 0.4545 0.0643 (  8120 PWs)   bands (ev):

   -39.4988 -39.4896 -39.3942 -39.3734 -39.3651 -39.3105 -39.0942 -39.0941
   -39.0062 -39.0062 -38.6715 -38.5765  -0.9957  -0.7859   1.6138   1.9650
     4.4856   4.6299   5.0133   5.4597   5.7690   6.2965   6.5628   7.1849
     7.6307   8.6380

          k = 0.1818 0.1818 0.0000 (  8122 PWs)   bands (ev):

   -39.6783 -39.6527 -39.5590 -39.2841 -39.2841 -39.2120 -39.2120 -39.1467
   -38.8762 -38.8276 -38.8276 -38.3844  -2.7449  -2.5483   3.0642   3.4992
     3.7325   4.7715   4.9064   5.6436   6.3205   7.1223   7.3436   7.4688
     9.7835   9.8499

          k = 0.1818 0.1818 0.0643 (  8094 PWs)   bands (ev):

   -39.6783 -39.6527 -39.5590 -39.2841 -39.2840 -39.2120 -39.2119 -39.1467
   -38.8762 -38.8276 -38.8276 -38.3844  -2.7449  -2.5483   3.0827   3.3882
     3.9523   4.3927   5.2362   5.6182   6.2588   7.1223   7.3436   7.4689
     9.7714   9.8311

          k = 0.1818 0.2727 0.0000 (  8098 PWs)   bands (ev):

   -39.6237 -39.6027 -39.5118 -39.2579 -39.2575 -39.2274 -39.2274 -39.1913
   -38.8744 -38.8744 -38.8175 -38.4344  -2.2001  -1.9371   3.4138   3.8853
     3.9917   4.3530   5.2258   5.2975   5.5329   6.3996   7.1870   7.6491
     8.2803   8.8893

          k = 0.1818 0.2727 0.0643 (  8101 PWs)   bands (ev):

   -39.6237 -39.6028 -39.5118 -39.2579 -39.2575 -39.2275 -39.2274 -39.1913
   -38.8744 -38.8744 -38.8175 -38.4344  -2.2001  -1.9371   3.4447   3.7008
     4.2792   4.3690   4.7581   5.4892   5.8018   6.2610   7.1784   7.6468
     8.3067   8.7490

          k = 0.1818 0.3636 0.0000 (  8103 PWs)   bands (ev):

   -39.5565 -39.5414 -39.4522 -39.3129 -39.3108 -39.2487 -39.1609 -39.1608
   -38.9359 -38.9359 -38.7436 -38.5004  -1.4758  -1.1513   2.8919   3.5729
     3.9748   4.4039   4.4722   5.4935   5.9690   6.7239   6.9017   7.2926
     7.6436   8.2197

          k = 0.1818 0.3636 0.0643 (  8101 PWs)   bands (ev):

   -39.5564 -39.5414 -39.4522 -39.3129 -39.3108 -39.2487 -39.1609 -39.1608
   -38.9359 -38.9359 -38.7435 -38.5004  -1.4758  -1.1513   2.8919   3.5767
     3.9878   4.2292   4.7679   5.2143   6.1177   6.7625   6.8837   7.3691
     7.6667   7.9793

          k = 0.1818 0.4545 0.0000 (  8102 PWs)   bands (ev):

   -39.4898 -39.4826 -39.3883 -39.3715 -39.3643 -39.3141 -39.0851 -39.0851
   -39.0079 -39.0079 -38.6613 -38.5779  -0.6975  -0.4679   1.9239   2.2980
     4.5013   4.8055   4.9409   5.5172   5.8714   6.3296   6.7174   7.2356
     7.5429   7.9209

          k = 0.1818 0.4545 0.0643 (  8106 PWs)   bands (ev):

   -39.4898 -39.4826 -39.3883 -39.3715 -39.3643 -39.3142 -39.0851 -39.0850
   -39.0079 -39.0079 -38.6613 -38.5780  -0.6975  -0.4679   1.9239   2.2980
     4.5379   4.6947   5.0150   5.5694   5.8379   6.3729   6.5809   7.1486
     7.6777   8.1556

          k = 0.2727 0.2727 0.0000 (  8118 PWs)   bands (ev):

   -39.5798 -39.5632 -39.4746 -39.2876 -39.2876 -39.2256 -39.1856 -39.1855
   -38.9095 -38.9095 -38.7703 -38.4719  -1.6709  -1.3430   3.7129   4.1518
     4.1843   4.2534   5.4757   5.6939   5.8471   5.9546   6.0215   6.7244
     8.1959   8.2689

          k = 0.2727 0.2727 0.0643 (  8112 PWs)   bands (ev):

   -39.5798 -39.5632 -39.4747 -39.2876 -39.2876 -39.2256 -39.1856 -39.1855
   -38.9096 -38.9095 -38.7703 -38.4719  -1.6709  -1.3430   3.7616   3.9371
     4.1820   4.5789   5.0433   5.8471   5.9546   5.9834   6.1428   6.6056
     8.2689   8.3032

          k = 0.2727 0.3636 0.0000 (  8119 PWs)   bands (ev):

   -39.5269 -39.5157 -39.4280 -39.3282 -39.3275 -39.2698 -39.1316 -39.1315
   -38.9563 -38.9563 -38.7113 -38.5219  -0.9710  -0.5897   3.2230   3.8859
     4.3295   4.6114   4.6686   5.5036   6.0475   6.2221   6.3569   7.0159
     7.0972   7.4987

          k = 0.2727 0.3636 0.0643 (  8107 PWs)   bands (ev):

   -39.5268 -39.5157 -39.4280 -39.3282 -39.3275 -39.2698 -39.1316 -39.1315
   -38.9563 -38.9563 -38.7113 -38.5219  -0.9710  -0.5897   3.2230   3.8946
     4.2978   4.5081   4.9006   5.3501   5.9556   6.3432   6.3660   7.0282
     7.1807   7.4934

          k = 0.2727 0.4545 0.0000 (  8113 PWs)   bands (ev):

   -39.4775 -39.4730 -39.3799 -39.3692 -39.3629 -39.3204 -39.0718 -39.0717
   -39.0117 -39.0117 -38.6463 -38.5814  -0.2235   0.0288   2.4215   2.8272
     4.5555   4.7693   5.1133   5.6927   5.9586   6.2866   6.5547   6.6788
     7.0588   7.2312

          k = 0.2727 0.4545 0.0643 (  8100 PWs)   bands (ev):

   -39.4775 -39.4730 -39.3799 -39.3692 -39.3629 -39.3204 -39.0718 -39.0717
   -39.0117 -39.0117 -38.6463 -38.5814  -0.2235   0.0288   2.4215   2.8272
     4.5655   4.7467   5.1202   5.7409   5.9546   6.3139   6.4323   6.6274
     7.0686   7.4042

          k = 0.3636 0.3636 0.0000 (  8132 PWs)   bands (ev):

   -39.4931 -39.4866 -39.3982 -39.3485 -39.3482 -39.2974 -39.0955 -39.0954
   -38.9842 -38.9841 -38.6717 -38.5515  -0.3126   0.1019   3.3286   4.0593
     4.7635   4.8245   4.8401   5.1154   5.2467   5.6620   6.4536   7.0442
     7.1055   7.2027

          k = 0.3636 0.3636 0.0643 (  8122 PWs)   bands (ev):

   -39.4931 -39.4866 -39.3982 -39.3485 -39.3482 -39.2974 -39.0955 -39.0954
   -38.9841 -38.9841 -38.6717 -38.5515  -0.3126   0.1019   3.3286   4.0618
     4.6702   4.8245   4.9963   5.1154   5.2103   5.6059   6.4596   7.0540
     7.1058   7.2025

          k = 0.3636 0.4545 0.0000 (  8130 PWs)   bands (ev):

   -39.4657 -39.4637 -39.3721 -39.3676 -39.3594 -39.3292 -39.0564 -39.0564
   -39.0182 -39.0182 -38.6292 -38.5880   0.3711   0.6192   3.0528   3.4854
     4.5468   4.6803   5.2644   5.4325   5.4865   5.9798   6.2502   6.4700
     6.7088   6.9461

          k = 0.3636 0.4545 0.0643 (  8113 PWs)   bands (ev):

   -39.4657 -39.4637 -39.3721 -39.3676 -39.3593 -39.3292 -39.0564 -39.0564
   -39.0182 -39.0182 -38.6292 -38.5880   0.3711   0.6192   3.0528   3.4853
     4.5471   4.6794   5.2580   5.4563   5.4830   5.9485   6.2433   6.4751
     6.7550   6.9593

          k = 0.4545 0.4545 0.0000 (  8142 PWs)   bands (ev):

   -39.4584 -39.4579 -39.3683 -39.3673 -39.3509 -39.3399 -39.0413 -39.0412
   -39.0282 -39.0282 -38.6126 -38.5984   0.9260   1.0545   3.6439   4.0075
     4.3079   4.5204   4.6819   4.8357   5.9127   6.1794   6.2043   6.4554
     6.5198   6.5800

          k = 0.4545 0.4545 0.0643 (  8145 PWs)   bands (ev):

   -39.4584 -39.4579 -39.3683 -39.3673 -39.3509 -39.3399 -39.0413 -39.0412
   -39.0282 -39.0282 -38.6125 -38.5984   0.9260   1.0545   3.6439   4.0073
     4.3080   4.5208   4.6818   4.8358   5.9306   6.0716   6.3083   6.4649
     6.5206   6.5764

     the Fermi energy is     6.5211 ev

!    total energy              =    -188.61127435 Ry
     estimated scf accuracy    <          4.0E-09 Ry
     smearing contrib. (-TS)   =       0.00025668 Ry
     internal energy E=F+TS    =    -188.61153103 Ry

     The total energy is F=E-TS. E is the sum of the following terms:
     one-electron contribution =     -83.90273493 Ry
     hartree contribution      =      40.53018337 Ry
     xc contribution           =     -48.73184497 Ry
     ewald contribution        =     -96.50713450 Ry

     convergence has been achieved in  12 iterations

     Forces acting on atoms (cartesian axes, Ry/au):

     atom    1 type  1   force =     0.00000000    0.00000000    0.09845110
     atom    2 type  1   force =     0.00000000    0.00000000    0.09845110
     atom    3 type  1   force =     0.00000000    0.00000000   -0.09845110
     atom    4 type  1   force =     0.00000000    0.00000000   -0.09845110
     atom    5 type  1   force =     0.00000000    0.00000000    0.00000000
     atom    6 type  1   force =     0.00000000    0.00000000    0.00000000
     atom    7 type  1   force =     0.00000000    0.00000000    0.00000000
     atom    8 type  1   force =     0.00000000    0.00000000   -0.00000000
     atom    9 type  1   force =     0.00000000    0.00000000   -0.00095427
     atom   10 type  1   force =     0.00000000    0.00000000    0.00095427
     atom   11 type  1   force =     0.00000000    0.00000000    0.01756783
     atom   12 type  1   force =     0.00000000    0.00000000   -0.01756783
     atom   13 type  2   force =     0.00000000    0.00000000   -0.05268332
     atom   14 type  2   force =     0.00000000    0.00000000    0.05268332

     Total force =     0.211992     Total SCF correction =     0.000156


     Computing stress (Cartesian axis) and pressure

          total   stress  (Ry/bohr**3)                   (kbar)     P=      619.71
   0.00400509   0.00000000   0.00000000          589.17        0.00        0.00
   0.00000000   0.00400509   0.00000000            0.00      589.17        0.00
   0.00000000   0.00000000   0.00462796            0.00        0.00      680.80


     BFGS Geometry Optimization
     Energy error            =      0.0E+00 Ry
     Gradient error          =      9.8E-02 Ry/Bohr
     Cell gradient error     =      1.8E+02 kbar

     number of scf cycles    =   1
     number of bfgs steps    =   0

     enthalpy           new  =    -185.8235375931 Ry

     new trust radius        =       0.1759897720 bohr
ibrav =      6
 celldm(1) =      5.49060223
 celldm(3) =      5.26328001
Input lattice vectors:
     1.01515401     0.00000000     0.00000000
     0.00000000     1.01515401     0.00000000
     0.00000000     0.00000000     5.34303979
New lattice vectors in INITIAL alat:
     1.01515401     0.00000000     0.00000000
     0.00000000     1.01515401     0.00000000
     0.00000000     0.00000000     5.34303979
New lattice vectors in NEW alat (for information only):
     1.00000000     0.00000000     0.00000000
     0.00000000     1.00000000     0.00000000
     0.00000000     0.00000000     5.26328001
Discrepancy in bohr =     0.000000    0.000000    0.000000
     new conv_thr            =       0.0000000100 Ry

     new unit-cell volume =    871.19710 a.u.^3 (   129.09809 Ang^3 )
     density =      1.79386 g/cm^3

CELL_PARAMETERS (alat=  5.40863967)
   1.015154007   0.000000000   0.000000000
   0.000000000   1.015154007   0.000000000
   0.000000000   0.000000000   5.343039791

ATOMIC_POSITIONS (crystal)
Li               0.0000000000        0.0000000000        0.2062504561
Li               0.5000000000        0.5000000000        0.2062504561
Li               0.5000000000        0.5000000000        0.7937495439
Li               0.0000000000        0.0000000000        0.7937495439
Li               0.0000000000        0.0000000000        0.0000000000
Li               0.5000000000        0.5000000000        0.0000000000
Li               0.0000000000        0.0000000000        0.5000000000
Li               0.5000000000        0.5000000000        0.5000000000
Li               0.0000000000        0.5000000000        0.3502449640
Li               0.5000000000        0.0000000000        0.6497550360
Li               0.0000000000        0.5000000000        0.6412335918
Li               0.5000000000        0.0000000000        0.3587664082
Si               0.0000000000        0.5000000000        0.8993419435
Si               0.5000000000        0.0000000000        0.1006580565



     Writing config-only to output data dir ./output/LiSi.save/ :
     XML data file
     NEW-OLD atomic charge density approx. for the potential

     total cpu time spent up to now is       20.0 secs

     per-process dynamical memory:    45.5 Mb

     Self-consistent Calculation

     iteration #  1     ecut=    70.00 Ry     beta= 0.70
     Davidson diagonalization with overlap
     ethr =  1.00E-06,  avg # of iterations =  8.9

     total cpu time spent up to now is       22.8 secs

     total energy              =    -188.76881016 Ry
     estimated scf accuracy    <       0.09497182 Ry

     iteration #  2     ecut=    70.00 Ry     beta= 0.70
     Davidson diagonalization with overlap
     ethr =  2.16E-04,  avg # of iterations =  8.4

     total cpu time spent up to now is       24.8 secs

     total energy              =    -187.95949063 Ry
     estimated scf accuracy    <      24.69515341 Ry

     iteration #  3     ecut=    70.00 Ry     beta= 0.70
     Davidson diagonalization with overlap
     ethr =  2.16E-04,  avg # of iterations =  8.4

     total cpu time spent up to now is       26.6 secs

     total energy              =    -188.80982350 Ry
     estimated scf accuracy    <       0.41990985 Ry

     iteration #  4     ecut=    70.00 Ry     beta= 0.70
     Davidson diagonalization with overlap
     ethr =  2.16E-04,  avg # of iterations =  2.8

     total cpu time spent up to now is       27.8 secs

     total energy              =    -188.84617653 Ry
     estimated scf accuracy    <       0.00841422 Ry

     iteration #  5     ecut=    70.00 Ry     beta= 0.70
     Davidson diagonalization with overlap
     ethr =  1.91E-05,  avg # of iterations =  3.0

     total cpu time spent up to now is       28.8 secs

     total energy              =    -188.84667142 Ry
     estimated scf accuracy    <       0.00138595 Ry

     iteration #  6     ecut=    70.00 Ry     beta= 0.70
     Davidson diagonalization with overlap
     ethr =  3.15E-06,  avg # of iterations =  4.1

     total cpu time spent up to now is       30.0 secs

     total energy              =    -188.84672933 Ry
     estimated scf accuracy    <       0.00010698 Ry

     iteration #  7     ecut=    70.00 Ry     beta= 0.70
     Davidson diagonalization with overlap
     ethr =  2.43E-07,  avg # of iterations =  3.3

     total cpu time spent up to now is       31.1 secs

     total energy              =    -188.84690682 Ry
     estimated scf accuracy    <       0.00023959 Ry

     iteration #  8     ecut=    70.00 Ry     beta= 0.70
     Davidson diagonalization with overlap
     ethr =  2.43E-07,  avg # of iterations =  1.2

     total cpu time spent up to now is       32.1 secs

     total energy              =    -188.84690850 Ry
     estimated scf accuracy    <       0.00004025 Ry

     iteration #  9     ecut=    70.00 Ry     beta= 0.70
     Davidson diagonalization with overlap
     ethr =  9.15E-08,  avg # of iterations =  1.5

     total cpu time spent up to now is       33.1 secs

     total energy              =    -188.84690959 Ry
     estimated scf accuracy    <       0.00000191 Ry

     iteration # 10     ecut=    70.00 Ry     beta= 0.70
     Davidson diagonalization with overlap
     ethr =  4.33E-09,  avg # of iterations =  3.8

     total cpu time spent up to now is       34.2 secs

     total energy              =    -188.84690990 Ry
     estimated scf accuracy    <       0.00000027 Ry

     iteration # 11     ecut=    70.00 Ry     beta= 0.70
     Davidson diagonalization with overlap
     ethr =  6.14E-10,  avg # of iterations =  1.9

     total cpu time spent up to now is       35.2 secs

     End of self-consistent calculation

          k = 0.0000 0.0000 0.0000 (  8051 PWs)   bands (ev):

   -40.2379 -40.1959 -40.1494 -39.8459 -39.8459 -39.6480 -39.6479 -39.6438
   -39.3760 -39.2789 -39.2789 -38.7704  -3.9693  -3.8683   1.9895   2.3660
     2.6585   3.4051   3.6143   4.7606   8.7697   8.7697  10.1175  10.1175
    11.1454  11.9043

          k = 0.0000 0.0000 0.0624 (  8063 PWs)   bands (ev):

   -40.2379 -40.1959 -40.1494 -39.8459 -39.8458 -39.6481 -39.6480 -39.6439
   -39.3759 -39.2791 -39.2788 -38.7705  -3.9693  -3.8683   1.9993   2.3070
     2.7947   3.1778   3.7841   4.7278   8.7698   8.7698  10.1149  10.1149
    11.2923  12.0358

          k = 0.0000 0.0896 0.0000 (  8097 PWs)   bands (ev):

   -40.2254 -40.1845 -40.1387 -39.8338 -39.8338 -39.6582 -39.6580 -39.6541
   -39.3629 -39.2897 -39.2897 -38.7818  -3.8556  -3.7424   2.0649   2.4502
     2.7323   3.5219   3.7051   4.8467   7.6332   8.7297   8.8943  10.2359
    10.9703  11.1206

          k = 0.0000 0.0896 0.0624 (  8099 PWs)   bands (ev):

   -40.2255 -40.1844 -40.1387 -39.8338 -39.8338 -39.6582 -39.6580 -39.6541
   -39.3629 -39.2897 -39.2896 -38.7818  -3.8556  -3.7424   2.0758   2.3841
     2.8817   3.2676   3.9000   4.8083   7.6329   8.7294   8.8945  10.2334
    11.0352  11.2113

          k = 0.0000 0.1791 0.0000 (  8093 PWs)   bands (ev):

   -40.1890 -40.1510 -40.1074 -39.7985 -39.7985 -39.6895 -39.6872 -39.6824
   -39.3247 -39.3211 -39.3211 -38.8151  -3.5175  -3.3689   2.2929   2.7032
     2.9466   3.8605   3.9842   5.0645   5.7674   6.6553   9.2646   9.3239
    10.0535  10.1116

          k = 0.0000 0.1791 0.0624 (  8105 PWs)   bands (ev):

   -40.1891 -40.1510 -40.1074 -39.7985 -39.7985 -39.6894 -39.6872 -39.6825
   -39.3248 -39.3212 -39.3211 -38.8152  -3.5175  -3.3689   2.3076   2.6124
     3.1358   3.5312   4.2559   5.0074   5.7636   6.6553   9.2647   9.3708
     9.7456  10.5434

          k = 0.0000 0.2687 0.0000 (  8108 PWs)   bands (ev):

   -40.1324 -40.0991 -40.0586 -39.7478 -39.7467 -39.7371 -39.7301 -39.7250
   -39.3712 -39.3712 -39.2653 -38.8683  -2.9666  -2.7648   2.6768   3.1240
     3.2778   3.8430   4.3894   4.4376   4.7207   5.5216   7.7218   8.3975
     8.7906   9.8661

          k = 0.0000 0.2687 0.0624 (  8119 PWs)   bands (ev):

   -40.1325 -40.0992 -40.0586 -39.7478 -39.7468 -39.7372 -39.7301 -39.7250
   -39.3713 -39.3712 -39.2653 -38.8684  -2.9666  -2.7648   2.7004   2.9790
     3.5326   3.8377   3.9702   4.6828   4.8697   5.4129   7.7353   8.2786
     9.0668   9.6335

          k = 0.0000 0.3582 0.0000 (  8118 PWs)   bands (ev):

   -40.0613 -40.0349 -39.9975 -39.8071 -39.7939 -39.7831 -39.6721 -39.6721
   -39.4367 -39.4367 -39.1899 -38.9379  -2.2373  -1.9866   2.2843   2.8552
     3.2472   3.7074   3.7956   4.8674   5.1644   5.9396   6.3353   6.9446
     7.9073   8.9426

          k = 0.0000 0.3582 0.0624 (  8129 PWs)   bands (ev):

   -40.0614 -40.0349 -39.9975 -39.8071 -39.7939 -39.7831 -39.6721 -39.6721
   -39.4367 -39.4367 -39.1899 -38.9380  -2.2373  -1.9866   2.2843   2.8567
     3.2719   3.5261   4.0923   4.5263   5.4463   5.8735   6.3097   7.0161
     7.8577   8.5704

          k = 0.0000 0.4478 0.0000 (  8122 PWs)   bands (ev):

   -39.9866 -39.9721 -39.9325 -39.8786 -39.8542 -39.8446 -39.5934 -39.5933
   -39.5127 -39.5127 -39.1053 -39.0190  -1.4704  -1.2939   1.2564   1.5524
     3.9037   4.2761   4.3449   4.8804   5.2904   5.7398   6.0375   6.5405
     7.1852   7.7401

          k = 0.0000 0.4478 0.0624 (  8145 PWs)   bands (ev):

   -39.9867 -39.9722 -39.9326 -39.8786 -39.8542 -39.8447 -39.5934 -39.5934
   -39.5127 -39.5127 -39.1054 -39.0191  -1.4705  -1.2939   1.2563   1.5523
     3.9543   4.0993   4.4868   4.9304   5.2235   5.7278   6.0105   6.6142
     7.0299   8.0264

          k = 0.0896 0.0896 0.0000 (  8087 PWs)   bands (ev):

   -40.2133 -40.1733 -40.1283 -39.8221 -39.8220 -39.6675 -39.6675 -39.6642
   -39.3502 -39.2999 -39.2999 -38.7927  -3.7423  -3.6168   2.1391   2.5329
     2.8031   3.6360   3.7957   4.9304   7.4786   8.0266   8.7343   8.8765
    10.8473  11.0816

          k = 0.0896 0.0896 0.0624 (  8105 PWs)   bands (ev):

   -40.2133 -40.1734 -40.1284 -39.8221 -39.8221 -39.6676 -39.6675 -39.6642
   -39.3502 -39.2999 -39.2999 -38.7926  -3.7423  -3.6168   2.1512   2.4590
     2.9659   3.3548   4.0170   4.8853   7.4780   8.0267   8.7341   8.8761
    10.8408  11.1726

          k = 0.0896 0.1791 0.0000 (  8095 PWs)   bands (ev):

   -40.1782 -40.1410 -40.0982 -39.7881 -39.7881 -39.6969 -39.6952 -39.6915
   -39.3299 -39.3299 -39.3134 -38.8244  -3.4056  -3.2445   2.3632   2.7811
     3.0080   3.9646   4.0735   5.1341   5.8317   6.7392   8.1261   8.9409
     9.3215   9.9090

          k = 0.0896 0.1791 0.0624 (  8105 PWs)   bands (ev):

   -40.1782 -40.1411 -40.0982 -39.7881 -39.7881 -39.6969 -39.6953 -39.6916
   -39.3299 -39.3299 -39.3134 -38.8244  -3.4056  -3.2445   2.3795   2.6804
     3.2113   3.6113   4.3730   5.0684   5.8260   6.7391   8.1256   8.9333
     9.3968   9.6668

          k = 0.0896 0.2687 0.0000 (  8110 PWs)   bands (ev):

   -40.1235 -40.0912 -40.0515 -39.7483 -39.7448 -39.7372 -39.7296 -39.7282
   -39.3778 -39.3778 -39.2561 -38.8752  -2.8570  -2.6427   2.7403   3.1931
     3.3250   3.9145   4.4737   4.5242   4.8176   5.5984   7.7340   8.2647
     8.5283   8.7360

          k = 0.0896 0.2687 0.0624 (  8112 PWs)   bands (ev):

   -40.1235 -40.0912 -40.0515 -39.7483 -39.7448 -39.7372 -39.7295 -39.7283
   -39.3778 -39.3778 -39.2561 -38.8752  -2.8570  -2.6427   2.7664   3.0343
     3.5944   3.9071   4.0441   4.7834   4.9759   5.4757   7.7379   8.2328
     8.5208   8.7721

          k = 0.0896 0.3582 0.0000 (  8122 PWs)   bands (ev):

   -40.0550 -40.0296 -39.9930 -39.8097 -39.7971 -39.7872 -39.6663 -39.6663
   -39.4404 -39.4404 -39.1835 -38.9418  -2.1310  -1.8688   2.3747   2.9489
     3.3083   3.7617   3.8343   4.8973   5.2355   6.0162   6.3609   6.9299
     7.9082   8.7842

          k = 0.0896 0.3582 0.0624 (  8119 PWs)   bands (ev):

   -40.0550 -40.0296 -39.9929 -39.8097 -39.7971 -39.7872 -39.6663 -39.6662
   -39.4404 -39.4404 -39.1835 -38.9418  -2.1310  -1.8688   2.3747   2.9512
     3.3319   3.5745   4.1368   4.5713   5.4860   5.9726   6.3339   7.0136
     7.7839   8.4767

          k = 0.0896 0.4478 0.0000 (  8123 PWs)   bands (ev):

   -39.9836 -39.9700 -39.9309 -39.8782 -39.8540 -39.8455 -39.5907 -39.5906
   -39.5132 -39.5132 -39.1023 -39.0194  -1.3672  -1.1848   1.3612   1.6635
     3.9340   4.2896   4.3710   4.9189   5.3130   5.7652   6.0838   6.5936
     7.2017   7.7153

          k = 0.0896 0.4478 0.0624 (  8120 PWs)   bands (ev):

   -39.9835 -39.9700 -39.9309 -39.8782 -39.8540 -39.8454 -39.5906 -39.5906
   -39.5132 -39.5132 -39.1022 -39.0194  -1.3672  -1.1848   1.3611   1.6635
     3.9819   4.1278   4.4955   4.9708   5.2542   5.7638   6.0357   6.6392
     7.0894   8.0425

          k = 0.1791 0.1791 0.0000 (  8122 PWs)   bands (ev):

   -40.1467 -40.1125 -40.0718 -39.7585 -39.7584 -39.7185 -39.7185 -39.7182
   -39.3558 -39.3557 -39.2806 -38.8518  -3.0729  -2.8760   2.5755   3.0144
     3.1859   4.2536   4.3448   5.2375   5.7921   6.6991   6.9038   7.0348
     9.2171   9.3204

          k = 0.1791 0.1791 0.0624 (  8094 PWs)   bands (ev):

   -40.1466 -40.1125 -40.0717 -39.7584 -39.7583 -39.7184 -39.7184 -39.7182
   -39.3557 -39.3557 -39.2806 -38.8517  -3.0729  -2.8759   2.5975   2.8801
     3.4317   3.8474   4.7176   5.1635   5.7577   6.6992   6.9038   7.0348
     9.1988   9.3086

          k = 0.1791 0.2687 0.0000 (  8098 PWs)   bands (ev):

   -40.0978 -40.0684 -40.0308 -39.7623 -39.7586 -39.7545 -39.7088 -39.7087
   -39.3971 -39.3971 -39.2295 -38.8955  -2.5314  -2.2816   2.9302   3.3978
     3.4636   4.0819   4.6994   4.7811   5.0966   5.8184   6.7764   7.2104
     7.7763   8.3669

          k = 0.1791 0.2687 0.0624 (  8101 PWs)   bands (ev):

   -40.0978 -40.0684 -40.0308 -39.7622 -39.7586 -39.7546 -39.7088 -39.7087
   -39.3971 -39.3970 -39.2296 -38.8955  -2.5314  -2.2816   2.9648   3.1950
     3.7733   4.0734   4.2569   5.0715   5.2660   5.6681   6.7707   7.2074
     7.8089   8.1950

          k = 0.1791 0.3582 0.0000 (  8103 PWs)   bands (ev):

   -40.0369 -40.0145 -39.9798 -39.8173 -39.8062 -39.7996 -39.6496 -39.6495
   -39.4514 -39.4514 -39.1652 -38.9532  -1.8159  -1.5213   2.6330   3.1979
     3.5076   3.9177   3.9575   4.9622   5.4369   6.2268   6.4229   6.8046
     7.2212   7.7502

          k = 0.1791 0.3582 0.0624 (  8101 PWs)   bands (ev):

   -40.0369 -40.0145 -39.9798 -39.8173 -39.8063 -39.7995 -39.6495 -39.6495
   -39.4514 -39.4514 -39.1652 -38.9532  -1.8159  -1.5213   2.6330   3.2050
     3.5185   3.7305   4.2616   4.6929   5.5847   6.2609   6.3976   6.8888
     7.2237   7.4961

          k = 0.1791 0.4478 0.0000 (  8102 PWs)   bands (ev):

   -39.9749 -39.9640 -39.9263 -39.8775 -39.8537 -39.8478 -39.5829 -39.5828
   -39.5149 -39.5149 -39.0936 -39.0209  -1.0632  -0.8649   1.6711   1.9911
     4.0118   4.3164   4.4633   5.0362   5.3852   5.8278   6.1900   6.7061
     7.0634   7.4372

          k = 0.1791 0.4478 0.0624 (  8106 PWs)   bands (ev):

   -39.9749 -39.9640 -39.9263 -39.8775 -39.8537 -39.8478 -39.5828 -39.5828
   -39.5149 -39.5149 -39.0935 -39.0209  -1.0632  -0.8649   1.6711   1.9911
     4.0443   4.2161   4.5308   5.0904   5.3469   5.8550   6.0840   6.6347
     7.1727   7.6953

          k = 0.2687 0.2687 0.0000 (  8118 PWs)   bands (ev):

   -40.0582 -40.0337 -39.9991 -39.7883 -39.7860 -39.7859 -39.6714 -39.6714
   -39.4283 -39.4282 -39.1886 -38.9284  -2.0028  -1.7016   3.2370   3.6904
     3.7141   3.9992   4.9591   5.1848   5.4346   5.5091   5.5914   6.2054
     7.7154   7.7775

          k = 0.2687 0.2687 0.0624 (  8112 PWs)   bands (ev):

   -40.0581 -40.0337 -39.9991 -39.7883 -39.7859 -39.7859 -39.6714 -39.6713
   -39.4283 -39.4282 -39.1886 -38.9284  -2.0028  -1.7016   3.2869   3.4514
     3.9321   4.1213   4.5464   5.4346   5.5091   5.5443   5.6205   6.0914
     7.7155   7.7775

          k = 0.2687 0.3582 0.0000 (  8119 PWs)   bands (ev):

   -40.0097 -39.9922 -39.9601 -39.8306 -39.8209 -39.8187 -39.6240 -39.6238
   -39.4696 -39.4696 -39.1373 -38.9722  -1.3072  -0.9682   2.9948   3.4882
     3.8902   4.1438   4.1973   5.0215   5.6323   5.7159   5.9346   6.5338
     6.6140   7.0201

          k = 0.2687 0.3582 0.0624 (  8107 PWs)   bands (ev):

   -40.0097 -39.9922 -39.9601 -39.8306 -39.8209 -39.8186 -39.6240 -39.6238
   -39.4696 -39.4695 -39.1373 -38.9722  -1.3072  -0.9682   2.9947   3.5012
     3.8435   4.0520   4.4276   4.8645   5.5310   5.8645   5.9324   6.5645
     6.6775   7.0107

          k = 0.2687 0.4478 0.0000 (  8113 PWs)   bands (ev):

   -39.9630 -39.9560 -39.9194 -39.8779 -39.8537 -39.8511 -39.5714 -39.5713
   -39.5185 -39.5184 -39.0808 -39.0243  -0.5789  -0.3622   2.1691   2.5124
     4.0987   4.3235   4.6615   5.2261   5.5059   5.8311   6.1378   6.2002
     6.5994   6.7317

          k = 0.2687 0.4478 0.0624 (  8100 PWs)   bands (ev):

   -39.9630 -39.9559 -39.9194 -39.8779 -39.8536 -39.8511 -39.5713 -39.5713
   -39.5185 -39.5184 -39.0808 -39.0242  -0.5789  -0.3622   2.1691   2.5124
     4.1089   4.3002   4.6683   5.2757   5.4949   5.8882   5.9543   6.1882
     6.5964   6.9170

          k = 0.3582 0.3582 0.0000 (  8132 PWs)   bands (ev):

   -39.9779 -39.9672 -39.9365 -39.8522 -39.8392 -39.8389 -39.5924 -39.5923
   -39.4943 -39.4943 -39.1031 -38.9983  -0.6458  -0.2842   3.1422   3.6844
     4.3356   4.3976   4.4318   4.6614   4.7967   5.1999   5.9783   6.5970
     6.6503   6.7275

          k = 0.3582 0.3582 0.0624 (  8122 PWs)   bands (ev):

   -39.9779 -39.9672 -39.9364 -39.8522 -39.8391 -39.8389 -39.5923 -39.5923
   -39.4943 -39.4943 -39.1031 -38.9982  -0.6458  -0.2842   3.1422   3.6882
     4.2332   4.4318   4.5612   4.6614   4.7630   5.1447   5.9758   6.6066
     6.6504   6.7274

          k = 0.3582 0.4478 0.0000 (  8130 PWs)   bands (ev):

   -39.9513 -39.9481 -39.9109 -39.8818 -39.8539 -39.8537 -39.5581 -39.5581
   -39.5244 -39.5244 -39.0662 -39.0302   0.0305   0.2440   2.8027   3.1638
     4.1409   4.2801   4.8450   4.9952   5.0616   5.5241   5.8014   6.0221
     6.2625   6.4959

          k = 0.3582 0.4478 0.0624 (  8113 PWs)   bands (ev):

   -39.9513 -39.9481 -39.9109 -39.8818 -39.8539 -39.8537 -39.5581 -39.5580
   -39.5244 -39.5244 -39.0662 -39.0302   0.0305   0.2440   2.8027   3.1638
     4.1414   4.2787   4.8373   5.0180   5.0590   5.5006   5.7959   6.0193
     6.3009   6.5111

          k = 0.4478 0.4478 0.0000 (  8142 PWs)   bands (ev):

   -39.9440 -39.9433 -39.9007 -39.8900 -39.8547 -39.8544 -39.5449 -39.5448
   -39.5334 -39.5333 -39.0518 -39.0395   0.5982   0.7105   3.3785   3.7038
     3.9254   4.1521   4.2253   4.3952   5.4770   5.7509   5.8071   6.0318
     6.0826   6.1545

          k = 0.4478 0.4478 0.0624 (  8145 PWs)   bands (ev):

   -39.9439 -39.9433 -39.9007 -39.8900 -39.8547 -39.8545 -39.5449 -39.5448
   -39.5334 -39.5333 -39.0518 -39.0395   0.5982   0.7105   3.3785   3.7036
     3.9255   4.1524   4.2252   4.3953   5.4934   5.6579   5.9001   6.0382
     6.0831   6.1510

     the Fermi energy is     6.0433 ev

!    total energy              =    -188.84690992 Ry
     estimated scf accuracy    <          1.2E-09 Ry
     smearing contrib. (-TS)   =      -0.00012695 Ry
     internal energy E=F+TS    =    -188.84678297 Ry

     The total energy is F=E-TS. E is the sum of the following terms:
     one-electron contribution =     -84.91568879 Ry
     hartree contribution      =      40.10091854 Ry
     xc contribution           =     -48.45644418 Ry
     ewald contribution        =     -95.57556855 Ry

     convergence has been achieved in  11 iterations

     Forces acting on atoms (cartesian axes, Ry/au):

     atom    1 type  1   force =     0.00000000    0.00000000    0.07154928
     atom    2 type  1   force =     0.00000000    0.00000000    0.07154928
     atom    3 type  1   force =     0.00000000    0.00000000   -0.07154928
     atom    4 type  1   force =     0.00000000    0.00000000   -0.07154928
     atom    5 type  1   force =     0.00000000    0.00000000   -0.00000000
     atom    6 type  1   force =     0.00000000    0.00000000    0.00000000
     atom    7 type  1   force =     0.00000000    0.00000000    0.00000000
     atom    8 type  1   force =     0.00000000    0.00000000    0.00000000
     atom    9 type  1   force =     0.00000000    0.00000000    0.00532465
     atom   10 type  1   force =     0.00000000    0.00000000   -0.00532465
     atom   11 type  1   force =     0.00000000    0.00000000    0.01020967
     atom   12 type  1   force =     0.00000000    0.00000000   -0.01020967
     atom   13 type  2   force =     0.00000000    0.00000000   -0.04645980
     atom   14 type  2   force =     0.00000000    0.00000000    0.04645980

     Total force =     0.158302     Total SCF correction =     0.000071


     Computing stress (Cartesian axis) and pressure

          total   stress  (Ry/bohr**3)                   (kbar)     P=      493.08
   0.00325741   0.00000000   0.00000000          479.18        0.00        0.00
   0.00000000   0.00325741   0.00000000            0.00      479.18        0.00
   0.00000000   0.00000000   0.00354084            0.00        0.00      520.87

     Energy error            =      6.2E-02 Ry
     Gradient error          =      7.2E-02 Ry/Bohr
     Cell gradient error     =      2.1E+01 kbar

     number of scf cycles    =   2
     number of bfgs steps    =   1

     enthalpy           old  =    -185.8235375931 Ry
     enthalpy           new  =    -185.8857711482 Ry

     CASE: enthalpy          _new < enthalpy          _old

     new trust radius        =       0.1654309137 bohr
ibrav =      6
 celldm(1) =      5.49318156
 celldm(3) =      5.35743522
Input lattice vectors:
     1.01563090     0.00000000     0.00000000
     0.00000000     1.01563090     0.00000000
     0.00000000     0.00000000     5.44117674
New lattice vectors in INITIAL alat:
     1.01563090     0.00000000     0.00000000
     0.00000000     1.01563090     0.00000000
     0.00000000     0.00000000     5.44117674
New lattice vectors in NEW alat (for information only):
     1.00000000     0.00000000     0.00000000
     0.00000000     1.00000000     0.00000000
     0.00000000     0.00000000     5.35743522
Discrepancy in bohr =     0.000000    0.000000    0.000000
     new conv_thr            =       0.0000000072 Ry

     new unit-cell volume =    888.03235 a.u.^3 (   131.59282 Ang^3 )
     density =      1.75985 g/cm^3

CELL_PARAMETERS (alat=  5.40863967)
   1.015630897   0.000000000   0.000000000
   0.000000000   1.015630897   0.000000000
   0.000000000   0.000000000   5.441176739

ATOMIC_POSITIONS (crystal)
Li               0.0000000000        0.0000000000        0.2119749910
Li               0.5000000000        0.5000000000        0.2119749910
Li               0.5000000000        0.5000000000        0.7880250090
Li               0.0000000000        0.0000000000        0.7880250090
Li               0.0000000000        0.0000000000       -0.0000000000
Li               0.5000000000        0.5000000000        0.0000000000
Li               0.0000000000        0.0000000000        0.5000000000
Li               0.5000000000        0.5000000000        0.5000000000
Li               0.0000000000        0.5000000000        0.3505455582
Li               0.5000000000        0.0000000000        0.6494544418
Li               0.0000000000        0.5000000000        0.6421037547
Li               0.5000000000        0.0000000000        0.3578962453
Si               0.0000000000        0.5000000000        0.8957950880
Si               0.5000000000        0.0000000000        0.1042049120



     Writing config-only to output data dir ./output/LiSi.save/ :
     XML data file
     NEW-OLD atomic charge density approx. for the potential

     total cpu time spent up to now is       37.4 secs

     per-process dynamical memory:    45.5 Mb

     Self-consistent Calculation

     iteration #  1     ecut=    70.00 Ry     beta= 0.70
     Davidson diagonalization with overlap
     ethr =  1.00E-06,  avg # of iterations =  9.8

     total cpu time spent up to now is       40.4 secs

     total energy              =    -188.71924992 Ry
     estimated scf accuracy    <       0.27935447 Ry

     iteration #  2     ecut=    70.00 Ry     beta= 0.70
     Davidson diagonalization with overlap
     ethr =  6.35E-04,  avg # of iterations =  7.8

     total cpu time spent up to now is       42.2 secs

     total energy              =    -186.65915925 Ry
     estimated scf accuracy    <      63.81377851 Ry

     iteration #  3     ecut=    70.00 Ry     beta= 0.70
     Davidson diagonalization with overlap
     ethr =  6.35E-04,  avg # of iterations =  8.2

     total cpu time spent up to now is       44.1 secs

     total energy              =    -188.89109876 Ry
     estimated scf accuracy    <       0.65111487 Ry

     iteration #  4     ecut=    70.00 Ry     beta= 0.70
     Davidson diagonalization with overlap
     ethr =  6.35E-04,  avg # of iterations =  2.3

     total cpu time spent up to now is       45.1 secs

     total energy              =    -188.94929084 Ry
     estimated scf accuracy    <       0.04861638 Ry

     iteration #  5     ecut=    70.00 Ry     beta= 0.70
     Davidson diagonalization with overlap
     ethr =  1.10E-04,  avg # of iterations =  2.1

     total cpu time spent up to now is       46.1 secs

     total energy              =    -188.95069736 Ry
     estimated scf accuracy    <       0.00702258 Ry

     iteration #  6     ecut=    70.00 Ry     beta= 0.70
     Davidson diagonalization with overlap
     ethr =  1.60E-05,  avg # of iterations =  3.0

     total cpu time spent up to now is       47.2 secs

     total energy              =    -188.95092754 Ry
     estimated scf accuracy    <       0.00033343 Ry

     iteration #  7     ecut=    70.00 Ry     beta= 0.70
     Davidson diagonalization with overlap
     ethr =  7.58E-07,  avg # of iterations =  5.2

     total cpu time spent up to now is       48.5 secs

     total energy              =    -188.95111355 Ry
     estimated scf accuracy    <       0.00039280 Ry

     iteration #  8     ecut=    70.00 Ry     beta= 0.70
     Davidson diagonalization with overlap
     ethr =  7.58E-07,  avg # of iterations =  1.2

     total cpu time spent up to now is       49.5 secs

     total energy              =    -188.95112687 Ry
     estimated scf accuracy    <       0.00000526 Ry

     iteration #  9     ecut=    70.00 Ry     beta= 0.70
     Davidson diagonalization with overlap
     ethr =  1.19E-08,  avg # of iterations =  3.3

     total cpu time spent up to now is       50.6 secs

     total energy              =    -188.95112792 Ry
     estimated scf accuracy    <       0.00000017 Ry

     iteration # 10     ecut=    70.00 Ry     beta= 0.70
     Davidson diagonalization with overlap
     ethr =  3.82E-10,  avg # of iterations =  3.7

     total cpu time spent up to now is       51.9 secs

     total energy              =    -188.95112797 Ry
     estimated scf accuracy    <       0.00000005 Ry

     iteration # 11     ecut=    70.00 Ry     beta= 0.70
     Davidson diagonalization with overlap
     ethr =  1.18E-10,  avg # of iterations =  2.2

     total cpu time spent up to now is       53.0 secs

     End of self-consistent calculation

          k = 0.0000 0.0000 0.0000 (  8051 PWs)   bands (ev):

   -40.3724 -40.2868 -40.2698 -39.9918 -39.9915 -39.8114 -39.7375 -39.7373
   -39.6127 -39.4316 -39.4314 -39.0226  -4.1174  -4.0372   1.8761   2.2421
     2.4303   3.2218   3.3195   4.2094   8.9401   8.9401  10.1152  10.1152
    10.9008  12.4142

          k = 0.0000 0.0000 0.0613 (  8063 PWs)   bands (ev):

   -40.3724 -40.2867 -40.2698 -39.9917 -39.9914 -39.8116 -39.7375 -39.7374
   -39.6126 -39.4317 -39.4316 -39.0227  -4.1174  -4.0372   1.8897   2.1551
     2.6064   2.9318   3.5536   4.1603   8.9403   8.9403  10.1123  10.1123
    11.0581  11.9724

          k = 0.0000 0.0895 0.0000 (  8097 PWs)   bands (ev):

   -40.3601 -40.2752 -40.2588 -39.9797 -39.9796 -39.8218 -39.7475 -39.7474
   -39.5999 -39.4423 -39.4422 -39.0338  -4.0008  -3.9101   1.9514   2.3248
     2.5013   3.3331   3.4213   4.3153   7.7469   8.6951   9.0642  10.2338
    10.8772  10.8801

          k = 0.0000 0.0895 0.0613 (  8099 PWs)   bands (ev):

   -40.3602 -40.2752 -40.2588 -39.9798 -39.9796 -39.8218 -39.7475 -39.7474
   -39.6000 -39.4423 -39.4422 -39.0338  -4.0008  -3.9101   1.9666   2.2286
     2.6896   3.0238   3.6775   4.2585   7.7468   8.6948   9.0644  10.2310
    10.9240  11.0509

          k = 0.0000 0.1790 0.0000 (  8093 PWs)   bands (ev):

   -40.3246 -40.2416 -40.2267 -39.9449 -39.9448 -39.8521 -39.7767 -39.7766
   -39.5628 -39.4734 -39.4733 -39.0662  -3.6540  -3.5327   2.1787   2.5730
     2.7119   3.6541   3.7285   4.6201   5.8032   6.5921   9.2275   9.4325
     9.8900   9.9839

          k = 0.0000 0.1790 0.0613 (  8105 PWs)   bands (ev):

   -40.3246 -40.2417 -40.2268 -39.9449 -39.9448 -39.8522 -39.7768 -39.7766
   -39.5628 -39.4735 -39.4734 -39.0663  -3.6540  -3.5327   2.1992   2.4469
     2.9367   3.2968   4.0469   4.5366   5.8021   6.5920   9.2846   9.4327
     9.5901  10.3993

          k = 0.0000 0.2685 0.0000 (  8108 PWs)   bands (ev):

   -40.2692 -40.1896 -40.1770 -39.9007 -39.8908 -39.8907 -39.8227 -39.8222
   -39.5230 -39.5230 -39.5049 -39.1181  -3.0892  -2.9217   2.5591   2.9849
     3.0537   3.8497   4.1747   4.2329   4.6103   5.1647   7.6281   8.2371
     8.5807  10.1339

          k = 0.0000 0.2685 0.0613 (  8119 PWs)   bands (ev):

   -40.2693 -40.1897 -40.1770 -39.9008 -39.8908 -39.8908 -39.8228 -39.8222
   -39.5231 -39.5230 -39.5049 -39.1182  -3.0892  -2.9217   2.5912   2.8019
     3.3366   3.7186   3.8956   4.5844   4.6613   5.0351   7.6507   8.0916
     8.8784   9.4519

          k = 0.0000 0.3580 0.0000 (  8118 PWs)   bands (ev):

   -40.1991 -40.1251 -40.1151 -39.9642 -39.8839 -39.8825 -39.8197 -39.8197
   -39.5877 -39.5876 -39.4315 -39.1860  -2.3426  -2.1317   2.2710   2.7581
     3.1247   3.5542   3.5839   4.6188   4.9599   5.7570   6.2417   6.7904
     7.6272   8.7574

          k = 0.0000 0.3580 0.0613 (  8129 PWs)   bands (ev):

   -40.1991 -40.1252 -40.1152 -39.9643 -39.8839 -39.8826 -39.8198 -39.8197
   -39.5878 -39.5877 -39.4315 -39.1861  -2.3426  -2.1317   2.2709   2.7596
     3.1602   3.3398   3.8962   4.3117   5.2013   5.7011   6.2211   6.8361
     7.6400   8.2942

          k = 0.0000 0.4475 0.0000 (  8122 PWs)   bands (ev):

   -40.1210 -40.0642 -40.0537 -40.0349 -39.9439 -39.9421 -39.7425 -39.7425
   -39.6629 -39.6628 -39.3491 -39.2651  -1.5641  -1.4134   1.1968   1.4527
     3.7380   4.0753   4.1957   4.7557   5.1584   5.5884   5.8499   6.3795
     6.9900   7.5588

          k = 0.0000 0.4475 0.0613 (  8145 PWs)   bands (ev):

   -40.1211 -40.0643 -40.0538 -40.0350 -39.9440 -39.9422 -39.7426 -39.7425
   -39.6629 -39.6629 -39.3492 -39.2651  -1.5641  -1.4134   1.1968   1.4527
     3.7771   3.9438   4.2993   4.8059   5.0934   5.5613   5.8501   6.4412
     6.8572   7.8029

          k = 0.0895 0.0895 0.0000 (  8087 PWs)   bands (ev):

   -40.3483 -40.2640 -40.2481 -39.9681 -39.9680 -39.8317 -39.7570 -39.7569
   -39.5875 -39.4524 -39.4524 -39.0443  -3.8845  -3.7832   2.0255   2.4060
     2.5701   3.4416   3.5224   4.4206   7.6199   8.1003   8.6912   8.8503
    10.7281  10.8471

          k = 0.0895 0.0895 0.0613 (  8105 PWs)   bands (ev):

   -40.3483 -40.2641 -40.2482 -39.9682 -39.9680 -39.8317 -39.7571 -39.7569
   -39.5877 -39.4524 -39.4524 -39.0443  -3.8845  -3.7832   2.0424   2.3000
     2.7707   3.1139   3.8008   4.3551   7.6194   8.1004   8.6910   8.8499
    10.7102  11.0706

          k = 0.0895 0.1790 0.0000 (  8095 PWs)   bands (ev):

   -40.3140 -40.2316 -40.2174 -39.9346 -39.9345 -39.8605 -39.7848 -39.7848
   -39.5518 -39.4821 -39.4820 -39.0753  -3.5389  -3.4068   2.2486   2.6493
     2.7742   3.7520   3.8264   4.7213   5.8708   6.6772   8.2042   8.8914
     9.2187   9.7809

          k = 0.0895 0.1790 0.0613 (  8105 PWs)   bands (ev):

   -40.3140 -40.2317 -40.2173 -39.9346 -39.9345 -39.8606 -39.7849 -39.7848
   -39.5518 -39.4822 -39.4821 -39.0754  -3.5389  -3.4069   2.2713   2.5120
     3.0117   3.3809   4.1657   4.6270   5.8691   6.6772   8.2038   8.8818
     9.3049   9.5335

          k = 0.0895 0.2685 0.0000 (  8110 PWs)   bands (ev):

   -40.2605 -40.1816 -40.1696 -39.9069 -39.8827 -39.8827 -39.8284 -39.8281
   -39.5295 -39.5295 -39.4960 -39.1249  -2.9761  -2.7978   2.6214   3.0526
     3.1061   3.9250   4.2586   4.3240   4.7106   5.2680   7.6405   8.1188
     8.4754   8.6234

          k = 0.0895 0.2685 0.0613 (  8112 PWs)   bands (ev):

   -40.2606 -40.1817 -40.1695 -39.9069 -39.8827 -39.8827 -39.8285 -39.8281
   -39.5296 -39.5295 -39.4960 -39.1249  -2.9761  -2.7978   2.6564   2.8568
     3.4012   3.7889   3.9784   4.6870   4.7632   5.1289   7.6522   8.0533
     8.5276   8.6548

          k = 0.0895 0.3580 0.0000 (  8122 PWs)   bands (ev):

   -40.1930 -40.1198 -40.1104 -39.9677 -39.8869 -39.8858 -39.8142 -39.8141
   -39.5915 -39.5914 -39.4253 -39.1898  -2.2323  -2.0113   2.3657   2.8524
     3.1860   3.6074   3.6302   4.6578   5.0357   5.8468   6.2699   6.7792
     7.6389   8.6045

          k = 0.0895 0.3580 0.0613 (  8119 PWs)   bands (ev):

   -40.1930 -40.1199 -40.1103 -39.9677 -39.8870 -39.8857 -39.8142 -39.8141
   -39.5915 -39.5914 -39.4253 -39.1898  -2.2323  -2.0113   2.3657   2.8549
     3.2201   3.3908   3.9445   4.3626   5.2545   5.8081   6.2457   6.8416
     7.5835   8.2059

          k = 0.0895 0.4475 0.0000 (  8123 PWs)   bands (ev):

   -40.1180 -40.0622 -40.0521 -40.0351 -39.9438 -39.9422 -39.7399 -39.7398
   -39.6634 -39.6634 -39.3462 -39.2655  -1.4563  -1.3003   1.3039   1.5655
     3.7661   4.0926   4.2331   4.7958   5.1892   5.6153   5.9004   6.4307
     7.0181   7.5407

          k = 0.0895 0.4475 0.0613 (  8120 PWs)   bands (ev):

   -40.1180 -40.0622 -40.0521 -40.0351 -39.9438 -39.9422 -39.7398 -39.7398
   -39.6634 -39.6634 -39.3461 -39.2655  -1.4563  -1.3003   1.3039   1.5655
     3.8009   3.9778   4.3207   4.8482   5.1298   5.5987   5.8811   6.4671
     6.9224   7.8301

          k = 0.1790 0.1790 0.0000 (  8122 PWs)   bands (ev):

   -40.2834 -40.2030 -40.1902 -39.9049 -39.9048 -39.8854 -39.8086 -39.8086
   -39.5199 -39.5078 -39.5077 -39.1021  -3.1969  -3.0338   2.4588   2.8778
     2.9595   4.0245   4.1191   4.9954   5.7843   6.6704   6.8303   6.9930
     9.0239   9.2533

          k = 0.1790 0.1790 0.0613 (  8094 PWs)   bands (ev):

   -40.2833 -40.2029 -40.1901 -39.9048 -39.9047 -39.8853 -39.8085 -39.8085
   -39.5198 -39.5078 -39.5076 -39.1020  -3.1969  -3.0338   2.4887   2.7053
     3.2343   3.6279   4.5053   4.8761   5.7746   6.6704   6.8303   6.9930
     9.0073   9.2474

          k = 0.1790 0.2685 0.0000 (  8098 PWs)   bands (ev):

   -40.2356 -40.1587 -40.1481 -39.9252 -39.8614 -39.8613 -39.8432 -39.8431
   -39.5487 -39.5486 -39.4702 -39.1447  -2.6402  -2.4310   2.8068   3.2531
     3.2642   4.1107   4.4915   4.5921   4.9984   5.5661   6.7622   7.1427
     7.6860   8.2614

          k = 0.1790 0.2685 0.0613 (  8101 PWs)   bands (ev):

   -40.2356 -40.1587 -40.1481 -39.9252 -39.8613 -39.8613 -39.8432 -39.8431
   -39.5487 -39.5486 -39.4702 -39.1447  -2.6402  -2.4310   2.8504   3.0211
     3.5909   3.9845   4.1974   4.9785   5.0405   5.4162   6.7586   7.1392
     7.7317   8.0216

          k = 0.1790 0.3580 0.0000 (  8103 PWs)   bands (ev):

   -40.1757 -40.1047 -40.0966 -39.9778 -39.8959 -39.8953 -39.7979 -39.7979
   -39.6024 -39.6024 -39.4076 -39.2010  -1.9055  -1.6559   2.6389   3.0978
     3.3926   3.7610   3.7762   4.7555   5.2498   6.0859   6.3400   6.6713
     7.1877   7.6793

          k = 0.1790 0.3580 0.0613 (  8101 PWs)   bands (ev):

   -40.1756 -40.1047 -40.0965 -39.9779 -39.8959 -39.8952 -39.7979 -39.7978
   -39.6025 -39.6024 -39.4075 -39.2010  -1.9055  -1.6559   2.6389   3.1060
     3.4110   3.5575   4.0806   4.5049   5.3929   6.1123   6.3076   6.7641
     7.1488   7.4058

          k = 0.1790 0.4475 0.0000 (  8102 PWs)   bands (ev):

   -40.1093 -40.0567 -40.0476 -40.0359 -39.9434 -39.9425 -39.7323 -39.7322
   -39.6652 -39.6651 -39.3378 -39.2670  -1.1385  -0.9676   1.6207   1.8981
     3.8425   4.1343   4.3529   4.9164   5.2805   5.6837   6.0201   6.5416
     6.9377   7.3129

          k = 0.1790 0.4475 0.0613 (  8106 PWs)   bands (ev):

   -40.1093 -40.0567 -40.0475 -40.0359 -39.9434 -39.9424 -39.7322 -39.7322
   -39.6652 -39.6652 -39.3378 -39.2670  -1.1385  -0.9676   1.6207   1.8981
     3.8646   4.0684   4.3959   4.9717   5.2369   5.6959   5.9452   6.4760
     7.0314   7.6140

          k = 0.2685 0.2685 0.0000 (  8118 PWs)   bands (ev):

   -40.1972 -40.1240 -40.1154 -39.9551 -39.8759 -39.8759 -39.8192 -39.8192
   -39.5796 -39.5796 -39.4304 -39.1769  -2.0947  -1.8403   3.1034   3.5329
     3.5698   4.0887   4.7640   5.0137   5.3443   5.4187   5.5132   6.0346
     7.6473   7.6753

          k = 0.2685 0.2685 0.0613 (  8112 PWs)   bands (ev):

   -40.1971 -40.1239 -40.1154 -39.9550 -39.8758 -39.8758 -39.8192 -39.8191
   -39.5795 -39.5795 -39.4303 -39.1769  -2.0947  -1.8403   3.1529   3.3050
     3.8631   4.1060   4.3928   5.3443   5.3712   5.4188   5.5123   5.9245
     7.6476   7.6754

          k = 0.2685 0.3580 0.0000 (  8119 PWs)   bands (ev):

   -40.1492 -40.0824 -40.0762 -39.9949 -39.9104 -39.9103 -39.7728 -39.7728
   -39.6205 -39.6205 -39.3805 -39.2196  -1.3771  -1.0875   3.0334   3.3769
     3.7982   3.9877   4.0497   4.8707   5.5508   5.5730   5.8507   6.4131
     6.5188   6.9207

          k = 0.2685 0.3580 0.0613 (  8107 PWs)   bands (ev):

   -40.1491 -40.0824 -40.0762 -39.9949 -39.9104 -39.9102 -39.7728 -39.7727
   -39.6205 -39.6205 -39.3804 -39.2196  -1.3771  -1.0875   3.0334   3.3897
     3.7434   3.9090   4.2695   4.7150   5.4457   5.7350   5.8494   6.4897
     6.5352   6.9027

          k = 0.2685 0.4475 0.0000 (  8113 PWs)   bands (ev):

   -40.0966 -40.0502 -40.0415 -40.0375 -39.9432 -39.9429 -39.7211 -39.7210
   -39.6688 -39.6688 -39.3255 -39.2704  -0.6302  -0.4411   2.1303   2.4283
     3.9438   4.1717   4.5747   5.1086   5.4203   5.7078   6.0618   6.0823
     6.5231   6.5842

          k = 0.2685 0.4475 0.0613 (  8100 PWs)   bands (ev):

   -40.0966 -40.0502 -40.0415 -40.0375 -39.9432 -39.9429 -39.7210 -39.7210
   -39.6688 -39.6688 -39.3254 -39.2703  -0.6302  -0.4411   2.1303   2.4283
     3.9513   4.1545   4.5779   5.1604   5.4008   5.7859   5.8272   6.0965
     6.5124   6.8024

          k = 0.3580 0.3580 0.0000 (  8132 PWs)   bands (ev):

   -40.1168 -40.0573 -40.0534 -40.0186 -39.9285 -39.9283 -39.7419 -39.7418
   -39.6450 -39.6450 -39.3472 -39.2451  -0.6886  -0.3752   3.2199   3.5924
     4.1965   4.3202   4.3321   4.5362   4.6744   5.0804   5.8362   6.5201
     6.6219   6.6578

          k = 0.3580 0.3580 0.0613 (  8122 PWs)   bands (ev):

   -40.1167 -40.0573 -40.0533 -40.0185 -39.9284 -39.9283 -39.7418 -39.7417
   -39.6450 -39.6450 -39.3472 -39.2451  -0.6886  -0.3752   3.2199   3.5963
     4.1173   4.3322   4.4576   4.5361   4.6475   5.0204   5.8299   6.5356
     6.5526   6.6218

          k = 0.3580 0.4475 0.0000 (  8130 PWs)   bands (ev):

   -40.0821 -40.0488 -40.0368 -40.0359 -39.9434 -39.9434 -39.7081 -39.7081
   -39.6748 -39.6748 -39.3114 -39.2763   0.0143   0.2054   2.7812   3.0934
     4.0214   4.1653   4.7565   4.9136   4.9723   5.4087   5.7192   5.9028
     6.1633   6.3822

          k = 0.3580 0.4475 0.0613 (  8113 PWs)   bands (ev):

   -40.0820 -40.0489 -40.0367 -40.0359 -39.9434 -39.9433 -39.7080 -39.7080
   -39.6748 -39.6748 -39.3113 -39.2763   0.0143   0.2054   2.7812   3.0934
     4.0219   4.1641   4.7489   4.9370   4.9688   5.3897   5.7150   5.8920
     6.1940   6.4038

          k = 0.4475 0.4475 0.0000 (  8142 PWs)   bands (ev):

   -40.0679 -40.0561 -40.0334 -40.0328 -39.9438 -39.9436 -39.6951 -39.6950
   -39.6837 -39.6837 -39.2974 -39.2853   0.6224   0.7274   3.3596   3.6640
     3.8216   4.0658   4.0842   4.2734   5.3904   5.6355   5.7092   5.9573
     5.9866   6.0629

          k = 0.4475 0.4475 0.0613 (  8145 PWs)   bands (ev):

   -40.0678 -40.0561 -40.0334 -40.0328 -39.9437 -39.9437 -39.6951 -39.6950
   -39.6837 -39.6837 -39.2974 -39.2854   0.6224   0.7274   3.3595   3.6639
     3.8216   4.0661   4.0841   4.2734   5.4086   5.5509   5.7895   5.9644
     5.9871   6.0597

     the Fermi energy is     5.9346 ev

!    total energy              =    -188.95112798 Ry
     estimated scf accuracy    <          1.6E-09 Ry
     smearing contrib. (-TS)   =      -0.00106111 Ry
     internal energy E=F+TS    =    -188.95006687 Ry

     The total energy is F=E-TS. E is the sum of the following terms:
     one-electron contribution =     -83.12493234 Ry
     hartree contribution      =      38.89883514 Ry
     xc contribution           =     -48.33485086 Ry
     ewald contribution        =     -96.38911881 Ry

     convergence has been achieved in  11 iterations

     Forces acting on atoms (cartesian axes, Ry/au):

     atom    1 type  1   force =     0.00000000    0.00000000    0.05012724
     atom    2 type  1   force =     0.00000000    0.00000000    0.05012724
     atom    3 type  1   force =     0.00000000    0.00000000   -0.05012724
     atom    4 type  1   force =     0.00000000    0.00000000   -0.05012724
     atom    5 type  1   force =     0.00000000    0.00000000    0.00000000
     atom    6 type  1   force =     0.00000000    0.00000000    0.00000000
     atom    7 type  1   force =     0.00000000    0.00000000    0.00000000
     atom    8 type  1   force =     0.00000000    0.00000000    0.00000000
     atom    9 type  1   force =     0.00000000    0.00000000    0.01416754
     atom   10 type  1   force =     0.00000000    0.00000000   -0.01416754
     atom   11 type  1   force =     0.00000000    0.00000000    0.00185261
     atom   12 type  1   force =     0.00000000    0.00000000   -0.00185261
     atom   13 type  2   force =     0.00000000    0.00000000   -0.03310492
     atom   14 type  2   force =     0.00000000    0.00000000    0.03310492

     Total force =     0.112477     Total SCF correction =     0.000087


     Computing stress (Cartesian axis) and pressure

          total   stress  (Ry/bohr**3)                   (kbar)     P=      438.99
   0.00296711   0.00000000   0.00000000          436.48        0.00        0.00
   0.00000000   0.00296711   0.00000000            0.00      436.48        0.00
   0.00000000   0.00000000   0.00301844            0.00        0.00      444.03

     Energy error            =      4.7E-02 Ry
     Gradient error          =      5.0E-02 Ry/Bohr
     Cell gradient error     =      6.4E+01 kbar

     number of scf cycles    =   3
     number of bfgs steps    =   2

     enthalpy           old  =    -185.8857711482 Ry
     enthalpy           new  =    -185.9327673513 Ry

     CASE: enthalpy          _new < enthalpy          _old

     new trust radius        =       0.1853163672 bohr
ibrav =      6
 celldm(1) =      5.45239529
 celldm(3) =      5.44481081
Input lattice vectors:
     1.00808995     0.00000000     0.00000000
     0.00000000     1.00808995     0.00000000
     0.00000000     0.00000000     5.48885905
New lattice vectors in INITIAL alat:
     1.00808995     0.00000000     0.00000000
     0.00000000     1.00808995     0.00000000
     0.00000000     0.00000000     5.48885905
New lattice vectors in NEW alat (for information only):
     1.00000000     0.00000000     0.00000000
     0.00000000     1.00000000     0.00000000
     0.00000000     0.00000000     5.44481081
Discrepancy in bohr =     0.000000    0.000000    0.000000
     new conv_thr            =       0.0000000050 Ry

     new unit-cell volume =    882.56113 a.u.^3 (   130.78207 Ang^3 )
     density =      1.77076 g/cm^3

CELL_PARAMETERS (alat=  5.40863967)
   1.008089949   0.000000000   0.000000000
   0.000000000   1.008089949   0.000000000
   0.000000000   0.000000000   5.488859052

ATOMIC_POSITIONS (crystal)
Li               0.0000000000        0.0000000000        0.2182719795
Li               0.5000000000        0.5000000000        0.2182719795
Li               0.5000000000        0.5000000000        0.7817280205
Li               0.0000000000        0.0000000000        0.7817280205
Li               0.0000000000        0.0000000000       -0.0000000000
Li               0.5000000000        0.5000000000        0.0000000000
Li               0.0000000000        0.0000000000        0.5000000000
Li               0.5000000000        0.5000000000        0.5000000000
Li               0.0000000000        0.5000000000        0.3513160279
Li               0.5000000000        0.0000000000        0.6486839721
Li               0.0000000000        0.5000000000        0.6428340843
Li               0.5000000000        0.0000000000        0.3571659157
Si               0.0000000000        0.5000000000        0.8919252598
Si               0.5000000000        0.0000000000        0.1080747402



     Writing config-only to output data dir ./output/LiSi.save/ :
     XML data file
     NEW-OLD atomic charge density approx. for the potential

     total cpu time spent up to now is       55.2 secs

     per-process dynamical memory:    45.5 Mb

     Self-consistent Calculation

     iteration #  1     ecut=    70.00 Ry     beta= 0.70
     Davidson diagonalization with overlap
     c_bands:  1 eigenvalues not converged
     ethr =  1.00E-06,  avg # of iterations =  9.8

     total cpu time spent up to now is       58.4 secs

     total energy              =    -188.74415257 Ry
     estimated scf accuracy    <       0.27620082 Ry

     iteration #  2     ecut=    70.00 Ry     beta= 0.70
     Davidson diagonalization with overlap
     ethr =  6.28E-04,  avg # of iterations =  7.7

     total cpu time spent up to now is       60.2 secs

     total energy              =    -186.61339478 Ry
     estimated scf accuracy    <      66.79440294 Ry

     iteration #  3     ecut=    70.00 Ry     beta= 0.70
     Davidson diagonalization with overlap
     ethr =  6.28E-04,  avg # of iterations =  8.3

     total cpu time spent up to now is       62.0 secs

     total energy              =    -188.92283723 Ry
     estimated scf accuracy    <       0.53681476 Ry

     iteration #  4     ecut=    70.00 Ry     beta= 0.70
     Davidson diagonalization with overlap
     ethr =  6.28E-04,  avg # of iterations =  2.1

     total cpu time spent up to now is       63.0 secs

     total energy              =    -188.96983968 Ry
     estimated scf accuracy    <       0.03679844 Ry

     iteration #  5     ecut=    70.00 Ry     beta= 0.70
     Davidson diagonalization with overlap
     ethr =  8.36E-05,  avg # of iterations =  3.1

     total cpu time spent up to now is       64.1 secs

     total energy              =    -188.97169580 Ry
     estimated scf accuracy    <       0.00365392 Ry

     iteration #  6     ecut=    70.00 Ry     beta= 0.70
     Davidson diagonalization with overlap
     ethr =  8.30E-06,  avg # of iterations =  3.7

     total cpu time spent up to now is       65.2 secs

     total energy              =    -188.97187499 Ry
     estimated scf accuracy    <       0.00035443 Ry

     iteration #  7     ecut=    70.00 Ry     beta= 0.70
     Davidson diagonalization with overlap
     ethr =  8.06E-07,  avg # of iterations =  4.4

     total cpu time spent up to now is       66.4 secs

     total energy              =    -188.97203452 Ry
     estimated scf accuracy    <       0.00019761 Ry

     iteration #  8     ecut=    70.00 Ry     beta= 0.70
     Davidson diagonalization with overlap
     ethr =  4.49E-07,  avg # of iterations =  1.7

     total cpu time spent up to now is       67.5 secs

     total energy              =    -188.97205022 Ry
     estimated scf accuracy    <       0.00000261 Ry

     iteration #  9     ecut=    70.00 Ry     beta= 0.70
     Davidson diagonalization with overlap
     ethr =  5.92E-09,  avg # of iterations =  3.9

     total cpu time spent up to now is       68.8 secs

     total energy              =    -188.97205078 Ry
     estimated scf accuracy    <       0.00000119 Ry

     iteration # 10     ecut=    70.00 Ry     beta= 0.70
     Davidson diagonalization with overlap
     ethr =  2.71E-09,  avg # of iterations =  2.3

     total cpu time spent up to now is       69.8 secs

     total energy              =    -188.97205092 Ry
     estimated scf accuracy    <       0.00000003 Ry

     iteration # 11     ecut=    70.00 Ry     beta= 0.70
     Davidson diagonalization with overlap
     ethr =  7.17E-11,  avg # of iterations =  3.7

     total cpu time spent up to now is       71.0 secs

     End of self-consistent calculation

          k = 0.0000 0.0000 0.0000 (  8051 PWs)   bands (ev):

   -40.3154 -40.1716 -40.1624 -39.9378 -39.9377 -39.7466 -39.7306 -39.5829
   -39.5826 -39.3500 -39.3499 -39.1324  -4.1579  -4.1071   1.9730   2.3242
     2.3678   3.1763   3.2774   3.9384   9.3465   9.3465  10.3971  10.3971
    10.9885  12.6068

          k = 0.0000 0.0000 0.0607 (  8063 PWs)   bands (ev):

   -40.3154 -40.1715 -40.1624 -39.9378 -39.9376 -39.7465 -39.7307 -39.5829
   -39.5828 -39.3502 -39.3500 -39.1325  -4.1579  -4.1071   1.9945   2.1823
     2.5912   2.8911   3.5333   3.8631   9.3468   9.3468  10.3935  10.3935
    11.1769  11.8702

          k = 0.0000 0.0902 0.0000 (  8097 PWs)   bands (ev):

   -40.3027 -40.1591 -40.1502 -39.9254 -39.9252 -39.7416 -39.7333 -39.5936
   -39.5934 -39.3613 -39.3613 -39.1440  -4.0368  -3.9763   2.0468   2.4048
     2.4411   3.2830   3.3863   4.0640   8.0745   8.9104   9.4727  10.5185
    10.9744  11.0354

          k = 0.0000 0.0902 0.0607 (  8099 PWs)   bands (ev):

   -40.3027 -40.1591 -40.1503 -39.9253 -39.9253 -39.7416 -39.7333 -39.5936
   -39.5934 -39.3613 -39.3613 -39.1440  -4.0368  -3.9763   2.0706   2.2524
     2.6758   2.9861   3.6584   3.9805   8.0743   8.9101   9.4730  10.5150
    11.0777  11.2011

          k = 0.0000 0.1804 0.0000 (  8093 PWs)   bands (ev):

   -40.2657 -40.1227 -40.1148 -39.8890 -39.8888 -39.7735 -39.6947 -39.6248
   -39.6247 -39.3941 -39.3941 -39.1778  -3.6764  -3.5879   2.2685   2.6466
     2.6619   3.5914   3.7112   4.4351   6.0445   6.7480   9.3661   9.8470
     9.9706  10.1194

          k = 0.0000 0.1804 0.0607 (  8105 PWs)   bands (ev):

   -40.2657 -40.1227 -40.1149 -39.8890 -39.8889 -39.7736 -39.6947 -39.6249
   -39.6247 -39.3942 -39.3941 -39.1779  -3.6764  -3.5879   2.2997   2.4638
     2.9287   3.2670   4.0238   4.3287   6.0440   6.7480   9.4336   9.6849
     9.8473  10.5136

          k = 0.0000 0.2705 0.0000 (  8108 PWs)   bands (ev):

   -40.2080 -40.0664 -40.0600 -39.8322 -39.8320 -39.8246 -39.6743 -39.6741
   -39.6344 -39.4464 -39.4464 -39.2319  -3.0888  -2.9576   2.6365   3.0318
     3.0476   3.9649   4.1765   4.2440   4.7036   5.0670   7.7582   8.3067
     8.6255  10.2361

          k = 0.0000 0.2705 0.0607 (  8119 PWs)   bands (ev):

   -40.2081 -40.0665 -40.0600 -39.8323 -39.8321 -39.8246 -39.6744 -39.6741
   -39.6344 -39.4465 -39.4464 -39.2320  -3.0888  -2.9576   2.6794   2.8203
     3.3420   3.7100   4.0702   4.6030   4.7046   4.9377   7.7922   8.1381
     8.9386   9.5189

          k = 0.0000 0.3607 0.0000 (  8118 PWs)   bands (ev):

   -40.1350 -39.9967 -39.9917 -39.8914 -39.7627 -39.7626 -39.7351 -39.7346
   -39.5580 -39.5145 -39.5145 -39.3025  -2.3105  -2.1364   2.3951   2.8200
     3.1889   3.5913   3.5986   4.5721   4.9813   5.7979   6.3693   6.8558
     7.5864   8.8124

          k = 0.0000 0.3607 0.0607 (  8129 PWs)   bands (ev):

[...]

     total energy              =    -188.84903284 Ry
     estimated scf accuracy    <       0.00069572 Ry

     iteration # 11     ecut=    70.00 Ry     beta= 0.70
     Davidson diagonalization with overlap
     ethr =  1.58E-06,  avg # of iterations =  1.3

     total cpu time spent up to now is      339.6 secs

     total energy              =    -188.84899443 Ry
     estimated scf accuracy    <       0.00048704 Ry

     iteration # 12     ecut=    70.00 Ry     beta= 0.70
     Davidson diagonalization with overlap
     ethr =  1.11E-06,  avg # of iterations =  2.3

     total cpu time spent up to now is      340.6 secs

     total energy              =    -188.84902042 Ry
     estimated scf accuracy    <       0.00000072 Ry

     iteration # 13     ecut=    70.00 Ry     beta= 0.70
     Davidson diagonalization with overlap
     ethr =  1.64E-09,  avg # of iterations =  5.2

     total cpu time spent up to now is      342.0 secs

     total energy              =    -188.84902149 Ry
     estimated scf accuracy    <       0.00000140 Ry

     iteration # 14     ecut=    70.00 Ry     beta= 0.70
     Davidson diagonalization with overlap
     ethr =  1.64E-09,  avg # of iterations =  1.4

     total cpu time spent up to now is      342.9 secs

     total energy              =    -188.84902152 Ry
     estimated scf accuracy    <       0.00000007 Ry

     iteration # 15     ecut=    70.00 Ry     beta= 0.70
     Davidson diagonalization with overlap
     ethr =  1.58E-10,  avg # of iterations =  3.0

     total cpu time spent up to now is      344.0 secs

     total energy              =    -188.84902153 Ry
     estimated scf accuracy    <       0.00000002 Ry

     iteration # 16     ecut=    70.00 Ry     beta= 0.70
     Davidson diagonalization with overlap
     ethr =  4.10E-11,  avg # of iterations =  1.3

     total cpu time spent up to now is      345.0 secs

     total energy              =    -188.84902153 Ry
     estimated scf accuracy    <          6.5E-09 Ry

     iteration # 17     ecut=    70.00 Ry     beta= 0.70
     Davidson diagonalization with overlap
     ethr =  1.48E-11,  avg # of iterations =  1.6

     total cpu time spent up to now is      345.9 secs

     total energy              =    -188.84902153 Ry
     estimated scf accuracy    <          4.2E-10 Ry

     iteration # 18     ecut=    70.00 Ry     beta= 0.70
     Davidson diagonalization with overlap
     ethr =  9.56E-13,  avg # of iterations =  3.0

     total cpu time spent up to now is      347.0 secs

     End of self-consistent calculation

          k = 0.0000 0.0000 0.0000 (  7985 PWs)   bands (ev):

   -39.6117 -39.5386 -39.5207 -39.4777 -39.2598 -39.2122 -38.8784 -38.7630
   -38.7629 -38.7216 -38.7146 -38.7074  -3.8535  -3.8480   2.5563   2.9633
     2.9638   3.5432   4.0577   4.6943  10.7259  10.7259  11.3450  11.5760
    11.5760  13.4695

          k = 0.0000 0.0000 0.0621 (  7977 PWs)   bands (ev):

   -39.6117 -39.5387 -39.5207 -39.4777 -39.2598 -39.2122 -38.8784 -38.7630
   -38.7629 -38.7216 -38.7145 -38.7074  -3.8535  -3.8480   2.5630   2.8457
     3.1517   3.4115   4.1488   4.6558  10.7275  10.7275  11.5061  11.5618
    11.5618  12.3956

          k = 0.0000 0.0926 0.0000 (  8026 PWs)   bands (ev):

   -39.5959 -39.5216 -39.5044 -39.4620 -39.2478 -39.2012 -38.8921 -38.7766
   -38.7766 -38.7356 -38.7243 -38.7177  -3.7156  -3.7125   2.6277   3.0353
     3.0414   3.6456   4.1584   4.8262   9.2550   9.8911  10.8605  11.4050
    11.7074  11.7906

          k = 0.0000 0.0926 0.0621 (  8016 PWs)   bands (ev):

   -39.5959 -39.5216 -39.5044 -39.4619 -39.2478 -39.2012 -38.8921 -38.7766
   -38.7766 -38.7356 -38.7243 -38.7177  -3.7156  -3.7125   2.6354   2.9149
     3.2356   3.5040   4.2583   4.7842   9.2537   9.8952  10.8620  11.5683
    11.6939  11.8705

          k = 0.0000 0.1852 0.0000 (  8048 PWs)   bands (ev):

   -39.5498 -39.4721 -39.4568 -39.4159 -39.2131 -39.1693 -38.9324 -38.8173
   -38.8172 -38.7780 -38.7514 -38.7477  -3.3212  -3.2931   2.8413   3.2533
     3.2739   3.9466   4.4579   5.2147   7.0349   7.6018  10.0981  10.7049
    10.8248  11.4588

          k = 0.0000 0.1852 0.0621 (  8046 PWs)   bands (ev):

   -39.5498 -39.4721 -39.4568 -39.4159 -39.2131 -39.1692 -38.9324 -38.8173
   -38.8172 -38.7780 -38.7514 -38.7477  -3.3211  -3.2931   2.8515   3.1247
     3.4841   3.7789   4.5821   5.1628   7.0336   7.6028  10.1528  10.4779
    11.0714  11.2615

          k = 0.0000 0.2778 0.0000 (  8082 PWs)   bands (ev):

   -39.4778 -39.3946 -39.3824 -39.3439 -39.1594 -39.1199 -38.9969 -38.8833
   -38.8826 -38.8455 -38.7951 -38.7939  -2.6761  -2.6085   3.1941   3.6237
     3.6555   4.4099   4.9321   4.9427   5.4198   5.8272   8.5209   9.0990
     9.2607  10.7410

          k = 0.0000 0.2778 0.0621 (  8086 PWs)   bands (ev):

   -39.4778 -39.3946 -39.3824 -39.3439 -39.1594 -39.1199 -38.9969 -38.8832
   -38.8826 -38.8455 -38.7951 -38.7939  -2.6761  -2.6085   3.2072   3.4824
     3.8853   4.2192   4.9089   5.1157   5.4197   5.7607   8.5410   8.9160
     9.5842  10.1821

          k = 0.0000 0.3704 0.0000 (  8118 PWs)   bands (ev):

   -39.3865 -39.2968 -39.2883 -39.2526 -39.0941 -39.0813 -39.0596 -38.9705
   -38.9669 -38.9308 -38.8565 -38.8493  -1.8146  -1.7017   3.0850   3.4070
     3.7443   4.1636   4.1754   4.9457   5.5510   6.2668   7.5240   7.7381
     8.1855   9.3382

          k = 0.0000 0.3704 0.0621 (  8106 PWs)   bands (ev):

   -39.3865 -39.2968 -39.2883 -39.2526 -39.0941 -39.0813 -39.0596 -38.9705
   -38.9669 -38.9308 -38.8565 -38.8494  -1.8146  -1.7017   3.0850   3.4073
     3.7618   4.0024   4.4102   4.7881   5.6346   6.2686   7.4516   7.8045
     8.2868   8.7787

          k = 0.0000 0.4631 0.0000 (  8096 PWs)   bands (ev):

   -39.2841 -39.1882 -39.1839 -39.1795 -39.1511 -39.0754 -39.0747 -39.0586
   -38.9889 -38.9829 -38.9265 -38.9140  -0.8946  -0.7927   1.7567   1.9444
     4.2858   4.6096   4.8342   5.3068   5.6296   5.7909   7.2065   7.4855
     8.0673   8.2596

          k = 0.0000 0.4631 0.0621 (  8110 PWs)   bands (ev):

   -39.2841 -39.1882 -39.1839 -39.1795 -39.1511 -39.0755 -39.0748 -39.0586
   -38.9890 -38.9829 -38.9265 -38.9140  -0.8946  -0.7927   1.7567   1.9444
     4.2942   4.5750   4.8587   5.3480   5.6243   5.7419   7.2340   7.5051
     7.8777   8.3968

          k = 0.0926 0.0926 0.0000 (  8018 PWs)   bands (ev):

   -39.5806 -39.5051 -39.4885 -39.4466 -39.2362 -39.1906 -38.9052 -38.7896
   -38.7895 -38.7480 -38.7346 -38.7276  -3.5835  -3.5719   2.6975   3.1060
     3.1179   3.7465   4.2583   4.9587   9.1838   9.5301   9.8840  10.0081
    11.6058  11.6487

          k = 0.0926 0.0926 0.0621 (  8025 PWs)   bands (ev):

   -39.5806 -39.5051 -39.4885 -39.4466 -39.2362 -39.1906 -38.9052 -38.7896
   -38.7895 -38.7480 -38.7346 -38.7276  -3.5835  -3.5719   2.7060   2.9830
     3.3177   3.5952   4.3673   4.9128   9.1807   9.5304   9.8835  10.0239
    11.6560  11.7997

          k = 0.0926 0.1852 0.0000 (  8055 PWs)   bands (ev):

   -39.5361 -39.4571 -39.4425 -39.4021 -39.2028 -39.1600 -38.9436 -38.8282
   -38.8281 -38.7876 -38.7616 -38.7564  -3.1901  -3.1533   2.9058   3.3212
     3.3453   4.0419   4.5552   5.3481   7.1179   7.6900   9.6326   9.9307
    10.0873  10.5995

          k = 0.0926 0.1852 0.0621 (  8055 PWs)   bands (ev):

   -39.5361 -39.4571 -39.4425 -39.4021 -39.2028 -39.1600 -38.9436 -38.8281
   -38.8281 -38.7876 -38.7616 -38.7564  -3.1901  -3.1533   2.9167   3.1897
     3.5611   3.8651   4.6888   5.2919   7.1161   7.6914   9.6302   9.9178
    10.1953  10.4245

          k = 0.0926 0.2778 0.0000 (  8104 PWs)   bands (ev):

   -39.4667 -39.3822 -39.3706 -39.3326 -39.1511 -39.1128 -39.0052 -38.8909
   -38.8904 -38.8522 -38.8023 -38.8019  -2.5469  -2.4702   3.2502   3.6861
     3.7188   4.4924   5.0303   5.0342   5.5297   5.9621   8.5267   8.9675
     9.1623   9.8196

          k = 0.0926 0.2778 0.0621 (  8089 PWs)   bands (ev):

   -39.4667 -39.3822 -39.3706 -39.3325 -39.1511 -39.1128 -39.0052 -38.8908
   -38.8904 -38.8522 -38.8023 -38.8019  -2.5469  -2.4702   3.2635   3.5427
     3.9527   4.2957   5.0039   5.2186   5.5295   5.8900   8.5353   8.8676
     9.3455   9.6862

          k = 0.0926 0.3704 0.0000 (  8101 PWs)   bands (ev):

   -39.3787 -39.2876 -39.2798 -39.2444 -39.0884 -39.0859 -39.0552 -38.9739
   -38.9709 -38.9344 -38.8607 -38.8550  -1.6880  -1.5661   3.1939   3.5066
     3.8095   4.2204   4.2267   5.0066   5.6322   6.3676   7.5485   7.7068
     8.2021   9.1279

          k = 0.0926 0.3704 0.0621 (  8097 PWs)   bands (ev):

   -39.3788 -39.2876 -39.2798 -39.2444 -39.0884 -39.0859 -39.0552 -38.9739
   -38.9709 -38.9343 -38.8607 -38.8551  -1.6880  -1.5661   3.1938   3.5073
     3.8266   4.0569   4.4627   4.8506   5.7140   6.3737   7.4698   7.8090
     8.2361   8.6787

          k = 0.0926 0.4631 0.0000 (  8109 PWs)   bands (ev):

   -39.2803 -39.1829 -39.1800 -39.1791 -39.1463 -39.0747 -39.0741 -39.0559
   -38.9889 -38.9824 -38.9278 -38.9165  -0.7702  -0.6626   1.8760   2.0696
     4.3166   4.6352   4.8834   5.3574   5.6847   5.8515   7.2048   7.5045
     8.0278   8.2366

          k = 0.0926 0.4631 0.0621 (  8101 PWs)   bands (ev):

   -39.2803 -39.1829 -39.1800 -39.1791 -39.1463 -39.0747 -39.0741 -39.0559
   -38.9889 -38.9824 -38.9278 -38.9165  -0.7702  -0.6626   1.8760   2.0696
     4.3239   4.6064   4.9016   5.4010   5.6791   5.8021   7.2229   7.4957
     7.9002   8.4797

          k = 0.1852 0.1852 0.0000 (  8068 PWs)   bands (ev):

   -39.4963 -39.4136 -39.4010 -39.3621 -39.1730 -39.1334 -38.9767 -38.8607
   -38.8607 -38.8186 -38.7885 -38.7818  -2.8000  -2.7373   3.0989   3.5270
     3.5582   4.3175   4.8427   5.7368   7.0970   7.7548   7.8108   8.0394
     9.7514  10.0256

          k = 0.1852 0.1852 0.0621 (  8074 PWs)   bands (ev):

   -39.4964 -39.4136 -39.4010 -39.3621 -39.1730 -39.1334 -38.9767 -38.8607
   -38.8607 -38.8185 -38.7885 -38.7818  -2.8000  -2.7373   3.1113   3.3877
     3.7880   4.1188   4.9995   5.6703   7.0905   7.7548   7.8108   8.0468
     9.7542  10.0191

          k = 0.1852 0.2778 0.0000 (  8101 PWs)   bands (ev):

   -39.4345 -39.3460 -39.3365 -39.2997 -39.1272 -39.0923 -39.0297 -38.9140
   -38.9139 -38.8729 -38.8257 -38.8216  -2.1625  -2.0592   3.4180   3.8749
     3.9069   4.7248   5.3013   5.3019   5.8428   6.3540   7.8715   8.0768
     8.5548   8.8917

          k = 0.1852 0.2778 0.0621 (  8089 PWs)   bands (ev):

   -39.4345 -39.3460 -39.3365 -39.2996 -39.1272 -39.0923 -39.0297 -38.9140
   -38.9139 -38.8729 -38.8257 -38.8216  -2.1625  -2.0592   3.4309   3.7266
     4.1495   4.5179   5.2643   5.5140   5.8423   6.2666   7.8677   8.0754
     8.6109   8.7793

          k = 0.1852 0.3704 0.0000 (  8120 PWs)   bands (ev):

   -39.3565 -39.2613 -39.2553 -39.2206 -39.0996 -39.0720 -39.0428 -38.9852
   -38.9833 -38.9452 -38.8731 -38.8714  -1.3119  -1.1638   3.5113   3.7455
     4.0522   4.3747   4.3939   5.1723   5.8618   6.6395   7.5352   7.5695
     8.1572   8.3367

          k = 0.1852 0.3704 0.0621 (  8111 PWs)   bands (ev):

   -39.3565 -39.2613 -39.2553 -39.2206 -39.0996 -39.0720 -39.0428 -38.9852
   -38.9833 -38.9452 -38.8731 -38.8714  -1.3119  -1.1638   3.5112   3.7483
     4.0676   4.2227   4.6105   5.0300   5.9301   6.6609   7.4851   7.7200
     7.9915   8.2152

          k = 0.1852 0.4631 0.0000 (  8115 PWs)   bands (ev):

   -39.2697 -39.1816 -39.1682 -39.1656 -39.1324 -39.0732 -39.0729 -39.0486
   -38.9886 -38.9810 -38.9319 -38.9239  -0.4019  -0.2778   2.2290   2.4393
     4.4035   4.7001   5.0314   5.5037   5.8434   6.0181   7.1680   7.5412
     7.7723   8.0683

          k = 0.1852 0.4631 0.0621 (  8112 PWs)   bands (ev):

   -39.2697 -39.1816 -39.1681 -39.1656 -39.1324 -39.0733 -39.0729 -39.0486
   -38.9886 -38.9810 -38.9319 -38.9239  -0.4019  -0.2778   2.2290   2.4393
     4.4079   4.6853   5.0349   5.5524   5.8371   5.9708   7.1554   7.4031
     7.9078   8.4552

          k = 0.2778 0.2778 0.0000 (  8068 PWs)   bands (ev):

   -39.3847 -39.2904 -39.2837 -39.2484 -39.0906 -39.0694 -39.0610 -38.9529
   -38.9529 -38.9100 -38.8587 -38.8526  -1.5352  -1.3905   3.6925   4.1936
     4.2083   5.0375   5.4259   5.7144   6.1821   6.2820   6.4298   6.9362
     8.4037   8.5498

          k = 0.2778 0.2778 0.0621 (  8087 PWs)   bands (ev):

   -39.3847 -39.2904 -39.2837 -39.2484 -39.0906 -39.0694 -39.0610 -38.9529
   -38.9529 -38.9101 -38.8587 -38.8527  -1.5352  -1.3905   3.7028   4.0406
     4.4522   4.8584   5.3780   5.9195   6.1821   6.2820   6.4246   6.8458
     8.4096   8.5127

          k = 0.2778 0.3704 0.0000 (  8096 PWs)   bands (ev):

   -39.3225 -39.2215 -39.2179 -39.1836 -39.1224 -39.0469 -39.0246 -39.0058
   -39.0043 -38.9639 -38.8958 -38.8928  -0.6999  -0.5118   3.9924   4.0039
     4.5298   4.5951   4.7070   5.3980   6.1872   6.4956   6.7137   6.9937
     7.6459   7.9125

          k = 0.2778 0.3704 0.0621 (  8111 PWs)   bands (ev):

   -39.3225 -39.2214 -39.2179 -39.1836 -39.1224 -39.0469 -39.0246 -39.0058
   -39.0043 -38.9640 -38.8958 -38.8928  -0.6999  -0.5118   3.9922   4.0068
     4.4844   4.5744   4.8276   5.3032   6.1952   6.5257   6.7107   7.0464
     7.6936   7.8953

          k = 0.2778 0.4631 0.0000 (  8113 PWs)   bands (ev):

   -39.2540 -39.1854 -39.1470 -39.1459 -39.1112 -39.0730 -39.0729 -39.0400
   -38.9872 -38.9790 -38.9388 -38.9356   0.1929   0.3407   2.7985   3.0300
     4.5294   4.7714   5.2826   5.7300   6.0897   6.2302   6.8821   6.9088
     7.5228   7.5680

          k = 0.2778 0.4631 0.0621 (  8122 PWs)   bands (ev):

   -39.2540 -39.1854 -39.1470 -39.1459 -39.1112 -39.0730 -39.0729 -39.0400
   -38.9872 -38.9790 -38.9388 -38.9356   0.1929   0.3407   2.7985   3.0300
     4.5304   4.7682   5.2757   5.7786   6.0796   6.2068   6.7845   6.8942
     7.5999   7.7409

          k = 0.3704 0.3704 0.0000 (  8110 PWs)   bands (ev):

   -39.2808 -39.1736 -39.1722 -39.1538 -39.1371 -39.0369 -39.0369 -39.0161
   -39.0003 -38.9934 -38.9233 -38.9185   0.1100   0.3363   4.2471   4.2898
     4.8096   5.0527   5.0797   5.2647   5.4557   5.6716   6.5002   7.1802
     7.4634   7.5245

          k = 0.3704 0.3704 0.0621 (  8104 PWs)   bands (ev):

   -39.2808 -39.1736 -39.1721 -39.1538 -39.1371 -39.0369 -39.0369 -39.0161
   -39.0003 -38.9934 -38.9233 -38.9185   0.1100   0.3363   4.2474   4.2898
     4.7899   5.0797   5.1078   5.2646   5.4035   5.6865   6.4692   7.1907
     7.4638   7.5980

          k = 0.3704 0.4631 0.0000 (  8116 PWs)   bands (ev):

   -39.2360 -39.1925 -39.1238 -39.1235 -39.0858 -39.0767 -39.0767 -39.0358
   -38.9827 -38.9763 -38.9496 -38.9484   0.9666   1.1316   3.5337   3.7715
     4.6547   4.8034   5.5900   5.6467   5.7972   6.0454   6.4147   6.4872
     7.1465   7.3121

          k = 0.3704 0.4631 0.0621 (  8111 PWs)   bands (ev):

   -39.2360 -39.1925 -39.1238 -39.1235 -39.0858 -39.0767 -39.0767 -39.0358
   -38.9827 -38.9763 -38.9496 -38.9484   0.9666   1.1316   3.5337   3.7715
     4.6543   4.8037   5.5758   5.6672   5.7982   6.0446   6.4209   6.4561
     7.1607   7.3484

          k = 0.4631 0.4631 0.0000 (  8100 PWs)   bands (ev):

   -39.2184 -39.2035 -39.1026 -39.1026 -39.0864 -39.0864 -39.0607 -39.0424
   -38.9739 -38.9723 -38.9618 -38.9597   1.7427   1.8504   4.1701   4.3961
     4.5250   4.7424   4.7484   4.9942   6.1324   6.2836   6.3823   6.6570
     6.8609   6.9291

          k = 0.4631 0.4631 0.0621 (  8113 PWs)   bands (ev):

   -39.2185 -39.2035 -39.1026 -39.1026 -39.0864 -39.0864 -39.0607 -39.0425
   -38.9739 -38.9723 -38.9618 -38.9597   1.7428   1.8504   4.1700   4.3958
     4.5251   4.7428   4.7483   4.9944   6.1402   6.2332   6.4526   6.6359
     6.8617   6.9287

     the Fermi energy is     6.8209 ev

!    total energy              =    -188.84902153 Ry
     estimated scf accuracy    <          6.1E-11 Ry
     smearing contrib. (-TS)   =       0.00106774 Ry
     internal energy E=F+TS    =    -188.85008927 Ry

     The total energy is F=E-TS. E is the sum of the following terms:
     one-electron contribution =     -76.35911031 Ry
     hartree contribution      =      36.73423787 Ry
     xc contribution           =     -48.52594918 Ry
     ewald contribution        =    -100.69926766 Ry

     convergence has been achieved in  18 iterations

     Forces acting on atoms (cartesian axes, Ry/au):

     atom    1 type  1   force =     0.00000000    0.00000000    0.00006266
     atom    2 type  1   force =     0.00000000    0.00000000    0.00006266
     atom    3 type  1   force =     0.00000000    0.00000000   -0.00006266
     atom    4 type  1   force =     0.00000000    0.00000000   -0.00006266
     atom    5 type  1   force =     0.00000000    0.00000000    0.00000000
     atom    6 type  1   force =     0.00000000    0.00000000    0.00000000
     atom    7 type  1   force =     0.00000000    0.00000000    0.00000000
     atom    8 type  1   force =     0.00000000    0.00000000    0.00000000
     atom    9 type  1   force =     0.00000000    0.00000000   -0.00002635
     atom   10 type  1   force =     0.00000000    0.00000000    0.00002635
     atom   11 type  1   force =     0.00000000    0.00000000   -0.00007389
     atom   12 type  1   force =     0.00000000    0.00000000    0.00007389
     atom   13 type  2   force =     0.00000000    0.00000000    0.00009736
     atom   14 type  2   force =     0.00000000    0.00000000   -0.00009736

     Total force =     0.000217     Total SCF correction =     0.000021


     Computing stress (Cartesian axis) and pressure

          total   stress  (Ry/bohr**3)                   (kbar)     P=      500.40
   0.00339611   0.00000000   0.00000000          499.59        0.00        0.00
   0.00000000   0.00339611   0.00000000            0.00      499.59        0.00
   0.00000000   0.00000000   0.00341269            0.00        0.00      502.02


     Writing all to output data dir ./output/LiSi.save/ :
     XML data file, charge density, pseudopotentials, collected wavefunctions

     init_run     :      1.42s CPU      1.64s WALL (       2 calls)
     electrons    :    292.62s CPU    305.22s WALL (      19 calls)
     update_pot   :      0.13s CPU      0.17s WALL (      17 calls)
     forces       :      3.60s CPU      3.71s WALL (      19 calls)
     stress       :     37.00s CPU     37.36s WALL (      19 calls)

     Called by init_run:
     wfcinit      :      0.91s CPU      0.96s WALL (       2 calls)
     potinit      :      0.03s CPU      0.03s WALL (       2 calls)
     hinit0       :      0.44s CPU      0.58s WALL (       2 calls)

     Called by electrons:
     c_bands      :    262.65s CPU    273.37s WALL (     227 calls)
     sum_band     :     28.46s CPU     29.49s WALL (     227 calls)
     v_of_rho     :      1.27s CPU      1.38s WALL (     244 calls)
     mix_rho      :      0.20s CPU      0.31s WALL (     227 calls)

     Called by c_bands:
     init_us_2    :      5.25s CPU      5.88s WALL (   20748 calls)
     cegterg      :    250.88s CPU    257.64s WALL (    9534 calls)

     Called by *egterg:
     cdiaghg      :     35.26s CPU     36.15s WALL (   48031 calls)
     h_psi        :    181.24s CPU    186.36s WALL (   48913 calls)
     g_psi        :      0.85s CPU      0.87s WALL (   39295 calls)

     Called by h_psi:
     h_psi:calbec :     24.05s CPU     24.68s WALL (   48913 calls)
     vloc_psi     :    138.23s CPU    142.35s WALL (   48913 calls)
     add_vuspsi   :     18.28s CPU     18.58s WALL (   48913 calls)

     General routines
     calbec       :     30.29s CPU     30.99s WALL (   52903 calls)
     fft          :      0.85s CPU      1.02s WALL (    2915 calls)
     ffts         :      0.04s CPU      0.04s WALL (     227 calls)
     fftw         :    148.60s CPU    152.87s WALL ( 1621458 calls)

     Parallel routines

     PWSCF        :    335.37s CPU    349.65s WALL


   This run was terminated on:  19:32:55  27Feb2025            

=------------------------------------------------------------------------------=
   JOB DONE.
=------------------------------------------------------------------------------=
