
     Program PWSCF v.7.2 starts on 30Dec2024 at  3:18:10 

     This program is part of the open-source Quantum ESPRESSO suite
     for quantum simulation of materials; please cite
         "P. Giannozzi et al., J. Phys.:Condens. Matter 21 395502 (2009);
         "P. Giannozzi et al., J. Phys.:Condens. Matter 29 465901 (2017);
         "P. Giannozzi et al., J. Chem. Phys. 152 154105 (2020);
          URL http://www.quantum-espresso.org", 
     in publications or presentations arising from this work. More details at
     http://www.quantum-espresso.org/quote

     Parallel version (MPI & OpenMP), running on       8 processor cores
     Number of MPI processes:                 8
     Threads/MPI process:                     1

     MPI processes distributed on     1 nodes
     483540 MiB available memory on the printing compute node when the environment starts

     Waiting for input...
     Reading input from standard input

     Current dimensions of program PWSCF are:
     Max number of different atomic species (ntypx) = 10
     Max number of k-points (npk) =  40000
     Max angular momentum in pseudopotentials (lmaxx) =  4

     R & G space division:  proc/nbgrp/npool/nimage =       8
     Subspace diagonalization in iterative solution of the eigenvalue problem:
     a serial algorithm will be used


     Parallelization info
     --------------------
     sticks:   dense  smooth     PW     G-vecs:    dense   smooth      PW
     Min         172     172     51                 4683     4683     776
     Max         173     173     52                 4686     4686     778
     Sum        1379    1379    415                37477    37477    6221

     Using Slab Decomposition



     bravais-lattice index     =            5
     lattice parameter (alat)  =       7.4119  a.u.
     unit-cell volume          =     388.2826 (a.u.)^3
     number of atoms/cell      =            7
     number of atomic types    =            2
     number of electrons       =        22.00
     number of Kohn-Sham states=           15
     kinetic-energy cutoff     =      80.0000  Ry
     charge density cutoff     =     320.0000  Ry
     scf convergence threshold =      1.0E-08
     mixing beta               =       0.7000
     number of iterations used =            8  plain     mixing
     energy convergence thresh.=      1.0E-04
     force convergence thresh. =      1.0E-03
     press convergence thresh. =      1.0E+00
     Exchange-correlation= PBE
                           (   1   4   3   4   0   0   0)
     nstep                     =           50


     celldm(1)=   7.411921  celldm(2)=   0.000000  celldm(3)=   0.000000
     celldm(4)=  -0.165028  celldm(5)=   0.000000  celldm(6)=   0.000000

     crystal axes: (cart. coord. in units of alat)
               a(1) = (   0.763226  -0.440649   0.472562 )  
               a(2) = (   0.000000   0.881298   0.472562 )  
               a(3) = (  -0.763226  -0.440649   0.472562 )  

     reciprocal axes: (cart. coord. in units 2 pi/alat)
               b(1) = (  0.655114 -0.378230  0.705375 )  
               b(2) = (  0.000000  0.756460  0.705375 )  
               b(3) = ( -0.655114 -0.378230  0.705375 )  


     PseudoPot. # 1 for Li read from file:
     ../pseudo/Li_ONCV_PBE_sr.upf
     MD5 check sum: 50ff420e78310ffa21704f3361e624a4
     Pseudo is Norm-conserving, Zval =  3.0
     Generated using ONCVPSP code by D. R. Hamann
     Using radial grid of 1944 points,  4 beta functions with: 
                l(1) =   0
                l(2) =   0
                l(3) =   1
                l(4) =   1

     PseudoPot. # 2 for Si read from file:
     ../pseudo/Si_ONCV_PBE_sr.upf
     MD5 check sum: e543d271109d17c80368dfa7c482276d
     Pseudo is Norm-conserving + core correction, Zval =  4.0
     Generated using ONCVPSP code by D. R. Hamann
     Using radial grid of 1510 points,  6 beta functions with: 
                l(1) =   0
                l(2) =   0
                l(3) =   1
                l(4) =   1
                l(5) =   2
                l(6) =   2

     atomic species   valence    mass     pseudopotential
        Li             3.00     6.94100     Li( 1.00)
        Si             4.00    28.08550     Si( 1.00)

      6 Sym. Ops., with inversion, found



   Cartesian axes

     site n.     atom                  positions (alat units)
         1           Li  tau(   1) = (   0.5457089  -1.0669636   0.2448721  )
         2           Li  tau(   2) = (  -1.3089350  -0.2549827   1.1728132  )
         3           Li  tau(   3) = (  -0.1120630  -0.3158667   0.2448721  )
         4           Li  tau(   4) = (  -0.6511631  -1.0060796   1.1728132  )
         5           Li  tau(   5) = (  -0.4336460  -1.2610623   0.2448721  )
         6           Li  tau(   6) = (  -0.3295801  -0.0608840   1.1728132  )
         7           Si  tau(   7) = (   0.0000000  -0.0000000   0.7088427  )

     number of k points=    40  Marzari-Vanderbilt smearing, width (Ry)=  0.0200
                       cart. coord. in units 2pi/alat
        k(    1) = (   0.0000000   0.0000000   0.0000000), wk =   0.0092593
        k(    2) = (  -0.1091856  -0.0630384   0.1175625), wk =   0.0555556
        k(    3) = (  -0.2183713  -0.1260767   0.2351251), wk =   0.0555556
        k(    4) = (   0.3275569   0.1891151  -0.3526876), wk =   0.0277778
        k(    5) = (  -0.1091856   0.0630384   0.2351251), wk =   0.0555556
        k(    6) = (  -0.2183713   0.0000000   0.3526876), wk =   0.0555556
        k(    7) = (   0.3275569   0.3151918  -0.2351251), wk =   0.0555556
        k(    8) = (   0.2183713   0.2521535  -0.1175625), wk =   0.0555556
        k(    9) = (   0.1091856   0.1891151   0.0000000), wk =   0.0555556
        k(   10) = (  -0.2183713   0.1260767   0.4702501), wk =   0.0555556
        k(   11) = (   0.3275569   0.4412685  -0.1175625), wk =   0.0555556
        k(   12) = (   0.2183713   0.3782302   0.0000000), wk =   0.0555556
        k(   13) = (   0.3275569  -0.1891151  -0.7053752), wk =   0.0277778
        k(   14) = (   0.0000000   0.0000000   0.3526876), wk =   0.0185185
        k(   15) = (  -0.1091856  -0.0630384   0.4702501), wk =   0.0555556
        k(   16) = (   0.4367426   0.2521535  -0.1175625), wk =   0.0555556
        k(   17) = (   0.3275569   0.1891151   0.0000000), wk =   0.0555556
        k(   18) = (   0.2183713   0.1260767   0.1175625), wk =   0.0555556
        k(   19) = (  -0.1091856   0.0630384   0.5878126), wk =   0.0555556
        k(   20) = (   0.4367426   0.3782302   0.0000000), wk =   0.0555556
        k(   21) = (   0.3275569   0.3151918   0.1175625), wk =   0.0555556
        k(   22) = (   0.2183713   0.2521535   0.2351251), wk =   0.0555556
        k(   23) = (   0.4367426  -0.2521535  -0.5878126), wk =   0.0555556
        k(   24) = (   0.3275569  -0.3151918  -0.4702501), wk =   0.0555556
        k(   25) = (   0.2183713  -0.3782302  -0.3526876), wk =   0.0555556
        k(   26) = (   0.3275569  -0.1891151  -0.3526876), wk =   0.0555556
        k(   27) = (   0.0000000   0.0000000   0.7053752), wk =   0.0185185
        k(   28) = (   0.5459282   0.3151918   0.1175625), wk =   0.0555556
        k(   29) = (   0.4367426   0.2521535   0.2351251), wk =   0.0555556
        k(   30) = (   0.5459282  -0.3151918  -0.4702501), wk =   0.0555556
        k(   31) = (   0.4367426  -0.3782302  -0.3526876), wk =   0.0555556
        k(   32) = (   0.0000000   0.0000000  -1.0580627), wk =   0.0092593
        k(   33) = (  -0.2183713  -0.0000000  -0.3526876), wk =   0.0555556
        k(   34) = (   0.3275569  -0.3151918   0.2351251), wk =   0.0555556
        k(   35) = (   0.2183713  -0.2521535   0.1175625), wk =   0.0555556
        k(   36) = (   0.3275569  -0.4412685   0.1175625), wk =   0.0555556
        k(   37) = (   0.4367426  -0.3782302  -0.0000000), wk =   0.0555556
        k(   38) = (   0.3275569  -0.3151918  -0.1175625), wk =   0.0555556
        k(   39) = (   0.2183713  -0.2521535  -0.2351251), wk =   0.0555556
        k(   40) = (   0.3275569   0.3151918   0.4702501), wk =   0.0555556

     Dense  grid:    37477 G-vectors     FFT dimensions: (  45,  45,  45)

     Estimated max dynamical RAM per process >      21.10 MB

     Estimated total dynamical RAM >     168.77 MB

     Initial potential from superposition of free atoms

     starting charge      21.9720, renormalised to      22.0000
     Starting wfcs are   16 randomized atomic wfcs

     total cpu time spent up to now is        1.4 secs

     Self-consistent Calculation

     iteration #  1     ecut=    80.00 Ry     beta= 0.70
     Davidson diagonalization with overlap
     ethr =  1.00E-02,  avg # of iterations =  5.8

     Threshold (ethr) on eigenvalues was too large:
     Diagonalizing with lowered threshold

     Davidson diagonalization with overlap
     ethr =  2.49E-04,  avg # of iterations =  3.4

     total cpu time spent up to now is        3.5 secs

     total energy              =     -94.53780739 Ry
     estimated scf accuracy    <       0.05242845 Ry

     iteration #  2     ecut=    80.00 Ry     beta= 0.70
     Davidson diagonalization with overlap
     ethr =  2.38E-04,  avg # of iterations =  2.1

     total cpu time spent up to now is        4.4 secs

     total energy              =     -94.54721672 Ry
     estimated scf accuracy    <       0.01522071 Ry

     iteration #  3     ecut=    80.00 Ry     beta= 0.70
     Davidson diagonalization with overlap
     ethr =  6.92E-05,  avg # of iterations =  2.7

     total cpu time spent up to now is        5.2 secs

     total energy              =     -94.55036817 Ry
     estimated scf accuracy    <       0.00058897 Ry

     iteration #  4     ecut=    80.00 Ry     beta= 0.70
     Davidson diagonalization with overlap
     ethr =  2.68E-06,  avg # of iterations =  5.4

     total cpu time spent up to now is        6.0 secs

     total energy              =     -94.55041224 Ry
     estimated scf accuracy    <       0.00001129 Ry

     iteration #  5     ecut=    80.00 Ry     beta= 0.70
     Davidson diagonalization with overlap
     ethr =  5.13E-08,  avg # of iterations =  2.1

     total cpu time spent up to now is        6.8 secs

     total energy              =     -94.55041529 Ry
     estimated scf accuracy    <       0.00000029 Ry

     iteration #  6     ecut=    80.00 Ry     beta= 0.70
     Davidson diagonalization with overlap
     ethr =  1.30E-09,  avg # of iterations =  2.4

     total cpu time spent up to now is        7.5 secs

     total energy              =     -94.55041533 Ry
     estimated scf accuracy    <       0.00000001 Ry

     iteration #  7     ecut=    80.00 Ry     beta= 0.70
     Davidson diagonalization with overlap
     ethr =  4.94E-11,  avg # of iterations =  2.5

     total cpu time spent up to now is        8.2 secs

     End of self-consistent calculation

          k = 0.0000 0.0000 0.0000 (  4665 PWs)   bands (ev):

   -38.6999 -38.3094 -38.3094 -38.2975 -38.2783 -38.2783  -1.4196   5.4907
     5.4907   5.6035   6.5934   7.4886   7.4886  11.4257  12.8869

          k =-0.1092-0.0630 0.1176 (  4704 PWs)   bands (ev):

   -38.6782 -38.3545 -38.3194 -38.2911 -38.2694 -38.2603  -1.3636   4.4540
     5.2212   5.6091   7.2203   7.7705   8.3330  11.3110  11.9929

          k =-0.2184-0.1261 0.2351 (  4700 PWs)   bands (ev):

   -38.6191 -38.4323 -38.3314 -38.2820 -38.2572 -38.2511  -1.2382   3.3707
     4.7988   5.8922   7.7638   8.2041   8.9176  11.2477  11.8243

          k = 0.3276 0.1891-0.3527 (  4676 PWs)   bands (ev):

   -38.5570 -38.5005 -38.3359 -38.2765 -38.2534 -38.2499  -1.1672   2.9662
     4.6323   6.1337   7.5360   8.6068   9.4310  11.1229  11.1402

          k =-0.1092 0.0630 0.2351 (  4711 PWs)   bands (ev):

   -38.6495 -38.3792 -38.3498 -38.2991 -38.2557 -38.2396  -1.2997   4.1341
     4.4355   5.2417   7.8932   8.8132   9.7962  11.0149  11.6851

          k =-0.2184 0.0000 0.3527 (  4715 PWs)   bands (ev):

   -38.5872 -38.4420 -38.3620 -38.2909 -38.2565 -38.2347  -1.1700   3.3838
     4.1114   5.6020   7.8661   8.4349  10.5542  11.3460  11.5181

          k = 0.3276 0.3152-0.2351 (  4696 PWs)   bands (ev):

   -38.5451 -38.4854 -38.3499 -38.2781 -38.2698 -38.2450  -1.1050   3.0875
     4.3079   6.0607   7.3366   7.7085   9.4569  11.1701  12.0430

          k = 0.2184 0.2522-0.1176 (  4698 PWs)   bands (ev):

   -38.6142 -38.4086 -38.3272 -38.2940 -38.2673 -38.2618  -1.1855   3.5999
     4.7286   5.9781   6.6429   7.8576   8.4647  11.5533  11.8142

          k = 0.1092 0.1891 0.0000 (  4702 PWs)   bands (ev):

   -38.6653 -38.3449 -38.3212 -38.3000 -38.2723 -38.2692  -1.3126   4.6397
     4.9762   5.5502   6.7849   7.5771   8.1803  11.2200  11.8785

          k =-0.2184 0.1261 0.4703 (  4688 PWs)   bands (ev):

   -38.5265 -38.4549 -38.3920 -38.3025 -38.2645 -38.2329  -1.0345   3.4395
     3.6558   5.4115   6.9639   8.3989  10.4759  11.0962  12.0271

          k = 0.3276 0.4413-0.1176 (  4680 PWs)   bands (ev):

   -38.5132 -38.4482 -38.3843 -38.3111 -38.2718 -38.2448  -0.9685   3.3149
     3.8714   5.8717   6.0324   8.0287   8.8232  11.2654  12.2273

          k = 0.2184 0.3782 0.0000 (  4698 PWs)   bands (ev):

   -38.5754 -38.3861 -38.3554 -38.3340 -38.2707 -38.2518  -1.0542   3.6645
     4.2791   5.7316   5.7601   8.0651   8.6765  11.0868  11.7846

          k = 0.3276-0.1891-0.7054 (  4704 PWs)   bands (ev):

   -38.4860 -38.4283 -38.4029 -38.3397 -38.2716 -38.2451  -0.8927   3.2453
     4.0218   5.2335   5.9266   8.1878   8.5813  11.0950  12.1066

          k = 0.0000 0.0000 0.3527 (  4687 PWs)   bands (ev):

   -38.6157 -38.3881 -38.3881 -38.3102 -38.2355 -38.2355  -1.2305   3.9718
     4.2939   4.2939   9.2162  10.3268  10.3268  10.9923  10.9923

          k =-0.1092-0.0630 0.4703 (  4681 PWs)   bands (ev):

   -38.5529 -38.4504 -38.3784 -38.3119 -38.2460 -38.2339  -1.0988   3.3601
     4.1651   4.5581   8.2040   8.9904   9.6527  11.9439  12.4676

          k = 0.4367 0.2522-0.1176 (  4688 PWs)   bands (ev):

   -38.5387 -38.4598 -38.3541 -38.3064 -38.2711 -38.2434  -1.0400   3.2145
     4.4500   5.0388   7.0613   7.6094   9.1923  12.0011  12.6730

          k = 0.3276 0.1891 0.0000 (  4702 PWs)   bands (ev):

   -38.6030 -38.3851 -38.3302 -38.3071 -38.2963 -38.2516  -1.1262   3.8313
     4.8184   5.1235   6.5330   7.0439   9.1079  11.6173  12.3432

          k = 0.2184 0.1261 0.1176 (  4711 PWs)   bands (ev):

   -38.6447 -38.3559 -38.3358 -38.2975 -38.2900 -38.2492  -1.2525   4.4513
     4.7773   5.0902   6.9079   7.4447   9.3145  11.3685  11.8146

          k =-0.1092 0.0630 0.5878 (  4678 PWs)   bands (ev):

   -38.4954 -38.4529 -38.4021 -38.3194 -38.2631 -38.2405  -0.9600   3.5356
     3.6922   4.6276   6.9583   8.2791   8.9298  12.3736  13.5951

          k = 0.4367 0.3782 0.0000 (  4684 PWs)   bands (ev):

   -38.5047 -38.4248 -38.3796 -38.3229 -38.2926 -38.2489  -0.8962   3.4369
     3.9954   5.1216   5.9313   7.3379   8.5512  12.4255  13.6693

          k = 0.3276 0.3152 0.1176 (  4693 PWs)   bands (ev):

   -38.5581 -38.3786 -38.3468 -38.3434 -38.2986 -38.2479  -0.9855   3.7749
     4.3457   4.9789   5.9391   7.1565   8.9555  12.3670  12.6017

          k = 0.2184 0.2522 0.2351 (  4702 PWs)   bands (ev):

   -38.5889 -38.4124 -38.3511 -38.2933 -38.2861 -38.2413  -1.1189   3.6026
     4.4112   5.3495   7.0405   7.4179   9.7193  11.6043  12.2308

          k = 0.4367-0.2522-0.5878 (  4680 PWs)   bands (ev):

   -38.4701 -38.4184 -38.3985 -38.3431 -38.2827 -38.2608  -0.8179   3.3878
     4.0234   5.3189   5.3586   7.6069   7.8798  11.9827  13.2909

          k = 0.3276-0.3152-0.4703 (  4689 PWs)   bands (ev):

   -38.4969 -38.4459 -38.3676 -38.3281 -38.2856 -38.2494  -0.9007   3.3798
     4.1951   5.0361   5.9953   7.5362   8.7376  12.0865  12.4402

          k = 0.2184-0.3782-0.3527 (  4680 PWs)   bands (ev):

   -38.5277 -38.4816 -38.3448 -38.3021 -38.2736 -38.2436  -1.0423   3.1585
     4.5127   5.2606   6.9100   7.9588   9.5494  11.3892  12.0098

          k = 0.3276-0.1891-0.3527 (  4692 PWs)   bands (ev):

   -38.5312 -38.4291 -38.3785 -38.3059 -38.2834 -38.2453  -0.9756   3.6178
     3.8407   5.2283   6.6417   7.3699   9.4139  11.7754  12.2771

          k = 0.0000 0.0000 0.7054 (  4663 PWs)   bands (ev):

   -38.4466 -38.4242 -38.4242 -38.3346 -38.2720 -38.2720  -0.8099   3.8779
     3.8779   3.9373   6.6601   7.3874   7.3874  14.6809  14.6810

          k = 0.5459 0.3152 0.1176 (  4668 PWs)   bands (ev):

   -38.4677 -38.3916 -38.3787 -38.3397 -38.3191 -38.2767  -0.7376   3.7133
     4.1810   4.2919   6.0231   6.3347   7.5227  13.9730  14.1507

          k = 0.4367 0.2522 0.2351 (  4701 PWs)   bands (ev):

   -38.5089 -38.3840 -38.3636 -38.3319 -38.3207 -38.2644  -0.8305   3.9306
     4.1954   4.3719   6.1155   6.4289   8.2533  12.7280  13.4251

          k = 0.5459-0.3152-0.4703 (  4687 PWs)   bands (ev):

   -38.4269 -38.3918 -38.3862 -38.3524 -38.3131 -38.3031  -0.6516   3.7697
     4.0461   4.4427   5.6322   6.5129   6.8523  12.8399  14.4059

          k = 0.4367-0.3782-0.3527 (  4692 PWs)   bands (ev):

   -38.4516 -38.4319 -38.3608 -38.3416 -38.3095 -38.2781  -0.7432   3.6792
     4.2360   4.3999   5.8782   6.5942   7.6518  12.2684  13.5908

          k = 0.0000 0.0000-1.0581 (  4672 PWs)   bands (ev):

   -38.3789 -38.3789 -38.3608 -38.3539 -38.3539 -38.3471  -0.5580   4.0675
     4.0708   4.0708   5.9132   5.9132   6.3057  12.3985  16.6574

          k =-0.2184-0.0000-0.3527 (  4715 PWs)   bands (ev):

   -38.5868 -38.4457 -38.3510 -38.3033 -38.2524 -38.2340  -1.1701   3.2957
     4.5974   4.9564   7.9994   9.2497  10.1077  11.0813  11.3254

          k = 0.3276-0.3152 0.2351 (  4696 PWs)   bands (ev):

   -38.5473 -38.4827 -38.3401 -38.3031 -38.2599 -38.2402  -1.1063   3.0676
     4.8081   5.1215   7.3261   8.6753   9.2649  11.2483  11.9625

          k = 0.2184-0.2522 0.1176 (  4698 PWs)   bands (ev):

   -38.6149 -38.4035 -38.3287 -38.3031 -38.2700 -38.2530  -1.1865   3.6156
     5.0952   5.2808   6.8234   7.9887   8.5400  11.2029  12.0892

          k = 0.3276-0.4413 0.1176 (  4680 PWs)   bands (ev):

   -38.5168 -38.4424 -38.3791 -38.3234 -38.2718 -38.2399  -0.9700   3.2778
     4.0915   5.4618   5.9339   8.2964   9.4983  10.8721  11.7616

          k = 0.4367-0.3782-0.0000 (  4684 PWs)   bands (ev):

   -38.5054 -38.4220 -38.3793 -38.3327 -38.2814 -38.2528  -0.8964   3.4154
     4.1251   4.9354   5.8873   7.4385   8.8314  11.6436  13.0528

          k = 0.3276-0.3152-0.1176 (  4693 PWs)   bands (ev):

   -38.5569 -38.3874 -38.3502 -38.3364 -38.2854 -38.2570  -0.9844   3.7573
     4.2555   5.1435   5.8626   7.2234   9.2510  11.0446  12.5277

          k = 0.2184-0.2522-0.2351 (  4702 PWs)   bands (ev):

   -38.5878 -38.4212 -38.3338 -38.3102 -38.2755 -38.2448  -1.1179   3.5074
     4.8420   4.9448   6.7683   8.0319   9.9470  10.9671  11.8405

          k = 0.3276 0.3152 0.4703 (  4689 PWs)   bands (ev):

   -38.4915 -38.4523 -38.3776 -38.3141 -38.2785 -38.2595  -0.8993   3.4269
     3.9345   5.3918   6.0139   7.5066   8.5089  11.5910  12.7021

     the Fermi energy is     7.2210 ev

!    total energy              =     -94.55041533 Ry
     estimated scf accuracy    <          4.3E-10 Ry
     smearing contrib. (-TS)   =      -0.00005151 Ry
     internal energy E=F+TS    =     -94.55036382 Ry

     The total energy is F=E-TS. E is the sum of the following terms:
     one-electron contribution =     -34.68613144 Ry
     hartree contribution      =      17.11537825 Ry
     xc contribution           =     -24.39774183 Ry
     ewald contribution        =     -52.58186881 Ry

     convergence has been achieved in   7 iterations

     Forces acting on atoms (cartesian axes, Ry/au):

     atom    1 type  1   force =     0.00529894    0.00285983   -0.00730431
     atom    2 type  1   force =    -0.00529894   -0.00285983    0.00730431
     atom    3 type  1   force =    -0.00512616    0.00315910   -0.00730431
     atom    4 type  1   force =     0.00512616   -0.00315910    0.00730431
     atom    5 type  1   force =    -0.00017278   -0.00601893   -0.00730431
     atom    6 type  1   force =     0.00017278    0.00601893    0.00730431
     atom    7 type  2   force =     0.00000000    0.00000000    0.00000000
     The non-local contrib.  to forces
     atom    1 type  1   force =     0.00890355    0.02922295   -0.00900506
     atom    2 type  1   force =    -0.00890355   -0.02922295    0.00900506
     atom    3 type  1   force =    -0.02975959   -0.00690077   -0.00900506
     atom    4 type  1   force =     0.02975959    0.00690077    0.00900506
     atom    5 type  1   force =     0.02085604   -0.02232217   -0.00900506
     atom    6 type  1   force =    -0.02085604    0.02232217    0.00900506
     atom    7 type  2   force =     0.00000000    0.00000000    0.00000000
     The ionic contribution  to forces
     atom    1 type  1   force =     0.15554398   -0.03188973   -0.21651657
     atom    2 type  1   force =    -0.15554398    0.03188973    0.21651657
     atom    3 type  1   force =    -0.05015467    0.15064991   -0.21651657
     atom    4 type  1   force =     0.05015467   -0.15064991    0.21651657
     atom    5 type  1   force =    -0.10538931   -0.11876017   -0.21651657
     atom    6 type  1   force =     0.10538931    0.11876017    0.21651657
     atom    7 type  2   force =    -0.00000000    0.00000000    0.00000000
     The local contribution  to forces
     atom    1 type  1   force =    -0.15914408    0.00552366    0.21821198
     atom    2 type  1   force =     0.15914408   -0.00552366   -0.21821198
     atom    3 type  1   force =     0.07478841   -0.14058464    0.21821198
     atom    4 type  1   force =    -0.07478841    0.14058464   -0.21821198
     atom    5 type  1   force =     0.08435567    0.13506098    0.21821198
     atom    6 type  1   force =    -0.08435567   -0.13506098   -0.21821198
     atom    7 type  2   force =    -0.00000000    0.00000000    0.00000000
     The core correction contribution to forces
     atom    1 type  1   force =     0.00000000    0.00000000    0.00000000
     atom    2 type  1   force =     0.00000000    0.00000000    0.00000000
     atom    3 type  1   force =     0.00000000    0.00000000    0.00000000
     atom    4 type  1   force =     0.00000000    0.00000000    0.00000000
     atom    5 type  1   force =     0.00000000    0.00000000    0.00000000
     atom    6 type  1   force =     0.00000000    0.00000000    0.00000000
     atom    7 type  2   force =     0.00000000    0.00000000    0.00000000
     The Hubbard contrib.    to forces
     atom    1 type  1   force =     0.00000000    0.00000000    0.00000000
     atom    2 type  1   force =     0.00000000    0.00000000    0.00000000
     atom    3 type  1   force =     0.00000000    0.00000000    0.00000000
     atom    4 type  1   force =     0.00000000    0.00000000    0.00000000
     atom    5 type  1   force =     0.00000000    0.00000000    0.00000000
     atom    6 type  1   force =     0.00000000    0.00000000    0.00000000
     atom    7 type  2   force =     0.00000000    0.00000000    0.00000000
     The SCF correction term to forces
     atom    1 type  1   force =    -0.00000452    0.00000296    0.00000535
     atom    2 type  1   force =     0.00000452   -0.00000296   -0.00000535
     atom    3 type  1   force =    -0.00000031   -0.00000539    0.00000535
     atom    4 type  1   force =     0.00000031    0.00000539   -0.00000535
     atom    5 type  1   force =     0.00000482    0.00000243    0.00000535
     atom    6 type  1   force =    -0.00000482   -0.00000243   -0.00000535
     atom    7 type  2   force =    -0.00000000    0.00000000   -0.00000000

     Total force =     0.023188     Total SCF correction =     0.000019


     Computing stress (Cartesian axis) and pressure

          total   stress  (Ry/bohr**3)                   (kbar)     P=      579.46
   0.00382925  -0.00000000   0.00000000          563.30       -0.00        0.00
   0.00000000   0.00382925   0.00000000            0.00      563.30        0.00
   0.00000000   0.00000000   0.00415877            0.00        0.00      611.78


     BFGS Geometry Optimization
     Energy error            =      0.0E+00 Ry
     Gradient error          =      7.3E-03 Ry/Bohr
     Cell gradient error     =      1.1E+02 kbar

     number of scf cycles    =   1
     number of bfgs steps    =   0

     enthalpy           new  =     -93.2306696518 Ry

     new trust radius        =       0.0748631449 bohr
ibrav =      5
 celldm(1) =      7.50533631
 celldm(4) =     -0.16078529
Input lattice vectors:
     0.77143677    -0.44538923     0.48153859
    -0.00000000     0.89077846     0.48153859
    -0.77143677    -0.44538923     0.48153859
New lattice vectors in INITIAL alat:
     0.77143677    -0.44538923     0.48153859
     0.00000000     0.89077846     0.48153859
    -0.77143677    -0.44538923     0.48153859
New lattice vectors in NEW alat (for information only):
     0.76183505    -0.43984567     0.47554510
     0.00000000     0.87969134     0.47554510
    -0.76183505    -0.43984567     0.47554510
Discrepancy in bohr =     0.000000    0.000000    0.000000
     new conv_thr            =       0.0000000100 Ry

     new unit-cell volume =    404.21712 a.u.^3 (    59.89880 Ang^3 )
     density =      1.93313 g/cm^3

CELL_PARAMETERS (alat=  7.41192081)
   0.771436772  -0.445389228   0.481538592
   0.000000000   0.890778455   0.481538592
  -0.771436772  -0.445389228   0.481538592

ATOMIC_POSITIONS (crystal)
Li            0.9334132942       -0.6347922595        0.2174735741
Li            0.0665867058        0.6347922595        1.7825264259
Li            0.2174735741       -0.0665867058        0.3652077405
Li            0.7825264259        0.0665867058        1.6347922595
Li            0.3652077405       -0.7825264259        0.9334132942
Li            0.6347922595        0.7825264259        1.0665867058
Si            0.5000000000        0.5000000000        0.5000000000



     Writing config-only to output data dir ./output/LiSi.save/
     NEW-OLD atomic charge density approx. for the potential
     extrapolated charge   22.86615, renormalised to   22.00000

     total cpu time spent up to now is       10.3 secs

     Self-consistent Calculation

     iteration #  1     ecut=    80.00 Ry     beta= 0.70
     Davidson diagonalization with overlap
     ethr =  1.00E-06,  avg # of iterations =  6.7

     total cpu time spent up to now is       11.7 secs

     total energy              =     -94.60462461 Ry
     estimated scf accuracy    <       0.00137896 Ry

     iteration #  2     ecut=    80.00 Ry     beta= 0.70
     Davidson diagonalization with overlap
     ethr =  6.27E-06,  avg # of iterations =  3.0

     total cpu time spent up to now is       12.7 secs

     total energy              =     -94.61008658 Ry
     estimated scf accuracy    <       0.00103361 Ry

     iteration #  3     ecut=    80.00 Ry     beta= 0.70
     Davidson diagonalization with overlap
     ethr =  4.70E-06,  avg # of iterations =  1.0

     total cpu time spent up to now is       13.4 secs

     total energy              =     -94.61004687 Ry
     estimated scf accuracy    <       0.00026667 Ry

     iteration #  4     ecut=    80.00 Ry     beta= 0.70
     Davidson diagonalization with overlap
     ethr =  1.21E-06,  avg # of iterations =  1.0

     total cpu time spent up to now is       14.0 secs

     total energy              =     -94.60996512 Ry
     estimated scf accuracy    <       0.00012563 Ry

     iteration #  5     ecut=    80.00 Ry     beta= 0.70
     Davidson diagonalization with overlap
     ethr =  5.71E-07,  avg # of iterations =  2.0

     total cpu time spent up to now is       14.8 secs

     total energy              =     -94.60998179 Ry
     estimated scf accuracy    <       0.00000589 Ry

     iteration #  6     ecut=    80.00 Ry     beta= 0.70
     Davidson diagonalization with overlap
     ethr =  2.68E-08,  avg # of iterations =  1.7

     total cpu time spent up to now is       15.5 secs

     total energy              =     -94.60998232 Ry
     estimated scf accuracy    <       0.00000008 Ry

     iteration #  7     ecut=    80.00 Ry     beta= 0.70
     Davidson diagonalization with overlap
     ethr =  3.44E-10,  avg # of iterations =  2.9

     total cpu time spent up to now is       16.4 secs

     total energy              =     -94.60998234 Ry
     estimated scf accuracy    <       0.00000006 Ry

     iteration #  8     ecut=    80.00 Ry     beta= 0.70
     Davidson diagonalization with overlap
     ethr =  2.56E-10,  avg # of iterations =  1.9

     total cpu time spent up to now is       17.0 secs

     End of self-consistent calculation

          k = 0.0000 0.0000 0.0000 (  4665 PWs)   bands (ev):

   -39.0158 -38.6681 -38.6681 -38.6582 -38.6422 -38.6422  -1.7133   5.1909
     5.1909   5.2818   6.2067   7.1569   7.1569  11.0195  12.4477

          k =-0.1080-0.0624 0.1154 (  4704 PWs)   bands (ev):

   -38.9967 -38.7089 -38.6762 -38.6523 -38.6351 -38.6255  -1.6531   4.1394
     4.9391   5.3039   6.8267   7.4251   7.9924  10.8787  11.5501

          k =-0.2160-0.1247 0.2307 (  4700 PWs)   bands (ev):

   -38.9446 -38.7780 -38.6859 -38.6440 -38.6248 -38.6177  -1.5179   3.0538
     4.5473   5.5828   7.3944   7.8193   8.5377  10.8087  11.2945

          k = 0.3241 0.1871-0.3461 (  4676 PWs)   bands (ev):

   -38.8908 -38.8374 -38.6896 -38.6387 -38.6198 -38.6187  -1.4408   2.6462
     4.3921   5.8175   7.2088   8.1814   9.0252  10.6387  10.6462

          k =-0.1080 0.0624 0.2307 (  4711 PWs)   bands (ev):

   -38.9718 -38.7298 -38.7032 -38.6592 -38.6232 -38.6075  -1.5842   3.8316
     4.1397   4.9666   7.4916   8.4415   9.3851  10.5867  11.2436

          k =-0.2160-0.0000 0.3461 (  4715 PWs)   bands (ev):

   -38.9173 -38.7854 -38.7133 -38.6515 -38.6243 -38.6032  -1.4451   3.0682
     3.8432   5.3168   7.4888   8.0568  10.1164  10.8626  11.0212

          k = 0.3241 0.3118-0.2307 (  4696 PWs)   bands (ev):

   -38.8793 -38.8250 -38.7022 -38.6406 -38.6355 -38.6123  -1.3757   2.7682
     4.0447   5.7519   6.9562   7.3767   9.0627  10.7323  11.5042

          k = 0.2160 0.2495-0.1154 (  4698 PWs)   bands (ev):

   -38.9393 -38.7583 -38.6822 -38.6576 -38.6304 -38.6270  -1.4630   3.2815
     4.4433   5.6625   6.2936   7.5051   8.1390  11.1125  11.3594

          k = 0.1080 0.1871 0.0000 (  4702 PWs)   bands (ev):

   -38.9848 -38.7014 -38.6796 -38.6602 -38.6360 -38.6327  -1.5992   4.3231
     4.6489   5.2511   6.4535   7.2369   7.8560  10.7693  11.4234

          k =-0.2160 0.1247 0.4615 (  4688 PWs)   bands (ev):

   -38.8644 -38.7959 -38.7402 -38.6626 -38.6307 -38.6012  -1.3014   3.1455
     3.3398   5.1425   6.5880   8.0486  10.0717  10.6551  11.5132

          k = 0.3241 0.4366-0.1154 (  4680 PWs)   bands (ev):

   -38.8489 -38.7943 -38.7338 -38.6717 -38.6348 -38.6116  -1.2320   3.0092
     3.5592   5.5419   5.7143   7.7050   8.4709  10.8077  11.7476

          k = 0.2160 0.3742 0.0000 (  4698 PWs)   bands (ev):

   -38.9041 -38.7396 -38.7109 -38.6890 -38.6338 -38.6176  -1.3240   3.3588
     3.9423   5.4293   5.4480   7.7153   8.3545  10.6751  11.2767

          k = 0.3241-0.1871-0.6922 (  4704 PWs)   bands (ev):

   -38.8231 -38.7756 -38.7552 -38.6952 -38.6342 -38.6117  -1.1518   2.9462
     3.6827   4.9014   5.6310   7.8884   8.2265  10.6322  11.6299

          k =-0.0000-0.0000 0.3461 (  4687 PWs)   bands (ev):

   -38.9430 -38.7367 -38.7367 -38.6689 -38.6049 -38.6049  -1.5094   3.6648
     4.0155   4.0155   8.7663   9.9136   9.9136  10.5331  10.5331

          k =-0.1080-0.0624 0.4615 (  4681 PWs)   bands (ev):

   -38.8883 -38.7919 -38.7272 -38.6701 -38.6148 -38.6028  -1.3686   3.0518
     3.8866   4.2715   7.8026   8.5963   9.2603  11.4609  11.9258

          k = 0.4321 0.2495-0.1154 (  4688 PWs)   bands (ev):

   -38.8723 -38.8045 -38.7054 -38.6653 -38.6371 -38.6104  -1.3070   2.8963
     4.1707   4.7374   6.6939   7.2594   8.8162  11.5872  12.1216

          k = 0.3241 0.1871 0.0000 (  4702 PWs)   bands (ev):

   -38.9290 -38.7390 -38.6850 -38.6675 -38.6574 -38.6170  -1.4008   3.5102
     4.5078   4.8154   6.1987   6.7358   8.7325  11.2305  11.8165

          k = 0.2160 0.1247 0.1154 (  4711 PWs)   bands (ev):

   -38.9666 -38.7099 -38.6930 -38.6580 -38.6523 -38.6151  -1.5354   4.1397
     4.4717   4.7700   6.5752   7.1377   8.9278  10.9029  11.3842

          k =-0.1080 0.0624 0.5769 (  4678 PWs)   bands (ev):

   -38.8385 -38.7937 -38.7485 -38.6765 -38.6296 -38.6085  -1.2224   3.2421
     3.3750   4.3434   6.5898   7.9156   8.5475  11.9233  13.0672

          k = 0.4321 0.3742 0.0000 (  4684 PWs)   bands (ev):

   -38.8409 -38.7753 -38.7290 -38.6803 -38.6543 -38.6153  -1.1567   3.1312
     3.6753   4.8206   5.5890   7.0155   8.1887  11.9536  13.1867

          k = 0.3241 0.3118 0.1154 (  4693 PWs)   bands (ev):

   -38.8888 -38.7327 -38.7043 -38.6968 -38.6584 -38.6140  -1.2527   3.4647
     4.0116   4.6841   5.6096   6.8543   8.5887  11.9126  12.0906

          k = 0.2160 0.2495 0.2307 (  4702 PWs)   bands (ev):

   -38.9174 -38.7603 -38.7047 -38.6563 -38.6478 -38.6084  -1.3929   3.2822
     4.1363   5.0298   6.6840   7.1162   9.3259  11.1032  11.7043

          k = 0.4321-0.2495-0.5769 (  4680 PWs)   bands (ev):

   -38.8090 -38.7666 -38.7508 -38.6989 -38.6442 -38.6256  -1.0754   3.0869
     3.6895   4.9991   5.0428   7.2956   7.5357  11.5139  12.8009

          k = 0.3241-0.3118-0.4615 (  4689 PWs)   bands (ev):

   -38.8351 -38.7904 -38.7191 -38.6876 -38.6475 -38.6153  -1.1631   3.0686
     3.8745   4.7531   5.6476   7.2199   8.3886  11.5492  11.9734

          k = 0.2160-0.3742-0.3461 (  4680 PWs)   bands (ev):

   -38.8642 -38.8206 -38.6976 -38.6647 -38.6375 -38.6105  -1.3111   2.8408
     4.2483   4.9429   6.5412   7.6437   9.1866  10.8760  11.5342

          k = 0.3241-0.1871-0.3461 (  4692 PWs)   bands (ev):

   -38.8669 -38.7737 -38.7293 -38.6674 -38.6463 -38.6115  -1.2422   3.3172
     3.5269   4.9342   6.2877   7.0514   9.0535  11.2162  11.7703

          k =-0.0000-0.0000 0.6922 (  4663 PWs)   bands (ev):

   -38.7966 -38.7678 -38.7678 -38.6895 -38.6367 -38.6367  -1.0664   3.5825
     3.5825   3.6105   6.3069   7.0399   7.0399  14.2162  14.2162

          k = 0.5401 0.3118 0.1154 (  4668 PWs)   bands (ev):

   -38.8078 -38.7477 -38.7270 -38.6942 -38.6787 -38.6397  -0.9932   3.4053
     3.8569   3.9859   5.6852   6.0171   7.1835  13.3720  13.6449

          k = 0.4321 0.2495 0.2307 (  4701 PWs)   bands (ev):

   -38.8454 -38.7341 -38.7188 -38.6898 -38.6787 -38.6282  -1.0919   3.6212
     3.8860   4.0535   5.7780   6.1226   7.9103  12.1128  12.9530

          k = 0.5401-0.3118-0.4615 (  4687 PWs)   bands (ev):

   -38.7709 -38.7427 -38.7380 -38.7091 -38.6715 -38.6630  -0.9052   3.4629
     3.7222   4.1310   5.3060   6.1981   6.5199  12.2055  13.9249

          k = 0.4321-0.3742-0.3461 (  4692 PWs)   bands (ev):

   -38.7954 -38.7764 -38.7125 -38.7016 -38.6689 -38.6404  -1.0009   3.3653
     3.9329   4.0840   5.5398   6.2846   7.3164  11.6585  13.1125

          k = 0.0000 0.0000-1.0383 (  4672 PWs)   bands (ev):

   -38.7261 -38.7261 -38.7221 -38.7102 -38.7102 -38.7005  -0.8090   3.7472
     3.7573   3.7573   5.6070   5.6070   5.9570  11.7685  16.1868

          k =-0.2160-0.0000-0.3461 (  4715 PWs)   bands (ev):

   -38.9170 -38.7886 -38.7032 -38.6633 -38.6206 -38.6023  -1.4451   2.9884
     4.2952   4.7011   7.5967   8.8715   9.7217  10.6368  10.7931

          k = 0.3241-0.3118 0.2307 (  4696 PWs)   bands (ev):

   -38.8811 -38.8228 -38.6929 -38.6639 -38.6264 -38.6078  -1.3768   2.7491
     4.5433   4.8257   6.9499   8.3108   8.8982  10.7420  11.4903

          k = 0.2160-0.2495 0.1154 (  4698 PWs)   bands (ev):

   -38.9399 -38.7540 -38.6841 -38.6641 -38.6338 -38.6190  -1.4640   3.2937
     4.8123   4.9712   6.4857   7.6278   8.2005  10.7597  11.5829

          k = 0.3241-0.4366 0.1154 (  4680 PWs)   bands (ev):

   -38.8522 -38.7892 -38.7292 -38.6819 -38.6353 -38.6072  -1.2334   2.9688
     3.7680   5.1904   5.5865   7.9542   9.1462  10.4577  11.2378

          k = 0.4321-0.3742-0.0000 (  4684 PWs)   bands (ev):

   -38.8416 -38.7729 -38.7287 -38.6889 -38.6444 -38.6186  -1.1569   3.1073
     3.8006   4.6453   5.5502   7.0947   8.4747  11.2451  12.5209

          k = 0.3241-0.3118-0.1154 (  4693 PWs)   bands (ev):

   -38.8879 -38.7397 -38.7068 -38.6915 -38.6478 -38.6214  -1.2517   3.4522
     3.9298   4.8324   5.5402   6.8965   8.9096  10.6437  12.0048

          k = 0.2160-0.2495-0.2307 (  4702 PWs)   bands (ev):

   -38.9164 -38.7680 -38.6878 -38.6719 -38.6398 -38.6110  -1.3921   3.1977
     4.5531   4.6395   6.4144   7.6911   9.6105  10.5262  11.3508

          k = 0.3241 0.3118 0.4615 (  4689 PWs)   bands (ev):

   -38.8304 -38.7960 -38.7281 -38.6759 -38.6405 -38.6241  -1.1618   3.1155
     3.6337   5.0766   5.6678   7.1905   8.1772  11.1059  12.1612

     the Fermi energy is     6.8755 ev

!    total energy              =     -94.60998235 Ry
     estimated scf accuracy    <          4.0E-10 Ry
     smearing contrib. (-TS)   =       0.00010322 Ry
     internal energy E=F+TS    =     -94.61008556 Ry

     The total energy is F=E-TS. E is the sum of the following terms:
     one-electron contribution =     -35.70424219 Ry
     hartree contribution      =      17.30223529 Ry
     xc contribution           =     -24.31422024 Ry
     ewald contribution        =     -51.89385842 Ry

     convergence has been achieved in   8 iterations

     Forces acting on atoms (cartesian axes, Ry/au):

     atom    1 type  1   force =     0.00341470    0.00166764   -0.00274758
     atom    2 type  1   force =    -0.00341470   -0.00166764    0.00274758
     atom    3 type  1   force =    -0.00315157    0.00212340   -0.00274758
     atom    4 type  1   force =     0.00315157   -0.00212340    0.00274758
     atom    5 type  1   force =    -0.00026314   -0.00379104   -0.00274758
     atom    6 type  1   force =     0.00026314    0.00379104    0.00274758
     atom    7 type  2   force =    -0.00000000    0.00000000    0.00000000
     The non-local contrib.  to forces
     atom    1 type  1   force =     0.01002090    0.02914891   -0.00750829
     atom    2 type  1   force =    -0.01002090   -0.02914891    0.00750829
     atom    3 type  1   force =    -0.03025415   -0.00589611   -0.00750829
     atom    4 type  1   force =     0.03025415    0.00589611    0.00750829
     atom    5 type  1   force =     0.02023325   -0.02325281   -0.00750829
     atom    6 type  1   force =    -0.02023325    0.02325281    0.00750829
     atom    7 type  2   force =     0.00000000   -0.00000000    0.00000000
     The ionic contribution  to forces
     atom    1 type  1   force =     0.14183597   -0.03133105   -0.19587335
     atom    2 type  1   force =    -0.14183597    0.03133105    0.19587335
     atom    3 type  1   force =    -0.04378450    0.13849908   -0.19587335
     atom    4 type  1   force =     0.04378450   -0.13849908    0.19587335
     atom    5 type  1   force =    -0.09805147   -0.10716803   -0.19587335
     atom    6 type  1   force =     0.09805147    0.10716803    0.19587335
     atom    7 type  2   force =     0.00000000    0.00000000    0.00000000
     The local contribution  to forces
     atom    1 type  1   force =    -0.14844259    0.00385174    0.20063382
     atom    2 type  1   force =     0.14844259   -0.00385174   -0.20063382
     atom    3 type  1   force =     0.07088559   -0.13048093    0.20063382
     atom    4 type  1   force =    -0.07088559    0.13048093   -0.20063382
     atom    5 type  1   force =     0.07755700    0.12662919    0.20063382
     atom    6 type  1   force =    -0.07755700   -0.12662919   -0.20063382
     atom    7 type  2   force =    -0.00000000   -0.00000000   -0.00000000
     The core correction contribution to forces
     atom    1 type  1   force =     0.00000000    0.00000000    0.00000000
     atom    2 type  1   force =     0.00000000    0.00000000    0.00000000
     atom    3 type  1   force =     0.00000000    0.00000000    0.00000000
     atom    4 type  1   force =     0.00000000    0.00000000    0.00000000
     atom    5 type  1   force =     0.00000000    0.00000000    0.00000000
     atom    6 type  1   force =     0.00000000    0.00000000    0.00000000
     atom    7 type  2   force =    -0.00000000   -0.00000000   -0.00000000
     The Hubbard contrib.    to forces
     atom    1 type  1   force =     0.00000000    0.00000000    0.00000000
     atom    2 type  1   force =     0.00000000    0.00000000    0.00000000
     atom    3 type  1   force =     0.00000000    0.00000000    0.00000000
     atom    4 type  1   force =     0.00000000    0.00000000    0.00000000
     atom    5 type  1   force =     0.00000000    0.00000000    0.00000000
     atom    6 type  1   force =     0.00000000    0.00000000    0.00000000
     atom    7 type  2   force =     0.00000000    0.00000000    0.00000000
     The SCF correction term to forces
     atom    1 type  1   force =     0.00000043   -0.00000197    0.00000024
     atom    2 type  1   force =    -0.00000043    0.00000197   -0.00000024
     atom    3 type  1   force =     0.00000149    0.00000136    0.00000024
     atom    4 type  1   force =    -0.00000149   -0.00000136   -0.00000024
     atom    5 type  1   force =    -0.00000192    0.00000061    0.00000024
     atom    6 type  1   force =     0.00000192   -0.00000061   -0.00000024
     atom    7 type  2   force =     0.00000000    0.00000000   -0.00000000

     Total force =     0.011487     Total SCF correction =     0.000005


     Computing stress (Cartesian axis) and pressure

          total   stress  (Ry/bohr**3)                   (kbar)     P=      504.36
   0.00336029  -0.00000000  -0.00000000          494.32       -0.00       -0.00
   0.00000000   0.00336029   0.00000000            0.00      494.32        0.00
  -0.00000000   0.00000000   0.00356512           -0.00        0.00      524.45

     Energy error            =      5.4E-03 Ry
     Gradient error          =      3.8E-03 Ry/Bohr
     Cell gradient error     =      2.4E+01 kbar

     number of scf cycles    =   2
     number of bfgs steps    =   1

     enthalpy           old  =     -93.2306696518 Ry
     enthalpy           new  =     -93.2360762680 Ry

     CASE: enthalpy          _new < enthalpy          _old

     new trust radius        =       0.0220805717 bohr
ibrav =      5
 celldm(1) =      7.51066574
 celldm(4) =     -0.15753615
Input lattice vectors:
     0.77090337    -0.44508127     0.48418285
    -0.00000000     0.89016254     0.48418285
    -0.77090337    -0.44508127     0.48418285
New lattice vectors in INITIAL alat:
     0.77090337    -0.44508127     0.48418285
     0.00000000     0.89016254     0.48418285
    -0.77090337    -0.44508127     0.48418285
New lattice vectors in NEW alat (for information only):
     0.76076808    -0.43922966     0.47781716
     0.00000000     0.87845931     0.47781716
    -0.76076808    -0.43922966     0.47781716
Discrepancy in bohr =     0.000000    0.000000    0.000000
     new conv_thr            =       0.0000000004 Ry

     new unit-cell volume =    405.87493 a.u.^3 (    60.14446 Ang^3 )
     density =      1.92523 g/cm^3

CELL_PARAMETERS (alat=  7.41192081)
   0.770903374  -0.445081270   0.484182851
   0.000000000   0.890162540   0.484182851
  -0.770903374  -0.445081270   0.484182851

ATOMIC_POSITIONS (crystal)
Li            0.9333443351       -0.6349159557        0.2166725342
Li            0.0666556649        0.6349159557        1.7833274658
Li            0.2166725342       -0.0666556649        0.3650840443
Li            0.7833274658        0.0666556649        1.6349159557
Li            0.3650840443       -0.7833274658        0.9333443351
Li            0.6349159557        0.7833274658        1.0666556649
Si            0.5000000000        0.5000000000        0.5000000000



     Writing config-only to output data dir ./output/LiSi.save/
     NEW-OLD atomic charge density approx. for the potential
     extrapolated charge   22.08975, renormalised to   22.00000

     total cpu time spent up to now is       19.0 secs

     Self-consistent Calculation

     iteration #  1     ecut=    80.00 Ry     beta= 0.70
     Davidson diagonalization with overlap
     ethr =  1.00E-06,  avg # of iterations =  3.4

     total cpu time spent up to now is       20.1 secs

     total energy              =     -94.61597283 Ry
     estimated scf accuracy    <       0.00002971 Ry

     iteration #  2     ecut=    80.00 Ry     beta= 0.70
     Davidson diagonalization with overlap
     ethr =  1.35E-07,  avg # of iterations =  2.1

     total cpu time spent up to now is       20.9 secs

     total energy              =     -94.61603319 Ry
     estimated scf accuracy    <       0.00000884 Ry

     iteration #  3     ecut=    80.00 Ry     beta= 0.70
     Davidson diagonalization with overlap
     ethr =  4.02E-08,  avg # of iterations =  1.0

     total cpu time spent up to now is       21.5 secs

     total energy              =     -94.61603225 Ry
     estimated scf accuracy    <       0.00000185 Ry

     iteration #  4     ecut=    80.00 Ry     beta= 0.70
     Davidson diagonalization with overlap
     ethr =  8.43E-09,  avg # of iterations =  2.0

     total cpu time spent up to now is       22.2 secs

     total energy              =     -94.61603245 Ry
     estimated scf accuracy    <       0.00000005 Ry

     iteration #  5     ecut=    80.00 Ry     beta= 0.70
     Davidson diagonalization with overlap
     ethr =  2.08E-10,  avg # of iterations =  2.7

     total cpu time spent up to now is       23.0 secs

     total energy              =     -94.61603246 Ry
     estimated scf accuracy    <          2.7E-09 Ry

     iteration #  6     ecut=    80.00 Ry     beta= 0.70
     Davidson diagonalization with overlap
     ethr =  1.23E-11,  avg # of iterations =  2.3

     total cpu time spent up to now is       23.7 secs

     End of self-consistent calculation

          k = 0.0000 0.0000 0.0000 (  4665 PWs)   bands (ev):

   -39.0499 -38.7055 -38.7055 -38.6961 -38.6805 -38.6805  -1.7430   5.1689
     5.1689   5.2526   6.1649   7.1218   7.1218  11.0225  12.4196

          k =-0.1081-0.0624 0.1147 (  4704 PWs)   bands (ev):

   -39.0311 -38.7463 -38.7128 -38.6901 -38.6741 -38.6638  -1.6820   4.1109
     4.9224   5.2831   6.7776   7.3851   7.9629  10.8625  11.5157

          k =-0.2162-0.1248 0.2295 (  4700 PWs)   bands (ev):

   -38.9798 -38.8146 -38.7215 -38.6816 -38.6645 -38.6562  -1.5450   3.0237
     4.5395   5.5673   7.3559   7.7704   8.4856  10.7529  11.2520

          k = 0.3243 0.1872-0.3442 (  4676 PWs)   bands (ev):

   -38.9274 -38.8727 -38.7249 -38.6762 -38.6587 -38.6584  -1.4669   2.6152
     4.3874   5.8051   7.1899   8.1127   8.9484  10.5682  10.5868

          k =-0.1081 0.0624 0.2295 (  4711 PWs)   bands (ev):

   -39.0070 -38.7660 -38.7395 -38.6966 -38.6628 -38.6463  -1.6127   3.8101
     4.1173   4.9552   7.4311   8.4046   9.3354  10.5482  11.1892

          k =-0.2162 0.0000 0.3442 (  4715 PWs)   bands (ev):

   -38.9536 -38.8209 -38.7489 -38.6887 -38.6642 -38.6420  -1.4715   3.0403
     3.8290   5.3080   7.4338   8.0149  10.0526  10.7991  10.9451

          k = 0.3243 0.3121-0.2295 (  4696 PWs)   bands (ev):

   -38.9155 -38.8611 -38.7376 -38.6790 -38.6742 -38.6510  -1.4005   2.7364
     4.0317   5.7405   6.8935   7.3558   9.0110  10.6847  11.4389

          k = 0.2162 0.2496-0.1147 (  4698 PWs)   bands (ev):

   -38.9739 -38.7963 -38.7180 -38.6971 -38.6677 -38.6652  -1.4887   3.2486
     4.4215   5.6431   6.2493   7.4730   8.1198  11.0713  11.3263

          k = 0.1081 0.1872 0.0000 (  4702 PWs)   bands (ev):

   -39.0190 -38.7399 -38.7176 -38.6975 -38.6739 -38.6703  -1.6268   4.2945
     4.6103   5.2299   6.4250   7.2048   7.8333  10.7523  11.3914

          k =-0.2162 0.1248 0.4590 (  4688 PWs)   bands (ev):

   -38.9021 -38.8306 -38.7758 -38.7003 -38.6698 -38.6398  -1.3251   3.1213
     3.3114   5.1368   6.5226   8.0224  10.0319  10.6087  11.4761

          k = 0.3243 0.4369-0.1147 (  4680 PWs)   bands (ev):

   -38.8840 -38.8323 -38.7698 -38.7102 -38.6722 -38.6499  -1.2536   2.9813
     3.5248   5.5001   5.6956   7.6846   8.4401  10.7625  11.7164

          k = 0.2162 0.3745 0.0000 (  4698 PWs)   bands (ev):

   -38.9386 -38.7789 -38.7490 -38.7250 -38.6712 -38.6557  -1.3468   3.3324
     3.8941   5.3997   5.4305   7.6835   8.3435  10.6420  11.2361

          k = 0.3243-0.1872-0.6884 (  4704 PWs)   bands (ev):

   -38.8571 -38.8130 -38.7948 -38.7321 -38.6714 -38.6500  -1.1715   2.9218
     3.6313   4.8617   5.6210   7.8760   8.1955  10.5847  11.6039

          k =-0.0000 0.0000 0.3442 (  4687 PWs)   bands (ev):

   -38.9792 -38.7720 -38.7720 -38.7062 -38.6444 -38.6444  -1.5374   3.6448
     3.9991   3.9991   8.7028   9.8683   9.8683  10.4584  10.4584

          k =-0.1081-0.0624 0.4590 (  4681 PWs)   bands (ev):

   -38.9260 -38.8266 -38.7621 -38.7071 -38.6547 -38.6418  -1.3942   3.0248
     3.8714   4.2564   7.7454   8.5417   9.2218  11.3938  11.8427

          k = 0.4324 0.2496-0.1147 (  4688 PWs)   bands (ev):

   -38.9077 -38.8423 -38.7403 -38.7025 -38.6768 -38.6488  -1.3304   2.8619
     4.1537   4.7193   6.6460   7.2182   8.7854  11.5650  12.0659

          k = 0.3243 0.1872 0.0000 (  4702 PWs)   bands (ev):

   -38.9633 -38.7784 -38.7211 -38.7056 -38.6950 -38.6549  -1.4251   3.4740
     4.4790   4.7885   6.1659   6.7150   8.7008  11.2263  11.7628

          k = 0.2162 0.1248 0.1147 (  4711 PWs)   bands (ev):

   -39.0010 -38.7472 -38.7314 -38.6954 -38.6901 -38.6530  -1.5622   4.1155
     4.4443   4.7334   6.5432   7.1181   8.8887  10.8792  11.3605

          k =-0.1081 0.0624 0.5737 (  4678 PWs)   bands (ev):

   -38.8776 -38.8279 -38.7833 -38.7133 -38.6689 -38.6474  -1.2448   3.2183
     3.3428   4.3288   6.5397   7.8774   8.5045  11.8918  13.0213

          k = 0.4324 0.3745 0.0000 (  4684 PWs)   bands (ev):

   -38.8757 -38.8148 -38.7646 -38.7175 -38.6922 -38.6536  -1.1768   3.1023
     3.6341   4.8026   5.5490   6.9895   8.1559  11.9185  13.1537

          k = 0.3243 0.3121 0.1147 (  4693 PWs)   bands (ev):

   -38.9235 -38.7720 -38.7435 -38.7321 -38.6953 -38.6520  -1.2743   3.4384
     3.9622   4.6635   5.5731   6.8404   8.5576  11.8747  12.0516

          k = 0.2162 0.2496 0.2295 (  4702 PWs)   bands (ev):

   -38.9527 -38.7971 -38.7413 -38.6955 -38.6849 -38.6468  -1.4176   3.2519
     4.1194   4.9983   6.6339   7.1027   9.2881  11.0622  11.6235

          k = 0.4324-0.2496-0.5737 (  4680 PWs)   bands (ev):

   -38.8433 -38.8040 -38.7902 -38.7359 -38.6813 -38.6637  -1.0934   3.0618
     3.6390   4.9583   5.0232   7.2773   7.5082  11.4796  12.7605

          k = 0.3243-0.3121-0.4590 (  4689 PWs)   bands (ev):

   -38.8708 -38.8272 -38.7558 -38.7262 -38.6851 -38.6532  -1.1832   3.0385
     3.8403   4.7367   5.5904   7.2036   8.3641  11.4819  11.9468

          k = 0.2162-0.3745-0.3442 (  4680 PWs)   bands (ev):

   -38.9008 -38.8560 -38.7331 -38.7042 -38.6754 -38.6488  -1.3345   2.8101
     4.2349   4.9201   6.4727   7.6336   9.1599  10.8182  11.4750

          k = 0.3243-0.1872-0.3442 (  4692 PWs)   bands (ev):

   -38.9032 -38.8092 -38.7660 -38.7063 -38.6842 -38.6494  -1.2642   3.2920
     3.4983   4.9110   6.2269   7.0325   9.0311  11.1440  11.7143

          k =-0.0000 0.0000 0.6884 (  4663 PWs)   bands (ev):

   -38.8372 -38.8022 -38.8022 -38.7260 -38.6754 -38.6754  -1.0852   3.5605
     3.5605   3.5643   6.2684   7.0049   7.0049  14.2003  14.2003

          k = 0.5405 0.3121 0.1147 (  4668 PWs)   bands (ev):

   -38.8429 -38.7888 -38.7617 -38.7306 -38.7169 -38.6776  -1.0095   3.3745
     3.8089   3.9585   5.6475   5.9936   7.1566  13.2525  13.6242

          k = 0.4324 0.2496 0.2295 (  4701 PWs)   bands (ev):

   -38.8808 -38.7707 -38.7581 -38.7273 -38.7157 -38.6658  -1.1103   3.5966
     3.8557   4.0081   5.7292   6.1064   7.8874  12.0043  12.9330

          k = 0.5405-0.3121-0.4590 (  4687 PWs)   bands (ev):

   -38.8057 -38.7809 -38.7762 -38.7467 -38.7085 -38.7004  -0.9192   3.4349
     3.6709   4.1002   5.2670   6.1780   6.4901  12.0936  13.9062

          k = 0.4324-0.3745-0.3442 (  4692 PWs)   bands (ev):

   -38.8319 -38.8123 -38.7497 -38.7405 -38.7062 -38.6777  -1.0172   3.3330
     3.8989   4.0531   5.4849   6.2686   7.2895  11.5580  13.0868

          k = 0.0000 0.0000-1.0327 (  4672 PWs)   bands (ev):

   -38.7647 -38.7602 -38.7602 -38.7483 -38.7483 -38.7367  -0.8204   3.6899
     3.7260   3.7260   5.5907   5.5907   5.9027  11.6641  16.1768

          k =-0.2162-0.0000-0.3442 (  4715 PWs)   bands (ev):

   -38.9533 -38.8241 -38.7386 -38.7009 -38.6605 -38.6410  -1.4716   2.9619
     4.2752   4.6953   7.5255   8.8435   9.6855  10.5735  10.7263

          k = 0.3243-0.3121 0.2295 (  4696 PWs)   bands (ev):

   -38.9171 -38.8590 -38.7280 -38.7023 -38.6655 -38.6464  -1.4015   2.7172
     4.5315   4.8111   6.8890   8.2823   8.8631  10.6992  11.4360

          k = 0.2162-0.2496 0.1147 (  4698 PWs)   bands (ev):

   -38.9744 -38.7921 -38.7205 -38.7023 -38.6715 -38.6574  -1.4895   3.2597
     4.7917   4.9477   6.4499   7.5939   8.1741  10.7407  11.5345

          k = 0.3243-0.4369 0.1147 (  4680 PWs)   bands (ev):

   -38.8872 -38.8273 -38.7654 -38.7198 -38.6731 -38.6456  -1.2550   2.9388
     3.7327   5.1819   5.5374   7.9273   9.1274  10.4196  11.1977

          k = 0.4324-0.3745-0.0000 (  4684 PWs)   bands (ev):

   -38.8765 -38.8124 -38.7643 -38.7258 -38.6826 -38.6568  -1.1770   3.0763
     3.7608   4.6278   5.5117   7.0621   8.4461  11.2329  12.4730

          k = 0.3243-0.3121-0.1147 (  4693 PWs)   bands (ev):

   -38.9226 -38.7782 -38.7458 -38.7273 -38.6857 -38.6589  -1.2733   3.4276
     3.8837   4.8075   5.5043   6.8720   8.8942  10.6218  11.9472

          k = 0.2162-0.2496-0.2295 (  4702 PWs)   bands (ev):

   -38.9517 -38.8045 -38.7235 -38.7112 -38.6784 -38.6489  -1.4168   3.1697
     4.5289   4.6202   6.3583   7.6664   9.6056  10.4855  11.2862

          k = 0.3243 0.3121 0.4590 (  4689 PWs)   bands (ev):

   -38.8663 -38.8325 -38.7646 -38.7154 -38.6778 -38.6618  -1.1819   3.0859
     3.6044   5.0490   5.6141   7.1743   8.1567  11.0604  12.0770

     the Fermi energy is     6.8378 ev

!    total energy              =     -94.61603246 Ry
     estimated scf accuracy    <          3.1E-10 Ry
     smearing contrib. (-TS)   =       0.00020636 Ry
     internal energy E=F+TS    =     -94.61623883 Ry

     The total energy is F=E-TS. E is the sum of the following terms:
     one-electron contribution =     -35.79887707 Ry
     hartree contribution      =      17.31676122 Ry
     xc contribution           =     -24.30523604 Ry
     ewald contribution        =     -51.82888693 Ry

     convergence has been achieved in   6 iterations

     Forces acting on atoms (cartesian axes, Ry/au):

     atom    1 type  1   force =     0.00308673    0.00141970   -0.00126527
     atom    2 type  1   force =    -0.00308673   -0.00141970    0.00126527
     atom    3 type  1   force =    -0.00277286    0.00196334   -0.00126527
     atom    4 type  1   force =     0.00277286   -0.00196334    0.00126527
     atom    5 type  1   force =    -0.00031387   -0.00338303   -0.00126527
     atom    6 type  1   force =     0.00031387    0.00338303    0.00126527
     atom    7 type  2   force =     0.00000000   -0.00000000    0.00000000
     The non-local contrib.  to forces
     atom    1 type  1   force =     0.01130378    0.02932357   -0.00681250
     atom    2 type  1   force =    -0.01130378   -0.02932357    0.00681250
     atom    3 type  1   force =    -0.03104685   -0.00487243   -0.00681250
     atom    4 type  1   force =     0.03104685    0.00487243    0.00681250
     atom    5 type  1   force =     0.01974307   -0.02445114   -0.00681250
     atom    6 type  1   force =    -0.01974307    0.02445114    0.00681250
     atom    7 type  2   force =    -0.00000000   -0.00000000   -0.00000000
     The ionic contribution  to forces
     atom    1 type  1   force =     0.13523016   -0.03127239   -0.18689471
     atom    2 type  1   force =    -0.13523016    0.03127239    0.18689471
     atom    3 type  1   force =    -0.04053240    0.13274895   -0.18689471
     atom    4 type  1   force =     0.04053240   -0.13274895    0.18689471
     atom    5 type  1   force =    -0.09469776   -0.10147656   -0.18689471
     atom    6 type  1   force =     0.09469776    0.10147656    0.18689471
     atom    7 type  2   force =     0.00000000   -0.00000000   -0.00000000
     The local contribution  to forces
     atom    1 type  1   force =    -0.14344564    0.00336747    0.19244041
     atom    2 type  1   force =     0.14344564   -0.00336747   -0.19244041
     atom    3 type  1   force =     0.06880651   -0.12591130    0.19244041
     atom    4 type  1   force =    -0.06880651    0.12591130   -0.19244041
     atom    5 type  1   force =     0.07463913    0.12254383    0.19244041
     atom    6 type  1   force =    -0.07463913   -0.12254383   -0.19244041
     atom    7 type  2   force =    -0.00000000    0.00000000    0.00000000
     The core correction contribution to forces
     atom    1 type  1   force =     0.00000000    0.00000000    0.00000000
     atom    2 type  1   force =     0.00000000    0.00000000    0.00000000
     atom    3 type  1   force =     0.00000000    0.00000000    0.00000000
     atom    4 type  1   force =     0.00000000    0.00000000    0.00000000
     atom    5 type  1   force =     0.00000000    0.00000000    0.00000000
     atom    6 type  1   force =     0.00000000    0.00000000    0.00000000
     atom    7 type  2   force =    -0.00000000    0.00000000   -0.00000000
     The Hubbard contrib.    to forces
     atom    1 type  1   force =     0.00000000    0.00000000    0.00000000
     atom    2 type  1   force =     0.00000000    0.00000000    0.00000000
     atom    3 type  1   force =     0.00000000    0.00000000    0.00000000
     atom    4 type  1   force =     0.00000000    0.00000000    0.00000000
     atom    5 type  1   force =     0.00000000    0.00000000    0.00000000
     atom    6 type  1   force =     0.00000000    0.00000000    0.00000000
     atom    7 type  2   force =     0.00000000    0.00000000    0.00000000
     The SCF correction term to forces
     atom    1 type  1   force =    -0.00000157    0.00000104    0.00000153
     atom    2 type  1   force =     0.00000157   -0.00000104   -0.00000153
     atom    3 type  1   force =    -0.00000012   -0.00000188    0.00000153
     atom    4 type  1   force =     0.00000012    0.00000188   -0.00000153
     atom    5 type  1   force =     0.00000169    0.00000084    0.00000153
     atom    6 type  1   force =    -0.00000169   -0.00000084   -0.00000153
     atom    7 type  2   force =     0.00000000   -0.00000000   -0.00000000

     Total force =     0.008881     Total SCF correction =     0.000006


     Computing stress (Cartesian axis) and pressure

          total   stress  (Ry/bohr**3)                   (kbar)     P=      496.57
   0.00333721  -0.00000000  -0.00000000          490.92       -0.00       -0.00
   0.00000000   0.00333721   0.00000000            0.00      490.92        0.00
  -0.00000000   0.00000000   0.00345251           -0.00        0.00      507.88

     Energy error            =      4.2E-04 Ry
     Gradient error          =      3.4E-03 Ry/Bohr
     Cell gradient error     =      9.1E+00 kbar

     number of scf cycles    =   3
     number of bfgs steps    =   2

     enthalpy           old  =     -93.2360762680 Ry
     enthalpy           new  =     -93.2364915963 Ry

     CASE: enthalpy          _new < enthalpy          _old

     new trust radius        =       0.0235437527 bohr
ibrav =      5
 celldm(1) =      7.50429694
 celldm(4) =     -0.15293394
Input lattice vectors:
     0.76871694    -0.44381894     0.48701202
     0.00000000     0.88763787     0.48701202
    -0.76871694    -0.44381894     0.48701202
New lattice vectors in INITIAL alat:
     0.76871694    -0.44381894     0.48701202
     0.00000000     0.88763787     0.48701202
    -0.76871694    -0.44381894     0.48701202
New lattice vectors in NEW alat (for information only):
     0.75925422    -0.43835563     0.48101702
     0.00000000     0.87671126     0.48101702
    -0.75925422    -0.43835563     0.48101702
Discrepancy in bohr =     0.000000    0.000000    0.000000
     new conv_thr            =       0.0000000003 Ry

     new unit-cell volume =    405.93409 a.u.^3 (    60.15323 Ang^3 )
     density =      1.92495 g/cm^3

CELL_PARAMETERS (alat=  7.41192081)
   0.768716945  -0.443818935   0.487012021
   0.000000000   0.887637870   0.487012021
  -0.768716945  -0.443818935   0.487012021

ATOMIC_POSITIONS (crystal)
Li            0.9334532539       -0.6349418536        0.2153433559
Li            0.0665467461        0.6349418536        1.7846566441
Li            0.2153433559       -0.0665467461        0.3650581464
Li            0.7846566441        0.0665467461        1.6349418536
Li            0.3650581464       -0.7846566441        0.9334532539
Li            0.6349418536        0.7846566441        1.0665467461
Si            0.5000000000        0.5000000000        0.5000000000



     Writing config-only to output data dir ./output/LiSi.save/
     NEW-OLD atomic charge density approx. for the potential
     extrapolated charge   22.00320, renormalised to   22.00000

     total cpu time spent up to now is       25.7 secs

     Self-consistent Calculation

     iteration #  1     ecut=    80.00 Ry     beta= 0.70
     Davidson diagonalization with overlap
     ethr =  1.00E-06,  avg # of iterations =  4.9

     total cpu time spent up to now is       26.8 secs

     total energy              =     -94.61652314 Ry
     estimated scf accuracy    <       0.00003435 Ry

     iteration #  2     ecut=    80.00 Ry     beta= 0.70
     Davidson diagonalization with overlap
     ethr =  1.56E-07,  avg # of iterations =  2.0

     total cpu time spent up to now is       27.5 secs

     total energy              =     -94.61653131 Ry
     estimated scf accuracy    <       0.00001018 Ry

     iteration #  3     ecut=    80.00 Ry     beta= 0.70
     Davidson diagonalization with overlap
     ethr =  4.63E-08,  avg # of iterations =  2.0

     total cpu time spent up to now is       28.2 secs

     total energy              =     -94.61653352 Ry
     estimated scf accuracy    <       0.00000017 Ry

     iteration #  4     ecut=    80.00 Ry     beta= 0.70
     Davidson diagonalization with overlap
     ethr =  7.68E-10,  avg # of iterations =  2.3

     total cpu time spent up to now is       29.0 secs

     total energy              =     -94.61653354 Ry
     estimated scf accuracy    <          7.4E-09 Ry

     iteration #  5     ecut=    80.00 Ry     beta= 0.70
     Davidson diagonalization with overlap
     ethr =  3.36E-11,  avg # of iterations =  2.4

     total cpu time spent up to now is       29.6 secs

     End of self-consistent calculation

          k = 0.0000 0.0000 0.0000 (  4665 PWs)   bands (ev):

   -39.0560 -38.7105 -38.7105 -38.7013 -38.6853 -38.6853  -1.7449   5.1812
     5.1812   5.2548   6.1624   7.1207   7.1207  11.0873  12.4418

          k =-0.1084-0.0626 0.1141 (  4704 PWs)   bands (ev):

   -39.0372 -38.7517 -38.7165 -38.6951 -38.6800 -38.6685  -1.6833   4.1150
     4.9405   5.2982   6.7633   7.3773   7.9714  10.9002  11.5275

          k =-0.2168-0.1252 0.2281 (  4700 PWs)   bands (ev):

   -38.9863 -38.8201 -38.7239 -38.6864 -38.6714 -38.6610  -1.5448   3.0253
     4.5675   5.5929   7.3513   7.7535   8.4643  10.7332  11.2648

          k = 0.3252 0.1878-0.3422 (  4676 PWs)   bands (ev):

   -38.9349 -38.8772 -38.7268 -38.6810 -38.6656 -38.6636  -1.4657   2.6157
     4.4187   5.8384   7.2089   8.0692   8.8906  10.5375  10.5700

          k =-0.1084 0.0626 0.2281 (  4711 PWs)   bands (ev):

   -39.0138 -38.7699 -38.7433 -38.7011 -38.6694 -38.6516  -1.6138   3.8243
     4.1280   4.9813   7.3983   8.4051   9.3230  10.5507  11.1686

          k =-0.2168-0.0000 0.3422 (  4715 PWs)   bands (ev):

   -38.9611 -38.8249 -38.7517 -38.6927 -38.6714 -38.6473  -1.4707   3.0454
     3.8491   5.3408   7.4020   8.0092  10.0204  10.7758  10.9028

          k = 0.3252 0.3129-0.2281 (  4696 PWs)   bands (ev):

   -38.9223 -38.8665 -38.7399 -38.6854 -38.6791 -38.6560  -1.3975   2.7355
     4.0532   5.7738   6.8529   7.3723   8.9913  10.6787  11.4183

          k = 0.2168 0.2504-0.1141 (  4698 PWs)   bands (ev):

   -38.9793 -38.8033 -38.7208 -38.7044 -38.6716 -38.6698  -1.4861   3.2458
     4.4315   5.6630   6.2345   7.4783   8.1410  11.0728  11.3454

          k = 0.1084 0.1878 0.0000 (  4702 PWs)   bands (ev):

   -39.0246 -38.7469 -38.7234 -38.7014 -38.6783 -38.6744  -1.6265   4.2986
     4.5998   5.2434   6.4341   7.2102   7.8491  10.7921  11.4119

          k =-0.2168 0.1252 0.4563 (  4688 PWs)   bands (ev):

   -38.9106 -38.8335 -38.7794 -38.7051 -38.6759 -38.6448  -1.3208   3.1287
     3.3161   5.1722   6.4762   8.0350  10.0315  10.6046  11.4972

          k = 0.3252 0.4381-0.1141 (  4680 PWs)   bands (ev):

   -38.8888 -38.8398 -38.7739 -38.7158 -38.6763 -38.6546  -1.2462   2.9839
     3.5191   5.4826   5.7210   7.7010   8.4477  10.7616  11.7426

          k = 0.2168 0.3755 0.0000 (  4698 PWs)   bands (ev):

   -38.9432 -38.7877 -38.7557 -38.7272 -38.6750 -38.6603  -1.3406   3.3375
     3.8700   5.3994   5.4540   7.6904   8.3758  10.6536  11.2496

          k = 0.3252-0.1878-0.6844 (  4704 PWs)   bands (ev):

   -38.8595 -38.8200 -38.8044 -38.7355 -38.6750 -38.6549  -1.1613   2.9287
     3.6028   4.8499   5.6543   7.9020   8.2028  10.5803  11.6380

          k =-0.0000-0.0000 0.3422 (  4687 PWs)   bands (ev):

   -38.9872 -38.7748 -38.7748 -38.7109 -38.6508 -38.6508  -1.5386   3.6627
     4.0172   4.0172   8.6694   9.8618   9.8618  10.4123  10.4123

          k =-0.1084-0.0626 0.4563 (  4681 PWs)   bands (ev):

   -38.9350 -38.8295 -38.7640 -38.7114 -38.6618 -38.6475  -1.3926   3.0304
     3.8920   4.2779   7.7146   8.5163   9.2236  11.3632  11.7956

          k = 0.4336 0.2504-0.1141 (  4688 PWs)   bands (ev):

   -38.9133 -38.8497 -38.7419 -38.7068 -38.6838 -38.6537  -1.3255   2.8565
     4.1719   4.7386   6.6250   7.2086   8.7968  11.5945  12.0626

          k = 0.3252 0.1878 0.0000 (  4702 PWs)   bands (ev):

   -38.9683 -38.7872 -38.7244 -38.7112 -38.6990 -38.6591  -1.4206   3.4655
     4.4834   4.7936   6.1658   6.7325   8.7108  11.2815  11.7557

          k = 0.2168 0.1252 0.1141 (  4711 PWs)   bands (ev):

   -39.0068 -38.7524 -38.7384 -38.6997 -38.6945 -38.6574  -1.5609   4.1269
     4.4481   4.7243   6.5475   7.1363   8.8891  10.9097  11.3936

          k =-0.1084 0.0626 0.5704 (  4678 PWs)   bands (ev):

   -38.8878 -38.8302 -38.7858 -38.7170 -38.6755 -38.6530  -1.2390   3.2256
     3.3425   4.3510   6.5161   7.8732   8.4974  11.9124  13.0274

          k = 0.4336 0.3755 0.0000 (  4684 PWs)   bands (ev):

   -38.8800 -38.8242 -38.7678 -38.7216 -38.6972 -38.6585  -1.1670   3.1027
     3.6194   4.8225   5.5381   6.9983   8.1619  11.9362  13.1736

          k = 0.3252 0.3129 0.1141 (  4693 PWs)   bands (ev):

   -38.9283 -38.7808 -38.7511 -38.7338 -38.6988 -38.6565  -1.2660   3.4446
     3.9352   4.6777   5.5668   6.8676   8.5664  11.8831  12.0694

          k = 0.2168 0.2504 0.2281 (  4702 PWs)   bands (ev):

   -38.9587 -38.8026 -38.7457 -38.7023 -38.6883 -38.6515  -1.4139   3.2539
     4.1361   4.9977   6.6103   7.1302   9.2914  11.0737  11.5774

          k = 0.4336-0.2504-0.5704 (  4680 PWs)   bands (ev):

   -38.8459 -38.8110 -38.7994 -38.7395 -38.6851 -38.6684  -1.0804   3.0675
     3.6102   4.9426   5.0433   7.2971   7.5188  11.4985  12.7675

          k = 0.3252-0.3129-0.4563 (  4689 PWs)   bands (ev):

   -38.8761 -38.8331 -38.7614 -38.7318 -38.6891 -38.6577  -1.1730   3.0385
     3.8356   4.7557   5.5532   7.2290   8.3798  11.4576  11.9775

          k = 0.2168-0.3755-0.3422 (  4680 PWs)   bands (ev):

   -38.9078 -38.8605 -38.7358 -38.7118 -38.6798 -38.6535  -1.3293   2.8106
     4.2551   4.9348   6.4203   7.6682   9.1752  10.8075  11.4349

          k = 0.3252-0.1878-0.3422 (  4692 PWs)   bands (ev):

   -38.9099 -38.8128 -38.7713 -38.7127 -38.6887 -38.6538  -1.2568   3.2990
     3.5014   4.9195   6.1866   7.0528   9.0526  11.1151  11.7041

          k =-0.0000-0.0000 0.6844 (  4663 PWs)   bands (ev):

   -38.8488 -38.8041 -38.8041 -38.7297 -38.6813 -38.6813  -1.0738   3.5436
     3.5708   3.5708   6.2584   7.0055   7.0055  14.2492  14.2492

          k = 0.5420 0.3129 0.1141 (  4668 PWs)   bands (ev):

   -38.8469 -38.7999 -38.7634 -38.7341 -38.7226 -38.6823  -0.9937   3.3708
     3.7857   3.9612   5.6381   6.0088   7.1677  13.1558  13.6723

          k = 0.4336 0.2504 0.2281 (  4701 PWs)   bands (ev):

   -38.8858 -38.7758 -38.7669 -38.7314 -38.7195 -38.6699  -1.0971   3.6061
     3.8543   3.9845   5.7041   6.1312   7.9048  11.9285  12.9753

          k = 0.5420-0.3129-0.4563 (  4687 PWs)   bands (ev):

   -38.8085 -38.7899 -38.7830 -38.7503 -38.7125 -38.7049  -0.8993   3.4364
     3.6382   4.0988   5.2564   6.1976   6.4949  12.0154  13.9528

          k = 0.4336-0.3755-0.3422 (  4692 PWs)   bands (ev):

   -38.8376 -38.8169 -38.7581 -38.7446 -38.7103 -38.6818  -1.0010   3.3293
     3.8888   4.0545   5.4502   6.2940   7.2996  11.4946  13.1211

          k = 0.0000 0.0000-1.0267 (  4672 PWs)   bands (ev):

   -38.7780 -38.7605 -38.7605 -38.7551 -38.7551 -38.7401  -0.7961   3.6469
     3.7224   3.7224   5.6160   5.6160   5.8683  11.5973  16.2394

          k =-0.2168-0.0000-0.3422 (  4715 PWs)   bands (ev):

   -38.9608 -38.8280 -38.7410 -38.7059 -38.6674 -38.6461  -1.4707   2.9681
     4.2913   4.7278   7.4741   8.8583   9.6875  10.5434  10.7053

          k = 0.3252-0.3129 0.2281 (  4696 PWs)   bands (ev):

   -38.9238 -38.8646 -38.7295 -38.7086 -38.6712 -38.6515  -1.3985   2.7161
     4.5555   4.8357   6.8490   8.2946   8.8673  10.7119  11.4218

          k = 0.2168-0.2504 0.1141 (  4698 PWs)   bands (ev):

   -38.9799 -38.7993 -38.7243 -38.7075 -38.6756 -38.6624  -1.4870   3.2557
     4.8033   4.9599   6.4460   7.5985   8.1873  10.7803  11.5332

          k = 0.3252-0.4381 0.1141 (  4680 PWs)   bands (ev):

   -38.8920 -38.8350 -38.7698 -38.7246 -38.6774 -38.6504  -1.2475   2.9383
     3.7277   5.2131   5.5128   7.9392   9.1524  10.4230  11.2162

          k = 0.4336-0.3755-0.0000 (  4684 PWs)   bands (ev):

   -38.8808 -38.8218 -38.7676 -38.7296 -38.6878 -38.6616  -1.1672   3.0736
     3.7496   4.6462   5.5021   7.0650   8.4567  11.2773  12.4783

          k = 0.3252-0.3129-0.1141 (  4693 PWs)   bands (ev):

   -38.9273 -38.7860 -38.7535 -38.7291 -38.6905 -38.6627  -1.2651   3.4359
     3.8606   4.8168   5.4982   6.8860   8.9229  10.6511  11.9354

          k = 0.2168-0.2504-0.2281 (  4702 PWs)   bands (ev):

   -38.9578 -38.8097 -38.7271 -38.7178 -38.6836 -38.6531  -1.4130   3.1739
     4.5353   4.6381   6.3253   7.6818   9.6502  10.4918  11.2600

          k = 0.3252 0.3129 0.4563 (  4689 PWs)   bands (ev):

   -38.8719 -38.8380 -38.7696 -38.7221 -38.6817 -38.6660  -1.1718   3.0870
     3.6043   5.0538   5.5841   7.1991   8.1759  11.0647  12.0247

     the Fermi energy is     6.8322 ev

!    total energy              =     -94.61653354 Ry
     estimated scf accuracy    <          1.7E-10 Ry
     smearing contrib. (-TS)   =       0.00033260 Ry
     internal energy E=F+TS    =     -94.61686615 Ry

     The total energy is F=E-TS. E is the sum of the following terms:
     one-electron contribution =     -35.78852564 Ry
     hartree contribution      =      17.30940886 Ry
     xc contribution           =     -24.30373824 Ry
     ewald contribution        =     -51.83401112 Ry

     convergence has been achieved in   5 iterations

     Forces acting on atoms (cartesian axes, Ry/au):

     atom    1 type  1   force =     0.00244106    0.00132579    0.00049292
     atom    2 type  1   force =    -0.00244106   -0.00132579   -0.00049292
     atom    3 type  1   force =    -0.00236870    0.00145113    0.00049292
     atom    4 type  1   force =     0.00236870   -0.00145113   -0.00049292
     atom    5 type  1   force =    -0.00007236   -0.00277691    0.00049292
     atom    6 type  1   force =     0.00007236    0.00277691   -0.00049292
     atom    7 type  2   force =     0.00000000    0.00000000    0.00000000
     The non-local contrib.  to forces
     atom    1 type  1   force =     0.01328279    0.02986767   -0.00592809
     atom    2 type  1   force =    -0.01328279   -0.02986767    0.00592809
     atom    3 type  1   force =    -0.03250755   -0.00343060   -0.00592809
     atom    4 type  1   force =     0.03250755    0.00343060    0.00592809
     atom    5 type  1   force =     0.01922476   -0.02643706   -0.00592809
     atom    6 type  1   force =    -0.01922476    0.02643706    0.00592809
     atom    7 type  2   force =    -0.00000000   -0.00000000    0.00000000
     The ionic contribution  to forces
     atom    1 type  1   force =     0.12338593   -0.03055440   -0.17439758
     atom    2 type  1   force =    -0.12338593    0.03055440    0.17439758
     atom    3 type  1   force =    -0.03523208    0.12213255   -0.17439758
     atom    4 type  1   force =     0.03523208   -0.12213255    0.17439758
     atom    5 type  1   force =    -0.08815385   -0.09157815   -0.17439758
     atom    6 type  1   force =     0.08815385    0.09157815    0.17439758
     atom    7 type  2   force =    -0.00000000    0.00000000   -0.00000000
     The local contribution  to forces
     atom    1 type  1   force =    -0.13422948    0.00201307    0.18082099
     atom    2 type  1   force =     0.13422948   -0.00201307   -0.18082099
     atom    3 type  1   force =     0.06537137   -0.11725267    0.18082099
     atom    4 type  1   force =    -0.06537137    0.11725267   -0.18082099
     atom    5 type  1   force =     0.06885811    0.11523960    0.18082099
     atom    6 type  1   force =    -0.06885811   -0.11523960   -0.18082099
     atom    7 type  2   force =    -0.00000000    0.00000000   -0.00000000
     The core correction contribution to forces
     atom    1 type  1   force =     0.00000000    0.00000000    0.00000000
     atom    2 type  1   force =     0.00000000    0.00000000    0.00000000
     atom    3 type  1   force =     0.00000000    0.00000000    0.00000000
     atom    4 type  1   force =     0.00000000    0.00000000    0.00000000
     atom    5 type  1   force =     0.00000000    0.00000000    0.00000000
     atom    6 type  1   force =     0.00000000    0.00000000    0.00000000
     atom    7 type  2   force =    -0.00000000    0.00000000    0.00000000
     The Hubbard contrib.    to forces
     atom    1 type  1   force =     0.00000000    0.00000000    0.00000000
     atom    2 type  1   force =     0.00000000    0.00000000    0.00000000
     atom    3 type  1   force =     0.00000000    0.00000000    0.00000000
     atom    4 type  1   force =     0.00000000    0.00000000    0.00000000
     atom    5 type  1   force =     0.00000000    0.00000000    0.00000000
     atom    6 type  1   force =     0.00000000    0.00000000    0.00000000
     atom    7 type  2   force =     0.00000000    0.00000000    0.00000000
     The SCF correction term to forces
     atom    1 type  1   force =     0.00000182   -0.00000055   -0.00000240
     atom    2 type  1   force =    -0.00000182    0.00000055    0.00000240
     atom    3 type  1   force =    -0.00000043    0.00000185   -0.00000240
     atom    4 type  1   force =     0.00000043   -0.00000185    0.00000240
     atom    5 type  1   force =    -0.00000138   -0.00000130   -0.00000240
     atom    6 type  1   force =     0.00000138    0.00000130    0.00000240
     atom    7 type  2   force =     0.00000000   -0.00000000   -0.00000000

     Total force =     0.006911     Total SCF correction =     0.000008


     Computing stress (Cartesian axis) and pressure

          total   stress  (Ry/bohr**3)                   (kbar)     P=      495.23
   0.00337015   0.00000000   0.00000000          495.77        0.00        0.00
  -0.00000000   0.00337015   0.00000000           -0.00      495.77        0.00
  -0.00000000   0.00000000   0.00335913           -0.00        0.00      494.15

     Energy error            =      3.0E-04 Ry
     Gradient error          =      2.8E-03 Ry/Bohr
     Cell gradient error     =      5.9E+00 kbar

     number of scf cycles    =   4
     number of bfgs steps    =   3

     enthalpy           old  =     -93.2364915963 Ry
     enthalpy           new  =     -93.2367916073 Ry

     CASE: enthalpy          _new < enthalpy          _old

     new trust radius        =       0.0062192685 bohr
ibrav =      5
 celldm(1) =      7.49765595
 celldm(4) =     -0.15161214
Input lattice vectors:
     0.76759627    -0.44317191     0.48750673
     0.00000000     0.88634383     0.48750673
    -0.76759627    -0.44317191     0.48750673
New lattice vectors in INITIAL alat:
     0.76759627    -0.44317191     0.48750673
     0.00000000     0.88634383     0.48750673
    -0.76759627    -0.44317191     0.48750673
New lattice vectors in NEW alat (for information only):
     0.75881886    -0.43810428     0.48193213
     0.00000000     0.87620855     0.48193213
    -0.75881886    -0.43810428     0.48193213
Discrepancy in bohr =     0.000000    0.000000    0.000000
     new conv_thr            =       0.0000000003 Ry

     new unit-cell volume =    405.16252 a.u.^3 (    60.03889 Ang^3 )
     density =      1.92861 g/cm^3

CELL_PARAMETERS (alat=  7.41192081)
   0.767596271  -0.443171914   0.487506729
   0.000000000   0.886343828   0.487506729
  -0.767596271  -0.443171914   0.487506729

ATOMIC_POSITIONS (crystal)
Li            0.9337077974       -0.6347378413        0.2146380925
Li            0.0662922026        0.6347378413        1.7853619075
Li            0.2146380925       -0.0662922026        0.3652621587
Li            0.7853619075        0.0662922026        1.6347378413
Li            0.3652621587       -0.7853619075        0.9337077974
Li            0.6347378413        0.7853619075        1.0662922026
Si            0.5000000000        0.5000000000        0.5000000000



     Writing config-only to output data dir ./output/LiSi.save/
     NEW-OLD atomic charge density approx. for the potential
     extrapolated charge   21.95816, renormalised to   22.00000

     total cpu time spent up to now is       31.6 secs

     Self-consistent Calculation

     iteration #  1     ecut=    80.00 Ry     beta= 0.70
     Davidson diagonalization with overlap
     ethr =  1.00E-06,  avg # of iterations =  3.1

     Threshold (ethr) on eigenvalues was too large:
     Diagonalizing with lowered threshold

     Davidson diagonalization with overlap
     ethr =  5.07E-08,  avg # of iterations =  1.6

     total cpu time spent up to now is       33.2 secs

     total energy              =     -94.61398476 Ry
     estimated scf accuracy    <       0.00001187 Ry

     iteration #  2     ecut=    80.00 Ry     beta= 0.70
     Davidson diagonalization with overlap
     ethr =  5.40E-08,  avg # of iterations =  2.1

     total cpu time spent up to now is       34.0 secs

     total energy              =     -94.61400031 Ry
     estimated scf accuracy    <       0.00000832 Ry

     iteration #  3     ecut=    80.00 Ry     beta= 0.70
     Davidson diagonalization with overlap
     ethr =  3.78E-08,  avg # of iterations =  2.0

     total cpu time spent up to now is       34.6 secs

     total energy              =     -94.61400112 Ry
     estimated scf accuracy    <       0.00000066 Ry

     iteration #  4     ecut=    80.00 Ry     beta= 0.70
     Davidson diagonalization with overlap
     ethr =  2.99E-09,  avg # of iterations =  1.2

     total cpu time spent up to now is       35.2 secs

     total energy              =     -94.61400099 Ry
     estimated scf accuracy    <       0.00000026 Ry

     iteration #  5     ecut=    80.00 Ry     beta= 0.70
     Davidson diagonalization with overlap
[...]
        k(   26) = (   0.3259113  -0.1881650  -0.3422402), wk =   0.0555556
        k(   27) = (  -0.0000000   0.0000000   0.6844805), wk =   0.0185185
        k(   28) = (   0.5431855   0.3136083   0.1140801), wk =   0.0555556
        k(   29) = (   0.4345484   0.2508866   0.2281602), wk =   0.0555556
        k(   30) = (   0.5431855  -0.3136083  -0.4563203), wk =   0.0555556
        k(   31) = (   0.4345484  -0.3763299  -0.3422402), wk =   0.0555556
        k(   32) = (   0.0000000   0.0000000  -1.0267207), wk =   0.0092593
        k(   33) = (  -0.2172742  -0.0000000  -0.3422402), wk =   0.0555556
        k(   34) = (   0.3259113  -0.3136083   0.2281602), wk =   0.0555556
        k(   35) = (   0.2172742  -0.2508866   0.1140801), wk =   0.0555556
        k(   36) = (   0.3259113  -0.4390516   0.1140801), wk =   0.0555556
        k(   37) = (   0.4345484  -0.3763299  -0.0000000), wk =   0.0555556
        k(   38) = (   0.3259113  -0.3136083  -0.1140801), wk =   0.0555556
        k(   39) = (   0.2172742  -0.2508866  -0.2281602), wk =   0.0555556
        k(   40) = (   0.3259113   0.3136083   0.4563203), wk =   0.0555556

     Dense  grid:    39177 G-vectors     FFT dimensions: (  45,  45,  45)

     Estimated max dynamical RAM per process >      21.53 MB

     Estimated total dynamical RAM >     172.27 MB

     Initial potential from superposition of free atoms

     starting charge      21.9720, renormalised to      22.0000
     Starting wfcs are   16 randomized atomic wfcs

     total cpu time spent up to now is       78.6 secs

     Self-consistent Calculation

     iteration #  1     ecut=    80.00 Ry     beta= 0.70
     Davidson diagonalization with overlap
     c_bands:  1 eigenvalues not converged
     c_bands:  1 eigenvalues not converged
     c_bands:  1 eigenvalues not converged
     c_bands:  2 eigenvalues not converged
     c_bands:  1 eigenvalues not converged
     c_bands:  1 eigenvalues not converged
     c_bands:  1 eigenvalues not converged
     c_bands:  1 eigenvalues not converged
     c_bands:  1 eigenvalues not converged
     c_bands:  1 eigenvalues not converged
     ethr =  1.00E-06,  avg # of iterations = 17.6

     total cpu time spent up to now is       80.7 secs

     total energy              =     -94.60181707 Ry
     estimated scf accuracy    <       0.04469145 Ry

     iteration #  2     ecut=    80.00 Ry     beta= 0.70
     Davidson diagonalization with overlap
     ethr =  2.03E-04,  avg # of iterations =  2.0

     total cpu time spent up to now is       81.4 secs

     total energy              =     -94.60852356 Ry
     estimated scf accuracy    <       0.01153560 Ry

     iteration #  3     ecut=    80.00 Ry     beta= 0.70
     Davidson diagonalization with overlap
     ethr =  5.24E-05,  avg # of iterations =  2.0

     total cpu time spent up to now is       82.0 secs

     total energy              =     -94.61098217 Ry
     estimated scf accuracy    <       0.00064477 Ry

     iteration #  4     ecut=    80.00 Ry     beta= 0.70
     Davidson diagonalization with overlap
     ethr =  2.93E-06,  avg # of iterations =  2.8

     total cpu time spent up to now is       82.6 secs

     total energy              =     -94.61103973 Ry
     estimated scf accuracy    <       0.00000975 Ry

     iteration #  5     ecut=    80.00 Ry     beta= 0.70
     Davidson diagonalization with overlap
     ethr =  4.43E-08,  avg # of iterations =  2.9

     total cpu time spent up to now is       83.3 secs

     total energy              =     -94.61104345 Ry
     estimated scf accuracy    <       0.00000050 Ry

     iteration #  6     ecut=    80.00 Ry     beta= 0.70
     Davidson diagonalization with overlap
     ethr =  2.27E-09,  avg # of iterations =  2.2

     total cpu time spent up to now is       84.0 secs

     total energy              =     -94.61104354 Ry
     estimated scf accuracy    <          3.8E-09 Ry

     iteration #  7     ecut=    80.00 Ry     beta= 0.70
     Davidson diagonalization with overlap
     ethr =  1.74E-11,  avg # of iterations =  3.7

     total cpu time spent up to now is       84.7 secs

     total energy              =     -94.61104354 Ry
     estimated scf accuracy    <          1.4E-10 Ry

     iteration #  8     ecut=    80.00 Ry     beta= 0.70
     Davidson diagonalization with overlap
     ethr =  6.26E-13,  avg # of iterations =  2.1

     total cpu time spent up to now is       85.4 secs

     End of self-consistent calculation

          k = 0.0000 0.0000 0.0000 (  4907 PWs)   bands (ev):

   -39.0391 -38.6936 -38.6936 -38.6763 -38.6523 -38.6523  -1.7113   5.1997
     5.1997   5.2462   6.2637   7.2090   7.2090  11.1795  12.4397

          k =-0.1086-0.0627 0.1141 (  4890 PWs)   bands (ev):

   -39.0201 -38.7312 -38.6947 -38.6726 -38.6496 -38.6389  -1.6501   4.1450
     4.9637   5.3240   6.8501   7.4446   8.0469  10.9389  11.5255

          k =-0.2173-0.1254 0.2282 (  4878 PWs)   bands (ev):

   -38.9686 -38.7999 -38.6967 -38.6679 -38.6432 -38.6312  -1.5126   3.0605
     4.6024   5.6512   7.4025   7.7822   8.5291  10.7909  11.3517

          k = 0.3259 0.1882-0.3422 (  4900 PWs)   bands (ev):

   -38.9169 -38.8574 -38.6976 -38.6655 -38.6379 -38.6323  -1.4343   2.6525
     4.4572   5.9307   7.1960   8.1155   8.9000  10.6547  10.7162

          k =-0.1086 0.0627 0.2282 (  4880 PWs)   bands (ev):

   -38.9966 -38.7489 -38.7207 -38.6750 -38.6428 -38.6234  -1.5816   3.8612
     4.1635   5.0214   7.4595   8.4615   9.4034  10.5753  11.1767

          k =-0.2173-0.0000 0.3422 (  4876 PWs)   bands (ev):

   -38.9434 -38.8047 -38.7263 -38.6666 -38.6475 -38.6189  -1.4387   3.0847
     3.8867   5.4023   7.4310   8.0286  10.0614  10.8984  10.9749

          k = 0.3259 0.3136-0.2282 (  4895 PWs)   bands (ev):

   -38.9037 -38.8471 -38.7127 -38.6641 -38.6531 -38.6268  -1.3647   2.7725
     4.0910   5.8590   6.8808   7.3630   9.0579  10.7475  11.5513

          k = 0.2173 0.2509-0.1141 (  4886 PWs)   bands (ev):

   -38.9612 -38.7835 -38.6934 -38.6841 -38.6463 -38.6389  -1.4522   3.2794
     4.4609   5.7108   6.2878   7.5304   8.2100  11.0607  11.4175

          k = 0.1086 0.1882 0.0000 (  4888 PWs)   bands (ev):

   -39.0072 -38.7273 -38.7027 -38.6758 -38.6480 -38.6463  -1.5925   4.3260
     4.6229   5.2653   6.5140   7.3101   7.9024  10.8195  11.4378

          k =-0.2173 0.1254 0.4563 (  4885 PWs)   bands (ev):

   -38.8925 -38.8134 -38.7555 -38.6755 -38.6530 -38.6177  -1.2873   3.1644
     3.3605   5.2335   6.4868   8.0678  10.0981  10.6517  11.6049

          k = 0.3259 0.4391-0.1141 (  4892 PWs)   bands (ev):

   -38.8692 -38.8215 -38.7496 -38.6879 -38.6519 -38.6275  -1.2105   3.0228
     3.5536   5.5185   5.7781   7.7079   8.5315  10.7801  11.8260

          k = 0.2173 0.3763 0.0000 (  4880 PWs)   bands (ev):

   -38.9243 -38.7694 -38.7335 -38.6987 -38.6464 -38.6352  -1.3049   3.3709
     3.9060   5.4293   5.5013   7.7887   8.4068  10.6804  11.2848

          k = 0.3259-0.1882-0.6845 (  4904 PWs)   bands (ev):

   -38.8402 -38.7978 -38.7862 -38.7053 -38.6485 -38.6296  -1.1238   2.9649
     3.6425   4.8675   5.7180   7.9536   8.2489  10.5875  11.7133

          k =-0.0000 0.0000 0.3422 (  4888 PWs)   bands (ev):

   -38.9701 -38.7529 -38.7529 -38.6828 -38.6244 -38.6244  -1.5080   3.7052
     4.0604   4.0604   8.7122   9.8990   9.8990  10.4596  10.4596

          k =-0.1086-0.0627 0.4563 (  4886 PWs)   bands (ev):

   -38.9175 -38.8087 -38.7408 -38.6822 -38.6372 -38.6211  -1.3617   3.0713
     3.9391   4.3265   7.7266   8.5443   9.2769  11.4301  11.8859

          k = 0.4345 0.2509-0.1141 (  4902 PWs)   bands (ev):

   -38.8944 -38.8307 -38.7171 -38.6798 -38.6582 -38.6275  -1.2920   2.8911
     4.2228   4.7884   6.6276   7.2608   8.8630  11.6590  12.1273

          k = 0.3259 0.1882 0.0000 (  4880 PWs)   bands (ev):

   -38.9499 -38.7681 -38.6999 -38.6905 -38.6665 -38.6325  -1.3853   3.4949
     4.5356   4.8141   6.1985   6.8119   8.7784  11.3547  11.7291

          k = 0.2173 0.1254 0.1141 (  4888 PWs)   bands (ev):

   -38.9891 -38.7308 -38.7195 -38.6720 -38.6667 -38.6292  -1.5265   4.1675
     4.4711   4.7455   6.6364   7.1905   8.9636  10.9209  11.4890

          k =-0.1086 0.0627 0.5704 (  4878 PWs)   bands (ev):

   -38.8701 -38.8098 -38.7629 -38.6855 -38.6518 -38.6276  -1.2052   3.2634
     3.3892   4.4001   6.5244   7.9109   8.5546  11.9681  13.0940

          k = 0.4345 0.3763 0.0000 (  4884 PWs)   bands (ev):

   -38.8602 -38.8063 -38.7443 -38.6919 -38.6721 -38.6330  -1.1288   3.1386
     3.6567   4.8712   5.5547   7.0436   8.2246  11.9688  13.2268

          k = 0.3259 0.3136 0.1141 (  4877 PWs)   bands (ev):

   -38.9091 -38.7626 -38.7303 -38.7043 -38.6710 -38.6302  -1.2273   3.4812
     3.9663   4.7085   5.5956   6.9407   8.6294  11.8945  12.1427

          k = 0.2173 0.2509 0.2282 (  4878 PWs)   bands (ev):

   -38.9404 -38.7828 -38.7210 -38.6780 -38.6618 -38.6236  -1.3785   3.2904
     4.1683   5.0412   6.6452   7.1770   9.3850  11.1520  11.6146

          k = 0.4345-0.2509-0.5704 (  4880 PWs)   bands (ev):

   -38.8263 -38.7891 -38.7809 -38.7096 -38.6586 -38.6432  -1.0379   3.0988
     3.6453   4.9670   5.0792   7.3545   7.5730  11.5443  12.7849

          k = 0.3259-0.3136-0.4563 (  4883 PWs)   bands (ev):

   -38.8567 -38.8130 -38.7407 -38.7025 -38.6637 -38.6310  -1.1321   3.0687
     3.8763   4.8004   5.5551   7.2978   8.4395  11.5264  12.0520

          k = 0.2173-0.3763-0.3422 (  4904 PWs)   bands (ev):

   -38.8892 -38.8405 -38.7078 -38.6912 -38.6531 -38.6257  -1.2933   2.8457
     4.2875   4.9985   6.4274   7.7020   9.2676  10.9233  11.4601

          k = 0.3259-0.1882-0.3422 (  4872 PWs)   bands (ev):

   -38.8911 -38.7926 -38.7482 -38.6836 -38.6663 -38.6258  -1.2179   3.3341
     3.5366   4.9620   6.2042   7.0952   9.1349  11.2187  11.6991

          k =-0.0000 0.0000 0.6845 (  4870 PWs)   bands (ev):

   -38.8311 -38.7831 -38.7831 -38.6954 -38.6575 -38.6575  -1.0333   3.5991
     3.5991   3.6016   6.2314   7.0763   7.0763  14.3213  14.3214

          k = 0.5432 0.3136 0.1141 (  4870 PWs)   bands (ev):

   -38.8268 -38.7819 -38.7421 -38.7043 -38.6950 -38.6576  -0.9460   3.3948
     3.8403   3.9661   5.6209   6.1053   7.2278  13.1965  13.7594

          k = 0.4345 0.2509 0.2282 (  4871 PWs)   bands (ev):

   -38.8662 -38.7545 -38.7486 -38.6997 -38.6957 -38.6429  -1.0511   3.6567
     3.8621   4.0049   5.7101   6.2161   7.9659  11.9952  13.0408

          k = 0.5432-0.3136-0.4563 (  4860 PWs)   bands (ev):

   -38.7884 -38.7703 -38.7635 -38.7207 -38.6871 -38.6777  -0.8440   3.4503
     3.6627   4.1094   5.2864   6.2833   6.5378  12.0870  14.0057

          k = 0.4345-0.3763-0.3422 (  4852 PWs)   bands (ev):

   -38.8176 -38.7965 -38.7394 -38.7140 -38.6861 -38.6541  -0.9503   3.3538
     3.9051   4.0869   5.4577   6.3740   7.3546  11.5762  13.1747

          k = 0.0000 0.0000-1.0267 (  4858 PWs)   bands (ev):

   -38.7603 -38.7430 -38.7430 -38.7295 -38.7295 -38.7025  -0.7327   3.6689
     3.7144   3.7144   5.7278   5.7278   5.8293  11.6756  16.3288

          k =-0.2173-0.0000-0.3422 (  4876 PWs)   bands (ev):

   -38.9432 -38.8071 -38.7173 -38.6795 -38.6417 -38.6187  -1.4388   3.0053
     4.3351   4.7782   7.5001   8.8906   9.7337  10.5851  10.8534

          k = 0.3259-0.3136 0.2282 (  4895 PWs)   bands (ev):

   -38.9054 -38.8448 -38.7026 -38.6861 -38.6437 -38.6249  -1.3658   2.7512
     4.6004   4.8949   6.8496   8.3517   8.9272  10.8449  11.4507

          k = 0.2173-0.2509 0.1141 (  4886 PWs)   bands (ev):

   -38.9617 -38.7798 -38.6989 -38.6851 -38.6462 -38.6358  -1.4531   3.2868
     4.8517   4.9924   6.4773   7.6865   8.2442  10.8696  11.5025

          k = 0.3259-0.4391 0.1141 (  4892 PWs)   bands (ev):

   -38.8728 -38.8154 -38.7483 -38.6953 -38.6509 -38.6249  -1.2118   2.9703
     3.7776   5.2710   5.5182   8.0121   9.1989  10.4369  11.2873

          k = 0.4345-0.3763-0.0000 (  4884 PWs)   bands (ev):

   -38.8613 -38.8028 -38.7462 -38.6997 -38.6606 -38.6371  -1.1290   3.1036
     3.8009   4.6868   5.5121   7.1264   8.5069  11.3349  12.5163

          k = 0.3259-0.3136-0.1141 (  4877 PWs)   bands (ev):

   -38.9083 -38.7664 -38.7327 -38.7010 -38.6628 -38.6364  -1.2264   3.4720
     3.8904   4.8502   5.5305   6.9565   8.9762  10.7124  11.9467

          k = 0.2173-0.2509-0.2282 (  4878 PWs)   bands (ev):

   -38.9396 -38.7889 -38.7066 -38.6898 -38.6574 -38.6252  -1.3776   3.2095
     4.5553   4.6924   6.3682   7.7349   9.7082  10.5748  11.2797

          k = 0.3259 0.3136 0.4563 (  4883 PWs)   bands (ev):

   -38.8523 -38.8188 -38.7455 -38.6956 -38.6581 -38.6374  -1.1308   3.1215
     3.6343   5.1076   5.5949   7.2398   8.2486  11.1382  12.0293

     the Fermi energy is     6.8835 ev

!    total energy              =     -94.61104354 Ry
     estimated scf accuracy    <          3.5E-12 Ry
     smearing contrib. (-TS)   =       0.00039356 Ry
     internal energy E=F+TS    =     -94.61143711 Ry

     The total energy is F=E-TS. E is the sum of the following terms:
     one-electron contribution =     -35.67265784 Ry
     hartree contribution      =      17.27943225 Ry
     xc contribution           =     -24.30968886 Ry
     ewald contribution        =     -51.90852266 Ry

     convergence has been achieved in   8 iterations

     Forces acting on atoms (cartesian axes, Ry/au):

     atom    1 type  1   force =    -0.00012848    0.00003499    0.00002507
     atom    2 type  1   force =     0.00012848   -0.00003499   -0.00002507
     atom    3 type  1   force =     0.00003394   -0.00012876    0.00002507
     atom    4 type  1   force =    -0.00003394    0.00012876   -0.00002507
     atom    5 type  1   force =     0.00009454    0.00009378    0.00002507
     atom    6 type  1   force =    -0.00009454   -0.00009378   -0.00002507
     atom    7 type  2   force =    -0.00000000    0.00000000    0.00000000
     The non-local contrib.  to forces
     atom    1 type  1   force =     0.01651646    0.03445468   -0.00648894
     atom    2 type  1   force =    -0.01651646   -0.03445468    0.00648894
     atom    3 type  1   force =    -0.03809686   -0.00292367   -0.00648894
     atom    4 type  1   force =     0.03809686    0.00292367    0.00648894
     atom    5 type  1   force =     0.02158040   -0.03153102   -0.00648894
     atom    6 type  1   force =    -0.02158040    0.03153102    0.00648894
     atom    7 type  2   force =     0.00000000   -0.00000000   -0.00000000
     The ionic contribution  to forces
     atom    1 type  1   force =     0.10261735   -0.04732109   -0.17011182
     atom    2 type  1   force =    -0.10261735    0.04732109    0.17011182
     atom    3 type  1   force =    -0.01032741    0.11252978   -0.17011182
     atom    4 type  1   force =     0.01032741   -0.11252978    0.17011182
     atom    5 type  1   force =    -0.09228995   -0.06520869   -0.17011182
     atom    6 type  1   force =     0.09228995    0.06520869    0.17011182
     atom    7 type  2   force =     0.00000000   -0.00000000    0.00000000
     The local contribution  to forces
     atom    1 type  1   force =    -0.11926154    0.01290113    0.17662580
     atom    2 type  1   force =     0.11926154   -0.01290113   -0.17662580
     atom    3 type  1   force =     0.04845807   -0.10973409    0.17662580
     atom    4 type  1   force =    -0.04845807    0.10973409   -0.17662580
     atom    5 type  1   force =     0.07080347    0.09683296    0.17662580
     atom    6 type  1   force =    -0.07080347   -0.09683296   -0.17662580
     atom    7 type  2   force =     0.00000000    0.00000000   -0.00000000
     The core correction contribution to forces
     atom    1 type  1   force =     0.00000000    0.00000000    0.00000000
     atom    2 type  1   force =     0.00000000    0.00000000    0.00000000
     atom    3 type  1   force =     0.00000000    0.00000000    0.00000000
     atom    4 type  1   force =     0.00000000    0.00000000    0.00000000
     atom    5 type  1   force =     0.00000000    0.00000000    0.00000000
     atom    6 type  1   force =     0.00000000    0.00000000    0.00000000
     atom    7 type  2   force =     0.00000000    0.00000000   -0.00000000
     The Hubbard contrib.    to forces
     atom    1 type  1   force =     0.00000000    0.00000000    0.00000000
     atom    2 type  1   force =     0.00000000    0.00000000    0.00000000
     atom    3 type  1   force =     0.00000000    0.00000000    0.00000000
     atom    4 type  1   force =     0.00000000    0.00000000    0.00000000
     atom    5 type  1   force =     0.00000000    0.00000000    0.00000000
     atom    6 type  1   force =     0.00000000    0.00000000    0.00000000
     atom    7 type  2   force =     0.00000000    0.00000000    0.00000000
     The SCF correction term to forces
     atom    1 type  1   force =    -0.00000076    0.00000027    0.00000003
     atom    2 type  1   force =     0.00000076   -0.00000027   -0.00000003
     atom    3 type  1   force =     0.00000015   -0.00000079    0.00000003
     atom    4 type  1   force =    -0.00000015    0.00000079   -0.00000003
     atom    5 type  1   force =     0.00000061    0.00000052    0.00000003
     atom    6 type  1   force =    -0.00000061   -0.00000052   -0.00000003
     atom    7 type  2   force =    -0.00000000    0.00000000   -0.00000000

     Total force =     0.000332     Total SCF correction =     0.000002


     Computing stress (Cartesian axis) and pressure

          total   stress  (Ry/bohr**3)                   (kbar)     P=      499.53
   0.00339254   0.00000000  -0.00000000          499.06        0.00       -0.00
  -0.00000000   0.00339254   0.00000000           -0.00      499.06        0.00
   0.00000000   0.00000000   0.00340203            0.00        0.00      500.46


     Writing all to output data dir ./output/LiSi.save/

     init_run     :      1.17s CPU      1.64s WALL (       2 calls)
     electrons    :     58.93s CPU     62.81s WALL (      12 calls)
     update_pot   :      4.01s CPU      4.08s WALL (      10 calls)
     forces       :      3.17s CPU      3.29s WALL (      12 calls)
     stress       :     13.85s CPU     14.47s WALL (      12 calls)

     Called by init_run:
     wfcinit      :      0.48s CPU      0.50s WALL (       2 calls)
     potinit      :      0.37s CPU      0.70s WALL (       2 calls)
     hinit0       :      0.26s CPU      0.32s WALL (       2 calls)

     Called by electrons:
     c_bands      :     50.32s CPU     53.09s WALL (      83 calls)
     sum_band     :      7.71s CPU      8.09s WALL (      83 calls)
     v_of_rho     :      0.85s CPU      1.72s WALL (      87 calls)
     mix_rho      :      0.16s CPU      0.26s WALL (      83 calls)

     Called by c_bands:
     init_us_2    :      1.38s CPU      1.50s WALL (    7680 calls)
     init_us_2:cp :      1.37s CPU      1.50s WALL (    7680 calls)
     cegterg      :     47.78s CPU     49.04s WALL (    3320 calls)

     Called by *egterg:
     cdiaghg      :      2.66s CPU      2.73s WALL (   11300 calls)
     h_psi        :     40.83s CPU     41.93s WALL (   12100 calls)
     g_psi        :      0.17s CPU      0.18s WALL (    8700 calls)

     Called by h_psi:
     h_psi:calbec :      2.73s CPU      2.80s WALL (   12100 calls)
     vloc_psi     :     35.78s CPU     36.74s WALL (   12100 calls)
     add_vuspsi   :      2.19s CPU      2.23s WALL (   12100 calls)

     General routines
     calbec       :      3.47s CPU      3.58s WALL (   14500 calls)
     fft          :      0.86s CPU      2.02s WALL (    1176 calls)
     ffts         :      0.10s CPU      0.15s WALL (      83 calls)
     fftw         :     38.00s CPU     38.99s WALL (  313460 calls)

     Parallel routines

     PWSCF        :   1m21.50s CPU   1m27.04s WALL


   This run was terminated on:   3:19:37  30Dec2024            

=------------------------------------------------------------------------------=
   JOB DONE.
=------------------------------------------------------------------------------=
