
     Program PWSCF v.7.2 starts on 31Dec2024 at 15:56:41 

     This program is part of the open-source Quantum ESPRESSO suite
     for quantum simulation of materials; please cite
         "P. Giannozzi et al., J. Phys.:Condens. Matter 21 395502 (2009);
         "P. Giannozzi et al., J. Phys.:Condens. Matter 29 465901 (2017);
         "P. Giannozzi et al., J. Chem. Phys. 152 154105 (2020);
          URL http://www.quantum-espresso.org", 
     in publications or presentations arising from this work. More details at
     http://www.quantum-espresso.org/quote

     Parallel version (MPI & OpenMP), running on       8 processor cores
     Number of MPI processes:                 8
     Threads/MPI process:                     1

     MPI processes distributed on     1 nodes
     482721 MiB available memory on the printing compute node when the environment starts

     Waiting for input...
     Reading input from standard input

     Current dimensions of program PWSCF are:
     Max number of different atomic species (ntypx) = 10
     Max number of k-points (npk) =  40000
     Max angular momentum in pseudopotentials (lmaxx) =  4

     R & G space division:  proc/nbgrp/npool/nimage =       8
     Subspace diagonalization in iterative solution of the eigenvalue problem:
     a serial algorithm will be used


     Parallelization info
     --------------------
     sticks:   dense  smooth     PW     G-vecs:    dense   smooth      PW
     Min         832     832    223                43624    43624    6081
     Max         833     833    224                43629    43629    6086
     Sum        6661    6661   1789               349015   349015   48665

     Using Slab Decomposition



     bravais-lattice index     =            4
     lattice parameter (alat)  =      17.3848  a.u.
     unit-cell volume          =    3609.6258 (a.u.)^3
     number of atoms/cell      =            7
     number of atomic types    =            2
     number of electrons       =        22.00
     number of Kohn-Sham states=           15
     kinetic-energy cutoff     =      80.0000  Ry
     charge density cutoff     =     320.0000  Ry
     scf convergence threshold =      1.0E-08
     mixing beta               =       0.7000
     number of iterations used =            8  plain     mixing
     energy convergence thresh.=      1.0E-04
     force convergence thresh. =      1.0E-03
     press convergence thresh. =      1.0E+00
     Exchange-correlation= PBE
                           (   1   4   3   4   0   0   0)
     nstep                     =           50


     celldm(1)=  17.384840  celldm(2)=   0.000000  celldm(3)=   0.793267
     celldm(4)=   0.000000  celldm(5)=   0.000000  celldm(6)=   0.000000

     crystal axes: (cart. coord. in units of alat)
               a(1) = (   1.000000   0.000000   0.000000 )  
               a(2) = (  -0.500000   0.866025   0.000000 )  
               a(3) = (   0.000000   0.000000   0.793267 )  

     reciprocal axes: (cart. coord. in units 2 pi/alat)
               b(1) = (  1.000000  0.577350 -0.000000 )  
               b(2) = (  0.000000  1.154701  0.000000 )  
               b(3) = (  0.000000 -0.000000  1.260609 )  


     PseudoPot. # 1 for Li read from file:
     ../pseudo/Li_ONCV_PBE_sr.upf
     MD5 check sum: 50ff420e78310ffa21704f3361e624a4
     Pseudo is Norm-conserving, Zval =  3.0
     Generated using ONCVPSP code by D. R. Hamann
     Using radial grid of 1944 points,  4 beta functions with: 
                l(1) =   0
                l(2) =   0
                l(3) =   1
                l(4) =   1

     PseudoPot. # 2 for Si read from file:
     ../pseudo/Si_ONCV_PBE_sr.upf
     MD5 check sum: e543d271109d17c80368dfa7c482276d
     Pseudo is Norm-conserving + core correction, Zval =  4.0
     Generated using ONCVPSP code by D. R. Hamann
     Using radial grid of 1510 points,  6 beta functions with: 
                l(1) =   0
                l(2) =   0
                l(3) =   1
                l(4) =   1
                l(5) =   2
                l(6) =   2

     atomic species   valence    mass     pseudopotential
        Li             3.00     6.94100     Li( 1.00)
        Si             4.00    28.08550     Si( 1.00)

     12 Sym. Ops. (no inversion) found



   Cartesian axes

     site n.     atom                  positions (alat units)
         1           Li  tau(   1) = (  -0.2791933   0.4835769   0.1387908  )
         2           Li  tau(   2) = (   0.5583865   0.0000000   0.6544763  )
         3           Li  tau(   3) = (   0.2208067   0.3824485   0.1387908  )
         4           Li  tau(   4) = (  -0.2791933   0.4835769   0.6544763  )
         5           Li  tau(   5) = (   0.5583865   0.0000000   0.1387908  )
         6           Li  tau(   6) = (   0.2208067   0.3824485   0.6544763  )
         7           Si  tau(   7) = (   0.0000000   0.0000000   0.3966335  )

     number of k points=    35  Marzari-Vanderbilt smearing, width (Ry)=  0.0200
                       cart. coord. in units 2pi/alat
        k(    1) = (   0.0000000   0.0000000   0.0000000), wk =   0.0069444
        k(    2) = (   0.0000000   0.0000000   0.1575762), wk =   0.0138889
        k(    3) = (   0.0000000   0.0000000   0.3151524), wk =   0.0138889
        k(    4) = (   0.0000000   0.0000000   0.4727285), wk =   0.0138889
        k(    5) = (   0.0000000   0.0000000  -0.6303047), wk =   0.0069444
        k(    6) = (   0.0000000   0.1924501   0.0000000), wk =   0.0416667
        k(    7) = (   0.0000000   0.1924501   0.1575762), wk =   0.0833333
        k(    8) = (   0.0000000   0.1924501   0.3151524), wk =   0.0833333
        k(    9) = (   0.0000000   0.1924501   0.4727285), wk =   0.0833333
        k(   10) = (   0.0000000   0.1924501  -0.6303047), wk =   0.0416667
        k(   11) = (   0.0000000   0.3849002   0.0000000), wk =   0.0416667
        k(   12) = (   0.0000000   0.3849002   0.1575762), wk =   0.0833333
        k(   13) = (   0.0000000   0.3849002   0.3151524), wk =   0.0833333
        k(   14) = (   0.0000000   0.3849002   0.4727285), wk =   0.0833333
        k(   15) = (   0.0000000   0.3849002  -0.6303047), wk =   0.0416667
        k(   16) = (   0.0000000  -0.5773503   0.0000000), wk =   0.0208333
        k(   17) = (   0.0000000  -0.5773503   0.1575762), wk =   0.0416667
        k(   18) = (   0.0000000  -0.5773503   0.3151524), wk =   0.0416667
        k(   19) = (   0.0000000  -0.5773503   0.4727285), wk =   0.0416667
        k(   20) = (   0.0000000  -0.5773503  -0.6303047), wk =   0.0208333
        k(   21) = (   0.1666667   0.2886751   0.0000000), wk =   0.0416667
        k(   22) = (   0.1666667   0.2886751   0.1575762), wk =   0.0833333
        k(   23) = (   0.1666667   0.2886751   0.3151524), wk =   0.0833333
        k(   24) = (   0.1666667   0.2886751   0.4727285), wk =   0.0833333
        k(   25) = (   0.1666667   0.2886751  -0.6303047), wk =   0.0416667
        k(   26) = (   0.1666667   0.4811252   0.0000000), wk =   0.0833333
        k(   27) = (   0.1666667   0.4811252   0.1575762), wk =   0.1666667
        k(   28) = (   0.1666667   0.4811252   0.3151524), wk =   0.1666667
        k(   29) = (   0.1666667   0.4811252   0.4727285), wk =   0.1666667
        k(   30) = (   0.1666667   0.4811252  -0.6303047), wk =   0.0833333
        k(   31) = (   0.3333333   0.5773503   0.0000000), wk =   0.0138889
        k(   32) = (   0.3333333   0.5773503   0.1575762), wk =   0.0277778
        k(   33) = (   0.3333333   0.5773503   0.3151524), wk =   0.0277778
        k(   34) = (   0.3333333   0.5773503   0.4727285), wk =   0.0277778
        k(   35) = (   0.3333333   0.5773503  -0.6303047), wk =   0.0138889

     Dense  grid:   349015 G-vectors     FFT dimensions: ( 100, 100,  80)

     Estimated max dynamical RAM per process >      93.29 MB

     Estimated total dynamical RAM >     746.32 MB

     Initial potential from superposition of free atoms

     starting charge      21.9720, renormalised to      22.0000
     Starting wfcs are   16 randomized atomic wfcs

     total cpu time spent up to now is        6.9 secs

     Self-consistent Calculation

     iteration #  1     ecut=    80.00 Ry     beta= 0.70
     Davidson diagonalization with overlap
     ethr =  1.00E-02,  avg # of iterations =  3.1

     total cpu time spent up to now is       11.4 secs

     total energy              =     -93.71189137 Ry
     estimated scf accuracy    <       0.63121475 Ry

     iteration #  2     ecut=    80.00 Ry     beta= 0.70
     Davidson diagonalization with overlap
     ethr =  2.87E-03,  avg # of iterations =  8.1

     total cpu time spent up to now is       18.2 secs

     total energy              =     -94.23056271 Ry
     estimated scf accuracy    <       3.35800770 Ry

     iteration #  3     ecut=    80.00 Ry     beta= 0.70
     Davidson diagonalization with overlap
     ethr =  2.87E-03,  avg # of iterations =  2.1

     total cpu time spent up to now is       22.3 secs

     total energy              =     -93.95929709 Ry
     estimated scf accuracy    <       1.37978051 Ry

     iteration #  4     ecut=    80.00 Ry     beta= 0.70
     Davidson diagonalization with overlap
     ethr =  2.87E-03,  avg # of iterations =  5.7

     total cpu time spent up to now is       27.9 secs

     total energy              =     -94.14962020 Ry
     estimated scf accuracy    <       0.93413185 Ry

     iteration #  5     ecut=    80.00 Ry     beta= 0.70
     Davidson diagonalization with overlap
     ethr =  2.87E-03,  avg # of iterations =  1.1

     total cpu time spent up to now is       31.4 secs

     total energy              =     -94.20181306 Ry
     estimated scf accuracy    <       0.00834855 Ry

     iteration #  6     ecut=    80.00 Ry     beta= 0.70
     Davidson diagonalization with overlap
     ethr =  3.79E-05,  avg # of iterations =  7.4

     total cpu time spent up to now is       37.4 secs

     total energy              =     -94.20479031 Ry
     estimated scf accuracy    <       0.00653795 Ry

     iteration #  7     ecut=    80.00 Ry     beta= 0.70
     Davidson diagonalization with overlap
     ethr =  2.97E-05,  avg # of iterations =  1.0

     total cpu time spent up to now is       40.9 secs

     total energy              =     -94.20393738 Ry
     estimated scf accuracy    <       0.00812312 Ry

     iteration #  8     ecut=    80.00 Ry     beta= 0.70
     Davidson diagonalization with overlap
     ethr =  2.97E-05,  avg # of iterations =  4.9

     total cpu time spent up to now is       46.3 secs

     total energy              =     -94.22149071 Ry
     estimated scf accuracy    <       0.09938037 Ry

     iteration #  9     ecut=    80.00 Ry     beta= 0.70
     Davidson diagonalization with overlap
     ethr =  2.97E-05,  avg # of iterations =  4.5

     negative rho (up, down):  7.631E-07 0.000E+00

     total cpu time spent up to now is       51.6 secs

     total energy              =     -94.23158546 Ry
     estimated scf accuracy    <       0.23221500 Ry

     iteration # 10     ecut=    80.00 Ry     beta= 0.70
     Davidson diagonalization with overlap
     ethr =  2.97E-05,  avg # of iterations =  2.3

     total cpu time spent up to now is       55.9 secs

     total energy              =     -94.19323704 Ry
     estimated scf accuracy    <       0.31177748 Ry

     iteration # 11     ecut=    80.00 Ry     beta= 0.70
     Davidson diagonalization with overlap
     ethr =  2.97E-05,  avg # of iterations =  5.4

     negative rho (up, down):  1.657E-05 0.000E+00

     total cpu time spent up to now is       61.3 secs

     total energy              =     -94.21219238 Ry
     estimated scf accuracy    <       0.07627249 Ry

     iteration # 12     ecut=    80.00 Ry     beta= 0.70
     Davidson diagonalization with overlap
     ethr =  2.97E-05,  avg # of iterations =  4.3

     negative rho (up, down):  1.517E-04 0.000E+00

     total cpu time spent up to now is       66.1 secs

     total energy              =     -94.21399027 Ry
     estimated scf accuracy    <       0.16896833 Ry

     iteration # 13     ecut=    80.00 Ry     beta= 0.70
     Davidson diagonalization with overlap
     ethr =  2.97E-05,  avg # of iterations =  1.1

     total cpu time spent up to now is       69.6 secs

     total energy              =     -94.21192515 Ry
     estimated scf accuracy    <       0.14296677 Ry

     iteration # 14     ecut=    80.00 Ry     beta= 0.70
     Davidson diagonalization with overlap
     ethr =  2.97E-05,  avg # of iterations =  2.0

     total cpu time spent up to now is       73.6 secs

     total energy              =     -94.18970554 Ry
     estimated scf accuracy    <       0.11137541 Ry

     iteration # 15     ecut=    80.00 Ry     beta= 0.70
     Davidson diagonalization with overlap
     ethr =  2.97E-05,  avg # of iterations =  5.4

     total cpu time spent up to now is       79.9 secs

     total energy              =     -94.20467413 Ry
     estimated scf accuracy    <       0.00430524 Ry

     iteration # 16     ecut=    80.00 Ry     beta= 0.70
     Davidson diagonalization with overlap
     ethr =  1.96E-05,  avg # of iterations =  1.2

     total cpu time spent up to now is       83.4 secs

     total energy              =     -94.20413906 Ry
     estimated scf accuracy    <       0.00328781 Ry

     iteration # 17     ecut=    80.00 Ry     beta= 0.70
     Davidson diagonalization with overlap
     ethr =  1.49E-05,  avg # of iterations =  1.3

     total cpu time spent up to now is       87.0 secs

     total energy              =     -94.20429518 Ry
     estimated scf accuracy    <       0.00019084 Ry

     iteration # 18     ecut=    80.00 Ry     beta= 0.70
     Davidson diagonalization with overlap
     ethr =  8.67E-07,  avg # of iterations =  4.3

     total cpu time spent up to now is       92.0 secs

     total energy              =     -94.20433315 Ry
     estimated scf accuracy    <       0.00002506 Ry

     iteration # 19     ecut=    80.00 Ry     beta= 0.70
     Davidson diagonalization with overlap
     ethr =  1.14E-07,  avg # of iterations =  3.0

     total cpu time spent up to now is       96.0 secs

     total energy              =     -94.20433474 Ry
     estimated scf accuracy    <       0.00003502 Ry

     iteration # 20     ecut=    80.00 Ry     beta= 0.70
     Davidson diagonalization with overlap
     ethr =  1.14E-07,  avg # of iterations =  1.3

     total cpu time spent up to now is       99.5 secs

     total energy              =     -94.20433410 Ry
     estimated scf accuracy    <       0.00001050 Ry

     iteration # 21     ecut=    80.00 Ry     beta= 0.70
     Davidson diagonalization with overlap
     ethr =  4.77E-08,  avg # of iterations =  3.4

     total cpu time spent up to now is      104.0 secs

     total energy              =     -94.20433589 Ry
     estimated scf accuracy    <       0.00000018 Ry

     iteration # 22     ecut=    80.00 Ry     beta= 0.70
     Davidson diagonalization with overlap
     ethr =  8.40E-10,  avg # of iterations =  5.3

     total cpu time spent up to now is      109.7 secs

     total energy              =     -94.20433612 Ry
     estimated scf accuracy    <       0.00000013 Ry

     iteration # 23     ecut=    80.00 Ry     beta= 0.70
     Davidson diagonalization with overlap
     ethr =  5.87E-10,  avg # of iterations =  2.1

     total cpu time spent up to now is      113.7 secs

     total energy              =     -94.20433611 Ry
     estimated scf accuracy    <       0.00000017 Ry

     iteration # 24     ecut=    80.00 Ry     beta= 0.70
     Davidson diagonalization with overlap
     ethr =  5.87E-10,  avg # of iterations =  1.0

     total cpu time spent up to now is      117.2 secs

     total energy              =     -94.20433611 Ry
     estimated scf accuracy    <       0.00000004 Ry

     iteration # 25     ecut=    80.00 Ry     beta= 0.70
     Davidson diagonalization with overlap
     ethr =  1.87E-10,  avg # of iterations =  2.8

     total cpu time spent up to now is      121.4 secs

     End of self-consistent calculation

          k = 0.0000 0.0000 0.0000 ( 43629 PWs)   bands (ev):

   -50.1140 -50.1140 -50.1140 -50.0952 -50.0951 -50.0951  -8.0130  -3.1279
    -1.8534  -1.8534  -1.5820  -1.4490  -1.4490  -1.3956  -0.7466

          k = 0.0000 0.0000 0.1576 ( 43707 PWs)   bands (ev):

   -50.1140 -50.1140 -50.1140 -50.0952 -50.0951 -50.0951  -8.0124  -3.1094
    -1.8338  -1.8338  -1.6172  -1.4347  -1.4347  -1.3657  -0.9496

          k = 0.0000 0.0000 0.3152 ( 43611 PWs)   bands (ev):

   -50.1140 -50.1139 -50.1139 -50.0952 -50.0951 -50.0951  -8.0110  -3.0607
    -1.7811  -1.7811  -1.7049  -1.4006  -1.4006  -1.2835  -1.2369

          k = 0.0000 0.0000 0.4727 ( 43534 PWs)   bands (ev):

   -50.1140 -50.1139 -50.1139 -50.0952 -50.0951 -50.0951  -8.0096  -3.0044
    -1.8029  -1.7177  -1.7177  -1.4282  -1.3704  -1.3704  -1.1800

          k = 0.0000 0.0000-0.6303 ( 43696 PWs)   bands (ev):

   -50.1140 -50.1139 -50.1139 -50.0952 -50.0951 -50.0951  -8.0090  -2.9781
    -1.8489  -1.6865  -1.6865  -1.4914  -1.3612  -1.3612  -1.1269

          k = 0.0000 0.1925 0.0000 ( 43639 PWs)   bands (ev):

   -50.1140 -50.1140 -50.1140 -50.0952 -50.0951 -50.0951  -8.0127  -3.0976
    -2.0244  -1.9220  -1.6595  -1.5717  -1.3608  -0.9565  -0.6736

          k = 0.0000 0.1925 0.1576 ( 43631 PWs)   bands (ev):

   -50.1140 -50.1140 -50.1140 -50.0952 -50.0951 -50.0951  -8.0121  -3.0771
    -2.0039  -1.9027  -1.6737  -1.5708  -1.3607  -0.9725  -0.8662

          k = 0.0000 0.1925 0.3152 ( 43600 PWs)   bands (ev):

   -50.1140 -50.1140 -50.1139 -50.0952 -50.0951 -50.0951  -8.0107  -3.0226
    -1.9600  -1.8534  -1.7052  -1.5598  -1.3799  -1.1999  -0.8927

          k = 0.0000 0.1925 0.4727 ( 43569 PWs)   bands (ev):

   -50.1140 -50.1139 -50.1139 -50.0952 -50.0951 -50.0951  -8.0094  -2.9580
    -1.9582  -1.7810  -1.7031  -1.5592  -1.4557  -1.3373  -0.8527

          k = 0.0000 0.1925-0.6303 ( 43600 PWs)   bands (ev):

   -50.1140 -50.1139 -50.1139 -50.0952 -50.0951 -50.0951  -8.0088  -2.9272
    -1.9787  -1.7244  -1.7081  -1.5501  -1.4969  -1.3856  -0.8194

          k = 0.0000 0.3849 0.0000 ( 43649 PWs)   bands (ev):

   -50.1140 -50.1140 -50.1140 -50.0952 -50.0951 -50.0951  -8.0122  -3.0140
    -2.3497  -2.0199  -1.5867  -1.5503  -1.2468  -0.8378  -0.4414

          k = 0.0000 0.3849 0.1576 ( 43634 PWs)   bands (ev):

   -50.1140 -50.1140 -50.1140 -50.0952 -50.0951 -50.0951  -8.0116  -2.9881
    -2.3292  -1.9957  -1.6630  -1.5313  -1.2674  -0.8715  -0.6200

          k = 0.0000 0.3849 0.3152 ( 43607 PWs)   bands (ev):

   -50.1140 -50.1140 -50.1139 -50.0952 -50.0951 -50.0951  -8.0103  -2.9168
    -2.2753  -1.9302  -1.7842  -1.5784  -1.3276  -1.0129  -0.7069

          k = 0.0000 0.3849 0.4727 ( 43615 PWs)   bands (ev):

   -50.1140 -50.1140 -50.1139 -50.0952 -50.0951 -50.0951  -8.0089  -2.8262
    -2.2058  -1.9639  -1.8180  -1.6213  -1.4121  -1.1748  -0.7253

          k = 0.0000 0.3849-0.6303 ( 43594 PWs)   bands (ev):

   -50.1140 -50.1140 -50.1139 -50.0952 -50.0951 -50.0951  -8.0083  -2.7791
    -2.1337  -2.0895  -1.7482  -1.6422  -1.4449  -1.2714  -0.7229

          k = 0.0000-0.5774 0.0000 ( 43614 PWs)   bands (ev):

   -50.1140 -50.1140 -50.1140 -50.0952 -50.0951 -50.0951  -8.0120  -2.9455
    -2.5086  -2.0579  -1.5392  -1.5143  -1.2152  -0.9132  -0.2498

          k = 0.0000-0.5774 0.1576 ( 43608 PWs)   bands (ev):

   -50.1140 -50.1140 -50.1140 -50.0952 -50.0951 -50.0951  -8.0114  -2.9143
    -2.4917  -2.0322  -1.5836  -1.5816  -1.2329  -0.8448  -0.4750

          k = 0.0000-0.5774 0.3152 ( 43636 PWs)   bands (ev):

   -50.1140 -50.1140 -50.1139 -50.0952 -50.0951 -50.0951  -8.0100  -2.8245
    -2.4499  -1.9595  -1.7732  -1.6430  -1.3086  -0.7790  -0.6787

          k = 0.0000-0.5774 0.4727 ( 43632 PWs)   bands (ev):

   -50.1140 -50.1140 -50.1139 -50.0952 -50.0951 -50.0951  -8.0087  -2.6959
    -2.4080  -2.0028  -1.8533  -1.6594  -1.4230  -1.0684  -0.7173

          k = 0.0000-0.5774-0.6303 ( 43616 PWs)   bands (ev):

   -50.1140 -50.1140 -50.1139 -50.0952 -50.0952 -50.0951  -8.0081  -2.6130
    -2.3912  -2.1262  -1.7671  -1.6781  -1.4733  -1.2013  -0.7333

          k = 0.1667 0.2887 0.0000 ( 43653 PWs)   bands (ev):

   -50.1140 -50.1140 -50.1140 -50.0952 -50.0951 -50.0951  -8.0123  -3.0379
    -2.3018  -1.9324  -1.6447  -1.5557  -1.3264  -0.6762  -0.5288

          k = 0.1667 0.2887 0.1576 ( 43637 PWs)   bands (ev):

   -50.1140 -50.1140 -50.1140 -50.0952 -50.0951 -50.0951  -8.0118  -3.0139
    -2.2728  -1.9414  -1.6414  -1.5542  -1.3721  -0.7475  -0.6897

          k = 0.1667 0.2887 0.3152 ( 43587 PWs)   bands (ev):

   -50.1140 -50.1140 -50.1139 -50.0952 -50.0951 -50.0951  -8.0104  -2.9486
    -2.1895  -1.9752  -1.6494  -1.5527  -1.4868  -0.9824  -0.7277

          k = 0.1667 0.2887 0.4727 ( 43605 PWs)   bands (ev):

   -50.1140 -50.1140 -50.1139 -50.0952 -50.0951 -50.0951  -8.0090  -2.8678
    -2.0679  -2.0270  -1.7068  -1.7019  -1.4199  -1.1430  -0.7415

          k = 0.1667 0.2887-0.6303 ( 43592 PWs)   bands (ev):

   -50.1140 -50.1140 -50.1139 -50.0952 -50.0951 -50.0951  -8.0085  -2.8271
    -2.0567  -1.9809  -1.7733  -1.7725  -1.3007  -1.2782  -0.6965

          k = 0.1667 0.4811 0.0000 ( 43617 PWs)   bands (ev):

   -50.1140 -50.1140 -50.1140 -50.0952 -50.0951 -50.0951  -8.0120  -2.9331
    -2.5618  -1.9437  -1.5531  -1.5393  -1.3819  -0.6502  -0.3339

          k = 0.1667 0.4811 0.1576 ( 43629 PWs)   bands (ev):

   -50.1140 -50.1140 -50.1140 -50.0952 -50.0951 -50.0951  -8.0114  -2.9037
    -2.5344  -1.9523  -1.6054  -1.5451  -1.3936  -0.6550  -0.5384

          k = 0.1667 0.4811 0.3152 ( 43613 PWs)   bands (ev):

   -50.1140 -50.1140 -50.1139 -50.0952 -50.0951 -50.0951  -8.0100  -2.8206
    -2.4582  -1.9788  -1.7314  -1.6216  -1.3911  -0.7637  -0.7074

          k = 0.1667 0.4811 0.4727 ( 43613 PWs)   bands (ev):

   -50.1140 -50.1140 -50.1139 -50.0952 -50.0951 -50.0951  -8.0087  -2.7074
    -2.3571  -2.0172  -1.9058  -1.7383  -1.3347  -0.9480  -0.7534

          k = 0.1667 0.4811-0.6303 ( 43616 PWs)   bands (ev):

   -50.1140 -50.1140 -50.1139 -50.0952 -50.0952 -50.0951  -8.0081  -2.6419
    -2.2958  -2.0922  -1.9002  -1.8559  -1.2664  -1.0556  -0.7604

          k = 0.3333 0.5774 0.0000 ( 43539 PWs)   bands (ev):

   -50.1140 -50.1140 -50.1140 -50.0951 -50.0951 -50.0951  -8.0118  -2.7808
    -2.7808  -1.8297  -1.5383  -1.5383  -1.5339  -0.4162  -0.4161

          k = 0.3333 0.5774 0.1576 ( 43590 PWs)   bands (ev):

   -50.1140 -50.1140 -50.1140 -50.0951 -50.0951 -50.0951  -8.0113  -2.7500
    -2.7500  -1.8795  -1.5784  -1.5784  -1.4768  -0.5365  -0.5365

          k = 0.3333 0.5774 0.3152 ( 43641 PWs)   bands (ev):

   -50.1140 -50.1140 -50.1139 -50.0952 -50.0952 -50.0951  -8.0099  -2.6616
    -2.6616  -1.9676  -1.7086  -1.7086  -1.3584  -0.6981  -0.6981

          k = 0.3333 0.5774 0.4727 ( 43635 PWs)   bands (ev):

   -50.1140 -50.1140 -50.1139 -50.0952 -50.0952 -50.0951  -8.0086  -2.5347
    -2.5347  -2.0364  -1.8970  -1.8970  -1.2316  -0.7656  -0.7655

          k = 0.3333 0.5774-0.6303 ( 43626 PWs)   bands (ev):

   -50.1140 -50.1140 -50.1139 -50.0952 -50.0952 -50.0951  -8.0080  -2.4524
    -2.4524  -2.0617  -2.0081  -2.0081  -1.1666  -0.7774  -0.7772

     the Fermi energy is    -1.6494 ev

!    total energy              =     -94.20433612 Ry
     estimated scf accuracy    <          6.2E-10 Ry
     smearing contrib. (-TS)   =      -0.00416692 Ry
     internal energy E=F+TS    =     -94.20016920 Ry

     The total energy is F=E-TS. E is the sum of the following terms:
     one-electron contribution =     -79.66222371 Ry
     hartree contribution      =      30.28646895 Ry
     xc contribution           =     -22.05204992 Ry
     ewald contribution        =     -22.77236452 Ry

     convergence has been achieved in  25 iterations

     Forces acting on atoms (cartesian axes, Ry/au):

     atom    1 type  1   force =    -0.00100671    0.00174367    0.02532018
     atom    2 type  1   force =     0.00201342   -0.00000000   -0.02532018
     atom    3 type  1   force =    -0.00100671   -0.00174367    0.02532018
     atom    4 type  1   force =    -0.00100671    0.00174367   -0.02532018
     atom    5 type  1   force =     0.00201342    0.00000000    0.02532018
     atom    6 type  1   force =    -0.00100671   -0.00174367   -0.02532018
     atom    7 type  2   force =     0.00000000    0.00000000    0.00000000
     The non-local contrib.  to forces
     atom    1 type  1   force =     0.00116547   -0.00201866    0.07410231
     atom    2 type  1   force =    -0.00233095   -0.00000000   -0.07410231
     atom    3 type  1   force =     0.00116547    0.00201866    0.07410231
     atom    4 type  1   force =     0.00116547   -0.00201866   -0.07410231
     atom    5 type  1   force =    -0.00233095   -0.00000000    0.07410231
     atom    6 type  1   force =     0.00116547    0.00201866   -0.07410231
     atom    7 type  2   force =     0.00000000    0.00000000    0.00000000
     The ionic contribution  to forces
     atom    1 type  1   force =    -0.00873886    0.01513615    0.58438219
     atom    2 type  1   force =     0.01747772    0.00000000   -0.58438219
     atom    3 type  1   force =    -0.00873886   -0.01513615    0.58438219
     atom    4 type  1   force =    -0.00873886    0.01513615   -0.58438219
     atom    5 type  1   force =     0.01747772    0.00000000    0.58438219
     atom    6 type  1   force =    -0.00873886   -0.01513615   -0.58438219
     atom    7 type  2   force =     0.00000000    0.00000000   -0.00000000
     The local contribution  to forces
     atom    1 type  1   force =     0.00656491   -0.01137076   -0.63316419
     atom    2 type  1   force =    -0.01312982   -0.00000000    0.63316419
     atom    3 type  1   force =     0.00656491    0.01137076   -0.63316419
     atom    4 type  1   force =     0.00656491   -0.01137076    0.63316419
     atom    5 type  1   force =    -0.01312982   -0.00000000   -0.63316419
     atom    6 type  1   force =     0.00656491    0.01137076    0.63316419
     atom    7 type  2   force =    -0.00000000   -0.00000000    0.00000000
     The core correction contribution to forces
     atom    1 type  1   force =     0.00000000    0.00000000    0.00000000
     atom    2 type  1   force =     0.00000000    0.00000000    0.00000000
     atom    3 type  1   force =     0.00000000    0.00000000    0.00000000
     atom    4 type  1   force =     0.00000000    0.00000000    0.00000000
     atom    5 type  1   force =     0.00000000    0.00000000    0.00000000
     atom    6 type  1   force =     0.00000000    0.00000000    0.00000000
     atom    7 type  2   force =    -0.00000000    0.00000000   -0.00000000
     The Hubbard contrib.    to forces
     atom    1 type  1   force =     0.00000000    0.00000000    0.00000000
     atom    2 type  1   force =     0.00000000    0.00000000    0.00000000
     atom    3 type  1   force =     0.00000000    0.00000000    0.00000000
     atom    4 type  1   force =     0.00000000    0.00000000    0.00000000
     atom    5 type  1   force =     0.00000000    0.00000000    0.00000000
     atom    6 type  1   force =     0.00000000    0.00000000    0.00000000
     atom    7 type  2   force =     0.00000000    0.00000000    0.00000000
     The SCF correction term to forces
     atom    1 type  1   force =     0.00000177   -0.00000306   -0.00000013
     atom    2 type  1   force =    -0.00000353   -0.00000000    0.00000013
     atom    3 type  1   force =     0.00000177    0.00000306   -0.00000013
     atom    4 type  1   force =     0.00000177   -0.00000306    0.00000013
     atom    5 type  1   force =    -0.00000353   -0.00000000   -0.00000013
     atom    6 type  1   force =     0.00000177    0.00000306    0.00000013
     atom    7 type  2   force =    -0.00000000   -0.00000000   -0.00000000

     Total force =     0.062217     Total SCF correction =     0.000009


     Computing stress (Cartesian axis) and pressure

          total   stress  (Ry/bohr**3)                   (kbar)     P=      -11.72
  -0.00012951   0.00000000   0.00000000          -19.05        0.00        0.00
   0.00000000  -0.00012951  -0.00000000            0.00      -19.05       -0.00
   0.00000000   0.00000000   0.00001998            0.00        0.00        2.94


     BFGS Geometry Optimization
     Energy error            =      0.0E+00 Ry
     Gradient error          =      2.5E-02 Ry/Bohr
     Cell gradient error     =      5.2E+02 kbar

     number of scf cycles    =   1
     number of bfgs steps    =   0

     enthalpy           new  =     -81.9354672081 Ry

     new trust radius        =       0.5000000000 bohr
ibrav =      4
 celldm(1) =     16.66143847
 celldm(3) =      0.79472628
Input lattice vectors:
     0.95838893     0.00000000     0.00000000
    -0.47919446     0.82998916     0.00000000
     0.00000000    -0.00000000     0.76165687
New lattice vectors in INITIAL alat:
     0.95838893     0.00000000     0.00000000
    -0.47919446     0.82998916     0.00000000
     0.00000000     0.00000000     0.76165687
New lattice vectors in NEW alat (for information only):
     1.00000000     0.00000000     0.00000000
    -0.50000000     0.86602540     0.00000000
     0.00000000     0.00000000     0.79472628
Discrepancy in bohr =     0.000000    0.000000    0.000000
     new conv_thr            =       0.0000000100 Ry

     new unit-cell volume =   3183.35950 a.u.^3 (   471.72521 Ang^3 )
     density =      0.24546 g/cm^3

CELL_PARAMETERS (alat= 17.38484033)
   0.958388927   0.000000000   0.000000000
  -0.479194464   0.829989157   0.000000000
   0.000000000   0.000000000   0.761656867

ATOMIC_POSITIONS (crystal)
Li           -0.0000000000        0.5584411323        0.1758270898
Li            0.5584411323       -0.0000000000        0.8241729102
Li            0.4415588677        0.4415588677        0.1758270898
Li           -0.0000000000        0.5584411323        0.8241729102
Li            0.5584411323        0.0000000000        0.1758270898
Li            0.4415588677        0.4415588677        0.8241729102
Si            0.0000000000        0.0000000000        0.5000000000



     Writing config-only to output data dir ./output/LiSi.save/
     NEW-OLD atomic charge density approx. for the potential
     extrapolated charge   19.05785, renormalised to   22.00000

     total cpu time spent up to now is      138.7 secs

     Self-consistent Calculation

     iteration #  1     ecut=    80.00 Ry     beta= 0.70
     Davidson diagonalization with overlap
     c_bands:  1 eigenvalues not converged
     ethr =  1.00E-06,  avg # of iterations = 12.7

     total cpu time spent up to now is      152.1 secs

     total energy              =     -93.67603677 Ry
     estimated scf accuracy    <       0.55175060 Ry

     iteration #  2     ecut=    80.00 Ry     beta= 0.70
     Davidson diagonalization with overlap
     ethr =  2.51E-03,  avg # of iterations =  5.5

     total cpu time spent up to now is      158.0 secs

     total energy              =     -93.97465328 Ry
     estimated scf accuracy    <       4.37034312 Ry

     iteration #  3     ecut=    80.00 Ry     beta= 0.70
     Davidson diagonalization with overlap
     ethr =  2.51E-03,  avg # of iterations =  3.0

     total cpu time spent up to now is      162.4 secs

     total energy              =     -94.24456777 Ry
     estimated scf accuracy    <       0.40633788 Ry

     iteration #  4     ecut=    80.00 Ry     beta= 0.70
     Davidson diagonalization with overlap
     ethr =  1.85E-03,  avg # of iterations =  1.4

     total cpu time spent up to now is      166.1 secs

     total energy              =     -94.24079512 Ry
     estimated scf accuracy    <       0.29752667 Ry

     iteration #  5     ecut=    80.00 Ry     beta= 0.70
     Davidson diagonalization with overlap
     ethr =  1.35E-03,  avg # of iterations =  1.1

     total cpu time spent up to now is      169.7 secs

     total energy              =     -94.24119463 Ry
     estimated scf accuracy    <       0.07175172 Ry

     iteration #  6     ecut=    80.00 Ry     beta= 0.70
     Davidson diagonalization with overlap
     ethr =  3.26E-04,  avg # of iterations =  3.1

     total cpu time spent up to now is      173.8 secs

     total energy              =     -94.24705363 Ry
     estimated scf accuracy    <       0.02089673 Ry

     iteration #  7     ecut=    80.00 Ry     beta= 0.70
     Davidson diagonalization with overlap
     ethr =  9.50E-05,  avg # of iterations =  2.2

     total cpu time spent up to now is      177.6 secs

     total energy              =     -94.24392736 Ry
     estimated scf accuracy    <       0.02345234 Ry

     iteration #  8     ecut=    80.00 Ry     beta= 0.70
     Davidson diagonalization with overlap
     ethr =  9.50E-05,  avg # of iterations =  1.7

     total cpu time spent up to now is      181.3 secs

     total energy              =     -94.24271764 Ry
     estimated scf accuracy    <       0.00606581 Ry

     iteration #  9     ecut=    80.00 Ry     beta= 0.70
     Davidson diagonalization with overlap
     ethr =  2.76E-05,  avg # of iterations =  4.7

     total cpu time spent up to now is      186.4 secs

     total energy              =     -94.24467486 Ry
     estimated scf accuracy    <       0.00446624 Ry

     iteration # 10     ecut=    80.00 Ry     beta= 0.70
     Davidson diagonalization with overlap
     ethr =  2.03E-05,  avg # of iterations =  1.2

     total cpu time spent up to now is      190.0 secs

     total energy              =     -94.24439221 Ry
     estimated scf accuracy    <       0.00186725 Ry

     iteration # 11     ecut=    80.00 Ry     beta= 0.70
     Davidson diagonalization with overlap
     ethr =  8.49E-06,  avg # of iterations =  1.7

     total cpu time spent up to now is      193.7 secs

     total energy              =     -94.24454762 Ry
     estimated scf accuracy    <       0.00000421 Ry

     iteration # 12     ecut=    80.00 Ry     beta= 0.70
     Davidson diagonalization with overlap
     c_bands:  1 eigenvalues not converged
     ethr =  1.91E-08,  avg # of iterations =  7.4

     total cpu time spent up to now is      200.1 secs

     total energy              =     -94.24456075 Ry
     estimated scf accuracy    <       0.00000176 Ry

     iteration # 13     ecut=    80.00 Ry     beta= 0.70
     Davidson diagonalization with overlap
     ethr =  8.00E-09,  avg # of iterations =  1.0

     total cpu time spent up to now is      203.6 secs

     total energy              =     -94.24456069 Ry
     estimated scf accuracy    <       0.00000085 Ry

     iteration # 14     ecut=    80.00 Ry     beta= 0.70
     Davidson diagonalization with overlap
     ethr =  3.89E-09,  avg # of iterations =  1.2

     total cpu time spent up to now is      207.1 secs

     total energy              =     -94.24456073 Ry
     estimated scf accuracy    <       0.00000007 Ry

     iteration # 15     ecut=    80.00 Ry     beta= 0.70
     Davidson diagonalization with overlap
     ethr =  3.14E-10,  avg # of iterations =  4.2

     total cpu time spent up to now is      211.7 secs

     total energy              =     -94.24456074 Ry
     estimated scf accuracy    <       0.00000002 Ry

     iteration # 16     ecut=    80.00 Ry     beta= 0.70
     Davidson diagonalization with overlap
     ethr =  1.12E-10,  avg # of iterations =  2.5

     total cpu time spent up to now is      215.7 secs

     End of self-consistent calculation

          k = 0.0000 0.0000 0.0000 ( 43629 PWs)   bands (ev):

   -49.9236 -49.9236 -49.9236 -49.8969 -49.8969 -49.8969  -7.8220  -3.0856
    -1.7313  -1.7313  -1.4132  -1.3339  -1.1937  -1.1937  -0.5883

          k = 0.0000 0.0000 0.1641 ( 43707 PWs)   bands (ev):

   -49.9236 -49.9236 -49.9236 -49.8969 -49.8969 -49.8969  -7.8210  -3.0676
    -1.7086  -1.7086  -1.4623  -1.3014  -1.1752  -1.1752  -0.7640

          k = 0.0000 0.0000 0.3282 ( 43611 PWs)   bands (ev):

   -49.9236 -49.9236 -49.9236 -49.8969 -49.8969 -49.8969  -7.8186  -3.0205
    -1.6477  -1.6477  -1.5755  -1.2119  -1.1290  -1.1290  -1.0393

          k = 0.0000 0.0000 0.4923 ( 43534 PWs)   bands (ev):

   -49.9236 -49.9236 -49.9236 -49.8970 -49.8969 -49.8969  -7.8162  -2.9670
    -1.6857  -1.5747  -1.5747  -1.2373  -1.0993  -1.0841  -1.0841

          k = 0.0000 0.0000-0.6565 ( 43696 PWs)   bands (ev):

   -49.9236 -49.9236 -49.9236 -49.8970 -49.8969 -49.8969  -7.8152  -2.9424
    -1.7319  -1.5390  -1.5390  -1.3075  -1.0682  -1.0682  -1.0415

          k = 0.0000 0.2008 0.0000 ( 43639 PWs)   bands (ev):

   -49.9236 -49.9236 -49.9236 -49.8969 -49.8969 -49.8969  -7.8215  -3.0567
    -1.9024  -1.8020  -1.5426  -1.4009  -1.0957  -0.7449  -0.4993

          k = 0.0000 0.2008 0.1641 ( 43631 PWs)   bands (ev):

   -49.9236 -49.9236 -49.9236 -49.8969 -49.8969 -49.8969  -7.8205  -3.0358
    -1.8821  -1.7793  -1.5541  -1.4053  -1.0934  -0.7866  -0.6509

          k = 0.0000 0.2008 0.3282 ( 43600 PWs)   bands (ev):

   -49.9236 -49.9236 -49.9236 -49.8969 -49.8969 -49.8969  -7.8181  -2.9806
    -1.8467  -1.7186  -1.5781  -1.3932  -1.1236  -1.0123  -0.6758

          k = 0.0000 0.2008 0.4923 ( 43569 PWs)   bands (ev):

   -49.9236 -49.9236 -49.9236 -49.8969 -49.8969 -49.8969  -7.8157  -2.9164
    -1.8599  -1.6310  -1.5567  -1.3907  -1.2605  -1.0930  -0.6560

          k = 0.0000 0.2008-0.6565 ( 43600 PWs)   bands (ev):

   -49.9236 -49.9236 -49.9236 -49.8970 -49.8969 -49.8969  -7.8147  -2.8862
    -1.8815  -1.5647  -1.5612  -1.3740  -1.3251  -1.1272  -0.6330

          k = 0.0000 0.4016 0.0000 ( 43649 PWs)   bands (ev):

   -49.9236 -49.9236 -49.9236 -49.8969 -49.8969 -49.8969  -7.8206  -2.9759
    -2.2534  -1.9062  -1.4406  -1.3754  -0.9619  -0.6807  -0.2289

          k = 0.0000 0.4016 0.1641 ( 43634 PWs)   bands (ev):

   -49.9236 -49.9236 -49.9236 -49.8969 -49.8969 -49.8969  -7.8196  -2.9478
    -2.2325  -1.8785  -1.5316  -1.3537  -0.9881  -0.7196  -0.3838

          k = 0.0000 0.4016 0.3282 ( 43607 PWs)   bands (ev):

   -49.9236 -49.9236 -49.9236 -49.8969 -49.8969 -49.8969  -7.8173  -2.8705
    -2.1790  -1.8034  -1.6690  -1.4197  -1.0646  -0.8315  -0.4938

          k = 0.0000 0.4016 0.4923 ( 43615 PWs)   bands (ev):

   -49.9236 -49.9236 -49.9236 -49.8969 -49.8969 -49.8969  -7.8149  -2.7725
    -2.1116  -1.8556  -1.6833  -1.4784  -1.1736  -0.9839  -0.5112

          k = 0.0000 0.4016-0.6565 ( 43594 PWs)   bands (ev):

   -49.9236 -49.9236 -49.9236 -49.8969 -49.8969 -49.8969  -7.8139  -2.7216
    -2.0197  -2.0116  -1.6119  -1.4829  -1.2256  -1.0907  -0.4831

          k = 0.0000-0.6024 0.0000 ( 43614 PWs)   bands (ev):

   -49.9236 -49.9236 -49.9236 -49.8969 -49.8969 -49.8969  -7.8201  -2.9105
    -2.4201  -1.9470  -1.3620  -1.3375  -0.9350  -0.7888  -0.0099

          k = 0.0000-0.6024 0.1641 ( 43608 PWs)   bands (ev):

   -49.9236 -49.9236 -49.9236 -49.8969 -49.8969 -49.8969  -7.8191  -2.8758
    -2.4033  -1.9181  -1.4271  -1.4213  -0.9498  -0.7053  -0.2171

          k = 0.0000-0.6024 0.3282 ( 43636 PWs)   bands (ev):

   -49.9236 -49.9236 -49.9236 -49.8969 -49.8969 -49.8969  -7.8168  -2.7756
    -2.3635  -1.8360  -1.6443  -1.5139  -1.0487  -0.5816  -0.4897

          k = 0.0000-0.6024 0.4923 ( 43632 PWs)   bands (ev):

   -49.9236 -49.9236 -49.9236 -49.8969 -49.8969 -49.8969  -7.8145  -2.6287
    -2.3272  -1.9093  -1.7188  -1.5304  -1.1940  -0.8913  -0.4305

          k = 0.0000-0.6024-0.6565 ( 43616 PWs)   bands (ev):

   -49.9236 -49.9236 -49.9236 -49.8969 -49.8969 -49.8969  -7.8135  -2.5292
    -2.3143  -2.0552  -1.6338  -1.5249  -1.2666  -1.0397  -0.4415

          k = 0.1739 0.3012 0.0000 ( 43653 PWs)   bands (ev):

   -49.9236 -49.9236 -49.9236 -49.8969 -49.8969 -49.8969  -7.8208  -2.9984
    -2.2093  -1.7986  -1.5168  -1.3819  -1.0736  -0.4422  -0.3271

          k = 0.1739 0.3012 0.1641 ( 43637 PWs)   bands (ev):

   -49.9236 -49.9236 -49.9236 -49.8969 -49.8969 -49.8969  -7.8198  -2.9728
    -2.1769  -1.8179  -1.5092  -1.3788  -1.1348  -0.5220  -0.4674

          k = 0.1739 0.3012 0.3282 ( 43587 PWs)   bands (ev):

   -49.9236 -49.9236 -49.9236 -49.8969 -49.8969 -49.8969  -7.8175  -2.9034
    -2.0834  -1.8747  -1.5078  -1.3818  -1.2755  -0.7346  -0.5347

          k = 0.1739 0.3012 0.4923 ( 43605 PWs)   bands (ev):

   -49.9236 -49.9236 -49.9236 -49.8969 -49.8969 -49.8969  -7.8151  -2.8180
    -1.9449  -1.9415  -1.5645  -1.5538  -1.2047  -0.8933  -0.5626

          k = 0.1739 0.3012-0.6565 ( 43592 PWs)   bands (ev):

   -49.9236 -49.9236 -49.9236 -49.8969 -49.8969 -49.8969  -7.8141  -2.7753
    -1.9730  -1.8400  -1.6439  -1.6386  -1.0782  -1.0333  -0.4846

          k = 0.1739 0.5020 0.0000 ( 43617 PWs)   bands (ev):

   -49.9236 -49.9236 -49.9236 -49.8969 -49.8969 -49.8969  -7.8201  -2.8942
    -2.4899  -1.8041  -1.3921  -1.3622  -1.1658  -0.4585  -0.1195

          k = 0.1739 0.5020 0.1641 ( 43629 PWs)   bands (ev):

   -49.9236 -49.9236 -49.9236 -49.8969 -49.8969 -49.8969  -7.8191  -2.8617
    -2.4597  -1.8215  -1.4550  -1.3735  -1.1704  -0.4694  -0.2956

          k = 0.1739 0.5020 0.3282 ( 43613 PWs)   bands (ev):

   -49.9236 -49.9236 -49.9236 -49.8969 -49.8969 -49.8969  -7.8168  -2.7695
    -2.3758  -1.8699  -1.5941  -1.4726  -1.1596  -0.5222  -0.5018

          k = 0.1739 0.5020 0.4923 ( 43613 PWs)   bands (ev):

   -49.9236 -49.9236 -49.9236 -49.8969 -49.8969 -49.8969  -7.8145  -2.6424
    -2.2648  -1.9259  -1.7944  -1.6030  -1.0979  -0.7130  -0.5168

          k = 0.1739 0.5020-0.6565 ( 43616 PWs)   bands (ev):

   -49.9236 -49.9236 -49.9236 -49.8969 -49.8969 -49.8969  -7.8135  -2.5673
    -2.1943  -2.0161  -1.7850  -1.7424  -1.0049  -0.8507  -0.5020

          k = 0.3478 0.6024 0.0000 ( 43539 PWs)   bands (ev):

   -49.9236 -49.9236 -49.9236 -49.8969 -49.8969 -49.8969  -7.8199  -2.7315
    -2.7315  -1.6521  -1.3701  -1.3701  -1.3557  -0.2225  -0.2225

          k = 0.3478 0.6024 0.1641 ( 43590 PWs)   bands (ev):

   -49.9236 -49.9236 -49.9236 -49.8969 -49.8969 -49.8969  -7.8189  -2.6973
    -2.6973  -1.7308  -1.4166  -1.4166  -1.2705  -0.3373  -0.3373

          k = 0.3478 0.6024 0.3282 ( 43641 PWs)   bands (ev):

   -49.9236 -49.9236 -49.9236 -49.8969 -49.8969 -49.8969  -7.8166  -2.5984
    -2.5984  -1.8565  -1.5682  -1.5682  -1.1142  -0.4803  -0.4803

          k = 0.3478 0.6024 0.4923 ( 43635 PWs)   bands (ev):

   -49.9236 -49.9236 -49.9236 -49.8969 -49.8969 -49.8969  -7.8143  -2.4535
    -2.4535  -1.9498  -1.7876  -1.7876  -0.9552  -0.5213  -0.5213

          k = 0.3478 0.6024-0.6565 ( 43626 PWs)   bands (ev):

   -49.9236 -49.9236 -49.9236 -49.8969 -49.8969 -49.8969  -7.8133  -2.3547
    -2.3547  -1.9836  -1.9203  -1.9203  -0.8728  -0.5195  -0.5195

     the Fermi energy is    -1.5011 ev

!    total energy              =     -94.24456074 Ry
     estimated scf accuracy    <          2.5E-09 Ry
     smearing contrib. (-TS)   =      -0.00222944 Ry
     internal energy E=F+TS    =     -94.24233130 Ry

     The total energy is F=E-TS. E is the sum of the following terms:
     one-electron contribution =     -77.92718227 Ry
     hartree contribution      =      29.57280106 Ry
     xc contribution           =     -22.09109147 Ry
     ewald contribution        =     -23.79685862 Ry

     convergence has been achieved in  16 iterations

     Forces acting on atoms (cartesian axes, Ry/au):

     atom    1 type  1   force =    -0.00102506    0.00177545    0.03284181
     atom    2 type  1   force =     0.00205012    0.00000000   -0.03284181
     atom    3 type  1   force =    -0.00102506   -0.00177545    0.03284181
     atom    4 type  1   force =    -0.00102506    0.00177545   -0.03284181
     atom    5 type  1   force =     0.00205012   -0.00000000    0.03284181
     atom    6 type  1   force =    -0.00102506   -0.00177545   -0.03284181
     atom    7 type  2   force =    -0.00000000    0.00000000    0.00000000
     The non-local contrib.  to forces
     atom    1 type  1   force =     0.00108386   -0.00187729    0.06009728
     atom    2 type  1   force =    -0.00216771    0.00000000   -0.06009728
     atom    3 type  1   force =     0.00108386    0.00187729    0.06009728
     atom    4 type  1   force =     0.00108386   -0.00187729   -0.06009728
     atom    5 type  1   force =    -0.00216771   -0.00000000    0.06009728
     atom    6 type  1   force =     0.00108386    0.00187729   -0.06009728
     atom    7 type  2   force =     0.00000000    0.00000000    0.00000000
     The ionic contribution  to forces
     atom    1 type  1   force =    -0.00939344    0.01626992    0.62313611
     atom    2 type  1   force =     0.01878688   -0.00000000   -0.62313611
     atom    3 type  1   force =    -0.00939344   -0.01626992    0.62313611
     atom    4 type  1   force =    -0.00939344    0.01626992   -0.62313611
     atom    5 type  1   force =     0.01878688   -0.00000000    0.62313611
     atom    6 type  1   force =    -0.00939344   -0.01626992   -0.62313611
     atom    7 type  2   force =     0.00000000    0.00000000   -0.00000000
     The local contribution  to forces
     atom    1 type  1   force =     0.00728415   -0.01261652   -0.65036718
     atom    2 type  1   force =    -0.01456831    0.00000000    0.65036718
     atom    3 type  1   force =     0.00728415    0.01261652   -0.65036718
     atom    4 type  1   force =     0.00728415   -0.01261652    0.65036718
     atom    5 type  1   force =    -0.01456831    0.00000000   -0.65036718
     atom    6 type  1   force =     0.00728415    0.01261652    0.65036718
     atom    7 type  2   force =    -0.00000000    0.00000000    0.00000000
     The core correction contribution to forces
     atom    1 type  1   force =     0.00000000    0.00000000    0.00000000
     atom    2 type  1   force =     0.00000000    0.00000000    0.00000000
     atom    3 type  1   force =     0.00000000    0.00000000    0.00000000
     atom    4 type  1   force =     0.00000000    0.00000000    0.00000000
     atom    5 type  1   force =     0.00000000    0.00000000    0.00000000
     atom    6 type  1   force =     0.00000000    0.00000000    0.00000000
     atom    7 type  2   force =    -0.00000000   -0.00000000    0.00000000
     The Hubbard contrib.    to forces
     atom    1 type  1   force =     0.00000000    0.00000000    0.00000000
     atom    2 type  1   force =     0.00000000    0.00000000    0.00000000
     atom    3 type  1   force =     0.00000000    0.00000000    0.00000000
     atom    4 type  1   force =     0.00000000    0.00000000    0.00000000
     atom    5 type  1   force =     0.00000000    0.00000000    0.00000000
     atom    6 type  1   force =     0.00000000    0.00000000    0.00000000
     atom    7 type  2   force =     0.00000000    0.00000000    0.00000000
     The SCF correction term to forces
     atom    1 type  1   force =     0.00000037   -0.00000065   -0.00002440
     atom    2 type  1   force =    -0.00000075   -0.00000000    0.00002440
     atom    3 type  1   force =     0.00000037    0.00000065   -0.00002440
     atom    4 type  1   force =     0.00000037   -0.00000065    0.00002440
     atom    5 type  1   force =    -0.00000075    0.00000000   -0.00002440
     atom    6 type  1   force =     0.00000037    0.00000065    0.00002440
     atom    7 type  2   force =     0.00000000   -0.00000000    0.00000000

     Total force =     0.080602     Total SCF correction =     0.000060


     Computing stress (Cartesian axis) and pressure

          total   stress  (Ry/bohr**3)                   (kbar)     P=      -14.21
  -0.00016521   0.00000000   0.00000000          -24.30        0.00        0.00
   0.00000000  -0.00016521   0.00000000            0.00      -24.30        0.00
   0.00000000   0.00000000   0.00004055            0.00        0.00        5.96

     Energy error            =      1.5E+00 Ry
     Gradient error          =      3.3E-02 Ry/Bohr
     Cell gradient error     =      5.2E+02 kbar

     number of scf cycles    =   2
     number of bfgs steps    =   1

     enthalpy           old  =     -81.9354672081 Ry
     enthalpy           new  =     -83.4245416888 Ry

     CASE: enthalpy          _new < enthalpy          _old


     WARNING: bfgs curvature condition failed, Theta= 0.952
     new trust radius        =       0.7349050399 bohr
ibrav =      4
 celldm(1) =     15.57633568
 celldm(3) =      0.79904449
Input lattice vectors:
     0.89597232    -0.00000000     0.00000000
    -0.44798616     0.77593479    -0.00000000
    -0.00000000     0.00000000     0.71592174
New lattice vectors in INITIAL alat:
     0.89597232     0.00000000     0.00000000
    -0.44798616     0.77593479     0.00000000
     0.00000000     0.00000000     0.71592174
New lattice vectors in NEW alat (for information only):
     1.00000000     0.00000000     0.00000000
    -0.50000000     0.86602540     0.00000000
     0.00000000     0.00000000     0.79904449
Discrepancy in bohr =     0.000000    0.000000    0.000000
     new conv_thr            =       0.0000000033 Ry

     new unit-cell volume =   2615.15530 a.u.^3 (   387.52603 Ang^3 )
     density =      0.29880 g/cm^3

CELL_PARAMETERS (alat= 17.38484033)
   0.895972318   0.000000000   0.000000000
  -0.447986159   0.775934788   0.000000000
   0.000000000   0.000000000   0.715921741

ATOMIC_POSITIONS (crystal)
Li           -0.0000000000        0.5585311933        0.1780026898
Li            0.5585311933        0.0000000000        0.8219973102
Li            0.4414688067        0.4414688067        0.1780026898
Li           -0.0000000000        0.5585311933        0.8219973102
Li            0.5585311933       -0.0000000000        0.1780026898
Li            0.4414688067        0.4414688067        0.8219973102
Si           -0.0000000000        0.0000000000        0.5000000000



     Writing config-only to output data dir ./output/LiSi.save/
     NEW-OLD atomic charge density approx. for the potential
     extrapolated charge   17.22606, renormalised to   22.00000

     total cpu time spent up to now is      232.9 secs

     Self-consistent Calculation

     iteration #  1     ecut=    80.00 Ry     beta= 0.70
     Davidson diagonalization with overlap
     c_bands:  1 eigenvalues not converged
     c_bands:  1 eigenvalues not converged
     c_bands:  1 eigenvalues not converged
     ethr =  1.00E-06,  avg # of iterations = 14.5

     total cpu time spent up to now is      246.6 secs

     total energy              =     -93.15796762 Ry
     estimated scf accuracy    <       1.08393406 Ry

     iteration #  2     ecut=    80.00 Ry     beta= 0.70
     Davidson diagonalization with overlap
     ethr =  4.93E-03,  avg # of iterations =  5.6

     total cpu time spent up to now is      252.6 secs

     total energy              =     -93.98150347 Ry
     estimated scf accuracy    <       4.99892572 Ry

     iteration #  3     ecut=    80.00 Ry     beta= 0.70
     Davidson diagonalization with overlap
     ethr =  4.93E-03,  avg # of iterations =  2.7

     total cpu time spent up to now is      256.7 secs

     total energy              =     -94.31910956 Ry
     estimated scf accuracy    <       0.57141777 Ry

     iteration #  4     ecut=    80.00 Ry     beta= 0.70
     Davidson diagonalization with overlap
     ethr =  2.60E-03,  avg # of iterations =  1.6

     total cpu time spent up to now is      260.3 secs

     total energy              =     -94.30655354 Ry
     estimated scf accuracy    <       0.42529115 Ry

     iteration #  5     ecut=    80.00 Ry     beta= 0.70
     Davidson diagonalization with overlap
     ethr =  1.93E-03,  avg # of iterations =  1.2

     total cpu time spent up to now is      263.8 secs

     total energy              =     -94.31226262 Ry
     estimated scf accuracy    <       0.09118846 Ry

     iteration #  6     ecut=    80.00 Ry     beta= 0.70
     Davidson diagonalization with overlap
     ethr =  4.14E-04,  avg # of iterations =  3.6

     total cpu time spent up to now is      267.8 secs

     total energy              =     -94.31941052 Ry
     estimated scf accuracy    <       0.02686717 Ry

     iteration #  7     ecut=    80.00 Ry     beta= 0.70
     Davidson diagonalization with overlap
     ethr =  1.22E-04,  avg # of iterations =  2.2

     total cpu time spent up to now is      271.4 secs

     total energy              =     -94.31424908 Ry
     estimated scf accuracy    <       0.02971574 Ry

     iteration #  8     ecut=    80.00 Ry     beta= 0.70
     Davidson diagonalization with overlap
     ethr =  1.22E-04,  avg # of iterations =  1.8

     total cpu time spent up to now is      275.0 secs

     total energy              =     -94.31568276 Ry
     estimated scf accuracy    <       0.00178549 Ry

     iteration #  9     ecut=    80.00 Ry     beta= 0.70
     Davidson diagonalization with overlap
     ethr =  8.12E-06,  avg # of iterations =  6.1

     total cpu time spent up to now is      281.1 secs

     total energy              =     -94.31702853 Ry
     estimated scf accuracy    <       0.00389357 Ry

     iteration # 10     ecut=    80.00 Ry     beta= 0.70
     Davidson diagonalization with overlap
     ethr =  8.12E-06,  avg # of iterations =  1.0

     total cpu time spent up to now is      284.5 secs

     total energy              =     -94.31649849 Ry
     estimated scf accuracy    <       0.00246859 Ry

     iteration # 11     ecut=    80.00 Ry     beta= 0.70
     Davidson diagonalization with overlap
     ethr =  8.12E-06,  avg # of iterations =  1.5

     total cpu time spent up to now is      288.0 secs

     total energy              =     -94.31672526 Ry
     estimated scf accuracy    <       0.00000260 Ry

     iteration # 12     ecut=    80.00 Ry     beta= 0.70
     Davidson diagonalization with overlap
     ethr =  1.18E-08,  avg # of iterations =  7.2

     total cpu time spent up to now is      293.9 secs

     total energy              =     -94.31673709 Ry
     estimated scf accuracy    <       0.00000349 Ry

     iteration # 13     ecut=    80.00 Ry     beta= 0.70
     Davidson diagonalization with overlap
     ethr =  1.18E-08,  avg # of iterations =  1.0

     total cpu time spent up to now is      297.4 secs

     total energy              =     -94.31673514 Ry
     estimated scf accuracy    <       0.00000503 Ry

     iteration # 14     ecut=    80.00 Ry     beta= 0.70
     Davidson diagonalization with overlap
     ethr =  1.18E-08,  avg # of iterations =  4.1

     total cpu time spent up to now is      302.1 secs

     total energy              =     -94.31673673 Ry
     estimated scf accuracy    <       0.00000606 Ry

     iteration # 15     ecut=    80.00 Ry     beta= 0.70
     Davidson diagonalization with overlap
     ethr =  1.18E-08,  avg # of iterations =  1.0

     total cpu time spent up to now is      305.5 secs

     total energy              =     -94.31673623 Ry
     estimated scf accuracy    <       0.00000384 Ry

     iteration # 16     ecut=    80.00 Ry     beta= 0.70
     Davidson diagonalization with overlap
     ethr =  1.18E-08,  avg # of iterations =  2.0

     total cpu time spent up to now is      309.3 secs

     total energy              =     -94.31673644 Ry
     estimated scf accuracy    <       0.00000044 Ry

     iteration # 17     ecut=    80.00 Ry     beta= 0.70
     Davidson diagonalization with overlap
     ethr =  2.00E-09,  avg # of iterations =  1.4

     total cpu time spent up to now is      312.8 secs

     total energy              =     -94.31673646 Ry
     estimated scf accuracy    <       0.00000052 Ry

     iteration # 18     ecut=    80.00 Ry     beta= 0.70
     Davidson diagonalization with overlap
     ethr =  2.00E-09,  avg # of iterations =  1.0

     total cpu time spent up to now is      316.3 secs

     total energy              =     -94.31673630 Ry
     estimated scf accuracy    <       0.00000064 Ry

     iteration # 19     ecut=    80.00 Ry     beta= 0.70
     Davidson diagonalization with overlap
     ethr =  2.00E-09,  avg # of iterations =  2.9

     total cpu time spent up to now is      320.3 secs

     total energy              =     -94.31673641 Ry
     estimated scf accuracy    <       0.00000015 Ry

     iteration # 20     ecut=    80.00 Ry     beta= 0.70
     Davidson diagonalization with overlap
     ethr =  6.88E-10,  avg # of iterations =  1.0

     total cpu time spent up to now is      323.9 secs

     total energy              =     -94.31673642 Ry
     estimated scf accuracy    <          6.9E-09 Ry

     iteration # 21     ecut=    80.00 Ry     beta= 0.70
     Davidson diagonalization with overlap
     ethr =  3.15E-11,  avg # of iterations =  4.0

     total cpu time spent up to now is      328.3 secs

     End of self-consistent calculation

          k = 0.0000 0.0000 0.0000 ( 43629 PWs)   bands (ev):

   -49.5360 -49.5359 -49.5359 -49.4936 -49.4935 -49.4935  -7.4887  -2.9460
    -1.5258  -1.5258  -1.1750  -1.1091  -0.6706  -0.6706  -0.2852

          k = 0.0000 0.0000 0.1746 ( 43707 PWs)   bands (ev):

   -49.5360 -49.5359 -49.5359 -49.4936 -49.4935 -49.4935  -7.4865  -2.9304
    -1.4969  -1.4969  -1.1852  -1.1375  -0.6451  -0.6451  -0.4124

          k = 0.0000 0.0000 0.3492 ( 43611 PWs)   bands (ev):

   -49.5360 -49.5359 -49.5359 -49.4936 -49.4935 -49.4935  -7.4812  -2.8910
    -1.4191  -1.4191  -1.3364  -1.0343  -0.6637  -0.5776  -0.5776

          k = 0.0000 0.0000 0.5238 ( 43534 PWs)   bands (ev):

   -49.5360 -49.5359 -49.5359 -49.4936 -49.4935 -49.4935  -7.4758  -2.8490
    -1.4534  -1.3247  -1.3247  -0.9036  -0.8807  -0.5024  -0.5024

          k = 0.0000 0.0000-0.6984 ( 43696 PWs)   bands (ev):

   -49.5360 -49.5359 -49.5359 -49.4936 -49.4935 -49.4935  -7.4736  -2.8308
    -1.4931  -1.2780  -1.2780  -0.9667  -0.8358  -0.4722  -0.4722

          k = 0.0000 0.2148 0.0000 ( 43639 PWs)   bands (ev):

   -49.5360 -49.5359 -49.5359 -49.4936 -49.4935 -49.4935  -7.4875  -2.9241
    -1.6767  -1.5933  -1.3279  -1.0938  -0.5611  -0.3006  -0.1345

          k = 0.0000 0.2148 0.1746 ( 43631 PWs)   bands (ev):

   -49.5360 -49.5359 -49.5359 -49.4936 -49.4935 -49.4935  -7.4853  -2.9036
    -1.6602  -1.5632  -1.3362  -1.1068  -0.5541  -0.4198  -0.1831

          k = 0.0000 0.2148 0.3492 ( 43600 PWs)   bands (ev):

   -49.5360 -49.5359 -49.5359 -49.4936 -49.4935 -49.4935  -7.4801  -2.8507
    -1.6472  -1.4803  -1.3390  -1.0929  -0.7235  -0.5386  -0.1893

          k = 0.0000 0.2148 0.5238 ( 43569 PWs)   bands (ev):

   -49.5360 -49.5359 -49.5359 -49.4936 -49.4935 -49.4935  -7.4748  -2.7919
    -1.6768  -1.3713  -1.2767  -1.0839  -0.9344  -0.5765  -0.2059

          k = 0.0000 0.2148-0.6984 ( 43600 PWs)   bands (ev):

   -49.5360 -49.5359 -49.5359 -49.4936 -49.4935 -49.4935  -7.4726  -2.7656
    -1.6935  -1.3104  -1.2584  -1.0660  -1.0060  -0.6155  -0.2039

          k = 0.0000 0.4296 0.0000 ( 43649 PWs)   bands (ev):

   -49.5360 -49.5359 -49.5359 -49.4936 -49.4935 -49.4935  -7.4850  -2.8605
    -2.0472  -1.6981  -1.1758  -1.0615  -0.3958  -0.3451   0.1727

          k = 0.0000 0.4296 0.1746 ( 43634 PWs)   bands (ev):

   -49.5360 -49.5359 -49.5359 -49.4936 -49.4935 -49.4935  -7.4829  -2.8284
    -2.0273  -1.6649  -1.2944  -1.0316  -0.4412  -0.3929   0.0629

          k = 0.0000 0.4296 0.3492 ( 43607 PWs)   bands (ev):

   -49.5360 -49.5359 -49.5359 -49.4936 -49.4935 -49.4935  -7.4778  -2.7404
    -1.9816  -1.5727  -1.4533  -1.1337  -0.5569  -0.4794  -0.0635

          k = 0.0000 0.4296 0.5238 ( 43615 PWs)   bands (ev):

   -49.5360 -49.5359 -49.5359 -49.4936 -49.4935 -49.4935  -7.4726  -2.6295
    -1.9317  -1.6332  -1.4429  -1.2253  -0.7079  -0.6261  -0.1001

          k = 0.0000 0.4296-0.6984 ( 43594 PWs)   bands (ev):

   -49.5359 -49.5359 -49.5359 -49.4936 -49.4936 -49.4935  -7.4705  -2.5727
    -1.8645  -1.7844  -1.3692  -1.2088  -0.7791  -0.7587  -0.0475

          k = 0.0000-0.6444 0.0000 ( 43614 PWs)   bands (ev):

   -49.5360 -49.5359 -49.5359 -49.4936 -49.4935 -49.4935  -7.4838  -2.8091
    -2.2171  -1.7409  -1.0445  -1.0120  -0.5603  -0.3334   0.4489

          k = 0.0000-0.6444 0.1746 ( 43608 PWs)   bands (ev):

   -49.5360 -49.5359 -49.5359 -49.4936 -49.4935 -49.4935  -7.4817  -2.7683
    -2.2014  -1.7068  -1.1577  -1.1207  -0.4043  -0.3828   0.2198

          k = 0.0000-0.6444 0.3492 ( 43636 PWs)   bands (ev):

   -49.5360 -49.5359 -49.5359 -49.4936 -49.4935 -49.4935  -7.4766  -2.6488
    -2.1691  -1.6104  -1.3993  -1.2882  -0.5439  -0.2165  -0.0770

          k = 0.0000-0.6444 0.5238 ( 43632 PWs)   bands (ev):

   -49.5359 -49.5359 -49.5359 -49.4936 -49.4936 -49.4935  -7.4716  -2.4663
    -2.1507  -1.7268  -1.4779  -1.3010  -0.7408  -0.5603   0.0959

          k = 0.0000-0.6444-0.6984 ( 43616 PWs)   bands (ev):

   -49.5359 -49.5359 -49.5359 -49.4936 -49.4936 -49.4935  -7.4694  -2.3262
    -2.1489  -1.9226  -1.3962  -1.2621  -0.8380  -0.7381   0.0946

          k = 0.1860 0.3222 0.0000 ( 43653 PWs)   bands (ev):

   -49.5360 -49.5359 -49.5359 -49.4936 -49.4935 -49.4935  -7.4856  -2.8764
    -2.0216  -1.5493  -1.2846  -1.0698  -0.5904   0.0522   0.0818

          k = 0.1860 0.3222 0.1746 ( 43637 PWs)   bands (ev):

   -49.5360 -49.5359 -49.5359 -49.4936 -49.4935 -49.4935  -7.4835  -2.8483
    -1.9833  -1.5925  -1.2697  -1.0610  -0.6886  -0.0669  -0.0008

          k = 0.1860 0.3222 0.3492 ( 43587 PWs)   bands (ev):

   -49.5360 -49.5359 -49.5359 -49.4936 -49.4935 -49.4935  -7.4784  -2.7724
    -1.8720  -1.6940  -1.2508  -1.0729  -0.8785  -0.2326  -0.1385

          k = 0.1860 0.3222 0.5238 ( 43605 PWs)   bands (ev):

   -49.5360 -49.5359 -49.5359 -49.4936 -49.4935 -49.4935  -7.4732  -2.6809
    -1.7834  -1.7024  -1.3028  -1.2834  -0.8093  -0.3859  -0.2126

          k = 0.1860 0.3222-0.6984 ( 43592 PWs)   bands (ev):

   -49.5360 -49.5359 -49.5359 -49.4936 -49.4935 -49.4935  -7.4710  -2.6362
    -1.8141  -1.5543  -1.4137  -1.3943  -0.7053  -0.5016  -0.1097

          k = 0.1860 0.5370 0.0000 ( 43617 PWs)   bands (ev):

   -49.5360 -49.5359 -49.5359 -49.4936 -49.4935 -49.4935  -7.4838  -2.7839
    -2.3275  -1.5365  -1.0988  -1.0447  -0.7677  -0.0410   0.2911

          k = 0.1860 0.5370 0.1746 ( 43629 PWs)   bands (ev):

   -49.5360 -49.5359 -49.5359 -49.4936 -49.4935 -49.4935  -7.4817  -2.7458
    -2.2923  -1.5737  -1.1839  -1.0628  -0.7495  -0.0784   0.1531

          k = 0.1860 0.5370 0.3492 ( 43613 PWs)   bands (ev):

   -49.5360 -49.5359 -49.5359 -49.4936 -49.4935 -49.4935  -7.4766  -2.6368
    -2.1947  -1.6702  -1.3354  -1.2035  -0.7193  -0.1454  -0.0214

          k = 0.1860 0.5370 0.5238 ( 43613 PWs)   bands (ev):

   -49.5359 -49.5359 -49.5359 -49.4936 -49.4936 -49.4935  -7.4716  -2.4827
    -2.0691  -1.7523  -1.5860  -1.3530  -0.6598  -0.2570  -0.0878

          k = 0.1860 0.5370-0.6984 ( 43616 PWs)   bands (ev):

   -49.5359 -49.5359 -49.5359 -49.4936 -49.4936 -49.4935  -7.4694  -2.3877
    -1.9773  -1.8743  -1.5626  -1.5389  -0.4986  -0.4767  -0.0312

          k = 0.3720 0.6444 0.0000 ( 43539 PWs)   bands (ev):

   -49.5359 -49.5359 -49.5359 -49.4935 -49.4935 -49.4935  -7.4832  -2.6074
    -2.6074  -1.2953  -1.0635  -1.0635  -1.0363   0.1638   0.1638

          k = 0.3720 0.6444 0.1746 ( 43590 PWs)   bands (ev):

   -49.5359 -49.5359 -49.5359 -49.4936 -49.4936 -49.4935  -7.4811  -2.5671
    -2.5671  -1.4480  -1.1194  -1.1194  -0.8773   0.0412   0.0412

          k = 0.3720 0.6444 0.3492 ( 43641 PWs)   bands (ev):

   -49.5359 -49.5359 -49.5359 -49.4936 -49.4936 -49.4935  -7.4761  -2.4491
    -2.4491  -1.6482  -1.3055  -1.3055  -0.6425  -0.0868  -0.0868

          k = 0.3720 0.6444 0.5238 ( 43635 PWs)   bands (ev):

   -49.5359 -49.5359 -49.5359 -49.4936 -49.4936 -49.4935  -7.4710  -2.2692
    -2.2692  -1.7880  -1.5793  -1.5793  -0.4177  -0.0851  -0.0851

          k = 0.3720 0.6444-0.6984 ( 43626 PWs)   bands (ev):

   -49.5359 -49.5359 -49.5359 -49.4936 -49.4936 -49.4935  -7.4689  -2.1302
    -2.1302  -1.8376  -1.7600  -1.7600  -0.2950  -0.0549  -0.0549

     the Fermi energy is    -1.2351 ev

!    total energy              =     -94.31673642 Ry
     estimated scf accuracy    <          1.4E-09 Ry
     smearing contrib. (-TS)   =      -0.00077726 Ry
     internal energy E=F+TS    =     -94.31595916 Ry

     The total energy is F=E-TS. E is the sum of the following terms:
     one-electron contribution =     -75.04180229 Ry
     hartree contribution      =      28.43921083 Ry
     xc contribution           =     -22.17078910 Ry
     ewald contribution        =     -25.54257859 Ry

     convergence has been achieved in  21 iterations

     Forces acting on atoms (cartesian axes, Ry/au):

     atom    1 type  1   force =    -0.00107347    0.00185931    0.04306437
     atom    2 type  1   force =     0.00214694   -0.00000000   -0.04306437
     atom    3 type  1   force =    -0.00107347   -0.00185931    0.04306437
     atom    4 type  1   force =    -0.00107347    0.00185931   -0.04306437
     atom    5 type  1   force =     0.00214694   -0.00000000    0.04306437
     atom    6 type  1   force =    -0.00107347   -0.00185931   -0.04306437
     atom    7 type  2   force =    -0.00000000    0.00000000    0.00000000
     The non-local contrib.  to forces
     atom    1 type  1   force =     0.00062627   -0.00108473    0.03736119
     atom    2 type  1   force =    -0.00125254   -0.00000000   -0.03736119
     atom    3 type  1   force =     0.00062627    0.00108473    0.03736119
     atom    4 type  1   force =     0.00062627   -0.00108473   -0.03736119
     atom    5 type  1   force =    -0.00125254    0.00000000    0.03736119
     atom    6 type  1   force =     0.00062627    0.00108473   -0.03736119
     atom    7 type  2   force =    -0.00000000    0.00000000    0.00000000
     The ionic contribution  to forces
     atom    1 type  1   force =    -0.01043955    0.01808183    0.67522456
     atom    2 type  1   force =     0.02087910    0.00000000   -0.67522456
     atom    3 type  1   force =    -0.01043955   -0.01808183    0.67522456
     atom    4 type  1   force =    -0.01043955    0.01808183   -0.67522456
     atom    5 type  1   force =     0.02087910    0.00000000    0.67522456
     atom    6 type  1   force =    -0.01043955   -0.01808183   -0.67522456
     atom    7 type  2   force =     0.00000000    0.00000000   -0.00000000
     The local contribution  to forces
     atom    1 type  1   force =     0.00873939   -0.01513707   -0.66952088
     atom    2 type  1   force =    -0.01747878   -0.00000000    0.66952088
     atom    3 type  1   force =     0.00873939    0.01513707   -0.66952088
     atom    4 type  1   force =     0.00873939   -0.01513707    0.66952088
     atom    5 type  1   force =    -0.01747878   -0.00000000   -0.66952088
     atom    6 type  1   force =     0.00873939    0.01513707    0.66952088
     atom    7 type  2   force =    -0.00000000    0.00000000    0.00000000
     The core correction contribution to forces
     atom    1 type  1   force =     0.00000000    0.00000000    0.00000000
     atom    2 type  1   force =     0.00000000    0.00000000    0.00000000
     atom    3 type  1   force =     0.00000000    0.00000000    0.00000000
     atom    4 type  1   force =     0.00000000    0.00000000    0.00000000
     atom    5 type  1   force =     0.00000000    0.00000000    0.00000000
     atom    6 type  1   force =     0.00000000    0.00000000    0.00000000
     atom    7 type  2   force =    -0.00000000   -0.00000000   -0.00000000
     The Hubbard contrib.    to forces
     atom    1 type  1   force =     0.00000000    0.00000000    0.00000000
     atom    2 type  1   force =     0.00000000    0.00000000    0.00000000
     atom    3 type  1   force =     0.00000000    0.00000000    0.00000000
     atom    4 type  1   force =     0.00000000    0.00000000    0.00000000
     atom    5 type  1   force =     0.00000000    0.00000000    0.00000000
     atom    6 type  1   force =     0.00000000    0.00000000    0.00000000
     atom    7 type  2   force =     0.00000000    0.00000000    0.00000000
     The SCF correction term to forces
     atom    1 type  1   force =     0.00000041   -0.00000072   -0.00000049
     atom    2 type  1   force =    -0.00000083   -0.00000000    0.00000049
     atom    3 type  1   force =     0.00000041    0.00000072   -0.00000049
     atom    4 type  1   force =     0.00000041   -0.00000072    0.00000049
     atom    5 type  1   force =    -0.00000083    0.00000000   -0.00000049
     atom    6 type  1   force =     0.00000041    0.00000072    0.00000049
     atom    7 type  2   force =     0.00000000   -0.00000000   -0.00000000

     Total force =     0.105617     Total SCF correction =     0.000002


     Computing stress (Cartesian axis) and pressure

          total   stress  (Ry/bohr**3)                   (kbar)     P=      -18.68
  -0.00022764  -0.00000000   0.00000000          -33.49       -0.00        0.00
   0.00000000  -0.00022764   0.00000000            0.00      -33.49        0.00
   0.00000000   0.00000000   0.00007434            0.00        0.00       10.94

     Energy error            =      2.0E+00 Ry
     Gradient error          =      4.3E-02 Ry/Bohr
     Cell gradient error     =      5.3E+02 kbar

     number of scf cycles    =   3
     number of bfgs steps    =   2

     enthalpy           old  =     -83.4245416888 Ry
     enthalpy           new  =     -85.4280041904 Ry

     CASE: enthalpy          _new < enthalpy          _old

     new trust radius        =       0.8000000000 bohr
ibrav =      4
 celldm(1) =     14.35797311
 celldm(3) =      0.80731342
Input lattice vectors:
     0.82589042    -0.00000000    -0.00000000
    -0.41294521     0.71524209     0.00000000
     0.00000000    -0.00000000     0.66675243
New lattice vectors in INITIAL alat:
     0.82589042     0.00000000     0.00000000
    -0.41294521     0.71524209     0.00000000
     0.00000000     0.00000000     0.66675243
New lattice vectors in NEW alat (for information only):
     1.00000000     0.00000000     0.00000000
    -0.50000000     0.86602540     0.00000000
     0.00000000     0.00000000     0.80731342
Discrepancy in bohr =     0.000000    0.000000    0.000000
     new conv_thr            =       0.0000000043 Ry

     new unit-cell volume =   2069.43702 a.u.^3 (   306.65893 Ang^3 )
     density =      0.37759 g/cm^3

CELL_PARAMETERS (alat= 17.38484033)
   0.825890422   0.000000000   0.000000000
  -0.412945211   0.715242086   0.000000000
   0.000000000   0.000000000   0.666752425

ATOMIC_POSITIONS (crystal)
Li           -0.0000000000        0.5586441573        0.1813976961
Li            0.5586441573        0.0000000000        0.8186023039
Li            0.4413558427        0.4413558427        0.1813976961
Li           -0.0000000000        0.5586441573        0.8186023039
Li            0.5586441573       -0.0000000000        0.1813976961
Li            0.4413558427        0.4413558427        0.8186023039
Si           -0.0000000000        0.0000000000        0.5000000000



     Writing config-only to output data dir ./output/LiSi.save/
     NEW-OLD atomic charge density approx. for the potential
     extrapolated charge   16.20590, renormalised to   22.00000

     total cpu time spent up to now is      345.3 secs

     Self-consistent Calculation

     iteration #  1     ecut=    80.00 Ry     beta= 0.70
     Davidson diagonalization with overlap
     c_bands:  1 eigenvalues not converged
     ethr =  1.00E-06,  avg # of iterations = 14.8

     total cpu time spent up to now is      359.4 secs

     total energy              =     -92.69806039 Ry
     estimated scf accuracy    <       1.63058429 Ry

     iteration #  2     ecut=    80.00 Ry     beta= 0.70
     Davidson diagonalization with overlap
     ethr =  7.41E-03,  avg # of iterations =  4.9

     total cpu time spent up to now is      365.5 secs

     total energy              =     -94.09547067 Ry
     estimated scf accuracy    <       5.95830283 Ry

     iteration #  3     ecut=    80.00 Ry     beta= 0.70
     Davidson diagonalization with overlap
     ethr =  7.41E-03,  avg # of iterations =  2.4

     total cpu time spent up to now is      369.6 secs

     total energy              =     -94.43755645 Ry
     estimated scf accuracy    <       0.60062720 Ry

     iteration #  4     ecut=    80.00 Ry     beta= 0.70
     Davidson diagonalization with overlap
     ethr =  2.73E-03,  avg # of iterations =  1.8

     total cpu time spent up to now is      373.3 secs

     total energy              =     -94.38802039 Ry
     estimated scf accuracy    <       0.39720236 Ry

     iteration #  5     ecut=    80.00 Ry     beta= 0.70
     Davidson diagonalization with overlap
     ethr =  1.81E-03,  avg # of iterations =  1.7

     total cpu time spent up to now is      376.9 secs

     total energy              =     -94.41193077 Ry
     estimated scf accuracy    <       0.05933137 Ry

     iteration #  6     ecut=    80.00 Ry     beta= 0.70
     Davidson diagonalization with overlap
     ethr =  2.70E-04,  avg # of iterations =  4.1

     total cpu time spent up to now is      381.2 secs

     total energy              =     -94.41586129 Ry
     estimated scf accuracy    <       0.02553925 Ry

     iteration #  7     ecut=    80.00 Ry     beta= 0.70
     Davidson diagonalization with overlap
     ethr =  1.16E-04,  avg # of iterations =  2.1

     total cpu time spent up to now is      385.2 secs

     total energy              =     -94.40865157 Ry
     estimated scf accuracy    <       0.05844734 Ry

     iteration #  8     ecut=    80.00 Ry     beta= 0.70
     Davidson diagonalization with overlap
     ethr =  1.16E-04,  avg # of iterations =  1.7

     total cpu time spent up to now is      388.9 secs

     total energy              =     -94.41282852 Ry
     estimated scf accuracy    <       0.00115093 Ry

     iteration #  9     ecut=    80.00 Ry     beta= 0.70
     Davidson diagonalization with overlap
     ethr =  5.23E-06,  avg # of iterations =  6.0

     total cpu time spent up to now is      395.3 secs

     total energy              =     -94.41438904 Ry
     estimated scf accuracy    <       0.00739710 Ry

     iteration # 10     ecut=    80.00 Ry     beta= 0.70
     Davidson diagonalization with overlap
     ethr =  5.23E-06,  avg # of iterations =  1.0

     total cpu time spent up to now is      398.7 secs

     total energy              =     -94.41299965 Ry
     estimated scf accuracy    <       0.00658990 Ry

     iteration # 11     ecut=    80.00 Ry     beta= 0.70
     Davidson diagonalization with overlap
     ethr =  5.23E-06,  avg # of iterations =  2.4

     total cpu time spent up to now is      402.6 secs

     total energy              =     -94.41354607 Ry
     estimated scf accuracy    <       0.00010441 Ry

     iteration # 12     ecut=    80.00 Ry     beta= 0.70
     Davidson diagonalization with overlap
     ethr =  4.75E-07,  avg # of iterations =  3.9

     total cpu time spent up to now is      406.7 secs

     total energy              =     -94.41355601 Ry
     estimated scf accuracy    <       0.00001750 Ry

     iteration # 13     ecut=    80.00 Ry     beta= 0.70
     Davidson diagonalization with overlap
     ethr =  7.96E-08,  avg # of iterations =  2.9

     total cpu time spent up to now is      410.7 secs

     total energy              =     -94.41355672 Ry
     estimated scf accuracy    <       0.00000579 Ry

     iteration # 14     ecut=    80.00 Ry     beta= 0.70
     Davidson diagonalization with overlap
     ethr =  2.63E-08,  avg # of iterations =  2.1

     total cpu time spent up to now is      414.5 secs

     total energy              =     -94.41355685 Ry
     estimated scf accuracy    <       0.00000196 Ry

     iteration # 15     ecut=    80.00 Ry     beta= 0.70
     Davidson diagonalization with overlap
     ethr =  8.91E-09,  avg # of iterations =  2.5

     total cpu time spent up to now is      418.2 secs

     total energy              =     -94.41355700 Ry
     estimated scf accuracy    <       0.00000019 Ry

     iteration # 16     ecut=    80.00 Ry     beta= 0.70
     Davidson diagonalization with overlap
     ethr =  8.47E-10,  avg # of iterations =  4.2

     total cpu time spent up to now is      422.7 secs

     total energy              =     -94.41355702 Ry
     estimated scf accuracy    <       0.00000003 Ry

     iteration # 17     ecut=    80.00 Ry     beta= 0.70
     Davidson diagonalization with overlap
     ethr =  1.51E-10,  avg # of iterations =  2.8

     total cpu time spent up to now is      426.7 secs

     total energy              =     -94.41355703 Ry
     estimated scf accuracy    <          6.2E-09 Ry

     iteration # 18     ecut=    80.00 Ry     beta= 0.70
     Davidson diagonalization with overlap
     ethr =  2.81E-11,  avg # of iterations =  2.6

     total cpu time spent up to now is      430.4 secs

     End of self-consistent calculation

          k = 0.0000 0.0000 0.0000 ( 43629 PWs)   bands (ev):

   -48.9082 -48.9078 -48.9078 -48.8408 -48.8405 -48.8405  -7.0416  -2.6440
    -1.2378  -1.2378  -0.8808  -0.6715   0.1407   0.1407   0.1617

          k = 0.0000 0.0000 0.1875 ( 43707 PWs)   bands (ev):

   -48.9082 -48.9078 -48.9078 -48.8408 -48.8405 -48.8405  -7.0365  -2.6367
    -1.2005  -1.2005  -0.8361  -0.7868   0.1089   0.1740   0.1740

          k = 0.0000 0.0000 0.3750 ( 43611 PWs)   bands (ev):

   -48.9082 -48.9078 -48.9078 -48.8408 -48.8405 -48.8405  -7.0241  -2.6226
    -1.0986  -1.0986  -0.9735  -0.7124  -0.0981   0.2670   0.2671

          k = 0.0000 0.0000 0.5624 ( 43534 PWs)   bands (ev):

   -48.9081 -48.9077 -48.9077 -48.8409 -48.8406 -48.8406  -7.0115  -2.6149
    -1.0755  -0.9718  -0.9718  -0.5536  -0.3430   0.3905   0.3906

          k = 0.0000 0.0000-0.7499 ( 43696 PWs)   bands (ev):

   -48.9081 -48.9077 -48.9077 -48.8409 -48.8406 -48.8406  -7.0063  -2.6140
    -1.0941  -0.9074  -0.9074  -0.4697  -0.4539   0.4680   0.4680

          k = 0.0000 0.2330 0.0000 ( 43639 PWs)   bands (ev):

   -48.9082 -48.9079 -48.9078 -48.8408 -48.8405 -48.8405  -7.0381  -2.6451
    -1.3506  -1.2957  -0.9957  -0.6526   0.2519   0.2655   0.5917

          k = 0.0000 0.2330 0.1875 ( 43631 PWs)   bands (ev):

   -48.9082 -48.9078 -48.9078 -48.8408 -48.8405 -48.8405  -7.0331  -2.6276
    -1.3439  -1.2587  -1.0005  -0.6732   0.1146   0.2780   0.6040

          k = 0.0000 0.2330 0.3750 ( 43600 PWs)   bands (ev):

   -48.9082 -48.9078 -48.9078 -48.8408 -48.8405 -48.8405  -7.0209  -2.5867
    -1.3665  -1.1538  -0.9664  -0.6516  -0.2068   0.2833   0.6006

          k = 0.0000 0.2330 0.5624 ( 43569 PWs)   bands (ev):

   -48.9081 -48.9078 -48.9077 -48.8409 -48.8406 -48.8406  -7.0086  -2.5502
    -1.3995  -1.0190  -0.8522  -0.6307  -0.4602   0.1921   0.5147

          k = 0.0000 0.2330-0.7499 ( 43600 PWs)   bands (ev):

   -48.9081 -48.9077 -48.9077 -48.8409 -48.8406 -48.8406  -7.0034  -2.5374
    -1.3985  -0.9481  -0.8193  -0.6265  -0.5227   0.1126   0.4911

          k = 0.0000 0.4660 0.0000 ( 43649 PWs)   bands (ev):

   -48.9081 -48.9079 -48.9078 -48.8407 -48.8405 -48.8405  -7.0312  -2.6329
    -1.7093  -1.3936  -0.7806  -0.6125   0.2017   0.4730   0.7679

          k = 0.0000 0.4660 0.1875 ( 43634 PWs)   bands (ev):

   -48.9081 -48.9079 -48.9078 -48.8407 -48.8406 -48.8405  -7.0264  -2.5955
    -1.6940  -1.3550  -0.9439  -0.5633   0.1243   0.4093   0.7184

          k = 0.0000 0.4660 0.3750 ( 43607 PWs)   bands (ev):

   -48.9081 -48.9079 -48.9078 -48.8408 -48.8406 -48.8405  -7.0146  -2.4933
    -1.6779  -1.2469  -1.1150  -0.7141   0.0377   0.2410   0.5787

          k = 0.0000 0.4660 0.5624 ( 43615 PWs)   bands (ev):

   -48.9081 -48.9078 -48.9077 -48.8408 -48.8406 -48.8406  -7.0027  -2.3687
    -1.6775  -1.2633  -1.1014  -0.8516  -0.1203   0.0170   0.5161

          k = 0.0000 0.4660-0.7499 ( 43594 PWs)   bands (ev):

   -48.9080 -48.9078 -48.9077 -48.8408 -48.8406 -48.8406  -6.9977  -2.3091
    -1.6385  -1.4154  -1.0212  -0.8108  -0.2683  -0.1030   0.5839

          k = 0.0000-0.6991 0.0000 ( 43614 PWs)   bands (ev):

[...]
        k(    5) = (   0.0000000   0.0000000  -1.2296805), wk =   0.0069444
        k(    6) = (   0.0000000   0.4109881   0.0000000), wk =   0.0416667
        k(    7) = (   0.0000000   0.4109881   0.3074201), wk =   0.0833333
        k(    8) = (   0.0000000   0.4109881   0.6148403), wk =   0.0833333
        k(    9) = (   0.0000000   0.4109881   0.9222604), wk =   0.0833333
        k(   10) = (   0.0000000   0.4109881  -1.2296805), wk =   0.0416667
        k(   11) = (   0.0000000   0.8219762   0.0000000), wk =   0.0416667
        k(   12) = (   0.0000000   0.8219762   0.3074201), wk =   0.0833333
        k(   13) = (   0.0000000   0.8219762   0.6148403), wk =   0.0833333
        k(   14) = (   0.0000000   0.8219762   0.9222604), wk =   0.0833333
        k(   15) = (   0.0000000   0.8219762  -1.2296805), wk =   0.0416667
        k(   16) = (   0.0000000  -1.2329643   0.0000000), wk =   0.0208333
        k(   17) = (   0.0000000  -1.2329643   0.3074201), wk =   0.0416667
        k(   18) = (   0.0000000  -1.2329643   0.6148403), wk =   0.0416667
        k(   19) = (   0.0000000  -1.2329643   0.9222604), wk =   0.0416667
        k(   20) = (   0.0000000  -1.2329643  -1.2296805), wk =   0.0208333
        k(   21) = (   0.3559261   0.6164821   0.0000000), wk =   0.0416667
        k(   22) = (   0.3559261   0.6164821   0.3074201), wk =   0.0833333
        k(   23) = (   0.3559261   0.6164821   0.6148403), wk =   0.0833333
        k(   24) = (   0.3559261   0.6164821   0.9222604), wk =   0.0833333
        k(   25) = (   0.3559261   0.6164821  -1.2296805), wk =   0.0416667
        k(   26) = (   0.3559261   1.0274702   0.0000000), wk =   0.0833333
        k(   27) = (   0.3559261   1.0274702   0.3074201), wk =   0.1666667
        k(   28) = (   0.3559261   1.0274702   0.6148403), wk =   0.1666667
        k(   29) = (   0.3559261   1.0274702   0.9222604), wk =   0.1666667
        k(   30) = (   0.3559261   1.0274702  -1.2296805), wk =   0.0833333
        k(   31) = (   0.7118522   1.2329643   0.0000000), wk =   0.0138889
        k(   32) = (   0.7118522   1.2329643   0.3074201), wk =   0.0277778
        k(   33) = (   0.7118522   1.2329643   0.6148403), wk =   0.0277778
        k(   34) = (   0.7118522   1.2329643   0.9222604), wk =   0.0277778
        k(   35) = (   0.7118522   1.2329643  -1.2296805), wk =   0.0138889

     Dense  grid:    39179 G-vectors     FFT dimensions: (  48,  48,  45)

     Estimated max dynamical RAM per process >      21.57 MB

     Estimated total dynamical RAM >     172.53 MB

     Initial potential from superposition of free atoms

     starting charge      21.9720, renormalised to      22.0000
     Starting wfcs are   16 randomized atomic wfcs

     total cpu time spent up to now is     1584.3 secs

     Self-consistent Calculation

     iteration #  1     ecut=    80.00 Ry     beta= 0.70
     Davidson diagonalization with overlap
     c_bands:  1 eigenvalues not converged
     c_bands:  1 eigenvalues not converged
     c_bands:  1 eigenvalues not converged
     c_bands:  1 eigenvalues not converged
     c_bands:  1 eigenvalues not converged
     c_bands:  1 eigenvalues not converged
     ethr =  1.00E-06,  avg # of iterations = 16.2

     total cpu time spent up to now is     1586.0 secs

     total energy              =     -94.41168782 Ry
     estimated scf accuracy    <       0.10751705 Ry

     iteration #  2     ecut=    80.00 Ry     beta= 0.70
     Davidson diagonalization with overlap
     ethr =  4.89E-04,  avg # of iterations =  2.0

     total cpu time spent up to now is     1586.5 secs

     total energy              =     -94.43321563 Ry
     estimated scf accuracy    <       0.01473399 Ry

     iteration #  3     ecut=    80.00 Ry     beta= 0.70
     Davidson diagonalization with overlap
     ethr =  6.70E-05,  avg # of iterations =  2.0

     total cpu time spent up to now is     1587.0 secs

     total energy              =     -94.43573995 Ry
     estimated scf accuracy    <       0.00034005 Ry

     iteration #  4     ecut=    80.00 Ry     beta= 0.70
     Davidson diagonalization with overlap
     ethr =  1.55E-06,  avg # of iterations =  3.4

     total cpu time spent up to now is     1587.5 secs

     total energy              =     -94.43575785 Ry
     estimated scf accuracy    <       0.00001075 Ry

     iteration #  5     ecut=    80.00 Ry     beta= 0.70
     Davidson diagonalization with overlap
     ethr =  4.89E-08,  avg # of iterations =  2.2

     total cpu time spent up to now is     1588.0 secs

     total energy              =     -94.43575989 Ry
     estimated scf accuracy    <       0.00000208 Ry

     iteration #  6     ecut=    80.00 Ry     beta= 0.70
     Davidson diagonalization with overlap
     ethr =  9.45E-09,  avg # of iterations =  2.0

     total cpu time spent up to now is     1588.5 secs

     total energy              =     -94.43576028 Ry
     estimated scf accuracy    <       0.00000009 Ry

     iteration #  7     ecut=    80.00 Ry     beta= 0.70
     Davidson diagonalization with overlap
     ethr =  4.13E-10,  avg # of iterations =  2.0

     total cpu time spent up to now is     1589.0 secs

     total energy              =     -94.43576030 Ry
     estimated scf accuracy    <          9.3E-10 Ry

     iteration #  8     ecut=    80.00 Ry     beta= 0.70
     Davidson diagonalization with overlap
     ethr =  4.23E-12,  avg # of iterations =  3.1

     total cpu time spent up to now is     1589.5 secs

     End of self-consistent calculation

          k = 0.0000 0.0000 0.0000 (  4923 PWs)   bands (ev):

   -39.7094 -39.3714 -39.3714 -39.1007 -38.8492 -38.8492  -1.7020   4.0530
     4.0530   5.1267   5.4117   8.2376   9.2805  12.3740  12.3740

          k = 0.0000 0.0000 0.3074 (  4928 PWs)   bands (ev):

   -39.6870 -39.3521 -39.3521 -39.1246 -38.8696 -38.8696  -1.6099   4.1781
     4.1781   4.8234   5.2922   8.7842   9.3555  12.4080  12.4080

          k = 0.0000 0.0000 0.6148 (  4904 PWs)   bands (ev):

   -39.6228 -39.2968 -39.2968 -39.1923 -38.9274 -38.9274  -1.3583   3.7889
     4.5290   4.5290   5.7883   9.4841   9.6884  10.7817  10.9922

          k = 0.0000 0.0000 0.9223 (  4904 PWs)   bands (ev):

   -39.5260 -39.2927 -39.2136 -39.2136 -39.0133 -39.0133  -1.0445   2.9223
     4.9956   4.9956   6.6133   9.2327   9.4187   9.4187   9.7839

          k = 0.0000 0.0000-1.2297 (  4916 PWs)   bands (ev):

   -39.4174 -39.4027 -39.1219 -39.1219 -39.1060 -39.1060  -0.8844   2.5689
     5.2546   5.2546   7.7296   7.7994   8.8568   8.8568   9.9924

          k = 0.0000 0.4110 0.0000 (  4912 PWs)   bands (ev):

   -39.6896 -39.3917 -39.3717 -39.0859 -38.8642 -38.8493  -1.6927   3.6782
     4.1507   5.1018   5.6791   8.1060   9.9869  11.8228  12.2084

          k = 0.0000 0.4110 0.3074 (  4920 PWs)   bands (ev):

   -39.6674 -39.3722 -39.3523 -39.1096 -38.8848 -38.8697  -1.5952   3.7860
     4.2709   5.0484   5.2600   8.4878  10.0781  11.3935  11.9727

          k = 0.0000 0.4110 0.6148 (  4902 PWs)   bands (ev):

   -39.6037 -39.3164 -39.2971 -39.1768 -38.9433 -38.9276  -1.3282   3.9217
     4.1287   4.6064   5.7313   8.5321  10.2471  10.4640  10.6896

          k = 0.0000 0.4110 0.9223 (  4913 PWs)   bands (ev):

   -39.5076 -39.2763 -39.2323 -39.2138 -39.0300 -39.0134  -0.9926   3.0385
     4.5029   5.0468   6.5056   7.9279   8.9529   9.4537  10.6736

          k = 0.0000 0.4110-1.2297 (  4906 PWs)   bands (ev):

   -39.4001 -39.3853 -39.1396 -39.1238 -39.1221 -39.1062  -0.8198   2.6654
     4.7236   5.2868   7.4519   7.4704   7.8583   8.9357  10.8503

          k = 0.0000 0.8220 0.0000 (  4892 PWs)   bands (ev):

   -39.6383 -39.4439 -39.3721 -39.0478 -38.9029 -38.8495  -1.6720   3.0607
     4.3572   5.1301   6.4443   7.8675   9.6836  11.7340  12.0323

          k = 0.0000 0.8220 0.3074 (  4899 PWs)   bands (ev):

   -39.6165 -39.4239 -39.3528 -39.0710 -38.9240 -38.8699  -1.5632   3.1477
     4.4660   5.2722   5.6675   7.7933   9.9228  11.7372  11.7786

          k = 0.0000 0.8220 0.6148 (  4912 PWs)   bands (ev):

   -39.5542 -39.3667 -39.2975 -39.1366 -38.9840 -38.9278  -1.2626   3.3880
     4.3991   4.7662   5.6990   7.2305   9.6336  10.5944  11.9917

          k = 0.0000 0.8220 0.9223 (  4909 PWs)   bands (ev):

   -39.4603 -39.2805 -39.2339 -39.2142 -39.0730 -39.0137  -0.8774   3.3335
     3.7178   5.1494   6.3385   6.6265   8.5728   9.5359  12.3614

          k = 0.0000 0.8220-1.2297 (  4912 PWs)   bands (ev):

   -39.3554 -39.3402 -39.1852 -39.1695 -39.1225 -39.1066  -0.6741   2.9051
     3.8814   5.3506   6.2461   7.1279   7.6836   9.0955  12.5796

          k = 0.0000-1.2330 0.0000 (  4888 PWs)   bands (ev):

   -39.5969 -39.4858 -39.3724 -39.0172 -38.9339 -38.8496  -1.6606   2.7991
     4.4667   5.1558   7.3333   7.7581   8.3680  12.1247  12.6504

          k = 0.0000-1.2330 0.3074 (  4884 PWs)   bands (ev):

   -39.5755 -39.4654 -39.3530 -39.0399 -38.9555 -38.8701  -1.5457   2.8775
     4.5688   5.2887   6.3284   7.0988   9.4355  11.7932  12.2681

          k = 0.0000-1.2330 0.6148 (  4900 PWs)   bands (ev):

   -39.5143 -39.4070 -39.2977 -39.1043 -39.0167 -38.9280  -1.2265   3.0937
     4.7443   4.8487   5.7124   6.5513   9.3899  10.5843  12.6810

          k = 0.0000-1.2330 0.9223 (  4892 PWs)   bands (ev):

   -39.4220 -39.3191 -39.2144 -39.1998 -39.1075 -39.0139  -0.8127   3.3707
     3.5517   5.2009   5.9898   6.3579   8.4279   9.5841  13.2722

          k = 0.0000-1.2330-1.2297 (  4892 PWs)   bands (ev):

   -39.3193 -39.3038 -39.2217 -39.2062 -39.1226 -39.1067  -0.5908   3.0644
     3.5175   5.3822   5.7355   6.9957   7.6296   9.1761  13.6464

          k = 0.3559 0.6165 0.0000 (  4905 PWs)   bands (ev):

   -39.6534 -39.4284 -39.3721 -39.0590 -38.8915 -38.8495  -1.6772   3.2994
     3.9710   5.4520   6.1933   7.9242  10.3236  10.7343  12.0727

          k = 0.3559 0.6165 0.3074 (  4898 PWs)   bands (ev):

   -39.6315 -39.4086 -39.3528 -39.0824 -38.9125 -38.8699  -1.5714   3.3921
     4.0833   5.4671   5.5981   8.0571  10.2344  10.5073  12.0417

          k = 0.3559 0.6165 0.6148 (  4914 PWs)   bands (ev):

   -39.5688 -39.3518 -39.2975 -39.1484 -38.9720 -38.9278  -1.2796   3.6453
     4.2701   4.3986   6.0242   7.6779   9.2011  10.8737  11.6927

          k = 0.3559 0.6165 0.9223 (  4921 PWs)   bands (ev):

   -39.4742 -39.2662 -39.2464 -39.2142 -39.0603 -39.0137  -0.9079   3.2486
     4.0018   4.8189   6.6711   7.0329   8.1845  10.1960  11.2163

          k = 0.3559 0.6165-1.2297 (  4900 PWs)   bands (ev):

   -39.3685 -39.3535 -39.1717 -39.1560 -39.1224 -39.1066  -0.7131   2.8368
     4.1821   5.0541   6.7165   7.2461   7.5549   9.5132  11.3875

          k = 0.3559 1.0275 0.0000 (  4889 PWs)   bands (ev):

   -39.5972 -39.4852 -39.3727 -39.0173 -38.9337 -38.8497  -1.6598   2.9520
     3.7668   6.0808   7.1279   7.7572   8.9999  10.1863  11.1809

          k = 0.3559 1.0275 0.3074 (  4890 PWs)   bands (ev):

   -39.5758 -39.4648 -39.3533 -39.0400 -38.9553 -38.8702  -1.5450   3.0342
     3.8685   6.1216   6.2669   7.4453   9.1945  10.2982  11.5669

          k = 0.3559 1.0275 0.6148 (  4898 PWs)   bands (ev):

   -39.5145 -39.4065 -39.2980 -39.1044 -39.0164 -38.9281  -1.2262   3.2617
     4.1532   4.7126   6.5565   6.8619   8.5778  10.6633  11.9510

          k = 0.3559 1.0275 0.9223 (  4906 PWs)   bands (ev):

   -39.4222 -39.3187 -39.2147 -39.1999 -39.1072 -39.0141  -0.8131   3.5198
     3.5789   4.5323   6.2396   6.9363   7.9676  10.7953  11.1926

          k = 0.3559 1.0275-1.2297 (  4916 PWs)   bands (ev):

   -39.3194 -39.3041 -39.2213 -39.2057 -39.1228 -39.1070  -0.5919   3.0598
     3.7155   4.7445   5.9672   6.9259   7.9527  10.1956  11.4978

          k = 0.7119 1.2330 0.0000 (  4848 PWs)   bands (ev):

   -39.5411 -39.5411 -39.3731 -38.9755 -38.9755 -38.8499  -1.6527   3.1756
     3.1756   7.4084   7.4084   7.7034   8.9038   8.9038   9.9109

          k = 0.7119 1.2330 0.3074 (  4890 PWs)   bands (ev):

   -39.5202 -39.5202 -39.3537 -38.9977 -38.9977 -38.8704  -1.5348   3.2635
     3.2635   6.5136   7.3532   7.3532   8.7915   8.7915  11.2595

          k = 0.7119 1.2330 0.6148 (  4890 PWs)   bands (ev):

   -39.4605 -39.4605 -39.2984 -39.0604 -39.0604 -38.9283  -1.2067   3.5081
     3.5081   4.9043   7.0061   7.0061   8.8605   8.8605  13.2740

          k = 0.7119 1.2330 0.9223 (  4890 PWs)   bands (ev):

   -39.3704 -39.3704 -39.2150 -39.1536 -39.1536 -39.0143  -0.7791   3.6574
     3.8287   3.8287   6.4578   6.4578   9.3193   9.3193  12.7964

          k = 0.7119 1.2330-1.2297 (  4926 PWs)   bands (ev):

   -39.2704 -39.2704 -39.2548 -39.2548 -39.1231 -39.1073  -0.5485   3.1486
     4.0043   4.0043   6.1796   6.1796   9.6731   9.6731  12.1051

     the Fermi energy is     6.7654 ev

!    total energy              =     -94.43576030 Ry
     estimated scf accuracy    <          2.4E-11 Ry
     smearing contrib. (-TS)   =       0.00074994 Ry
     internal energy E=F+TS    =     -94.43651024 Ry

     The total energy is F=E-TS. E is the sum of the following terms:
     one-electron contribution =     -38.15705239 Ry
     hartree contribution      =      18.31409717 Ry
     xc contribution           =     -24.27749203 Ry
     ewald contribution        =     -50.31606299 Ry

     convergence has been achieved in   8 iterations

     Forces acting on atoms (cartesian axes, Ry/au):

     atom    1 type  1   force =    -0.00000877    0.00001519   -0.00009789
     atom    2 type  1   force =     0.00001754    0.00000000    0.00009789
     atom    3 type  1   force =    -0.00000877   -0.00001519   -0.00009789
     atom    4 type  1   force =    -0.00000877    0.00001519    0.00009789
     atom    5 type  1   force =     0.00001754   -0.00000000   -0.00009789
     atom    6 type  1   force =    -0.00000877   -0.00001519    0.00009789
     atom    7 type  2   force =     0.00000000    0.00000000    0.00000000
     The non-local contrib.  to forces
     atom    1 type  1   force =    -0.00000567    0.00000983   -0.04034909
     atom    2 type  1   force =     0.00001135   -0.00000000    0.04034909
     atom    3 type  1   force =    -0.00000567   -0.00000983   -0.04034909
     atom    4 type  1   force =    -0.00000567    0.00000983    0.04034909
     atom    5 type  1   force =     0.00001135   -0.00000000   -0.04034909
     atom    6 type  1   force =    -0.00000567   -0.00000983    0.04034909
     atom    7 type  2   force =    -0.00000000   -0.00000000    0.00000000
     The ionic contribution  to forces
     atom    1 type  1   force =     0.00001100   -0.00001906   -0.39967720
     atom    2 type  1   force =    -0.00002200   -0.00000000    0.39967720
     atom    3 type  1   force =     0.00001100    0.00001906   -0.39967720
     atom    4 type  1   force =     0.00001100   -0.00001906    0.39967720
     atom    5 type  1   force =    -0.00002200   -0.00000000   -0.39967720
     atom    6 type  1   force =     0.00001100    0.00001906    0.39967720
     atom    7 type  2   force =    -0.00000000   -0.00000000   -0.00000000
     The local contribution  to forces
     atom    1 type  1   force =    -0.00001410    0.00002442    0.43992829
     atom    2 type  1   force =     0.00002820   -0.00000000   -0.43992829
     atom    3 type  1   force =    -0.00001410   -0.00002442    0.43992829
     atom    4 type  1   force =    -0.00001410    0.00002442   -0.43992829
     atom    5 type  1   force =     0.00002820    0.00000000    0.43992829
     atom    6 type  1   force =    -0.00001410   -0.00002442   -0.43992829
     atom    7 type  2   force =     0.00000000    0.00000000    0.00000000
     The core correction contribution to forces
     atom    1 type  1   force =     0.00000000    0.00000000    0.00000000
     atom    2 type  1   force =     0.00000000    0.00000000    0.00000000
     atom    3 type  1   force =     0.00000000    0.00000000    0.00000000
     atom    4 type  1   force =     0.00000000    0.00000000    0.00000000
     atom    5 type  1   force =     0.00000000    0.00000000    0.00000000
     atom    6 type  1   force =     0.00000000    0.00000000    0.00000000
     atom    7 type  2   force =     0.00000000    0.00000000   -0.00000000
     The Hubbard contrib.    to forces
     atom    1 type  1   force =     0.00000000    0.00000000    0.00000000
     atom    2 type  1   force =     0.00000000    0.00000000    0.00000000
     atom    3 type  1   force =     0.00000000    0.00000000    0.00000000
     atom    4 type  1   force =     0.00000000    0.00000000    0.00000000
     atom    5 type  1   force =     0.00000000    0.00000000    0.00000000
     atom    6 type  1   force =     0.00000000    0.00000000    0.00000000
     atom    7 type  2   force =     0.00000000    0.00000000    0.00000000
     The SCF correction term to forces
     atom    1 type  1   force =     0.00000000   -0.00000000    0.00000010
     atom    2 type  1   force =    -0.00000000    0.00000000   -0.00000010
     atom    3 type  1   force =     0.00000000    0.00000000    0.00000010
     atom    4 type  1   force =     0.00000000   -0.00000000   -0.00000010
     atom    5 type  1   force =    -0.00000000    0.00000000    0.00000010
     atom    6 type  1   force =     0.00000000    0.00000000   -0.00000010
     atom    7 type  2   force =    -0.00000000    0.00000000    0.00000000

     Total force =     0.000244     Total SCF correction =     0.000000


     Computing stress (Cartesian axis) and pressure

          total   stress  (Ry/bohr**3)                   (kbar)     P=      499.92
   0.00339967   0.00000000   0.00000000          500.11        0.00        0.00
   0.00000000   0.00339967   0.00000000            0.00      500.11        0.00
  -0.00000000  -0.00000000   0.00339581           -0.00       -0.00      499.54


     Writing all to output data dir ./output/LiSi.save/

     init_run     :      5.12s CPU      7.36s WALL (       2 calls)
     electrons    :   1082.89s CPU   1179.39s WALL (      27 calls)
     update_pot   :     86.92s CPU     87.62s WALL (      25 calls)
     forces       :     57.52s CPU     58.21s WALL (      27 calls)
     stress       :    246.28s CPU    256.75s WALL (      27 calls)

     Called by init_run:
     wfcinit      :      1.95s CPU      3.53s WALL (       2 calls)
     potinit      :      1.86s CPU      2.01s WALL (       2 calls)
     hinit0       :      1.14s CPU      1.54s WALL (       2 calls)

     Called by electrons:
     c_bands      :    937.51s CPU   1017.70s WALL (     279 calls)
     sum_band     :    129.88s CPU    143.16s WALL (     279 calls)
     v_of_rho     :     14.94s CPU     16.49s WALL (     305 calls)
     mix_rho      :      1.56s CPU      1.84s WALL (     279 calls)

     Called by c_bands:
     init_us_2    :     33.92s CPU     35.43s WALL (   21490 calls)
     init_us_2:cp :     33.87s CPU     35.39s WALL (   21490 calls)
     cegterg      :    878.03s CPU    953.98s WALL (    9765 calls)

     Called by *egterg:
     cdiaghg      :     10.36s CPU     10.81s WALL (   40169 calls)
     h_psi        :    753.71s CPU    829.30s WALL (   41149 calls)
     g_psi        :      4.78s CPU      4.85s WALL (   31314 calls)

     Called by h_psi:
     h_psi:calbec :     64.48s CPU     67.24s WALL (   41149 calls)
     vloc_psi     :    628.97s CPU    700.95s WALL (   41149 calls)
     add_vuspsi   :     56.70s CPU     57.45s WALL (   41149 calls)

     General routines
     calbec       :     74.61s CPU     77.51s WALL (   45874 calls)
     fft          :      5.85s CPU      8.01s WALL (    3724 calls)
     ffts         :      0.34s CPU      0.47s WALL (     279 calls)
     fftw         :    640.05s CPU    714.18s WALL (  972785 calls)

     Parallel routines

     PWSCF        :  24m39.32s CPU  26m31.13s WALL


   This run was terminated on:  16:23:12  31Dec2024            

=------------------------------------------------------------------------------=
   JOB DONE.
=------------------------------------------------------------------------------=
