
     Program PWSCF v.7.2 starts on 30Dec2024 at  3:30:10 

     This program is part of the open-source Quantum ESPRESSO suite
     for quantum simulation of materials; please cite
         "P. Giannozzi et al., J. Phys.:Condens. Matter 21 395502 (2009);
         "P. Giannozzi et al., J. Phys.:Condens. Matter 29 465901 (2017);
         "P. Giannozzi et al., J. Chem. Phys. 152 154105 (2020);
          URL http://www.quantum-espresso.org", 
     in publications or presentations arising from this work. More details at
     http://www.quantum-espresso.org/quote

     Parallel version (MPI & OpenMP), running on       8 processor cores
     Number of MPI processes:                 8
     Threads/MPI process:                     1

     MPI processes distributed on     1 nodes
     482016 MiB available memory on the printing compute node when the environment starts

     Waiting for input...
     Reading input from standard input

     Current dimensions of program PWSCF are:
     Max number of different atomic species (ntypx) = 10
     Max number of k-points (npk) =  40000
     Max angular momentum in pseudopotentials (lmaxx) =  4

     R & G space division:  proc/nbgrp/npool/nimage =       8
     Subspace diagonalization in iterative solution of the eigenvalue problem:
     a serial algorithm will be used


     Parallelization info
     --------------------
     sticks:   dense  smooth     PW     G-vecs:    dense   smooth      PW
     Min         150     150     43                 7058     7058    1071
     Max         151     151     44                 7069     7069    1074
     Sum        1201    1201    349                56477    56477    8577

     Using Slab Decomposition



     bravais-lattice index     =            6
     lattice parameter (alat)  =       6.8990  a.u.
     unit-cell volume          =     583.9959 (a.u.)^3
     number of atoms/cell      =            7
     number of atomic types    =            2
     number of electrons       =        22.00
     number of Kohn-Sham states=           15
     kinetic-energy cutoff     =      80.0000  Ry
     charge density cutoff     =     320.0000  Ry
     scf convergence threshold =      1.0E-08
     mixing beta               =       0.7000
     number of iterations used =            8  plain     mixing
     energy convergence thresh.=      1.0E-04
     force convergence thresh. =      1.0E-03
     press convergence thresh. =      1.0E+00
     Exchange-correlation= PBE
                           (   1   4   3   4   0   0   0)
     nstep                     =           50


     celldm(1)=   6.899030  celldm(2)=   0.000000  celldm(3)=   1.778467
     celldm(4)=   0.000000  celldm(5)=   0.000000  celldm(6)=   0.000000

     crystal axes: (cart. coord. in units of alat)
               a(1) = (   1.000000   0.000000   0.000000 )  
               a(2) = (   0.000000   1.000000   0.000000 )  
               a(3) = (   0.000000   0.000000   1.778467 )  

     reciprocal axes: (cart. coord. in units 2 pi/alat)
               b(1) = (  1.000000  0.000000  0.000000 )  
               b(2) = (  0.000000  1.000000  0.000000 )  
               b(3) = (  0.000000  0.000000  0.562282 )  


     PseudoPot. # 1 for Li read from file:
     ../pseudo/Li_ONCV_PBE_sr.upf
     MD5 check sum: 50ff420e78310ffa21704f3361e624a4
     Pseudo is Norm-conserving, Zval =  3.0
     Generated using ONCVPSP code by D. R. Hamann
     Using radial grid of 1944 points,  4 beta functions with: 
                l(1) =   0
                l(2) =   0
                l(3) =   1
                l(4) =   1

     PseudoPot. # 2 for Si read from file:
     ../pseudo/Si_ONCV_PBE_sr.upf
     MD5 check sum: e543d271109d17c80368dfa7c482276d
     Pseudo is Norm-conserving + core correction, Zval =  4.0
     Generated using ONCVPSP code by D. R. Hamann
     Using radial grid of 1510 points,  6 beta functions with: 
                l(1) =   0
                l(2) =   0
                l(3) =   1
                l(4) =   1
                l(5) =   2
                l(6) =   2

     atomic species   valence    mass     pseudopotential
        Li             3.00     6.94100     Li( 1.00)
        Si             4.00    28.08550     Si( 1.00)

     16 Sym. Ops., with inversion, found



   Cartesian axes

     site n.     atom                  positions (alat units)
         1           Li  tau(   1) = (   0.0000000   0.5000000   0.3315702  )
         2           Li  tau(   2) = (   0.0000000   0.5000000   1.4468965  )
         3           Li  tau(   3) = (   0.5000000   0.0000000   0.3315702  )
         4           Li  tau(   4) = (   0.5000000   0.0000000   1.4468965  )
         5           Li  tau(   5) = (   0.0000000   0.0000000   0.8892334  )
         6           Li  tau(   6) = (   0.5000000   0.5000000   0.8892334  )
         7           Si  tau(   7) = (   0.5000000   0.5000000   0.0000000  )

     number of k points=    30  Marzari-Vanderbilt smearing, width (Ry)=  0.0200
                       cart. coord. in units 2pi/alat
        k(    1) = (   0.0000000   0.0000000   0.0000000), wk =   0.0102041
        k(    2) = (   0.0000000   0.0000000   0.1405705), wk =   0.0204082
        k(    3) = (   0.0000000   0.0000000  -0.2811410), wk =   0.0102041
        k(    4) = (   0.0000000   0.1428571   0.0000000), wk =   0.0408163
        k(    5) = (   0.0000000   0.1428571   0.1405705), wk =   0.0816327
        k(    6) = (   0.0000000   0.1428571  -0.2811410), wk =   0.0408163
        k(    7) = (   0.0000000   0.2857143   0.0000000), wk =   0.0408163
        k(    8) = (   0.0000000   0.2857143   0.1405705), wk =   0.0816327
        k(    9) = (   0.0000000   0.2857143  -0.2811410), wk =   0.0408163
        k(   10) = (   0.0000000   0.4285714   0.0000000), wk =   0.0408163
        k(   11) = (   0.0000000   0.4285714   0.1405705), wk =   0.0816327
        k(   12) = (   0.0000000   0.4285714  -0.2811410), wk =   0.0408163
        k(   13) = (   0.1428571   0.1428571   0.0000000), wk =   0.0408163
        k(   14) = (   0.1428571   0.1428571   0.1405705), wk =   0.0816327
        k(   15) = (   0.1428571   0.1428571  -0.2811410), wk =   0.0408163
        k(   16) = (   0.1428571   0.2857143   0.0000000), wk =   0.0816327
        k(   17) = (   0.1428571   0.2857143   0.1405705), wk =   0.1632653
        k(   18) = (   0.1428571   0.2857143  -0.2811410), wk =   0.0816327
        k(   19) = (   0.1428571   0.4285714   0.0000000), wk =   0.0816327
        k(   20) = (   0.1428571   0.4285714   0.1405705), wk =   0.1632653
        k(   21) = (   0.1428571   0.4285714  -0.2811410), wk =   0.0816327
        k(   22) = (   0.2857143   0.2857143   0.0000000), wk =   0.0408163
        k(   23) = (   0.2857143   0.2857143   0.1405705), wk =   0.0816327
        k(   24) = (   0.2857143   0.2857143  -0.2811410), wk =   0.0408163
        k(   25) = (   0.2857143   0.4285714   0.0000000), wk =   0.0816327
        k(   26) = (   0.2857143   0.4285714   0.1405705), wk =   0.1632653
        k(   27) = (   0.2857143   0.4285714  -0.2811410), wk =   0.0816327
        k(   28) = (   0.4285714   0.4285714   0.0000000), wk =   0.0408163
        k(   29) = (   0.4285714   0.4285714   0.1405705), wk =   0.0816327
        k(   30) = (   0.4285714   0.4285714  -0.2811410), wk =   0.0408163

     Dense  grid:    56477 G-vectors     FFT dimensions: (  40,  40,  72)

     Estimated max dynamical RAM per process >      23.64 MB

     Estimated total dynamical RAM >     189.11 MB

     Initial potential from superposition of free atoms

     starting charge      21.9720, renormalised to      22.0000
     Starting wfcs are   16 randomized atomic wfcs

     total cpu time spent up to now is        1.3 secs

     Self-consistent Calculation

     iteration #  1     ecut=    80.00 Ry     beta= 0.70
     Davidson diagonalization with overlap
     ethr =  1.00E-02,  avg # of iterations =  5.9

     total cpu time spent up to now is        2.2 secs

     total energy              =     -94.31725591 Ry
     estimated scf accuracy    <       0.65644561 Ry

     iteration #  2     ecut=    80.00 Ry     beta= 0.70
     Davidson diagonalization with overlap
     ethr =  2.98E-03,  avg # of iterations =  4.0

     total cpu time spent up to now is        3.0 secs

     total energy              =     -94.09861534 Ry
     estimated scf accuracy    <       5.37172301 Ry

     iteration #  3     ecut=    80.00 Ry     beta= 0.70
     Davidson diagonalization with overlap
     ethr =  2.98E-03,  avg # of iterations =  2.3

     total cpu time spent up to now is        3.7 secs

     total energy              =     -94.71714356 Ry
     estimated scf accuracy    <       0.00869776 Ry

     iteration #  4     ecut=    80.00 Ry     beta= 0.70
     Davidson diagonalization with overlap
     ethr =  3.95E-05,  avg # of iterations =  5.5

     total cpu time spent up to now is        4.4 secs

     total energy              =     -94.71926853 Ry
     estimated scf accuracy    <       0.00087648 Ry

     iteration #  5     ecut=    80.00 Ry     beta= 0.70
     Davidson diagonalization with overlap
     ethr =  3.98E-06,  avg # of iterations =  3.6

     total cpu time spent up to now is        5.0 secs

     total energy              =     -94.71934500 Ry
     estimated scf accuracy    <       0.00018589 Ry

     iteration #  6     ecut=    80.00 Ry     beta= 0.70
     Davidson diagonalization with overlap
     ethr =  8.45E-07,  avg # of iterations =  1.8

     total cpu time spent up to now is        5.5 secs

     total energy              =     -94.71936773 Ry
     estimated scf accuracy    <       0.00006147 Ry

     iteration #  7     ecut=    80.00 Ry     beta= 0.70
     Davidson diagonalization with overlap
     ethr =  2.79E-07,  avg # of iterations =  1.3

     total cpu time spent up to now is        6.0 secs

     total energy              =     -94.71937787 Ry
     estimated scf accuracy    <       0.00002361 Ry

     iteration #  8     ecut=    80.00 Ry     beta= 0.70
     Davidson diagonalization with overlap
     ethr =  1.07E-07,  avg # of iterations =  1.0

     total cpu time spent up to now is        6.5 secs

     total energy              =     -94.71938034 Ry
     estimated scf accuracy    <       0.00000005 Ry

     iteration #  9     ecut=    80.00 Ry     beta= 0.70
     Davidson diagonalization with overlap
     ethr =  2.42E-10,  avg # of iterations =  3.6

     total cpu time spent up to now is        7.1 secs

     total energy              =     -94.71938037 Ry
     estimated scf accuracy    <       0.00000001 Ry

     iteration # 10     ecut=    80.00 Ry     beta= 0.70
     Davidson diagonalization with overlap
     ethr =  5.42E-11,  avg # of iterations =  1.8

     total cpu time spent up to now is        7.6 secs

     End of self-consistent calculation

          k = 0.0000 0.0000 0.0000 (  7039 PWs)   bands (ev):

   -42.2692 -41.9149 -41.5436 -41.5025 -41.4583 -41.4221  -4.1814   0.8993
     1.2121   3.6012   3.6012   6.7235   7.7650   8.3959   8.3959

          k = 0.0000 0.0000 0.1406 (  7027 PWs)   bands (ev):

   -42.2692 -41.9149 -41.5445 -41.5016 -41.4583 -41.4222  -4.1761   0.3039
     2.2091   3.6556   3.6556   5.7801   7.2736   7.2736   7.6951

          k = 0.0000 0.0000-0.2811 (  7058 PWs)   bands (ev):

   -42.2691 -41.9148 -41.5454 -41.5008 -41.4582 -41.4222  -4.1707   0.0532
     3.2199   3.7152   3.7152   4.6041   6.8352   6.8352   7.6321

          k = 0.0000 0.1429 0.0000 (  7045 PWs)   bands (ev):

   -42.2682 -41.9154 -41.5393 -41.4983 -41.4624 -41.4260  -4.0741   1.0504
     1.3030   2.7579   3.7589   6.1622   6.8106   8.5194   8.5747

          k = 0.0000 0.1429 0.1406 (  7048 PWs)   bands (ev):

   -42.2682 -41.9154 -41.5401 -41.4976 -41.4624 -41.4260  -4.0689   0.4315
     2.3230   2.8017   3.8106   5.4032   6.5833   7.4863   8.1131

          k = 0.0000 0.1429-0.2811 (  7044 PWs)   bands (ev):

   -42.2682 -41.9153 -41.5409 -41.4969 -41.4623 -41.4260  -4.0635   0.1799
     2.8293   3.4141   3.8669   4.3765   6.1023   7.0564   8.1477

          k = 0.0000 0.2857 0.0000 (  7056 PWs)   bands (ev):

   -42.2660 -41.9166 -41.5271 -41.4869 -41.4739 -41.4368  -3.7934   1.2761
     1.5474   1.6737   4.1812   5.0229   5.1499   8.7716   8.9748

          k = 0.0000 0.2857 0.1406 (  7061 PWs)   bands (ev):

   -42.2660 -41.9166 -41.5277 -41.4864 -41.4739 -41.4368  -3.7886   0.7977
     1.4417   2.6626   4.2240   4.3199   5.8049   7.5281   8.1052

          k = 0.0000 0.2857-0.2811 (  7070 PWs)   bands (ev):

   -42.2660 -41.9166 -41.5283 -41.4858 -41.4739 -41.4368  -3.7837   0.5543
     1.4728   3.5557   3.9846   4.2698   5.3656   7.5018   7.7138

          k = 0.0000 0.4286 0.0000 (  7070 PWs)   bands (ev):

   -42.2643 -41.9176 -41.5098 -41.4908 -41.4705 -41.4526  -3.5064   0.4917
     1.8130   2.3774   3.5307   4.4209   4.6362   8.8113   9.1138

          k = 0.0000 0.4286 0.1406 (  7073 PWs)   bands (ev):

   -42.2643 -41.9176 -41.5101 -41.4909 -41.4702 -41.4526  -3.5024   0.5324
     1.3409   2.7174   3.6834   4.6651   5.0708   7.2689   8.8720

          k = 0.0000 0.4286-0.2811 (  7058 PWs)   bands (ev):

   -42.2643 -41.9175 -41.5104 -41.4910 -41.4700 -41.4525  -3.4983   0.5797
     1.0978   2.5701   4.6952   4.9217   5.1199   6.1694   8.4599

          k = 0.1429 0.1429 0.0000 (  7050 PWs)   bands (ev):

   -42.2674 -41.9158 -41.5353 -41.4946 -41.4661 -41.4294  -3.9710   1.1979
     1.3820   2.6285   3.2601   5.8170   6.3450   8.0658   8.7550

          k = 0.1429 0.1429 0.1406 (  7052 PWs)   bands (ev):

   -42.2674 -41.9158 -41.5361 -41.4939 -41.4660 -41.4294  -3.9659   0.5541
     2.4144   2.6757   3.3044   5.2480   6.0679   7.2604   8.8263

          k = 0.1429 0.1429-0.2811 (  7044 PWs)   bands (ev):

   -42.2674 -41.9157 -41.5368 -41.4933 -41.4660 -41.4295  -3.9607   0.3030
     2.6771   3.3524   3.5940   4.2168   5.8391   6.6410   8.9093

          k = 0.1429 0.2857 0.0000 (  7069 PWs)   bands (ev):

   -42.2655 -41.9167 -41.5244 -41.4842 -41.4764 -41.4391  -3.7029   1.3984
     1.5889   1.8052   3.4879   4.9903   5.0826   7.7613   8.7402

          k = 0.1429 0.2857 0.1406 (  7058 PWs)   bands (ev):

   -42.2655 -41.9166 -41.5249 -41.4838 -41.4764 -41.4391  -3.6984   0.9032
     1.5517   2.7216   3.5175   4.4150   5.4469   7.3725   7.9436

          k = 0.1429 0.2857-0.2811 (  7048 PWs)   bands (ev):

   -42.2655 -41.9166 -41.5253 -41.4833 -41.4764 -41.4392  -3.6939   0.6645
     1.5794   3.5446   3.5693   4.1327   5.0977   6.9196   7.8706

          k = 0.1429 0.4286 0.0000 (  7054 PWs)   bands (ev):

   -42.2640 -41.9174 -41.5087 -41.4916 -41.4695 -41.4534  -3.4325   0.6577
     1.8016   2.4947   3.5796   3.9840   4.5113   7.0321   8.9432

          k = 0.1429 0.4286 0.1406 (  7059 PWs)   bands (ev):

   -42.2640 -41.9173 -41.5090 -41.4917 -41.4692 -41.4533  -3.4291   0.6969
     1.4022   2.7951   3.6766   4.0264   5.0203   7.1541   7.3943

          k = 0.1429 0.4286-0.2811 (  7050 PWs)   bands (ev):

   -42.2640 -41.9173 -41.5092 -41.4917 -41.4690 -41.4533  -3.4258   0.7430
     1.1772   2.6808   3.9254   4.8107   4.9992   6.4220   7.4253

          k = 0.2857 0.2857 0.0000 (  7058 PWs)   bands (ev):

   -42.2644 -41.9168 -41.5167 -41.4835 -41.4769 -41.4457  -3.4725   1.5430
     1.6873   2.1713   2.6448   4.6309   4.9088   6.2121   8.1837

          k = 0.2857 0.2857 0.1406 (  7042 PWs)   bands (ev):

   -42.2644 -41.9168 -41.5170 -41.4834 -41.4767 -41.4457  -3.4694   1.1900
     1.6380   2.6711   2.8614   4.5408   4.7042   6.2481   8.0373

          k = 0.2857 0.2857-0.2811 (  7062 PWs)   bands (ev):

   -42.2644 -41.9167 -41.5173 -41.4834 -41.4764 -41.4458  -3.4662   0.9807
     1.6506   2.6989   3.4712   4.4454   4.4535   6.3260   7.1989

          k = 0.2857 0.4286 0.0000 (  7053 PWs)   bands (ev):

   -42.2635 -41.9169 -41.5057 -41.4939 -41.4666 -41.4555  -3.2496   1.1428
     1.7722   2.8162   2.8587   3.7635   4.7515   5.1329   8.1326

          k = 0.2857 0.4286 0.1406 (  7062 PWs)   bands (ev):

   -42.2635 -41.9168 -41.5058 -41.4939 -41.4665 -41.4555  -3.2482   1.1753
     1.5534   2.8574   3.0155   3.8241   4.6329   5.5988   7.4662

          k = 0.2857 0.4286-0.2811 (  7044 PWs)   bands (ev):

   -42.2635 -41.9168 -41.5059 -41.4938 -41.4664 -41.4555  -3.2468   1.2170
     1.3923   2.8676   2.9994   4.1648   4.5169   6.1645   6.7099

          k = 0.4286 0.4286 0.0000 (  7088 PWs)   bands (ev):

   -42.2630 -41.9165 -41.5016 -41.4974 -41.4627 -41.4588  -3.0809   1.7449
     1.7897   2.2404   3.1842   3.7541   3.7618   4.9998   7.3306

          k = 0.4286 0.4286 0.1406 (  7059 PWs)   bands (ev):

   -42.2630 -41.9165 -41.5016 -41.4973 -41.4627 -41.4588  -3.0818   1.6795
     1.8205   2.2554   3.2576   3.6675   3.7181   5.0860   7.4031

          k = 0.4286 0.4286-0.2811 (  7048 PWs)   bands (ev):

   -42.2630 -41.9164 -41.5016 -41.4973 -41.4628 -41.4589  -3.0827   1.6298
     1.8401   2.2711   3.3889   3.5093   3.6746   5.2038   7.3849

     the Fermi energy is     3.8241 ev

!    total energy              =     -94.71938037 Ry
     estimated scf accuracy    <          3.8E-09 Ry
     smearing contrib. (-TS)   =      -0.00057544 Ry
     internal energy E=F+TS    =     -94.71880493 Ry

     The total energy is F=E-TS. E is the sum of the following terms:
     one-electron contribution =     -47.78066632 Ry
     hartree contribution      =      20.82389281 Ry
     xc contribution           =     -23.80362165 Ry
     ewald contribution        =     -43.95840976 Ry

     convergence has been achieved in  10 iterations

     Forces acting on atoms (cartesian axes, Ry/au):

     atom    1 type  1   force =     0.00000000    0.00000000    0.04665986
     atom    2 type  1   force =     0.00000000    0.00000000   -0.04665986
     atom    3 type  1   force =     0.00000000    0.00000000    0.04665986
     atom    4 type  1   force =     0.00000000    0.00000000   -0.04665986
     atom    5 type  1   force =     0.00000000    0.00000000    0.00000000
     atom    6 type  1   force =     0.00000000    0.00000000    0.00000000
     atom    7 type  2   force =     0.00000000    0.00000000    0.00000000
     The non-local contrib.  to forces
     atom    1 type  1   force =     0.00000000    0.00000000    0.06741462
     atom    2 type  1   force =     0.00000000    0.00000000   -0.06741462
     atom    3 type  1   force =     0.00000000    0.00000000    0.06741462
     atom    4 type  1   force =     0.00000000    0.00000000   -0.06741462
     atom    5 type  1   force =     0.00000000    0.00000000    0.00000000
     atom    6 type  1   force =     0.00000000    0.00000000    0.00000000
     atom    7 type  2   force =     0.00000000    0.00000000    0.00000000
     The ionic contribution  to forces
     atom    1 type  1   force =    -0.00000000    0.00000000    1.12921360
     atom    2 type  1   force =    -0.00000000   -0.00000000   -1.12921360
     atom    3 type  1   force =     0.00000000   -0.00000000    1.12921360
     atom    4 type  1   force =    -0.00000000   -0.00000000   -1.12921360
     atom    5 type  1   force =    -0.00000000   -0.00000000    0.00000000
     atom    6 type  1   force =    -0.00000000   -0.00000000    0.00000000
     atom    7 type  2   force =     0.00000000    0.00000000   -0.00000000
     The local contribution  to forces
     atom    1 type  1   force =    -0.00000000    0.00000000   -1.14991571
     atom    2 type  1   force =    -0.00000000    0.00000000    1.14991571
     atom    3 type  1   force =     0.00000000    0.00000000   -1.14991571
     atom    4 type  1   force =     0.00000000    0.00000000    1.14991571
     atom    5 type  1   force =    -0.00000000    0.00000000    0.00000000
     atom    6 type  1   force =     0.00000000    0.00000000    0.00000000
     atom    7 type  2   force =     0.00000000   -0.00000000    0.00000000
     The core correction contribution to forces
     atom    1 type  1   force =     0.00000000    0.00000000    0.00000000
     atom    2 type  1   force =     0.00000000    0.00000000    0.00000000
     atom    3 type  1   force =     0.00000000    0.00000000    0.00000000
     atom    4 type  1   force =     0.00000000    0.00000000    0.00000000
     atom    5 type  1   force =     0.00000000    0.00000000    0.00000000
     atom    6 type  1   force =     0.00000000    0.00000000    0.00000000
     atom    7 type  2   force =    -0.00000000   -0.00000000    0.00000000
     The Hubbard contrib.    to forces
     atom    1 type  1   force =     0.00000000    0.00000000    0.00000000
     atom    2 type  1   force =     0.00000000    0.00000000    0.00000000
     atom    3 type  1   force =     0.00000000    0.00000000    0.00000000
     atom    4 type  1   force =     0.00000000    0.00000000    0.00000000
     atom    5 type  1   force =     0.00000000    0.00000000    0.00000000
     atom    6 type  1   force =     0.00000000    0.00000000    0.00000000
     atom    7 type  2   force =     0.00000000    0.00000000    0.00000000
     The SCF correction term to forces
     atom    1 type  1   force =    -0.00000000    0.00000000   -0.00005265
     atom    2 type  1   force =    -0.00000000   -0.00000000    0.00005265
     atom    3 type  1   force =    -0.00000000    0.00000000   -0.00005265
     atom    4 type  1   force =    -0.00000000    0.00000000    0.00005265
     atom    5 type  1   force =    -0.00000000   -0.00000000   -0.00000000
     atom    6 type  1   force =    -0.00000000   -0.00000000   -0.00000000
     atom    7 type  2   force =     0.00000000    0.00000000    0.00000000

     Total force =     0.093320     Total SCF correction =     0.000105


     Computing stress (Cartesian axis) and pressure

          total   stress  (Ry/bohr**3)                   (kbar)     P=      224.98
   0.00167149   0.00000000   0.00000000          245.88        0.00        0.00
   0.00000000   0.00167149   0.00000000            0.00      245.88        0.00
   0.00000000   0.00000000   0.00124509            0.00        0.00      183.16


     BFGS Geometry Optimization
     Energy error            =      0.0E+00 Ry
     Gradient error          =      4.7E-02 Ry/Bohr
     Cell gradient error     =      3.2E+02 kbar

     number of scf cycles    =   1
     number of bfgs steps    =   0

     enthalpy           new  =     -92.7344185991 Ry

     new trust radius        =       0.2602487641 bohr
ibrav =      6
 celldm(1) =      6.60108763
 celldm(3) =      1.75865268
Input lattice vectors:
     0.95681390     0.00000000     0.00000000
     0.00000000     0.95681390     0.00000000
     0.00000000     0.00000000     1.68270334
New lattice vectors in INITIAL alat:
     0.95681390     0.00000000     0.00000000
     0.00000000     0.95681390     0.00000000
     0.00000000     0.00000000     1.68270334
New lattice vectors in NEW alat (for information only):
     1.00000000     0.00000000     0.00000000
     0.00000000     1.00000000     0.00000000
     0.00000000     0.00000000     1.75865268
Discrepancy in bohr =     0.000000    0.000000    0.000000
     new conv_thr            =       0.0000000100 Ry

     new unit-cell volume =    505.85561 a.u.^3 (    74.96007 Ang^3 )
     density =      1.54471 g/cm^3

CELL_PARAMETERS (alat=  6.89902980)
   0.956813903   0.000000000   0.000000000
   0.000000000   0.956813903   0.000000000
   0.000000000   0.000000000   1.682703339

ATOMIC_POSITIONS (crystal)
Li            0.0000000000        0.5000000000        0.1902388543
Li            0.0000000000        0.5000000000        0.8097611457
Li            0.5000000000        0.0000000000        0.1902388543
Li            0.5000000000        0.0000000000        0.8097611457
Li            0.0000000000        0.0000000000        0.5000000000
Li            0.5000000000        0.5000000000        0.5000000000
Si            0.5000000000        0.5000000000        0.0000000000



     Writing config-only to output data dir ./output/LiSi.save/
     NEW-OLD atomic charge density approx. for the potential

     negative rho (up, down):  4.408E-07 0.000E+00
     extrapolated charge   18.60595, renormalised to   22.00000

     total cpu time spent up to now is       10.3 secs

     Self-consistent Calculation

     iteration #  1     ecut=    80.00 Ry     beta= 0.70
     Davidson diagonalization with overlap
     ethr =  1.00E-06,  avg # of iterations =  9.3

     total cpu time spent up to now is       11.7 secs

     total energy              =     -94.10006717 Ry
     estimated scf accuracy    <       0.42656100 Ry

     iteration #  2     ecut=    80.00 Ry     beta= 0.70
     Davidson diagonalization with overlap
     ethr =  1.94E-03,  avg # of iterations =  3.6

     total cpu time spent up to now is       12.5 secs

     total energy              =     -94.25250892 Ry
     estimated scf accuracy    <       5.48104152 Ry

     iteration #  3     ecut=    80.00 Ry     beta= 0.70
     Davidson diagonalization with overlap
     ethr =  1.94E-03,  avg # of iterations =  2.1

     total cpu time spent up to now is       13.1 secs

     total energy              =     -94.56586412 Ry
     estimated scf accuracy    <       0.38528592 Ry

     iteration #  4     ecut=    80.00 Ry     beta= 0.70
     Davidson diagonalization with overlap
     ethr =  1.75E-03,  avg # of iterations =  1.3

     total cpu time spent up to now is       13.6 secs

     total energy              =     -94.57419616 Ry
     estimated scf accuracy    <       0.06577103 Ry

     iteration #  5     ecut=    80.00 Ry     beta= 0.70
     Davidson diagonalization with overlap
     ethr =  2.99E-04,  avg # of iterations =  2.4

     total cpu time spent up to now is       14.1 secs

     total energy              =     -94.57750890 Ry
     estimated scf accuracy    <       0.00676521 Ry

     iteration #  6     ecut=    80.00 Ry     beta= 0.70
     Davidson diagonalization with overlap
     ethr =  3.08E-05,  avg # of iterations =  3.2

     total cpu time spent up to now is       14.7 secs

     total energy              =     -94.57714741 Ry
     estimated scf accuracy    <       0.00308723 Ry

     iteration #  7     ecut=    80.00 Ry     beta= 0.70
     Davidson diagonalization with overlap
     ethr =  1.40E-05,  avg # of iterations =  2.0

     total cpu time spent up to now is       15.2 secs

     total energy              =     -94.57750874 Ry
     estimated scf accuracy    <       0.00001554 Ry

     iteration #  8     ecut=    80.00 Ry     beta= 0.70
     Davidson diagonalization with overlap
     ethr =  7.06E-08,  avg # of iterations =  3.8

     total cpu time spent up to now is       15.8 secs

     total energy              =     -94.57751707 Ry
     estimated scf accuracy    <       0.00000028 Ry

     iteration #  9     ecut=    80.00 Ry     beta= 0.70
     Davidson diagonalization with overlap
     ethr =  1.28E-09,  avg # of iterations =  2.5

     total cpu time spent up to now is       16.4 secs

     total energy              =     -94.57751709 Ry
     estimated scf accuracy    <       0.00000007 Ry

     iteration # 10     ecut=    80.00 Ry     beta= 0.70
     Davidson diagonalization with overlap
     ethr =  3.11E-10,  avg # of iterations =  2.2

     total cpu time spent up to now is       17.0 secs

     total energy              =     -94.57751707 Ry
     estimated scf accuracy    <       0.00000039 Ry

     iteration # 11     ecut=    80.00 Ry     beta= 0.70
     Davidson diagonalization with overlap
     ethr =  3.11E-10,  avg # of iterations =  2.0

     total cpu time spent up to now is       17.5 secs

     End of self-consistent calculation

          k = 0.0000 0.0000 0.0000 (  7039 PWs)   bands (ev):

   -41.1626 -40.7041 -40.5851 -40.5369 -40.4632 -40.4124  -3.5170   1.7678
     2.0772   4.5253   4.5253   8.1091   9.0378   9.7386   9.7386

          k = 0.0000 0.0000 0.1486 (  7027 PWs)   bands (ev):

   -41.1624 -40.7023 -40.5927 -40.5314 -40.4631 -40.4125  -3.5132   1.1363
     3.1374   4.5975   4.5975   7.0865   8.3405   8.3405   8.9512

          k = 0.0000 0.0000-0.2971 (  7058 PWs)   bands (ev):

   -41.1623 -40.7003 -40.5993 -40.5269 -40.4630 -40.4126  -3.5093   0.8749
     4.1784   4.6784   4.6784   5.8493   7.8315   7.8315   8.8719

          k = 0.0000 0.1493 0.0000 (  7045 PWs)   bands (ev):

   -41.1606 -40.7039 -40.5797 -40.5305 -40.4695 -40.4183  -3.3980   1.9245
     2.1606   3.6060   4.7061   7.3512   7.9525   9.8684   9.9321

          k = 0.0000 0.1493 0.1486 (  7048 PWs)   bands (ev):

   -41.1605 -40.7024 -40.5863 -40.5256 -40.4694 -40.4184  -3.3941   1.2604
     3.2599   3.6543   4.7751   6.5353   7.7790   8.5725   9.3145

          k = 0.0000 0.1493-0.2971 (  7044 PWs)   bands (ev):

   -41.1603 -40.7007 -40.5921 -40.5216 -40.4693 -40.4185  -3.3902   0.9971
     3.7059   4.3795   4.8520   5.5155   7.1882   8.0726   9.3852

          k = 0.0000 0.2986 0.0000 (  7056 PWs)   bands (ev):

   -41.1561 -40.7037 -40.5640 -40.5127 -40.4872 -40.4350  -3.0824   2.0946
     2.3836   2.4700   5.1965   6.0469   6.1949  10.3039  10.3334

          k = 0.0000 0.2986 0.1486 (  7061 PWs)   bands (ev):

   -41.1560 -40.7028 -40.5683 -40.5094 -40.4873 -40.4350  -3.0786   1.6194
     2.1868   3.5778   5.2548   5.2954   6.9656   8.7594   9.2468

          k = 0.0000 0.2986-0.2971 (  7070 PWs)   bands (ev):

   -41.1559 -40.7017 -40.5723 -40.5065 -40.4873 -40.4349  -3.0748   1.3599
     2.2198   4.5055   4.9753   5.3185   6.5526   8.6418   8.7884

          k = 0.0000 0.4479 0.0000 (  7070 PWs)   bands (ev):

   -41.1524 -40.7038 -40.5401 -40.5125 -40.4873 -40.4596  -2.7501   1.1557
     2.6227   3.2645   4.4710   5.4234   5.7429   9.9730  10.6004

          k = 0.0000 0.4479 0.1486 (  7073 PWs)   bands (ev):

   -41.1523 -40.7032 -40.5422 -40.5132 -40.4856 -40.4590  -2.7468   1.1914
     2.1358   3.6126   4.6558   5.7832   6.1281   8.5386  10.0534

          k = 0.0000 0.4479-0.2971 (  7058 PWs)   bands (ev):

   -41.1523 -40.7026 -40.5443 -40.5139 -40.4840 -40.4584  -2.7436   1.2315
     1.8840   3.4620   5.8259   5.9531   6.3021   7.2585   9.7588

          k = 0.1493 0.1493 0.0000 (  7050 PWs)   bands (ev):

   -41.1589 -40.7036 -40.5748 -40.5247 -40.4752 -40.4236  -3.2840   2.0771
     2.2293   3.4409   4.1929   6.9248   7.4146   9.4598  10.1618

          k = 0.1493 0.1493 0.1486 (  7052 PWs)   bands (ev):

   -41.1587 -40.7023 -40.5805 -40.5204 -40.4751 -40.4237  -3.2802   1.3785
     3.3630   3.4793   4.2486   6.3481   7.1049   8.5025  10.2841

          k = 0.1493 0.1493-0.2971 (  7044 PWs)   bands (ev):

   -41.1586 -40.7009 -40.5856 -40.5168 -40.4750 -40.4238  -3.2764   1.1150
     3.5142   4.3100   4.5702   5.3077   6.8457   7.7680  10.2827

          k = 0.1493 0.2986 0.0000 (  7069 PWs)   bands (ev):

   -41.1550 -40.7030 -40.5604 -40.5086 -40.4911 -40.4386  -2.9841   2.2116
     2.4077   2.6048   4.4504   5.9860   6.0970   9.0427  10.1424

          k = 0.1493 0.2986 0.1486 (  7058 PWs)   bands (ev):

   -41.1549 -40.7022 -40.5642 -40.5057 -40.4911 -40.4386  -2.9808   1.7162
     2.2945   3.6252   4.4878   5.3880   6.5041   8.5914   9.2660

          k = 0.1493 0.2986-0.2971 (  7048 PWs)   bands (ev):

   -41.1548 -40.7013 -40.5677 -40.5031 -40.4911 -40.4387  -2.9775   1.4628
     2.3223   4.5117   4.5168   5.1351   6.1656   8.0562   9.1405

          k = 0.1493 0.4479 0.0000 (  7054 PWs)   bands (ev):

   -41.1518 -40.7027 -40.5388 -40.5139 -40.4856 -40.4606  -2.6737   1.3317
     2.5874   3.3751   4.4964   5.0406   5.4987   8.1166  10.4903

          k = 0.1493 0.4479 0.1486 (  7059 PWs)   bands (ev):

   -41.1518 -40.7022 -40.5406 -40.5145 -40.4842 -40.4602  -2.6714   1.3658
     2.1828   3.6833   4.6039   5.0941   6.0426   8.2537   8.7162

          k = 0.1493 0.4479-0.2971 (  7050 PWs)   bands (ev):

   -41.1517 -40.7017 -40.5423 -40.5150 -40.4829 -40.4598  -2.6691   1.4043
     1.9530   3.5705   4.9217   5.8928   6.0349   7.6204   8.5636

          k = 0.2986 0.2986 0.0000 (  7058 PWs)   bands (ev):

   -41.1525 -40.7015 -40.5503 -40.5022 -40.4972 -40.4487  -2.7321   2.2956
     2.4615   3.0029   3.5759   5.5547   5.8737   7.3215   9.6125

          k = 0.2986 0.2986 0.1486 (  7042 PWs)   bands (ev):

   -41.1524 -40.7010 -40.5527 -40.5020 -40.4954 -40.4489  -2.7304   1.9775
     2.3504   3.6031   3.7416   5.4727   5.6724   7.3606   9.4162

          k = 0.2986 0.2986-0.2971 (  7062 PWs)   bands (ev):

   -41.1524 -40.7005 -40.5549 -40.5019 -40.4937 -40.4490  -2.7286   1.7590
     2.3600   3.6319   4.3969   5.3921   5.4049   7.4436   8.4991

          k = 0.2986 0.4479 0.0000 (  7053 PWs)   bands (ev):

   -41.1505 -40.7003 -40.5352 -40.5180 -40.4811 -40.4638  -2.4843   1.8472
     2.5042   3.6661   3.8149   4.6732   5.6967   6.0753   9.6079

          k = 0.2986 0.4479 0.1486 (  7062 PWs)   bands (ev):

   -41.1505 -40.7001 -40.5361 -40.5181 -40.4804 -40.4637  -2.4848   1.8743
     2.2956   3.7762   3.9020   4.7477   5.5389   6.6036   8.8434

          k = 0.2986 0.4479-0.2971 (  7044 PWs)   bands (ev):

   -41.1504 -40.6998 -40.5371 -40.5182 -40.4797 -40.4637  -2.4853   1.9074
     2.1408   3.7969   3.8858   5.1087   5.3976   7.1977   8.0285

          k = 0.4479 0.4479 0.0000 (  7088 PWs)   bands (ev):

   -41.1494 -40.6983 -40.5298 -40.5237 -40.4750 -40.4688  -2.3093   2.4344
     2.5468   3.1580   3.9990   4.6032   4.6179   5.8945   8.8135

          k = 0.4479 0.4479 0.1486 (  7059 PWs)   bands (ev):

   -41.1494 -40.6983 -40.5300 -40.5235 -40.4749 -40.4690  -2.3131   2.3864
     2.5689   3.1690   4.0792   4.4959   4.5882   6.0249   8.8368

          k = 0.4479 0.4479-0.2971 (  7048 PWs)   bands (ev):

   -41.1494 -40.6982 -40.5302 -40.5234 -40.4748 -40.4691  -2.3168   2.3481
     2.5837   3.1804   4.2711   4.2735   4.5587   6.1773   8.7591

     the Fermi energy is     4.7585 ev

!    total energy              =     -94.57751711 Ry
     estimated scf accuracy    <          1.7E-09 Ry
     smearing contrib. (-TS)   =       0.00001235 Ry
     internal energy E=F+TS    =     -94.57752946 Ry

     The total energy is F=E-TS. E is the sum of the following terms:
     one-electron contribution =     -44.10645997 Ry
     hartree contribution      =      19.89811804 Ry
     xc contribution           =     -24.03773271 Ry
     ewald contribution        =     -46.33145481 Ry

     convergence has been achieved in  11 iterations

     Forces acting on atoms (cartesian axes, Ry/au):

     atom    1 type  1   force =     0.00000000    0.00000000    0.06484540
     atom    2 type  1   force =     0.00000000    0.00000000   -0.06484540
     atom    3 type  1   force =     0.00000000    0.00000000    0.06484540
     atom    4 type  1   force =     0.00000000    0.00000000   -0.06484540
     atom    5 type  1   force =     0.00000000    0.00000000    0.00000000
     atom    6 type  1   force =     0.00000000    0.00000000    0.00000000
     atom    7 type  2   force =     0.00000000    0.00000000    0.00000000
     The non-local contrib.  to forces
     atom    1 type  1   force =     0.00000000    0.00000000    0.06286184
     atom    2 type  1   force =     0.00000000    0.00000000   -0.06286184
     atom    3 type  1   force =     0.00000000    0.00000000    0.06286184
     atom    4 type  1   force =     0.00000000    0.00000000   -0.06286184
     atom    5 type  1   force =     0.00000000    0.00000000    0.00000000
     atom    6 type  1   force =     0.00000000    0.00000000    0.00000000
     atom    7 type  2   force =     0.00000000    0.00000000    0.00000000
     The ionic contribution  to forces
     atom    1 type  1   force =     0.00000000   -0.00000000    1.11057505
     atom    2 type  1   force =     0.00000000   -0.00000000   -1.11057505
     atom    3 type  1   force =    -0.00000000    0.00000000    1.11057505
     atom    4 type  1   force =    -0.00000000    0.00000000   -1.11057505
     atom    5 type  1   force =     0.00000000    0.00000000    0.00000000
     atom    6 type  1   force =     0.00000000    0.00000000    0.00000000
     atom    7 type  2   force =    -0.00000000   -0.00000000   -0.00000000
     The local contribution  to forces
     atom    1 type  1   force =     0.00000000   -0.00000000   -1.10855908
     atom    2 type  1   force =    -0.00000000   -0.00000000    1.10855908
     atom    3 type  1   force =    -0.00000000    0.00000000   -1.10855908
     atom    4 type  1   force =    -0.00000000    0.00000000    1.10855908
     atom    5 type  1   force =    -0.00000000    0.00000000   -0.00000000
     atom    6 type  1   force =    -0.00000000   -0.00000000   -0.00000000
     atom    7 type  2   force =    -0.00000000    0.00000000   -0.00000000
     The core correction contribution to forces
     atom    1 type  1   force =     0.00000000    0.00000000    0.00000000
     atom    2 type  1   force =     0.00000000    0.00000000    0.00000000
     atom    3 type  1   force =     0.00000000    0.00000000    0.00000000
     atom    4 type  1   force =     0.00000000    0.00000000    0.00000000
     atom    5 type  1   force =     0.00000000    0.00000000    0.00000000
     atom    6 type  1   force =     0.00000000    0.00000000    0.00000000
     atom    7 type  2   force =     0.00000000    0.00000000   -0.00000000
     The Hubbard contrib.    to forces
     atom    1 type  1   force =     0.00000000    0.00000000    0.00000000
     atom    2 type  1   force =     0.00000000    0.00000000    0.00000000
     atom    3 type  1   force =     0.00000000    0.00000000    0.00000000
     atom    4 type  1   force =     0.00000000    0.00000000    0.00000000
     atom    5 type  1   force =     0.00000000    0.00000000    0.00000000
     atom    6 type  1   force =     0.00000000    0.00000000    0.00000000
     atom    7 type  2   force =     0.00000000    0.00000000    0.00000000
     The SCF correction term to forces
     atom    1 type  1   force =    -0.00000000   -0.00000000   -0.00003241
     atom    2 type  1   force =    -0.00000000    0.00000000    0.00003241
     atom    3 type  1   force =    -0.00000000   -0.00000000   -0.00003241
     atom    4 type  1   force =    -0.00000000    0.00000000    0.00003241
     atom    5 type  1   force =     0.00000000   -0.00000000    0.00000000
     atom    6 type  1   force =     0.00000000    0.00000000   -0.00000000
     atom    7 type  2   force =     0.00000000    0.00000000    0.00000000

     Total force =     0.129691     Total SCF correction =     0.000065


     Computing stress (Cartesian axis) and pressure

          total   stress  (Ry/bohr**3)                   (kbar)     P=      365.93
   0.00264210   0.00000000   0.00000000          388.67        0.00        0.00
   0.00000000   0.00264210   0.00000000            0.00      388.67        0.00
   0.00000000   0.00000000   0.00217844            0.00        0.00      320.46

     Energy error            =      1.2E-01 Ry
     Gradient error          =      6.5E-02 Ry/Bohr
     Cell gradient error     =      1.8E+02 kbar

     number of scf cycles    =   2
     number of bfgs steps    =   1

     enthalpy           old  =     -92.7344185991 Ry
     enthalpy           new  =     -92.8581488220 Ry

     CASE: enthalpy          _new < enthalpy          _old

     new trust radius        =       0.3050641227 bohr
ibrav =      6
 celldm(1) =      6.31825578
 celldm(3) =      1.71276933
Input lattice vectors:
     0.91581802     0.00000000     0.00000000
     0.00000000     0.91581802     0.00000000
     0.00000000     0.00000000     1.56858501
New lattice vectors in INITIAL alat:
     0.91581802     0.00000000     0.00000000
     0.00000000     0.91581802     0.00000000
     0.00000000     0.00000000     1.56858501
New lattice vectors in NEW alat (for information only):
     1.00000000     0.00000000     0.00000000
     0.00000000     1.00000000     0.00000000
     0.00000000     0.00000000     1.71276933
Discrepancy in bohr =     0.000000    0.000000    0.000000
     new conv_thr            =       0.0000000065 Ry

     new unit-cell volume =    432.00671 a.u.^3 (    64.01679 Ang^3 )
     density =      1.80877 g/cm^3

CELL_PARAMETERS (alat=  6.89902980)
   0.915818015   0.000000000   0.000000000
   0.000000000   0.915818015   0.000000000
   0.000000000   0.000000000   1.568585009

ATOMIC_POSITIONS (crystal)
Li            0.0000000000        0.5000000000        0.2007789062
Li            0.0000000000        0.5000000000        0.7992210938
Li            0.5000000000        0.0000000000        0.2007789062
Li            0.5000000000        0.0000000000        0.7992210938
Li            0.0000000000        0.0000000000        0.5000000000
Li            0.5000000000        0.5000000000        0.5000000000
Si            0.5000000000        0.5000000000        0.0000000000



     Writing config-only to output data dir ./output/LiSi.save/
     NEW-OLD atomic charge density approx. for the potential

     negative rho (up, down):  3.575E-06 0.000E+00
     extrapolated charge   18.24402, renormalised to   22.00000

     total cpu time spent up to now is       20.1 secs

     Self-consistent Calculation

     iteration #  1     ecut=    80.00 Ry     beta= 0.70
     Davidson diagonalization with overlap
     ethr =  1.00E-06,  avg # of iterations =  9.4

     total cpu time spent up to now is       21.5 secs

     total energy              =     -94.03330435 Ry
     estimated scf accuracy    <       0.31602305 Ry

     iteration #  2     ecut=    80.00 Ry     beta= 0.70
     Davidson diagonalization with overlap
     ethr =  1.44E-03,  avg # of iterations =  3.1

     total cpu time spent up to now is       22.2 secs

     total energy              =     -94.12898094 Ry
     estimated scf accuracy    <       3.35317778 Ry

     iteration #  3     ecut=    80.00 Ry     beta= 0.70
     Davidson diagonalization with overlap
     ethr =  1.44E-03,  avg # of iterations =  2.1

     total cpu time spent up to now is       22.8 secs

     total energy              =     -94.37535181 Ry
     estimated scf accuracy    <       0.14899183 Ry

     iteration #  4     ecut=    80.00 Ry     beta= 0.70
     Davidson diagonalization with overlap
     ethr =  6.77E-04,  avg # of iterations =  1.5

     total cpu time spent up to now is       23.3 secs

     total energy              =     -94.38086199 Ry
     estimated scf accuracy    <       0.01585019 Ry

     iteration #  5     ecut=    80.00 Ry     beta= 0.70
     Davidson diagonalization with overlap
     ethr =  7.20E-05,  avg # of iterations =  3.1

     total cpu time spent up to now is       23.9 secs

     total energy              =     -94.38249084 Ry
     estimated scf accuracy    <       0.00022825 Ry

     iteration #  6     ecut=    80.00 Ry     beta= 0.70
     Davidson diagonalization with overlap
     ethr =  1.04E-06,  avg # of iterations =  4.5

     total cpu time spent up to now is       24.5 secs

     total energy              =     -94.38255049 Ry
     estimated scf accuracy    <       0.00001691 Ry

     iteration #  7     ecut=    80.00 Ry     beta= 0.70
     Davidson diagonalization with overlap
     ethr =  7.69E-08,  avg # of iterations =  2.0

     total cpu time spent up to now is       25.0 secs

     total energy              =     -94.38255380 Ry
     estimated scf accuracy    <       0.00000544 Ry

     iteration #  8     ecut=    80.00 Ry     beta= 0.70
     Davidson diagonalization with overlap
     ethr =  2.47E-08,  avg # of iterations =  1.1

     total cpu time spent up to now is       25.5 secs

     total energy              =     -94.38255465 Ry
     estimated scf accuracy    <       0.00000026 Ry

     iteration #  9     ecut=    80.00 Ry     beta= 0.70
     Davidson diagonalization with overlap
     ethr =  1.17E-09,  avg # of iterations =  1.8

     total cpu time spent up to now is       26.0 secs

     total energy              =     -94.38255467 Ry
     estimated scf accuracy    <       0.00000001 Ry

     iteration # 10     ecut=    80.00 Ry     beta= 0.70
     Davidson diagonalization with overlap
     ethr =  6.59E-11,  avg # of iterations =  2.2

     total cpu time spent up to now is       26.5 secs

     End of self-consistent calculation

          k = 0.0000 0.0000 0.0000 (  7039 PWs)   bands (ev):

   -39.8516 -39.4863 -39.4166 -39.2878 -39.2274 -39.1609  -2.6245   2.9765
     3.2948   5.7191   5.7191   9.9409  10.5947  11.3147  11.3147

          k = 0.0000 0.0000 0.1594 (  7027 PWs)   bands (ev):

   -39.8496 -39.4900 -39.4170 -39.2874 -39.2278 -39.1586  -2.6250   2.3075
     4.4529   5.8338   5.8338   8.8015   9.5162   9.5162  10.4686

          k = 0.0000 0.0000-0.3188 (  7058 PWs)   bands (ev):

   -39.8477 -39.4938 -39.4175 -39.2870 -39.2282 -39.1563  -2.6256   2.0373
     5.6276   5.9704   5.9704   7.3844   8.8774   8.8774  10.3561

          k = 0.0000 0.1560 0.0000 (  7045 PWs)   bands (ev):

   -39.8459 -39.4780 -39.4068 -39.2975 -39.2363 -39.1631  -2.4893   3.1276
     3.3556   4.7150   5.9275   8.8433   9.2791  11.5190  11.6080

          k = 0.0000 0.1560 0.1594 (  7048 PWs)   bands (ev):

   -39.8443 -39.4804 -39.4083 -39.2970 -39.2368 -39.1607  -2.4898   2.4170
     4.5570   4.7896   6.0381   7.9043   9.2805   9.7685  10.7550

          k = 0.0000 0.1560-0.3188 (  7044 PWs)   bands (ev):

   -39.8426 -39.4829 -39.4097 -39.2966 -39.2373 -39.1584  -2.4903   2.1439
     4.8586   5.8413   6.1687   6.8720   8.4500   9.1407  10.8571

          k = 0.0000 0.3120 0.0000 (  7056 PWs)   bands (ev):

   -39.8331 -39.4537 -39.3796 -39.3255 -39.2616 -39.1674  -2.1253   3.1195
     3.5184   3.6029   6.5026   7.2738   7.5262  11.8940  12.0425

          k = 0.0000 0.3120 0.1594 (  7061 PWs)   bands (ev):

   -39.8321 -39.4532 -39.3835 -39.3245 -39.2630 -39.1647  -2.1255   2.7382
     3.1682   4.8146   6.5104   6.5987   8.4334  10.3224  10.5011

          k = 0.0000 0.3120-0.3188 (  7070 PWs)   bands (ev):

   -39.8311 -39.4527 -39.3872 -39.3237 -39.2643 -39.1621  -2.1258   2.4642
     3.2082   5.6551   6.4246   6.7092   8.0079   9.9225  10.0596

          k = 0.0000 0.4680 0.0000 (  7070 PWs)   bands (ev):

   -39.8228 -39.4174 -39.3654 -39.3409 -39.2988 -39.1704  -1.7277   2.0327
     3.6912   4.4219   5.6438   6.7229   7.1736  11.3045  12.2462

          k = 0.0000 0.4680 0.1594 (  7073 PWs)   bands (ev):

   -39.8222 -39.4137 -39.3667 -39.3447 -39.3010 -39.1673  -1.7278   2.0624
     3.1866   4.7568   5.9080   7.2425   7.5095  10.1954  11.3860

          k = 0.0000 0.4680-0.3188 (  7058 PWs)   bands (ev):

   -39.8217 -39.4100 -39.3639 -39.3537 -39.3020 -39.1644  -1.7279   2.0945
     2.9260   4.5898   7.3180   7.3883   7.7791   8.6968  11.3078

          k = 0.1560 0.1560 0.0000 (  7050 PWs)   bands (ev):

   -39.8410 -39.4701 -39.3979 -39.3059 -39.2443 -39.1653  -2.3600   3.2738
     3.3982   4.5152   5.3906   8.3119   8.6579  11.1112  11.2752

          k = 0.1560 0.1560 0.1594 (  7052 PWs)   bands (ev):

   -39.8396 -39.4715 -39.4002 -39.3055 -39.2447 -39.1630  -2.3606   2.5193
     4.5475   4.6676   5.4731   7.7253   8.2893  10.0120  11.7629

          k = 0.1560 0.1560-0.3188 (  7044 PWs)   bands (ev):

   -39.8381 -39.4729 -39.4024 -39.3051 -39.2452 -39.1608  -2.3612   2.2457
     4.6183   5.5678   6.0328   6.6223   7.9708   9.0517  11.9608

          k = 0.1560 0.3120 0.0000 (  7069 PWs)   bands (ev):

   -39.8298 -39.4473 -39.3732 -39.3307 -39.2669 -39.1696  -2.0150   3.2295
     3.5087   3.7305   5.6860   7.1717   7.3808  10.5753  11.8072

          k = 0.1560 0.3120 0.1594 (  7058 PWs)   bands (ev):

   -39.8289 -39.4464 -39.3772 -39.3299 -39.2679 -39.1673  -2.0159   2.8153
     3.2705   4.8305   5.7412   6.5987   7.8075  10.0461  10.9324

          k = 0.1560 0.3120-0.3188 (  7048 PWs)   bands (ev):

   -39.8280 -39.4455 -39.3810 -39.3293 -39.2688 -39.1650  -2.0167   2.5497
     3.3025   5.6713   5.7707   6.5757   7.4381   9.3496  10.7535

          k = 0.1560 0.4680 0.0000 (  7054 PWs)   bands (ev):

   -39.8207 -39.4133 -39.3668 -39.3383 -39.3003 -39.1726  -1.6455   2.2174
     3.6184   4.5138   5.6380   6.3910   6.7614   9.4279  12.4675

          k = 0.1560 0.4680 0.1594 (  7059 PWs)   bands (ev):

   -39.8203 -39.4101 -39.3674 -39.3421 -39.3022 -39.1700  -1.6470   2.2449
     3.2101   4.8145   5.7870   6.4572   7.3568   9.5679  10.4600

          k = 0.1560 0.4680-0.3188 (  7050 PWs)   bands (ev):

   -39.8198 -39.4069 -39.3654 -39.3494 -39.3032 -39.1675  -1.6485   2.2748
     2.9774   4.6919   6.2040   7.2223   7.4269   9.2352   9.8628

          k = 0.3120 0.3120 0.0000 (  7058 PWs)   bands (ev):

   -39.8222 -39.4291 -39.3558 -39.3464 -39.2822 -39.1743  -1.7289   3.2584
     3.4819   4.1208   4.7581   6.6597   7.0794   8.6795  11.3682

          k = 0.3120 0.3120 0.1594 (  7042 PWs)   bands (ev):

   -39.8217 -39.4276 -39.3596 -39.3459 -39.2827 -39.1725  -1.7318   3.0221
     3.2848   4.7886   4.8856   6.5851   6.9072   8.7020  11.2274

          k = 0.3120 0.3120-0.3188 (  7062 PWs)   bands (ev):

   -39.8211 -39.4259 -39.3635 -39.3454 -39.2832 -39.1708  -1.7347   2.7993
     3.2936   4.8211   5.5449   6.5104   6.7101   8.7313  10.2461

          k = 0.3120 0.4680 0.0000 (  7053 PWs)   bands (ev):

   -39.8160 -39.4026 -39.3712 -39.3312 -39.3049 -39.1778  -1.4409   2.7576
     3.4553   4.7476   5.0140   5.7986   6.8627   7.2572  11.4127

          k = 0.3120 0.4680 0.1594 (  7062 PWs)   bands (ev):

   -39.8158 -39.4006 -39.3708 -39.3342 -39.3060 -39.1763  -1.4468   2.7767
     3.2636   4.9147   5.0375   5.8913   6.6859   7.8136  10.6558

          k = 0.3120 0.4680-0.3188 (  7044 PWs)   bands (ev):

   -39.8156 -39.3986 -39.3699 -39.3381 -39.3068 -39.1749  -1.4526   2.7989
     3.1209   4.9735   4.9930   6.2625   6.5296   8.3833   9.8406

          k = 0.4680 0.4680 0.0000 (  7088 PWs)   bands (ev):

   -39.8123 -39.3898 -39.3788 -39.3218 -39.3124 -39.1822  -1.2506   3.3258
     3.4920   4.3085   5.0203   5.6697   5.7001   6.9602  10.6429

          k = 0.4680 0.4680 0.1594 (  7059 PWs)   bands (ev):

   -39.8122 -39.3889 -39.3782 -39.3232 -39.3130 -39.1818  -1.2616   3.3020
     3.5023   4.3147   5.1082   5.5708   5.6558   7.1285  10.6579

          k = 0.4680 0.4680-0.3188 (  7048 PWs)   bands (ev):

   -39.8122 -39.3879 -39.3777 -39.3246 -39.3135 -39.1815  -1.2726   3.2838
     3.5071   4.3211   5.2784   5.3679   5.6419   7.3045  10.5870

     the Fermi energy is     5.9630 ev

!    total energy              =     -94.38255468 Ry
     estimated scf accuracy    <          3.4E-09 Ry
     smearing contrib. (-TS)   =       0.00073856 Ry
     internal energy E=F+TS    =     -94.38329324 Ry

     The total energy is F=E-TS. E is the sum of the following terms:
     one-electron contribution =     -39.44372606 Ry
     hartree contribution      =      18.68047099 Ry
     xc contribution           =     -24.30428878 Ry
     ewald contribution        =     -49.31574940 Ry

     convergence has been achieved in  10 iterations

     Forces acting on atoms (cartesian axes, Ry/au):

     atom    1 type  1   force =     0.00000000    0.00000000    0.07383006
     atom    2 type  1   force =     0.00000000    0.00000000   -0.07383006
     atom    3 type  1   force =     0.00000000    0.00000000    0.07383006
     atom    4 type  1   force =     0.00000000    0.00000000   -0.07383006
     atom    5 type  1   force =     0.00000000    0.00000000    0.00000000
     atom    6 type  1   force =     0.00000000    0.00000000    0.00000000
     atom    7 type  2   force =     0.00000000    0.00000000    0.00000000
     The non-local contrib.  to forces
     atom    1 type  1   force =     0.00000000    0.00000000    0.05157803
     atom    2 type  1   force =     0.00000000    0.00000000   -0.05157803
     atom    3 type  1   force =     0.00000000    0.00000000    0.05157803
     atom    4 type  1   force =     0.00000000    0.00000000   -0.05157803
     atom    5 type  1   force =     0.00000000    0.00000000    0.00000000
     atom    6 type  1   force =     0.00000000    0.00000000    0.00000000
     atom    7 type  2   force =     0.00000000    0.00000000    0.00000000
     The ionic contribution  to forces
     atom    1 type  1   force =     0.00000000    0.00000000    0.84645506
     atom    2 type  1   force =     0.00000000    0.00000000   -0.84645506
     atom    3 type  1   force =     0.00000000    0.00000000    0.84645506
     atom    4 type  1   force =     0.00000000    0.00000000   -0.84645506
     atom    5 type  1   force =     0.00000000    0.00000000    0.00000000
     atom    6 type  1   force =     0.00000000    0.00000000   -0.00000000
     atom    7 type  2   force =     0.00000000    0.00000000   -0.00000000
     The local contribution  to forces
     atom    1 type  1   force =    -0.00000000   -0.00000000   -0.82425977
     atom    2 type  1   force =    -0.00000000   -0.00000000    0.82425977
     atom    3 type  1   force =    -0.00000000    0.00000000   -0.82425977
     atom    4 type  1   force =    -0.00000000    0.00000000    0.82425977
     atom    5 type  1   force =    -0.00000000    0.00000000   -0.00000000
     atom    6 type  1   force =    -0.00000000   -0.00000000   -0.00000000
     atom    7 type  2   force =     0.00000000   -0.00000000   -0.00000000
     The core correction contribution to forces
     atom    1 type  1   force =     0.00000000    0.00000000    0.00000000
     atom    2 type  1   force =     0.00000000    0.00000000    0.00000000
     atom    3 type  1   force =     0.00000000    0.00000000    0.00000000
     atom    4 type  1   force =     0.00000000    0.00000000    0.00000000
     atom    5 type  1   force =     0.00000000    0.00000000    0.00000000
     atom    6 type  1   force =     0.00000000    0.00000000    0.00000000
     atom    7 type  2   force =    -0.00000000   -0.00000000   -0.00000000
     The Hubbard contrib.    to forces
     atom    1 type  1   force =     0.00000000    0.00000000    0.00000000
     atom    2 type  1   force =     0.00000000    0.00000000    0.00000000
     atom    3 type  1   force =     0.00000000    0.00000000    0.00000000
     atom    4 type  1   force =     0.00000000    0.00000000    0.00000000
     atom    5 type  1   force =     0.00000000    0.00000000    0.00000000
     atom    6 type  1   force =     0.00000000    0.00000000    0.00000000
     atom    7 type  2   force =     0.00000000    0.00000000    0.00000000
     The SCF correction term to forces
     atom    1 type  1   force =    -0.00000000    0.00000000    0.00005675
     atom    2 type  1   force =     0.00000000   -0.00000000   -0.00005675
     atom    3 type  1   force =    -0.00000000   -0.00000000    0.00005675
     atom    4 type  1   force =    -0.00000000   -0.00000000   -0.00005675
     atom    5 type  1   force =     0.00000000   -0.00000000    0.00000000
     atom    6 type  1   force =     0.00000000   -0.00000000    0.00000000
     atom    7 type  2   force =    -0.00000000   -0.00000000   -0.00000000

     Total force =     0.147660     Total SCF correction =     0.000114


     Computing stress (Cartesian axis) and pressure

          total   stress  (Ry/bohr**3)                   (kbar)     P=      575.96
   0.00407314   0.00000000   0.00000000          599.18        0.00        0.00
   0.00000000   0.00407314   0.00000000            0.00      599.18        0.00
   0.00000000   0.00000000   0.00359963            0.00        0.00      529.52

     Energy error            =      5.6E-02 Ry
     Gradient error          =      7.4E-02 Ry/Bohr
     Cell gradient error     =      9.9E+01 kbar

     number of scf cycles    =   3
     number of bfgs steps    =   2

     enthalpy           old  =     -92.8581488220 Ry
     enthalpy           new  =     -92.9141937275 Ry

     CASE: enthalpy          _new < enthalpy          _old

     new trust radius        =       0.0748961307 bohr
ibrav =      6
 celldm(1) =      6.34157473
 celldm(3) =      1.68731515
Input lattice vectors:
     0.91919805     0.00000000     0.00000000
     0.00000000     0.91919805     0.00000000
     0.00000000     0.00000000     1.55097679
New lattice vectors in INITIAL alat:
     0.91919805     0.00000000     0.00000000
     0.00000000     0.91919805     0.00000000
     0.00000000     0.00000000     1.55097679
New lattice vectors in NEW alat (for information only):
     1.00000000     0.00000000     0.00000000
     0.00000000     1.00000000     0.00000000
     0.00000000     0.00000000     1.68731515
Discrepancy in bohr =     0.000000    0.000000    0.000000
     new conv_thr            =       0.0000000074 Ry

     new unit-cell volume =    430.31605 a.u.^3 (    63.76626 Ang^3 )
     density =      1.81588 g/cm^3

CELL_PARAMETERS (alat=  6.89902980)
   0.919198049   0.000000000   0.000000000
   0.000000000   0.919198049   0.000000000
   0.000000000   0.000000000   1.550976792

ATOMIC_POSITIONS (crystal)
Li            0.0000000000        0.5000000000        0.2076998177
Li            0.0000000000        0.5000000000        0.7923001823
Li            0.5000000000        0.0000000000        0.2076998177
Li            0.5000000000        0.0000000000        0.7923001823
Li            0.0000000000        0.0000000000        0.5000000000
Li            0.5000000000        0.5000000000        0.5000000000
Si            0.5000000000        0.5000000000        0.0000000000



     Writing config-only to output data dir ./output/LiSi.save/
     NEW-OLD atomic charge density approx. for the potential
     extrapolated charge   21.91368, renormalised to   22.00000

     total cpu time spent up to now is       29.1 secs

     Self-consistent Calculation

     iteration #  1     ecut=    80.00 Ry     beta= 0.70
     Davidson diagonalization with overlap
     ethr =  1.00E-06,  avg # of iterations =  6.5

     total cpu time spent up to now is       30.2 secs

     total energy              =     -94.38779761 Ry
     estimated scf accuracy    <       0.01603854 Ry

     iteration #  2     ecut=    80.00 Ry     beta= 0.70
     Davidson diagonalization with overlap
     ethr =  7.29E-05,  avg # of iterations =  2.7

     total cpu time spent up to now is       30.8 secs

     total energy              =     -94.37642816 Ry
     estimated scf accuracy    <       0.17660520 Ry

     iteration #  3     ecut=    80.00 Ry     beta= 0.70
     Davidson diagonalization with overlap
     ethr =  7.29E-05,  avg # of iterations =  2.2

     total cpu time spent up to now is       31.3 secs

     total energy              =     -94.39792225 Ry
     estimated scf accuracy    <       0.00017471 Ry

     iteration #  4     ecut=    80.00 Ry     beta= 0.70
     Davidson diagonalization with overlap
     ethr =  7.94E-07,  avg # of iterations =  3.1

     total cpu time spent up to now is       31.9 secs

     total energy              =     -94.39793582 Ry
     estimated scf accuracy    <       0.00003872 Ry

     iteration #  5     ecut=    80.00 Ry     beta= 0.70
     Davidson diagonalization with overlap
     ethr =  1.76E-07,  avg # of iterations =  1.7

     total cpu time spent up to now is       32.3 secs

     total energy              =     -94.39794258 Ry
     estimated scf accuracy    <       0.00000231 Ry

     iteration #  6     ecut=    80.00 Ry     beta= 0.70
     Davidson diagonalization with overlap
     ethr =  1.05E-08,  avg # of iterations =  1.8

     total cpu time spent up to now is       32.8 secs

     total energy              =     -94.39794276 Ry
     estimated scf accuracy    <       0.00000020 Ry

     iteration #  7     ecut=    80.00 Ry     beta= 0.70
     Davidson diagonalization with overlap
     ethr =  9.31E-10,  avg # of iterations =  2.2

     total cpu time spent up to now is       33.3 secs

     End of self-consistent calculation

          k = 0.0000 0.0000 0.0000 (  7039 PWs)   bands (ev):

   -39.8248 -39.4375 -39.3822 -39.2489 -39.1988 -39.0817  -2.5978   3.0743
     3.3860   5.7765   5.7765  10.0878  10.6164  11.2550  11.2550

          k = 0.0000 0.0000 0.1612 (  7027 PWs)   bands (ev):

   -39.8229 -39.4419 -39.3818 -39.2483 -39.1994 -39.0797  -2.5993   2.3788
     4.6049   5.9120   5.9120   8.9262   9.4126   9.4126  10.4679

          k = 0.0000 0.0000-0.3224 (  7058 PWs)   bands (ev):

   -39.8209 -39.4462 -39.3814 -39.2477 -39.2000 -39.0777  -2.6007   2.1017
     5.9253   6.0799   6.0799   7.3633   8.7239   8.7239  10.3423

          k = 0.0000 0.1554 0.0000 (  7045 PWs)   bands (ev):

   -39.8188 -39.4300 -39.3727 -39.2582 -39.2074 -39.0839  -2.4595   3.2190
     3.4378   4.7718   5.9851   8.9194   9.2342  11.4512  11.4622

          k = 0.0000 0.1554 0.1612 (  7048 PWs)   bands (ev):

   -39.8172 -39.4328 -39.3735 -39.2575 -39.2081 -39.0819  -2.4608   2.4824
     4.6947   4.8577   6.1160   7.9186   9.3174   9.6620  10.7611

          k = 0.0000 0.1554-0.3224 (  7044 PWs)   bands (ev):

   -39.8155 -39.4358 -39.3742 -39.2568 -39.2089 -39.0800  -2.4622   2.2029
     4.9464   6.1261   6.2766   6.8403   8.3595   8.9860  10.8493

          k = 0.0000 0.3108 0.0000 (  7056 PWs)   bands (ev):

   -39.8053 -39.4079 -39.3463 -39.2850 -39.2319 -39.0885  -2.0866   3.1705
     3.5782   3.6777   6.5623   7.2580   7.5924  11.8028  12.0726

          k = 0.0000 0.3108 0.1612 (  7061 PWs)   bands (ev):

   -39.8042 -39.4073 -39.3499 -39.2839 -39.2333 -39.0864  -2.0876   2.7869
     3.2255   4.9025   6.5306   6.6768   8.5099  10.3858  10.4018

          k = 0.0000 0.3108-0.3224 (  7070 PWs)   bands (ev):

   -39.8032 -39.4068 -39.3532 -39.2829 -39.2345 -39.0843  -2.0886   2.5076
     3.2723   5.6302   6.6795   6.8126   7.9934   9.7648  10.1137

          k = 0.0000 0.4662 0.0000 (  7070 PWs)   bands (ev):

   -39.7943 -39.3747 -39.3225 -39.3088 -39.2680 -39.0917  -1.6780   2.0756
     3.7283   4.4696   5.6603   6.7965   7.2400  11.2403  12.3232

          k = 0.0000 0.4662 0.1612 (  7073 PWs)   bands (ev):

   -39.7937 -39.3704 -39.3261 -39.3107 -39.2697 -39.0894  -1.6786   2.1079
     3.2120   4.7777   5.9692   7.3229   7.6112  10.3321  11.2918

          k = 0.0000 0.4662-0.3224 (  7058 PWs)   bands (ev):

   -39.7932 -39.3658 -39.3220 -39.3216 -39.2702 -39.0872  -1.6792   2.1430
     2.9464   4.5913   7.4155   7.5926   7.8026   8.8324  11.3062

          k = 0.1554 0.1554 0.0000 (  7050 PWs)   bands (ev):

   -39.8135 -39.4228 -39.3641 -39.2664 -39.2152 -39.0862  -2.3267   3.3590
     3.4720   4.5833   5.4320   8.3780   8.6135  11.0531  11.2867

          k = 0.1554 0.1554 0.1612 (  7052 PWs)   bands (ev):

   -39.8121 -39.4245 -39.3658 -39.2657 -39.2158 -39.0843  -2.3281   2.5791
     4.6376   4.7770   5.5281   7.7828   8.2177  10.0117  11.7862

          k = 0.1554 0.1554-0.3224 (  7044 PWs)   bands (ev):

   -39.8107 -39.4262 -39.3674 -39.2650 -39.2165 -39.0824  -2.3295   2.2997
     4.7122   5.6415   6.3046   6.6032   7.8708   8.9487  11.9735

          k = 0.1554 0.3108 0.0000 (  7069 PWs)   bands (ev):

   -39.8016 -39.4019 -39.3402 -39.2901 -39.2371 -39.0909  -1.9716   3.2852
     3.5619   3.7996   5.7306   7.1497   7.4401  10.5552  11.8442

          k = 0.1554 0.3108 0.1612 (  7058 PWs)   bands (ev):

   -39.8007 -39.4009 -39.3438 -39.2891 -39.2382 -39.0890  -1.9732   2.8597
     3.3324   4.9065   5.7954   6.6162   7.8422  10.0257  11.0096

          k = 0.1554 0.3108-0.3224 (  7048 PWs)   bands (ev):

   -39.7998 -39.3999 -39.3474 -39.2883 -39.2392 -39.0872  -1.9748   2.5896
     3.3709   5.6549   5.8423   6.8037   7.4051   9.2588  10.8337

          k = 0.1554 0.4662 0.0000 (  7054 PWs)   bands (ev):

   -39.7919 -39.3705 -39.3242 -39.3063 -39.2695 -39.0943  -1.5897   2.2609
     3.6527   4.5570   5.6557   6.4328   6.8228   9.4250  12.5977

          k = 0.1554 0.4662 0.1612 (  7059 PWs)   bands (ev):

   -39.7914 -39.3667 -39.3259 -39.3091 -39.2711 -39.0923  -1.5917   2.2909
     3.2346   4.8354   5.8373   6.5049   7.4349   9.5513  10.6042

          k = 0.1554 0.4662-0.3224 (  7050 PWs)   bands (ev):

   -39.7909 -39.3629 -39.3230 -39.3176 -39.2717 -39.0905  -1.5938   2.3238
     2.9972   4.6929   6.2782   7.2306   7.5740   9.3887   9.7917

          k = 0.3108 0.3108 0.0000 (  7058 PWs)   bands (ev):

   -39.7932 -39.3847 -39.3232 -39.3054 -39.2519 -39.0962  -1.6723   3.3250
     3.5213   4.1734   4.7747   6.6393   7.1227   8.6926  11.3553

          k = 0.3108 0.3108 0.1612 (  7042 PWs)   bands (ev):

   -39.7926 -39.3830 -39.3268 -39.3047 -39.2526 -39.0948  -1.6759   3.0565
     3.3553   4.8099   4.9340   6.5558   6.9734   8.6954  11.3405

          k = 0.3108 0.3108-0.3224 (  7062 PWs)   bands (ev):

   -39.7921 -39.3811 -39.3306 -39.3039 -39.2534 -39.0935  -1.6795   2.8296
     3.3692   4.8478   5.5475   6.4717   6.8647   8.6749  10.3852

          k = 0.3108 0.4662 0.0000 (  7053 PWs)   bands (ev):

   -39.7864 -39.3598 -39.3290 -39.2994 -39.2740 -39.1003  -1.3687   2.8027
     3.4849   4.7797   5.0363   5.7962   6.8924   7.2749  11.3859

          k = 0.3108 0.4662 0.1612 (  7062 PWs)   bands (ev):

   -39.7862 -39.3574 -39.3286 -39.3023 -39.2751 -39.0993  -1.3752   2.8243
     3.2870   4.9432   5.0547   5.8935   6.7323   7.8015  10.7573

          k = 0.3108 0.4662-0.3224 (  7044 PWs)   bands (ev):

   -39.7859 -39.3550 -39.3274 -39.3064 -39.2759 -39.0982  -1.3817   2.8493
     3.1403   4.9926   5.0045   6.2564   6.5955   8.3248  10.0226

          k = 0.4662 0.4662 0.0000 (  7088 PWs)   bands (ev):

   -39.7820 -39.3472 -39.3365 -39.2903 -39.2812 -39.1055  -1.1610   3.3529
     3.5369   4.3103   5.0449   5.6644   5.7151   6.9590  10.6198

          k = 0.4662 0.4662 0.1612 (  7059 PWs)   bands (ev):

   -39.7819 -39.3460 -39.3357 -39.2918 -39.2820 -39.1052  -1.1729   3.3260
     3.5496   4.3180   5.1333   5.5888   5.6473   7.1031  10.6936

          k = 0.4662 0.4662-0.3224 (  7048 PWs)   bands (ev):

   -39.7819 -39.3447 -39.3349 -39.2934 -39.2829 -39.1049  -1.1847   3.3046
     3.5573   4.3258   5.3238   5.3651   5.6302   7.2547  10.7126

     the Fermi energy is     6.0196 ev

!    total energy              =     -94.39794279 Ry
     estimated scf accuracy    <          3.9E-10 Ry
     smearing contrib. (-TS)   =       0.00126797 Ry
     internal energy E=F+TS    =     -94.39921076 Ry

     The total energy is F=E-TS. E is the sum of the following terms:
     one-electron contribution =     -39.00359498 Ry
     hartree contribution      =      18.49054053 Ry
     xc contribution           =     -24.29633653 Ry
     ewald contribution        =     -49.58981978 Ry

     convergence has been achieved in   7 iterations

     Forces acting on atoms (cartesian axes, Ry/au):

     atom    1 type  1   force =     0.00000000    0.00000000    0.05952735
     atom    2 type  1   force =     0.00000000    0.00000000   -0.05952735
     atom    3 type  1   force =     0.00000000    0.00000000    0.05952735
     atom    4 type  1   force =     0.00000000    0.00000000   -0.05952735
     atom    5 type  1   force =     0.00000000    0.00000000    0.00000000
     atom    6 type  1   force =     0.00000000    0.00000000    0.00000000
     atom    7 type  2   force =     0.00000000    0.00000000    0.00000000
     The non-local contrib.  to forces
     atom    1 type  1   force =     0.00000000    0.00000000    0.04791790
     atom    2 type  1   force =     0.00000000    0.00000000   -0.04791790
     atom    3 type  1   force =     0.00000000    0.00000000    0.04791790
     atom    4 type  1   force =     0.00000000    0.00000000   -0.04791790
     atom    5 type  1   force =     0.00000000    0.00000000    0.00000000
     atom    6 type  1   force =     0.00000000    0.00000000    0.00000000
     atom    7 type  2   force =     0.00000000    0.00000000    0.00000000
     The ionic contribution  to forces
     atom    1 type  1   force =     0.00000000   -0.00000000    0.60592119
     atom    2 type  1   force =     0.00000000   -0.00000000   -0.60592119
     atom    3 type  1   force =    -0.00000000    0.00000000    0.60592119
     atom    4 type  1   force =    -0.00000000    0.00000000   -0.60592119
     atom    5 type  1   force =     0.00000000    0.00000000    0.00000000
     atom    6 type  1   force =    -0.00000000    0.00000000    0.00000000
     atom    7 type  2   force =    -0.00000000   -0.00000000   -0.00000000
     The local contribution  to forces
     atom    1 type  1   force =     0.00000000   -0.00000000   -0.59429709
     atom    2 type  1   force =    -0.00000000   -0.00000000    0.59429709
     atom    3 type  1   force =    -0.00000000    0.00000000   -0.59429709
     atom    4 type  1   force =    -0.00000000    0.00000000    0.59429709
     atom    5 type  1   force =    -0.00000000    0.00000000   -0.00000000
     atom    6 type  1   force =    -0.00000000   -0.00000000   -0.00000000
     atom    7 type  2   force =    -0.00000000   -0.00000000   -0.00000000
     The core correction contribution to forces
     atom    1 type  1   force =     0.00000000    0.00000000    0.00000000
     atom    2 type  1   force =     0.00000000    0.00000000    0.00000000
     atom    3 type  1   force =     0.00000000    0.00000000    0.00000000
     atom    4 type  1   force =     0.00000000    0.00000000    0.00000000
     atom    5 type  1   force =     0.00000000    0.00000000    0.00000000
     atom    6 type  1   force =     0.00000000    0.00000000    0.00000000
     atom    7 type  2   force =     0.00000000    0.00000000    0.00000000
     The Hubbard contrib.    to forces
     atom    1 type  1   force =     0.00000000    0.00000000    0.00000000
     atom    2 type  1   force =     0.00000000    0.00000000    0.00000000
     atom    3 type  1   force =     0.00000000    0.00000000    0.00000000
     atom    4 type  1   force =     0.00000000    0.00000000    0.00000000
     atom    5 type  1   force =     0.00000000    0.00000000    0.00000000
     atom    6 type  1   force =     0.00000000    0.00000000    0.00000000
     atom    7 type  2   force =     0.00000000    0.00000000    0.00000000
     The SCF correction term to forces
     atom    1 type  1   force =    -0.00000000   -0.00000000   -0.00001465
     atom    2 type  1   force =    -0.00000000    0.00000000    0.00001465
     atom    3 type  1   force =    -0.00000000   -0.00000000   -0.00001465
     atom    4 type  1   force =    -0.00000000    0.00000000    0.00001465
     atom    5 type  1   force =    -0.00000000    0.00000000   -0.00000000
     atom    6 type  1   force =    -0.00000000    0.00000000   -0.00000000
     atom    7 type  2   force =    -0.00000000   -0.00000000    0.00000000

     Total force =     0.119055     Total SCF correction =     0.000029


     Computing stress (Cartesian axis) and pressure

          total   stress  (Ry/bohr**3)                   (kbar)     P=      566.58
   0.00401648   0.00000000   0.00000000          590.85        0.00        0.00
   0.00000000   0.00401648   0.00000000            0.00      590.85        0.00
   0.00000000   0.00000000   0.00352162            0.00        0.00      518.05

     Energy error            =      2.1E-02 Ry
     Gradient error          =      6.0E-02 Ry/Bohr
     Cell gradient error     =      9.1E+01 kbar

     number of scf cycles    =   4
     number of bfgs steps    =   3

     enthalpy           old  =     -92.9141937275 Ry
     enthalpy           new  =     -92.9353282449 Ry

     CASE: enthalpy          _new < enthalpy          _old


     WARNING: bfgs curvature condition failed, Theta= 0.981
     new trust radius        =       0.1110830715 bohr
ibrav =      6
 celldm(1) =      6.39666934
 celldm(3) =      1.64180727
Input lattice vectors:
     0.92718390     0.00000000     0.00000000
     0.00000000     0.92718390     0.00000000
     0.00000000     0.00000000     1.52225726
New lattice vectors in INITIAL alat:
     0.92718390     0.00000000     0.00000000
     0.00000000     0.92718390     0.00000000
     0.00000000     0.00000000     1.52225726
New lattice vectors in NEW alat (for information only):
     1.00000000     0.00000000     0.00000000
     0.00000000     1.00000000     0.00000000
     0.00000000     0.00000000     1.64180727
Discrepancy in bohr =     0.000000    0.000000    0.000000
     new conv_thr            =       0.0000000060 Ry

     new unit-cell volume =    429.71833 a.u.^3 (    63.67769 Ang^3 )
     density =      1.81841 g/cm^3

CELL_PARAMETERS (alat=  6.89902980)
   0.927183897   0.000000000   0.000000000
   0.000000000   0.927183897   0.000000000
   0.000000000   0.000000000   1.522257260

ATOMIC_POSITIONS (crystal)
Li            0.0000000000        0.5000000000        0.2180811851
Li            0.0000000000        0.5000000000        0.7819188149
Li            0.5000000000        0.0000000000        0.2180811851
Li            0.5000000000        0.0000000000        0.7819188149
Li            0.0000000000        0.0000000000        0.5000000000
Li            0.5000000000        0.5000000000        0.5000000000
Si            0.5000000000        0.5000000000        0.0000000000



     Writing config-only to output data dir ./output/LiSi.save/
     NEW-OLD atomic charge density approx. for the potential
     extrapolated charge   21.96944, renormalised to   22.00000

     total cpu time spent up to now is       35.8 secs

     Self-consistent Calculation

     iteration #  1     ecut=    80.00 Ry     beta= 0.70
     Davidson diagonalization with overlap
     ethr =  1.00E-06,  avg # of iterations =  7.1

     total cpu time spent up to now is       36.9 secs

     total energy              =     -94.40213356 Ry
     estimated scf accuracy    <       0.02973533 Ry

     iteration #  2     ecut=    80.00 Ry     beta= 0.70
     Davidson diagonalization with overlap
     ethr =  1.35E-04,  avg # of iterations =  2.5

     total cpu time spent up to now is       37.5 secs

     total energy              =     -94.38684182 Ry
     estimated scf accuracy    <       0.26642048 Ry

     iteration #  3     ecut=    80.00 Ry     beta= 0.70
     Davidson diagonalization with overlap
     ethr =  1.35E-04,  avg # of iterations =  2.1

     total cpu time spent up to now is       38.0 secs

     total energy              =     -94.42082020 Ry
     estimated scf accuracy    <       0.00015386 Ry

     iteration #  4     ecut=    80.00 Ry     beta= 0.70
     Davidson diagonalization with overlap
     ethr =  6.99E-07,  avg # of iterations =  3.3

     total cpu time spent up to now is       38.6 secs

     total energy              =     -94.42084343 Ry
     estimated scf accuracy    <       0.00004872 Ry

     iteration #  5     ecut=    80.00 Ry     beta= 0.70
     Davidson diagonalization with overlap
     ethr =  2.21E-07,  avg # of iterations =  1.9

     total cpu time spent up to now is       39.1 secs

     total energy              =     -94.42085200 Ry
     estimated scf accuracy    <       0.00000170 Ry

     iteration #  6     ecut=    80.00 Ry     beta= 0.70
     Davidson diagonalization with overlap
     ethr =  7.72E-09,  avg # of iterations =  1.9

     total cpu time spent up to now is       39.6 secs

     total energy              =     -94.42085214 Ry
     estimated scf accuracy    <       0.00000018 Ry

     iteration #  7     ecut=    80.00 Ry     beta= 0.70
     Davidson diagonalization with overlap
     ethr =  7.95E-10,  avg # of iterations =  2.0

     total cpu time spent up to now is       40.1 secs

     End of self-consistent calculation

          k = 0.0000 0.0000 0.0000 (  7039 PWs)   bands (ev):

   -39.8602 -39.4017 -39.3555 -39.2250 -39.1853 -39.0339  -2.5633   3.1973
     3.4861   5.7696   5.7696  10.3562  10.5744  11.0952  11.0952

          k = 0.0000 0.0000 0.1642 (  7027 PWs)   bands (ev):

   -39.8586 -39.4031 -39.3578 -39.2238 -39.1865 -39.0318  -2.5660   2.4493
     4.8100   5.9414   5.9414   9.1695   9.1973   9.1973  10.3920

          k = 0.0000 0.0000-0.3285 (  7058 PWs)   bands (ev):

   -39.8571 -39.4047 -39.3599 -39.2225 -39.1878 -39.0296  -2.5688   2.1591
     6.1710   6.1710   6.4120   7.3236   8.4177   8.4177  10.2463

          k = 0.0000 0.1541 0.0000 (  7045 PWs)   bands (ev):

   -39.8542 -39.3950 -39.3467 -39.2336 -39.1933 -39.0363  -2.4233   3.3319
     3.5261   4.7882   5.9774   9.0183   9.1145  11.2759  11.3916

          k = 0.0000 0.1541 0.1642 (  7048 PWs)   bands (ev):

   -39.8529 -39.3951 -39.3501 -39.2323 -39.1946 -39.0342  -2.4259   2.5443
     4.8779   4.8949   6.1439   7.8800   9.4158   9.4399  10.7344

          k = 0.0000 0.1541-0.3285 (  7044 PWs)   bands (ev):

   -39.8515 -39.3951 -39.3534 -39.2310 -39.1960 -39.0322  -2.4285   2.2526
     5.0221   6.3634   6.5907   6.7554   8.1839   8.6761  10.7818

          k = 0.0000 0.3082 0.0000 (  7056 PWs)   bands (ev):

   -39.8406 -39.3753 -39.3222 -39.2582 -39.2161 -39.0414  -2.0462   3.2054
     3.6366   3.7662   6.5538   7.1927   7.6757  11.5760  12.0525

          k = 0.0000 0.3082 0.1642 (  7061 PWs)   bands (ev):

   -39.8398 -39.3723 -39.3280 -39.2565 -39.2179 -39.0393  -2.0482   2.8241
     3.2749   5.0035   6.5239   6.7010   8.6204  10.1417  10.5331

          k = 0.0000 0.3082-0.3285 (  7070 PWs)   bands (ev):

   -39.8389 -39.3686 -39.3344 -39.2549 -39.2197 -39.0373  -2.0502   2.5347
     3.3364   5.5482   6.8865   7.0907   7.9467   9.4452  10.1708

          k = 0.0000 0.4622 0.0000 (  7070 PWs)   bands (ev):

   -39.8296 -39.3467 -39.2914 -39.2874 -39.2495 -39.0450  -1.6332   2.1205
     3.7564   4.5137   5.6523   6.8923   7.2372  11.0274  12.3784

          k = 0.0000 0.4622 0.1642 (  7073 PWs)   bands (ev):

   -39.8291 -39.3401 -39.3009 -39.2853 -39.2513 -39.0429  -1.6344   2.1594
     3.2156   4.7743   6.0354   7.3459   7.7570  10.5362  11.0413

          k = 0.0000 0.4622-0.3285 (  7058 PWs)   bands (ev):

   -39.8286 -39.3310 -39.3072 -39.2904 -39.2514 -39.0409  -1.6356   2.2023
     2.9391   4.5522   7.4722   7.8136   7.9150   9.0344  11.2883

          k = 0.1541 0.1541 0.0000 (  7050 PWs)   bands (ev):

   -39.8489 -39.3885 -39.3387 -39.2411 -39.2005 -39.0390  -2.2884   3.4620
     3.5492   4.6191   5.4201   8.4610   8.4992  10.8822  11.2655

          k = 0.1541 0.1541 0.1642 (  7052 PWs)   bands (ev):

   -39.8477 -39.3876 -39.3428 -39.2398 -39.2018 -39.0370  -2.2910   2.6332
     4.7029   4.9239   5.5420   7.8362   8.0521  10.0305  11.7824

          k = 0.1541 0.1541-0.3285 (  7044 PWs)   bands (ev):

   -39.8465 -39.3864 -39.3471 -39.2385 -39.2031 -39.0350  -2.2936   2.3425
     4.7986   5.6939   6.5412   6.7450   7.6485   8.7552  11.9079

          k = 0.1541 0.3082 0.0000 (  7069 PWs)   bands (ev):

   -39.8367 -39.3694 -39.3165 -39.2630 -39.2209 -39.0446  -1.9275   3.3256
     3.6127   3.8799   5.7268   7.0736   7.5149  10.4321  11.8427

          k = 0.1541 0.3082 0.1642 (  7058 PWs)   bands (ev):

   -39.8359 -39.3663 -39.3222 -39.2614 -39.2225 -39.0427  -1.9301   2.8917
     3.3876   4.9924   5.8124   6.5970   7.8715   9.9510  11.1027

          k = 0.1541 0.3082-0.3285 (  7048 PWs)   bands (ev):

   -39.8352 -39.3623 -39.3286 -39.2599 -39.2241 -39.0409  -1.9327   2.6123
     3.4400   5.5884   5.8931   7.1661   7.3065   9.0799  10.9079

          k = 0.1541 0.4622 0.0000 (  7054 PWs)   bands (ev):

   -39.8268 -39.3418 -39.2934 -39.2850 -39.2509 -39.0487  -1.5390   2.3052
     3.6794   4.5949   5.6509   6.4160   6.9027   9.3352  12.6803

          k = 0.1541 0.4622 0.1642 (  7059 PWs)   bands (ev):

   -39.8264 -39.3359 -39.2988 -39.2859 -39.2527 -39.0469  -1.5416   2.3419
     3.2388   4.8330   5.8865   6.5047   7.5404   9.4512  10.7744

          k = 0.1541 0.4622-0.3285 (  7050 PWs)   bands (ev):

   -39.8260 -39.3283 -39.3020 -39.2918 -39.2533 -39.0452  -1.5443   2.3826
     2.9909   4.6537   6.3371   7.2065   7.7871   9.5968   9.6365

          k = 0.3082 0.3082 0.0000 (  7058 PWs)   bands (ev):

   -39.8277 -39.3528 -39.3008 -39.2771 -39.2346 -39.0518  -1.6177   3.3835
     3.5569   4.2284   4.7563   6.5675   7.1782   8.6376  11.2664

          k = 0.3082 0.3082 0.1642 (  7042 PWs)   bands (ev):

[...]
         1           Li  tau(   1) = (   0.0000000   0.5207400   0.2861930  )
         2           Li  tau(   2) = (   0.0000000   0.5207400   0.9454119  )
         3           Li  tau(   3) = (   0.5207400   0.0000000   0.2861930  )
         4           Li  tau(   4) = (   0.5207400   0.0000000   0.9454119  )
         5           Li  tau(   5) = (   0.0000000   0.0000000   0.6158024  )
         6           Li  tau(   6) = (   0.5207400   0.5207400   0.6158024  )
         7           Si  tau(   7) = (   0.5207400   0.5207400   0.0000000  )

     number of k points=    30  Marzari-Vanderbilt smearing, width (Ry)=  0.0200
                       cart. coord. in units 2pi/alat
        k(    1) = (   0.0000000   0.0000000   0.0000000), wk =   0.0102041
        k(    2) = (   0.0000000   0.0000000   0.2029872), wk =   0.0204082
        k(    3) = (   0.0000000   0.0000000  -0.4059744), wk =   0.0102041
        k(    4) = (   0.0000000   0.1371674   0.0000000), wk =   0.0408163
        k(    5) = (   0.0000000   0.1371674   0.2029872), wk =   0.0816327
        k(    6) = (   0.0000000   0.1371674  -0.4059744), wk =   0.0408163
        k(    7) = (   0.0000000   0.2743349   0.0000000), wk =   0.0408163
        k(    8) = (   0.0000000   0.2743349   0.2029872), wk =   0.0816327
        k(    9) = (   0.0000000   0.2743349  -0.4059744), wk =   0.0408163
        k(   10) = (   0.0000000   0.4115023   0.0000000), wk =   0.0408163
        k(   11) = (   0.0000000   0.4115023   0.2029872), wk =   0.0816327
        k(   12) = (   0.0000000   0.4115023  -0.4059744), wk =   0.0408163
        k(   13) = (   0.1371674   0.1371674   0.0000000), wk =   0.0408163
        k(   14) = (   0.1371674   0.1371674   0.2029872), wk =   0.0816327
        k(   15) = (   0.1371674   0.1371674  -0.4059744), wk =   0.0408163
        k(   16) = (   0.1371674   0.2743349   0.0000000), wk =   0.0816327
        k(   17) = (   0.1371674   0.2743349   0.2029872), wk =   0.1632653
        k(   18) = (   0.1371674   0.2743349  -0.4059744), wk =   0.0816327
        k(   19) = (   0.1371674   0.4115023   0.0000000), wk =   0.0816327
        k(   20) = (   0.1371674   0.4115023   0.2029872), wk =   0.1632653
        k(   21) = (   0.1371674   0.4115023  -0.4059744), wk =   0.0816327
        k(   22) = (   0.2743349   0.2743349   0.0000000), wk =   0.0408163
        k(   23) = (   0.2743349   0.2743349   0.2029872), wk =   0.0816327
        k(   24) = (   0.2743349   0.2743349  -0.4059744), wk =   0.0408163
        k(   25) = (   0.2743349   0.4115023   0.0000000), wk =   0.0816327
        k(   26) = (   0.2743349   0.4115023   0.2029872), wk =   0.1632653
        k(   27) = (   0.2743349   0.4115023  -0.4059744), wk =   0.0816327
        k(   28) = (   0.4115023   0.4115023   0.0000000), wk =   0.0408163
        k(   29) = (   0.4115023   0.4115023   0.2029872), wk =   0.0816327
        k(   30) = (   0.4115023   0.4115023  -0.4059744), wk =   0.0408163

     Dense  grid:    42457 G-vectors     FFT dimensions: (  45,  45,  50)

     Estimated max dynamical RAM per process >      20.97 MB

     Estimated total dynamical RAM >     167.72 MB

     Initial potential from superposition of free atoms

     starting charge      21.9720, renormalised to      22.0000
     Starting wfcs are   16 randomized atomic wfcs

     total cpu time spent up to now is      136.6 secs

     Self-consistent Calculation

     iteration #  1     ecut=    80.00 Ry     beta= 0.70
     Davidson diagonalization with overlap
     c_bands:  1 eigenvalues not converged
     c_bands:  1 eigenvalues not converged
     c_bands:  1 eigenvalues not converged
     c_bands:  1 eigenvalues not converged
     c_bands:  1 eigenvalues not converged
     c_bands:  1 eigenvalues not converged
     ethr =  1.00E-06,  avg # of iterations = 17.0

     total cpu time spent up to now is      138.4 secs

     total energy              =     -94.46570141 Ry
     estimated scf accuracy    <       0.15355309 Ry

     iteration #  2     ecut=    80.00 Ry     beta= 0.70
     Davidson diagonalization with overlap
     ethr =  6.98E-04,  avg # of iterations =  2.0

     total cpu time spent up to now is      139.0 secs

     total energy              =     -94.48648327 Ry
     estimated scf accuracy    <       0.09393654 Ry

     iteration #  3     ecut=    80.00 Ry     beta= 0.70
     Davidson diagonalization with overlap
     ethr =  4.27E-04,  avg # of iterations =  2.0

     total cpu time spent up to now is      139.5 secs

     total energy              =     -94.50953308 Ry
     estimated scf accuracy    <       0.01245264 Ry

     iteration #  4     ecut=    80.00 Ry     beta= 0.70
     Davidson diagonalization with overlap
     ethr =  5.66E-05,  avg # of iterations =  2.0

     total cpu time spent up to now is      140.0 secs

     total energy              =     -94.51153839 Ry
     estimated scf accuracy    <       0.00019269 Ry

     iteration #  5     ecut=    80.00 Ry     beta= 0.70
     Davidson diagonalization with overlap
     ethr =  8.76E-07,  avg # of iterations =  3.7

     total cpu time spent up to now is      140.6 secs

     total energy              =     -94.51156938 Ry
     estimated scf accuracy    <       0.00001312 Ry

     iteration #  6     ecut=    80.00 Ry     beta= 0.70
     Davidson diagonalization with overlap
     ethr =  5.96E-08,  avg # of iterations =  2.0

     total cpu time spent up to now is      141.2 secs

     total energy              =     -94.51157201 Ry
     estimated scf accuracy    <       0.00000005 Ry

     iteration #  7     ecut=    80.00 Ry     beta= 0.70
     Davidson diagonalization with overlap
     ethr =  2.40E-10,  avg # of iterations =  3.7

     total cpu time spent up to now is      141.8 secs

     total energy              =     -94.51157205 Ry
     estimated scf accuracy    <       0.00000001 Ry

     iteration #  8     ecut=    80.00 Ry     beta= 0.70
     Davidson diagonalization with overlap
     ethr =  6.58E-11,  avg # of iterations =  2.0

     total cpu time spent up to now is      142.3 secs

     total energy              =     -94.51157206 Ry
     estimated scf accuracy    <          1.1E-09 Ry

     iteration #  9     ecut=    80.00 Ry     beta= 0.70
     Davidson diagonalization with overlap
     ethr =  4.91E-12,  avg # of iterations =  1.3

     total cpu time spent up to now is      142.8 secs

     End of self-consistent calculation

          k = 0.0000 0.0000 0.0000 (  5301 PWs)   bands (ev):

   -40.6253 -39.5755 -39.4894 -39.3823 -39.3276 -38.9933  -2.1643   3.8649
     3.8649   4.1848   4.2553   8.8753  10.6415  10.6415  10.6822

          k = 0.0000 0.0000 0.2030 (  5292 PWs)   bands (ev):

   -40.6243 -39.5538 -39.4734 -39.4106 -39.3440 -38.9880  -2.1543   2.6947
     4.2510   4.2510   6.6376   8.0937   8.0937   8.5813  10.9382

          k = 0.0000 0.0000-0.4060 (  5352 PWs)   bands (ev):

   -40.6233 -39.5172 -39.4535 -39.4517 -39.3660 -38.9829  -2.1439   2.1743
     4.9540   4.9540   6.5537   6.5537   8.3455   9.1090  10.4393

          k = 0.0000 0.1372 0.0000 (  5289 PWs)   bands (ev):

   -40.6234 -39.5710 -39.4927 -39.3795 -39.3303 -38.9964  -2.1004   3.3652
     4.0282   4.1752   4.4120   8.9264   9.5475   9.8911  10.4153

          k = 0.0000 0.1372 0.2030 (  5306 PWs)   bands (ev):

   -40.6226 -39.5495 -39.4767 -39.4071 -39.3467 -38.9914  -2.0893   2.7566
     3.7239   4.4088   6.4246   7.5516   8.2520   9.3186  11.0248

          k = 0.0000 0.1372-0.4060 (  5316 PWs)   bands (ev):

   -40.6217 -39.5138 -39.4548 -39.4486 -39.3688 -38.9867  -2.0778   2.2467
     4.2415   5.0887   5.9642   6.7572   9.1135   9.3142  10.4247

          k = 0.0000 0.2743 0.0000 (  5302 PWs)   bands (ev):

   -40.6193 -39.5592 -39.5015 -39.3717 -39.3377 -39.0034  -1.9395   2.5302
     4.1554   4.4790   4.7667   7.4720   8.8602   9.3892  10.5700

          k = 0.0000 0.2743 0.2030 (  5296 PWs)   bands (ev):

   -40.6187 -39.5380 -39.4857 -39.3972 -39.3544 -38.9992  -1.9257   2.7293
     3.0315   4.8394   5.6874   7.2782   8.6394   9.7277  10.5504

          k = 0.0000 0.2743-0.4060 (  5306 PWs)   bands (ev):

   -40.6180 -39.5043 -39.4635 -39.4363 -39.3765 -38.9953  -1.9113   2.4559
     3.1618   4.9880   5.4429   7.3614   9.3021   9.9089  10.3838

          k = 0.0000 0.4115 0.0000 (  5282 PWs)   bands (ev):

   -40.6160 -39.5461 -39.5121 -39.3606 -39.3485 -39.0091  -1.7865   1.9647
     4.1410   5.0059   5.3484   6.2993   8.2999   8.3285  11.3346

          k = 0.0000 0.4115 0.2030 (  5297 PWs)   bands (ev):

   -40.6155 -39.5242 -39.4977 -39.3843 -39.3655 -39.0057  -1.7702   2.1733
     3.2097   5.0429   5.3269   7.2370   8.6543   9.4791   9.9211

          k = 0.0000 0.4115-0.4060 (  5298 PWs)   bands (ev):

   -40.6150 -39.4909 -39.4763 -39.4234 -39.3854 -39.0025  -1.7533   2.4838
     2.7233   4.2725   5.8089   8.3071   9.1695  10.0028  10.1360

          k = 0.1372 0.1372 0.0000 (  5279 PWs)   bands (ev):

   -40.6217 -39.5665 -39.4957 -39.3770 -39.3326 -38.9995  -2.0412   3.2761
     3.8303   4.1557   4.5438   8.4722   9.4432   9.7085  10.0163

          k = 0.1372 0.1372 0.2030 (  5304 PWs)   bands (ev):

   -40.6209 -39.5453 -39.4795 -39.4038 -39.3491 -38.9950  -2.0295   2.8139
     3.6313   4.1799   6.2878   7.3551   8.0026   9.7433  11.0378

          k = 0.1372 0.1372-0.4060 (  5314 PWs)   bands (ev):

   -40.6201 -39.5107 -39.4575 -39.4438 -39.3714 -38.9906  -2.0173   2.3199
     4.0544   4.8074   6.0674   6.1796   9.5647   9.5757  10.4467

          k = 0.1372 0.2743 0.0000 (  5296 PWs)   bands (ev):

   -40.6177 -39.5550 -39.5037 -39.3700 -39.3392 -39.0068  -1.8931   2.6281
     4.1124   4.1340   4.8825   7.3542   8.4455   8.7499  11.0365

          k = 0.1372 0.2743 0.2030 (  5301 PWs)   bands (ev):

   -40.6171 -39.5344 -39.4876 -39.3947 -39.3561 -39.0031  -1.8800   2.8025
     3.1139   4.4672   5.7221   6.9254   8.3552   8.7793  11.2604

          k = 0.1372 0.2743-0.4060 (  5300 PWs)   bands (ev):

   -40.6165 -39.5021 -39.4653 -39.4316 -39.3784 -38.9996  -1.8664   2.5312
     3.2380   5.0073   5.1073   6.5684   9.0372   9.4010  10.9772

          k = 0.1372 0.4115 0.0000 (  5318 PWs)   bands (ev):

   -40.6144 -39.5423 -39.5136 -39.3599 -39.3490 -39.0127  -1.7545   2.1124
     4.0781   4.6423   5.4468   6.3055   7.3678   8.3394  11.9601

          k = 0.1372 0.4115 0.2030 (  5293 PWs)   bands (ev):

   -40.6140 -39.5213 -39.4987 -39.3826 -39.3661 -39.0099  -1.7403   2.3207
     3.2571   4.9515   5.1377   6.8137   7.6946   8.9134  10.5983

          k = 0.1372 0.4115-0.4060 (  5284 PWs)   bands (ev):

   -40.6137 -39.4899 -39.4768 -39.4188 -39.3868 -39.0071  -1.7257   2.6332
     2.8007   4.3786   5.3854   7.1132   8.3152   8.8987  10.9855

          k = 0.2743 0.2743 0.0000 (  5292 PWs)   bands (ev):

   -40.6139 -39.5447 -39.5097 -39.3650 -39.3438 -39.0147  -1.7801   2.7352
     3.7534   4.0170   5.1684   6.9119   7.0133   8.5266  11.2568

          k = 0.2743 0.2743 0.2030 (  5294 PWs)   bands (ev):

   -40.6136 -39.5253 -39.4931 -39.3876 -39.3607 -39.0121  -1.7690   2.8909
     3.2944   4.0277   5.6759   6.2897   7.2918   8.1823  11.9425

          k = 0.2743 0.2743-0.4060 (  5298 PWs)   bands (ev):

   -40.6132 -39.4960 -39.4705 -39.4200 -39.3836 -39.0096  -1.7577   2.7477
     3.2859   4.5086   5.3795   5.5187   7.6326   8.5358  12.2629

          k = 0.2743 0.4115 0.0000 (  5294 PWs)   bands (ev):

   -40.6109 -39.5335 -39.5173 -39.3580 -39.3504 -39.0212  -1.6784   2.5446
     3.9419   4.0301   5.6281   5.8986   6.2648   8.3671  11.4531

          k = 0.2743 0.4115 0.2030 (  5311 PWs)   bands (ev):

   -40.6107 -39.5145 -39.5011 -39.3783 -39.3677 -39.0196  -1.6698   2.7501
     3.3913   4.3088   5.3340   6.0989   6.1797   8.1624  11.3969

          k = 0.2743 0.4115-0.4060 (  5310 PWs)   bands (ev):

   -40.6105 -39.4875 -39.4784 -39.4079 -39.3901 -39.0180  -1.6609   3.0211
     3.0716   4.6777   4.6811   5.8704   6.5907   7.7146  12.5858

          k = 0.4115 0.4115 0.0000 (  5308 PWs)   bands (ev):

   -40.6081 -39.5255 -39.5209 -39.3554 -39.3527 -39.0282  -1.6128   3.1427
     3.6925   3.8376   4.6436   5.8840   6.1181   8.3921  10.9622

          k = 0.4115 0.4115 0.2030 (  5314 PWs)   bands (ev):

   -40.6081 -39.5082 -39.5040 -39.3735 -39.3699 -39.0277  -1.6093   3.3314
     3.5741   3.9122   4.8833   5.5486   5.6715   7.5894  11.7980

          k = 0.4115 0.4115-0.4060 (  5312 PWs)   bands (ev):

   -40.6080 -39.4842 -39.4810 -39.3982 -39.3933 -39.0272  -1.6058   3.2940
     3.6853   4.2925   5.0509   5.0926   5.2624   6.8279  13.6527

     the Fermi energy is     5.8288 ev

!    total energy              =     -94.51157206 Ry
     estimated scf accuracy    <          2.0E-11 Ry
     smearing contrib. (-TS)   =       0.00032394 Ry
     internal energy E=F+TS    =     -94.51189600 Ry

     The total energy is F=E-TS. E is the sum of the following terms:
     one-electron contribution =     -39.99739367 Ry
     hartree contribution      =      18.82147567 Ry
     xc contribution           =     -24.25573405 Ry
     ewald contribution        =     -49.08024395 Ry

     convergence has been achieved in   9 iterations

     Forces acting on atoms (cartesian axes, Ry/au):

     atom    1 type  1   force =     0.00000000    0.00000000    0.00000859
     atom    2 type  1   force =     0.00000000    0.00000000   -0.00000859
     atom    3 type  1   force =     0.00000000    0.00000000    0.00000859
     atom    4 type  1   force =     0.00000000    0.00000000   -0.00000859
     atom    5 type  1   force =     0.00000000    0.00000000    0.00000000
     atom    6 type  1   force =     0.00000000    0.00000000    0.00000000
     atom    7 type  2   force =     0.00000000    0.00000000    0.00000000
     The non-local contrib.  to forces
     atom    1 type  1   force =     0.00000000    0.00000000    0.00612074
     atom    2 type  1   force =     0.00000000    0.00000000   -0.00612074
     atom    3 type  1   force =     0.00000000    0.00000000    0.00612074
     atom    4 type  1   force =     0.00000000    0.00000000   -0.00612074
     atom    5 type  1   force =     0.00000000    0.00000000    0.00000000
     atom    6 type  1   force =     0.00000000    0.00000000    0.00000000
     atom    7 type  2   force =     0.00000000    0.00000000    0.00000000
     The ionic contribution  to forces
     atom    1 type  1   force =    -0.00000000    0.00000000   -0.01208413
     atom    2 type  1   force =    -0.00000000    0.00000000    0.01208413
     atom    3 type  1   force =     0.00000000   -0.00000000   -0.01208413
     atom    4 type  1   force =     0.00000000   -0.00000000    0.01208413
     atom    5 type  1   force =    -0.00000000   -0.00000000    0.00000000
     atom    6 type  1   force =     0.00000000    0.00000000   -0.00000000
     atom    7 type  2   force =     0.00000000    0.00000000   -0.00000000
     The local contribution  to forces
     atom    1 type  1   force =    -0.00000000    0.00000000    0.00597630
     atom    2 type  1   force =     0.00000000    0.00000000   -0.00597630
     atom    3 type  1   force =     0.00000000   -0.00000000    0.00597630
     atom    4 type  1   force =     0.00000000    0.00000000   -0.00597630
     atom    5 type  1   force =    -0.00000000   -0.00000000    0.00000000
     atom    6 type  1   force =     0.00000000    0.00000000    0.00000000
     atom    7 type  2   force =     0.00000000    0.00000000    0.00000000
     The core correction contribution to forces
     atom    1 type  1   force =     0.00000000    0.00000000    0.00000000
     atom    2 type  1   force =     0.00000000    0.00000000    0.00000000
     atom    3 type  1   force =     0.00000000    0.00000000    0.00000000
     atom    4 type  1   force =     0.00000000    0.00000000    0.00000000
     atom    5 type  1   force =     0.00000000    0.00000000    0.00000000
     atom    6 type  1   force =     0.00000000    0.00000000    0.00000000
     atom    7 type  2   force =    -0.00000000   -0.00000000    0.00000000
     The Hubbard contrib.    to forces
     atom    1 type  1   force =     0.00000000    0.00000000    0.00000000
     atom    2 type  1   force =     0.00000000    0.00000000    0.00000000
     atom    3 type  1   force =     0.00000000    0.00000000    0.00000000
     atom    4 type  1   force =     0.00000000    0.00000000    0.00000000
     atom    5 type  1   force =     0.00000000    0.00000000    0.00000000
     atom    6 type  1   force =     0.00000000    0.00000000    0.00000000
     atom    7 type  2   force =     0.00000000    0.00000000    0.00000000
     The SCF correction term to forces
     atom    1 type  1   force =    -0.00000000    0.00000000   -0.00000432
     atom    2 type  1   force =    -0.00000000    0.00000000    0.00000432
     atom    3 type  1   force =    -0.00000000    0.00000000   -0.00000432
     atom    4 type  1   force =    -0.00000000    0.00000000    0.00000432
     atom    5 type  1   force =    -0.00000000    0.00000000   -0.00000000
     atom    6 type  1   force =     0.00000000    0.00000000   -0.00000000
     atom    7 type  2   force =     0.00000000    0.00000000    0.00000000

     Total force =     0.000017     Total SCF correction =     0.000009
     SCF correction compared to forces is large: reduce conv_thr to get better values


     Computing stress (Cartesian axis) and pressure

          total   stress  (Ry/bohr**3)                   (kbar)     P=      499.64
   0.00339659   0.00000000   0.00000000          499.66        0.00        0.00
   0.00000000   0.00339659   0.00000000            0.00      499.66        0.00
   0.00000000   0.00000000   0.00339628            0.00        0.00      499.61


     Writing all to output data dir ./output/LiSi.save/

     init_run     :      1.50s CPU      1.76s WALL (       2 calls)
     electrons    :     87.50s CPU     92.53s WALL (      21 calls)
     update_pot   :     10.87s CPU     11.02s WALL (      19 calls)
     forces       :      7.19s CPU      7.34s WALL (      21 calls)
     stress       :     29.38s CPU     30.85s WALL (      21 calls)

     Called by init_run:
     wfcinit      :      0.40s CPU      0.41s WALL (       2 calls)
     potinit      :      0.45s CPU      0.54s WALL (       2 calls)
     hinit0       :      0.59s CPU      0.70s WALL (       2 calls)

     Called by electrons:
     c_bands      :     75.37s CPU     79.07s WALL (     159 calls)
     sum_band     :     10.52s CPU     11.06s WALL (     159 calls)
     v_of_rho     :      1.63s CPU      2.33s WALL (     178 calls)
     mix_rho      :      0.14s CPU      0.18s WALL (     159 calls)

     Called by c_bands:
     init_us_2    :      2.64s CPU      2.85s WALL (   10860 calls)
     init_us_2:cp :      2.62s CPU      2.84s WALL (   10860 calls)
     cegterg      :     70.39s CPU     72.37s WALL (    4770 calls)

     Called by *egterg:
     cdiaghg      :      4.04s CPU      4.17s WALL (   17641 calls)
     h_psi        :     57.63s CPU     59.28s WALL (   18331 calls)
     g_psi        :      0.36s CPU      0.37s WALL (   13501 calls)

     Called by h_psi:
     h_psi:calbec :      5.07s CPU      5.21s WALL (   18331 calls)
     vloc_psi     :     47.94s CPU     49.32s WALL (   18331 calls)
     add_vuspsi   :      4.36s CPU      4.46s WALL (   18331 calls)

     General routines
     calbec       :      6.40s CPU      6.56s WALL (   21481 calls)
     fft          :      1.46s CPU      2.40s WALL (    2305 calls)
     ffts         :      0.05s CPU      0.11s WALL (     159 calls)
     fftw         :     49.07s CPU     50.42s WALL (  459348 calls)

     Parallel routines

     PWSCF        :   2m16.83s CPU   2m24.39s WALL


   This run was terminated on:   3:32:35  30Dec2024            

=------------------------------------------------------------------------------=
   JOB DONE.
=------------------------------------------------------------------------------=
