
     Program PWSCF v.7.2 starts on 30Dec2024 at  3:54:27 

     This program is part of the open-source Quantum ESPRESSO suite
     for quantum simulation of materials; please cite
         "P. Giannozzi et al., J. Phys.:Condens. Matter 21 395502 (2009);
         "P. Giannozzi et al., J. Phys.:Condens. Matter 29 465901 (2017);
         "P. Giannozzi et al., J. Chem. Phys. 152 154105 (2020);
          URL http://www.quantum-espresso.org", 
     in publications or presentations arising from this work. More details at
     http://www.quantum-espresso.org/quote

     Parallel version (MPI & OpenMP), running on       8 processor cores
     Number of MPI processes:                 8
     Threads/MPI process:                     1

     MPI processes distributed on     1 nodes
     479440 MiB available memory on the printing compute node when the environment starts

     Waiting for input...
     Reading input from standard input

     Current dimensions of program PWSCF are:
     Max number of different atomic species (ntypx) = 10
     Max number of k-points (npk) =  40000
     Max angular momentum in pseudopotentials (lmaxx) =  4

     R & G space division:  proc/nbgrp/npool/nimage =       8
     Subspace diagonalization in iterative solution of the eigenvalue problem:
     a serial algorithm will be used


     Parallelization info
     --------------------
     sticks:   dense  smooth     PW     G-vecs:    dense   smooth      PW
     Min         198     198     55                 9008     9008    1361
     Max         200     200     56                 9011     9011    1369
     Sum        1597    1597    441                72079    72079   10925

     Using Slab Decomposition



     bravais-lattice index     =            6
     lattice parameter (alat)  =       7.9046  a.u.
     unit-cell volume          =     745.6581 (a.u.)^3
     number of atoms/cell      =            7
     number of atomic types    =            2
     number of electrons       =        22.00
     number of Kohn-Sham states=           15
     kinetic-energy cutoff     =      80.0000  Ry
     charge density cutoff     =     320.0000  Ry
     scf convergence threshold =      1.0E-08
     mixing beta               =       0.7000
     number of iterations used =            8  plain     mixing
     energy convergence thresh.=      1.0E-04
     force convergence thresh. =      1.0E-03
     press convergence thresh. =      1.0E+00
     Exchange-correlation= PBE
                           (   1   4   3   4   0   0   0)
     nstep                     =           50


     celldm(1)=   7.904649  celldm(2)=   0.000000  celldm(3)=   1.509704
     celldm(4)=   0.000000  celldm(5)=   0.000000  celldm(6)=   0.000000

     crystal axes: (cart. coord. in units of alat)
               a(1) = (   1.000000   0.000000   0.000000 )  
               a(2) = (   0.000000   1.000000   0.000000 )  
               a(3) = (   0.000000   0.000000   1.509704 )  

     reciprocal axes: (cart. coord. in units 2 pi/alat)
               b(1) = (  1.000000  0.000000  0.000000 )  
               b(2) = (  0.000000  1.000000  0.000000 )  
               b(3) = (  0.000000  0.000000  0.662381 )  


     PseudoPot. # 1 for Li read from file:
     ../pseudo/Li_ONCV_PBE_sr.upf
     MD5 check sum: 50ff420e78310ffa21704f3361e624a4
     Pseudo is Norm-conserving, Zval =  3.0
     Generated using ONCVPSP code by D. R. Hamann
     Using radial grid of 1944 points,  4 beta functions with: 
                l(1) =   0
                l(2) =   0
                l(3) =   1
                l(4) =   1

     PseudoPot. # 2 for Si read from file:
     ../pseudo/Si_ONCV_PBE_sr.upf
     MD5 check sum: e543d271109d17c80368dfa7c482276d
     Pseudo is Norm-conserving + core correction, Zval =  4.0
     Generated using ONCVPSP code by D. R. Hamann
     Using radial grid of 1510 points,  6 beta functions with: 
                l(1) =   0
                l(2) =   0
                l(3) =   1
                l(4) =   1
                l(5) =   2
                l(6) =   2

     atomic species   valence    mass     pseudopotential
        Li             3.00     6.94100     Li( 1.00)
        Si             4.00    28.08550     Si( 1.00)

     16 Sym. Ops., with inversion, found



   Cartesian axes

     site n.     atom                  positions (alat units)
         1           Li  tau(   1) = (   0.0000000   0.5000000   0.4310908  )
         2           Li  tau(   2) = (   0.0000000   0.5000000   1.0786136  )
         3           Li  tau(   3) = (   0.5000000   0.0000000   0.4310908  )
         4           Li  tau(   4) = (   0.5000000   0.0000000   1.0786136  )
         5           Li  tau(   5) = (   0.0000000   0.0000000   0.0000000  )
         6           Li  tau(   6) = (   0.5000000   0.5000000   0.0000000  )
         7           Si  tau(   7) = (   0.0000000   0.0000000   0.7548522  )

     number of k points=    45  Marzari-Vanderbilt smearing, width (Ry)=  0.0200
                       cart. coord. in units 2pi/alat
        k(    1) = (   0.0000000   0.0000000   0.0000000), wk =   0.0062500
        k(    2) = (   0.0000000   0.0000000   0.1324763), wk =   0.0125000
        k(    3) = (   0.0000000   0.0000000   0.2649525), wk =   0.0125000
        k(    4) = (   0.0000000   0.1250000   0.0000000), wk =   0.0250000
        k(    5) = (   0.0000000   0.1250000   0.1324763), wk =   0.0500000
        k(    6) = (   0.0000000   0.1250000   0.2649525), wk =   0.0500000
        k(    7) = (   0.0000000   0.2500000   0.0000000), wk =   0.0250000
        k(    8) = (   0.0000000   0.2500000   0.1324763), wk =   0.0500000
        k(    9) = (   0.0000000   0.2500000   0.2649525), wk =   0.0500000
        k(   10) = (   0.0000000   0.3750000   0.0000000), wk =   0.0250000
        k(   11) = (   0.0000000   0.3750000   0.1324763), wk =   0.0500000
        k(   12) = (   0.0000000   0.3750000   0.2649525), wk =   0.0500000
        k(   13) = (   0.0000000  -0.5000000   0.0000000), wk =   0.0125000
        k(   14) = (   0.0000000  -0.5000000   0.1324763), wk =   0.0250000
        k(   15) = (   0.0000000  -0.5000000   0.2649525), wk =   0.0250000
        k(   16) = (   0.1250000   0.1250000   0.0000000), wk =   0.0250000
        k(   17) = (   0.1250000   0.1250000   0.1324763), wk =   0.0500000
        k(   18) = (   0.1250000   0.1250000   0.2649525), wk =   0.0500000
        k(   19) = (   0.1250000   0.2500000   0.0000000), wk =   0.0500000
        k(   20) = (   0.1250000   0.2500000   0.1324763), wk =   0.1000000
        k(   21) = (   0.1250000   0.2500000   0.2649525), wk =   0.1000000
        k(   22) = (   0.1250000   0.3750000   0.0000000), wk =   0.0500000
        k(   23) = (   0.1250000   0.3750000   0.1324763), wk =   0.1000000
        k(   24) = (   0.1250000   0.3750000   0.2649525), wk =   0.1000000
        k(   25) = (   0.1250000  -0.5000000   0.0000000), wk =   0.0250000
        k(   26) = (   0.1250000  -0.5000000   0.1324763), wk =   0.0500000
        k(   27) = (   0.1250000  -0.5000000   0.2649525), wk =   0.0500000
        k(   28) = (   0.2500000   0.2500000   0.0000000), wk =   0.0250000
        k(   29) = (   0.2500000   0.2500000   0.1324763), wk =   0.0500000
        k(   30) = (   0.2500000   0.2500000   0.2649525), wk =   0.0500000
        k(   31) = (   0.2500000   0.3750000   0.0000000), wk =   0.0500000
        k(   32) = (   0.2500000   0.3750000   0.1324763), wk =   0.1000000
        k(   33) = (   0.2500000   0.3750000   0.2649525), wk =   0.1000000
        k(   34) = (   0.2500000  -0.5000000   0.0000000), wk =   0.0250000
        k(   35) = (   0.2500000  -0.5000000   0.1324763), wk =   0.0500000
        k(   36) = (   0.2500000  -0.5000000   0.2649525), wk =   0.0500000
        k(   37) = (   0.3750000   0.3750000   0.0000000), wk =   0.0250000
        k(   38) = (   0.3750000   0.3750000   0.1324763), wk =   0.0500000
        k(   39) = (   0.3750000   0.3750000   0.2649525), wk =   0.0500000
        k(   40) = (   0.3750000  -0.5000000   0.0000000), wk =   0.0250000
        k(   41) = (   0.3750000  -0.5000000   0.1324763), wk =   0.0500000
        k(   42) = (   0.3750000  -0.5000000   0.2649525), wk =   0.0500000
        k(   43) = (  -0.5000000  -0.5000000   0.0000000), wk =   0.0062500
        k(   44) = (  -0.5000000  -0.5000000   0.1324763), wk =   0.0125000
        k(   45) = (  -0.5000000  -0.5000000   0.2649525), wk =   0.0125000

     Dense  grid:    72079 G-vectors     FFT dimensions: (  45,  45,  72)

     Estimated max dynamical RAM per process >      30.84 MB

     Estimated total dynamical RAM >     246.71 MB

     Initial potential from superposition of free atoms

     starting charge      21.9720, renormalised to      22.0000
     Starting wfcs are   16 randomized atomic wfcs

     total cpu time spent up to now is        1.6 secs

     Self-consistent Calculation

     iteration #  1     ecut=    80.00 Ry     beta= 0.70
     Davidson diagonalization with overlap
     ethr =  1.00E-02,  avg # of iterations =  6.0

     total cpu time spent up to now is        3.3 secs

     total energy              =     -94.74604240 Ry
     estimated scf accuracy    <       0.26951348 Ry

     iteration #  2     ecut=    80.00 Ry     beta= 0.70
     Davidson diagonalization with overlap
     ethr =  1.23E-03,  avg # of iterations =  4.4

     total cpu time spent up to now is        4.8 secs

     total energy              =     -94.65543548 Ry
     estimated scf accuracy    <       1.88823745 Ry

     iteration #  3     ecut=    80.00 Ry     beta= 0.70
     Davidson diagonalization with overlap
     ethr =  1.23E-03,  avg # of iterations =  2.4

     total cpu time spent up to now is        6.2 secs

     total energy              =     -94.89980530 Ry
     estimated scf accuracy    <       0.00549424 Ry

     iteration #  4     ecut=    80.00 Ry     beta= 0.70
     Davidson diagonalization with overlap
     ethr =  2.50E-05,  avg # of iterations =  4.6

     total cpu time spent up to now is        7.6 secs

     total energy              =     -94.90098599 Ry
     estimated scf accuracy    <       0.00039341 Ry

     iteration #  5     ecut=    80.00 Ry     beta= 0.70
     Davidson diagonalization with overlap
     ethr =  1.79E-06,  avg # of iterations =  3.6

     total cpu time spent up to now is        8.9 secs

     total energy              =     -94.90101145 Ry
     estimated scf accuracy    <       0.00006339 Ry

     iteration #  6     ecut=    80.00 Ry     beta= 0.70
     Davidson diagonalization with overlap
     ethr =  2.88E-07,  avg # of iterations =  1.7

     total cpu time spent up to now is       10.0 secs

     total energy              =     -94.90101677 Ry
     estimated scf accuracy    <       0.00000184 Ry

     iteration #  7     ecut=    80.00 Ry     beta= 0.70
     Davidson diagonalization with overlap
     ethr =  8.38E-09,  avg # of iterations =  3.3

     total cpu time spent up to now is       11.3 secs

     total energy              =     -94.90101747 Ry
     estimated scf accuracy    <       0.00000048 Ry

     iteration #  8     ecut=    80.00 Ry     beta= 0.70
     Davidson diagonalization with overlap
     ethr =  2.16E-09,  avg # of iterations =  2.0

     total cpu time spent up to now is       12.4 secs

     End of self-consistent calculation

          k = 0.0000 0.0000 0.0000 (  9001 PWs)   bands (ev):

   -44.0269 -43.4654 -43.1577 -43.1463 -43.1394 -43.1275  -4.7694   0.0003
     0.4461   2.0374   2.0374   5.2712   5.7859   5.8544   5.8544

          k = 0.0000 0.0000 0.1325 (  9030 PWs)   bands (ev):

   -44.0269 -43.4654 -43.1581 -43.1460 -43.1392 -43.1276  -4.7586  -0.5638
     1.3155   2.1166   2.1166   5.0321   5.0321   5.0619   5.5180

          k = 0.0000 0.0000 0.2650 (  9002 PWs)   bands (ev):

   -44.0269 -43.4654 -43.1588 -43.1454 -43.1390 -43.1279  -4.7408  -0.9527
     2.2741   2.2741   2.6068   4.0241   4.3587   4.3587   5.2805

          k = 0.0000 0.1250 0.0000 (  9041 PWs)   bands (ev):

   -44.0268 -43.4653 -43.1571 -43.1456 -43.1401 -43.1282  -4.7138   0.0711
     0.4943   1.5698   2.1259   4.8909   5.0652   5.7487   5.9234

          k = 0.0000 0.1250 0.1325 (  8995 PWs)   bands (ev):

   -44.0268 -43.4653 -43.1574 -43.1453 -43.1399 -43.1283  -4.7034  -0.4873
     1.2865   1.7015   2.2024   4.1684   5.1425   5.2736   5.8377

          k = 0.0000 0.1250 0.2650 (  8996 PWs)   bands (ev):

   -44.0268 -43.4653 -43.1580 -43.1447 -43.1397 -43.1286  -4.6860  -0.8720
     1.6990   2.3532   2.6401   3.5687   4.4136   4.4862   5.7232

          k = 0.0000 0.2500 0.0000 (  9013 PWs)   bands (ev):

   -44.0267 -43.4651 -43.1552 -43.1435 -43.1422 -43.1302  -4.5672   0.1596
     0.6265   0.9018   2.3681   3.6637   4.1810   6.0617   6.3962

          k = 0.0000 0.2500 0.1325 (  9018 PWs)   bands (ev):

   -44.0267 -43.4651 -43.1554 -43.1433 -43.1420 -43.1303  -4.5576  -0.2740
     0.6681   1.6054   2.4361   3.1369   4.7196   5.4548   6.3863

          k = 0.0000 0.2500 0.2650 (  9001 PWs)   bands (ev):

   -44.0267 -43.4651 -43.1558 -43.1429 -43.1418 -43.1306  -4.5416  -0.6333
     0.7904   2.2100   2.5662   3.2545   4.4464   4.8663   6.0046

          k = 0.0000 0.3750 0.0000 (  8988 PWs)   bands (ev):

   -44.0265 -43.4650 -43.1523 -43.1452 -43.1404 -43.1332  -4.3971  -0.2010
     0.7914   1.0519   2.5956   2.6720   3.5324   6.0262   6.8768

          k = 0.0000 0.3750 0.1325 (  9022 PWs)   bands (ev):

   -44.0265 -43.4649 -43.1524 -43.1451 -43.1403 -43.1333  -4.3889  -0.1675
     0.2411   1.6408   2.4291   2.7254   4.1030   5.8618   6.6637

          k = 0.0000 0.3750 0.2650 (  9029 PWs)   bands (ev):

   -44.0265 -43.4649 -43.1525 -43.1450 -43.1402 -43.1335  -4.3752  -0.2672
     0.0988   1.4215   2.8230   3.4065   4.5199   5.4874   5.6814

          k = 0.0000-0.5000 0.0000 (  8970 PWs)   bands (ev):

   -44.0264 -43.4649 -43.1489 -43.1487 -43.1368 -43.1368  -4.3174  -0.4250
     0.8749   1.5453   1.8649   2.8277   3.2838   5.8902   7.2545

          k = 0.0000-0.5000 0.1325 (  9010 PWs)   bands (ev):

   -44.0264 -43.4649 -43.1489 -43.1487 -43.1369 -43.1368  -4.3099  -0.3500
     0.4056   1.4620   2.3144   2.8713   3.8279   6.0291   6.7397

          k = 0.0000-0.5000 0.2650 (  9036 PWs)   bands (ev):

   -44.0264 -43.4649 -43.1488 -43.1487 -43.1370 -43.1367  -4.2975  -0.1860
     0.0422   0.9724   2.9485   3.5072   4.6141   5.4029   6.2235

          k = 0.1250 0.1250 0.0000 (  9006 PWs)   bands (ev):

   -44.0268 -43.4652 -43.1565 -43.1449 -43.1408 -43.1288  -4.6596   0.1401
     0.5382   1.5345   1.8089   4.5790   4.7454   5.5766   6.2441

          k = 0.1250 0.1250 0.1325 (  9003 PWs)   bands (ev):

   -44.0268 -43.4652 -43.1568 -43.1446 -43.1406 -43.1290  -4.6495  -0.4122
     1.2580   1.7129   1.8817   4.2048   4.2248   5.6491   6.3482

          k = 0.1250 0.1250 0.2650 (  9011 PWs)   bands (ev):

   -44.0268 -43.4652 -43.1573 -43.1442 -43.1404 -43.1292  -4.6326  -0.7920
     1.5934   2.0270   2.6261   3.6334   3.7591   4.8028   6.2176

          k = 0.1250 0.2500 0.0000 (  9003 PWs)   bands (ev):

   -44.0266 -43.4651 -43.1547 -43.1430 -43.1427 -43.1307  -4.5169   0.2274
     0.6571   0.9874   1.9590   3.6247   4.1045   5.4325   6.7594

          k = 0.1250 0.2500 0.1325 (  9019 PWs)   bands (ev):

   -44.0266 -43.4650 -43.1549 -43.1428 -43.1426 -43.1308  -4.5076  -0.2030
     0.7310   1.6294   2.0228   3.2000   4.2259   5.3625   6.8008

          k = 0.1250 0.2500 0.2650 (  9011 PWs)   bands (ev):

   -44.0266 -43.4650 -43.1552 -43.1425 -43.1423 -43.1311  -4.4923  -0.5562
     0.8500   2.1281   2.2411   3.2365   3.9284   4.9682   6.3101

          k = 0.1250 0.3750 0.0000 (  9006 PWs)   bands (ev):

   -44.0264 -43.4649 -43.1520 -43.1455 -43.1401 -43.1335  -4.3523  -0.1073
     0.8020   1.1273   2.2686   2.6316   3.5605   5.1355   6.9134

          k = 0.1250 0.3750 0.1325 (  9020 PWs)   bands (ev):

   -44.0264 -43.4649 -43.1521 -43.1454 -43.1401 -43.1336  -4.3444  -0.0801
     0.3066   1.6697   2.2911   2.4968   3.9908   5.1379   6.3599

          k = 0.1250 0.3750 0.2650 (  9018 PWs)   bands (ev):

   -44.0264 -43.4648 -43.1522 -43.1452 -43.1400 -43.1338  -4.3314  -0.1953
     0.1895   1.4918   2.4019   3.2504   4.2220   5.1471   5.8110

          k = 0.1250-0.5000 0.0000 (  9032 PWs)   bands (ev):

   -44.0264 -43.4648 -43.1490 -43.1487 -43.1368 -43.1368  -4.2755  -0.3218
     0.8735   1.6106   1.9122   2.4513   3.3463   4.9011   7.0795

          k = 0.1250-0.5000 0.1325 (  9010 PWs)   bands (ev):

   -44.0264 -43.4648 -43.1489 -43.1487 -43.1369 -43.1368  -4.2684  -0.2475
     0.4493   1.5326   2.2954   2.4902   3.8018   5.0402   6.2552

          k = 0.1250-0.5000 0.2650 (  9010 PWs)   bands (ev):

   -44.0264 -43.4648 -43.1487 -43.1487 -43.1370 -43.1368  -4.2568  -0.0851
     0.1031   1.0583   2.5465   3.2995   4.3346   5.4138   5.4373

          k = 0.2500 0.2500 0.0000 (  8992 PWs)   bands (ev):

   -44.0265 -43.4648 -43.1534 -43.1442 -43.1415 -43.1321  -4.3855   0.3451
     0.7370   1.1951   1.3609   3.3423   3.8844   4.5454   6.2106

          k = 0.2500 0.2500 0.1325 (  8999 PWs)   bands (ev):

   -44.0265 -43.4648 -43.1535 -43.1440 -43.1414 -43.1322  -4.3774  -0.0065
     0.7672   1.4227   1.7260   3.1500   3.6286   4.6799   6.6622

          k = 0.2500 0.2500 0.2650 (  9007 PWs)   bands (ev):

   -44.0265 -43.4648 -43.1537 -43.1438 -43.1412 -43.1325  -4.3639  -0.3298
     0.8583   1.5462   2.2050   2.8480   3.7127   4.7009   6.1055

          k = 0.2500 0.3750 0.0000 (  8989 PWs)   bands (ev):

   -44.0263 -43.4646 -43.1514 -43.1464 -43.1393 -43.1342  -4.2363   0.1581
     0.8281   1.2853   1.6115   2.6746   3.6291   3.8974   5.9230

          k = 0.2500 0.3750 0.1325 (  9004 PWs)   bands (ev):

   -44.0263 -43.4646 -43.1514 -43.1463 -43.1393 -43.1343  -4.2296   0.1612
     0.4945   1.5403   1.7699   2.5542   3.6947   3.9955   5.9659

          k = 0.2500 0.3750 0.2650 (  8998 PWs)   bands (ev):

   -44.0263 -43.4646 -43.1514 -43.1460 -43.1393 -43.1346  -4.2187   0.0123
     0.4454   1.6491   1.6901   2.7395   3.7219   4.3443   5.7509

          k = 0.2500-0.5000 0.0000 (  8996 PWs)   bands (ev):

   -44.0263 -43.4645 -43.1490 -43.1488 -43.1367 -43.1367  -4.1676  -0.0162
     0.8701   1.5900   1.9622   2.0319   3.5161   3.5887   5.9435

          k = 0.2500-0.5000 0.1325 (  9012 PWs)   bands (ev):

   -44.0263 -43.4645 -43.1489 -43.1488 -43.1369 -43.1368  -4.1618   0.0557
     0.5658   1.7305   1.7355   2.2922   3.4644   4.0064   5.6478

          k = 0.2500-0.5000 0.2650 (  9024 PWs)   bands (ev):

   -44.0263 -43.4645 -43.1487 -43.1487 -43.1371 -43.1369  -4.1523   0.2116
     0.2772   1.3108   1.8185   2.7880   3.5431   4.3602   5.5612

          k = 0.3750 0.3750 0.0000 (  9006 PWs)   bands (ev):

   -44.0262 -43.4644 -43.1503 -43.1476 -43.1381 -43.1353  -4.1070   0.4635
     0.8550   1.0022   1.7669   2.5826   2.8807   3.6973   5.2621

          k = 0.3750 0.3750 0.1325 (  8997 PWs)   bands (ev):

   -44.0262 -43.4644 -43.1502 -43.1475 -43.1382 -43.1355  -4.1020   0.4485
     0.7193   1.0557   1.8780   2.4463   2.9616   3.6196   5.5037

          k = 0.3750 0.3750 0.2650 (  9008 PWs)   bands (ev):

   -44.0262 -43.4644 -43.1501 -43.1472 -43.1383 -43.1358  -4.0937   0.3139
     0.7244   1.1626   1.8696   2.2188   3.0315   3.7443   5.7544

          k = 0.3750-0.5000 0.0000 (  8990 PWs)   bands (ev):

   -44.0262 -43.4643 -43.1490 -43.1490 -43.1367 -43.1367  -4.0486   0.4666
     0.8663   1.0826   2.1103   2.1753   2.5349   3.7249   5.0590

          k = 0.3750-0.5000 0.1325 (  8992 PWs)   bands (ev):

   -44.0262 -43.4643 -43.1489 -43.1489 -43.1368 -43.1368  -4.0444   0.5316
     0.7056   1.1526   1.9828   2.2381   2.5155   3.6737   5.2236

          k = 0.3750-0.5000 0.2650 (  9018 PWs)   bands (ev):

   -44.0262 -43.4643 -43.1486 -43.1486 -43.1371 -43.1370  -4.0376   0.5196
     0.6690   1.2413   1.6985   2.2538   2.6185   3.4794   5.8367

          k =-0.5000-0.5000 0.0000 (  9024 PWs)   bands (ev):

   -44.0261 -43.4642 -43.1490 -43.1490 -43.1367 -43.1367  -3.9953   0.8647
     0.8710   0.8710   1.7646   2.3277   2.3277   3.8292   4.6972

          k =-0.5000-0.5000 0.1325 (  9004 PWs)   bands (ev):

   -44.0261 -43.4642 -43.1489 -43.1489 -43.1368 -43.1368  -3.9920   0.7842
     0.9215   0.9215   1.8574   2.2063   2.2063   3.5149   5.0763

          k =-0.5000-0.5000 0.2650 (  9048 PWs)   bands (ev):

   -44.0261 -43.4642 -43.1486 -43.1486 -43.1371 -43.1371  -3.9864   0.6666
     1.0223   1.0223   2.0007   2.0007   2.0780   3.0212   6.0051

     the Fermi energy is     2.4461 ev

!    total energy              =     -94.90101752 Ry
     estimated scf accuracy    <          8.5E-09 Ry
     smearing contrib. (-TS)   =      -0.00065076 Ry
     internal energy E=F+TS    =     -94.90036676 Ry

     The total energy is F=E-TS. E is the sum of the following terms:
     one-electron contribution =     -51.46364327 Ry
     hartree contribution      =      21.26591337 Ry
     xc contribution           =     -23.38169710 Ry
     ewald contribution        =     -41.32093975 Ry

     convergence has been achieved in   8 iterations

     Forces acting on atoms (cartesian axes, Ry/au):

     atom    1 type  1   force =     0.00000000    0.00000000    0.00887957
     atom    2 type  1   force =     0.00000000    0.00000000   -0.00887957
     atom    3 type  1   force =     0.00000000    0.00000000    0.00887957
     atom    4 type  1   force =     0.00000000    0.00000000   -0.00887957
     atom    5 type  1   force =     0.00000000    0.00000000    0.00000000
     atom    6 type  1   force =     0.00000000    0.00000000    0.00000000
     atom    7 type  2   force =     0.00000000    0.00000000    0.00000000
     The non-local contrib.  to forces
     atom    1 type  1   force =     0.00000000    0.00000000   -0.04285476
     atom    2 type  1   force =     0.00000000    0.00000000    0.04285476
     atom    3 type  1   force =     0.00000000    0.00000000   -0.04285476
     atom    4 type  1   force =     0.00000000    0.00000000    0.04285476
     atom    5 type  1   force =     0.00000000    0.00000000    0.00000000
     atom    6 type  1   force =     0.00000000    0.00000000    0.00000000
     atom    7 type  2   force =     0.00000000    0.00000000    0.00000000
     The ionic contribution  to forces
     atom    1 type  1   force =    -0.00000000   -0.00000000   -0.25496933
     atom    2 type  1   force =    -0.00000000    0.00000000    0.25496933
     atom    3 type  1   force =    -0.00000000   -0.00000000   -0.25496933
     atom    4 type  1   force =     0.00000000   -0.00000000    0.25496933
     atom    5 type  1   force =    -0.00000000   -0.00000000    0.00000000
     atom    6 type  1   force =     0.00000000    0.00000000    0.00000000
     atom    7 type  2   force =    -0.00000000   -0.00000000    0.00000000
     The local contribution  to forces
     atom    1 type  1   force =     0.00000000    0.00000000    0.30666790
     atom    2 type  1   force =    -0.00000000    0.00000000   -0.30666790
     atom    3 type  1   force =     0.00000000    0.00000000    0.30666790
     atom    4 type  1   force =     0.00000000    0.00000000   -0.30666790
     atom    5 type  1   force =    -0.00000000    0.00000000    0.00000000
     atom    6 type  1   force =     0.00000000    0.00000000    0.00000000
     atom    7 type  2   force =    -0.00000000   -0.00000000    0.00000000
     The core correction contribution to forces
     atom    1 type  1   force =     0.00000000    0.00000000    0.00000000
     atom    2 type  1   force =     0.00000000    0.00000000    0.00000000
     atom    3 type  1   force =     0.00000000    0.00000000    0.00000000
     atom    4 type  1   force =     0.00000000    0.00000000    0.00000000
     atom    5 type  1   force =     0.00000000    0.00000000    0.00000000
     atom    6 type  1   force =     0.00000000    0.00000000    0.00000000
     atom    7 type  2   force =     0.00000000   -0.00000000   -0.00000000
     The Hubbard contrib.    to forces
     atom    1 type  1   force =     0.00000000    0.00000000    0.00000000
     atom    2 type  1   force =     0.00000000    0.00000000    0.00000000
     atom    3 type  1   force =     0.00000000    0.00000000    0.00000000
     atom    4 type  1   force =     0.00000000    0.00000000    0.00000000
     atom    5 type  1   force =     0.00000000    0.00000000    0.00000000
     atom    6 type  1   force =     0.00000000    0.00000000    0.00000000
     atom    7 type  2   force =     0.00000000    0.00000000    0.00000000
     The SCF correction term to forces
     atom    1 type  1   force =    -0.00000000   -0.00000000    0.00003576
     atom    2 type  1   force =    -0.00000000    0.00000000   -0.00003576
     atom    3 type  1   force =     0.00000000   -0.00000000    0.00003576
     atom    4 type  1   force =     0.00000000    0.00000000   -0.00003576
     atom    5 type  1   force =     0.00000000    0.00000000    0.00000000
     atom    6 type  1   force =    -0.00000000   -0.00000000    0.00000000
     atom    7 type  2   force =    -0.00000000    0.00000000   -0.00000000

     Total force =     0.017759     Total SCF correction =     0.000072


     Computing stress (Cartesian axis) and pressure

          total   stress  (Ry/bohr**3)                   (kbar)     P=       50.57
   0.00045659   0.00000000   0.00000000           67.17        0.00        0.00
   0.00000000   0.00045659   0.00000000            0.00       67.17        0.00
   0.00000000   0.00000000   0.00011802            0.00        0.00       17.36


     BFGS Geometry Optimization
     Energy error            =      0.0E+00 Ry
     Gradient error          =      8.9E-03 Ry/Bohr
     Cell gradient error     =      4.8E+02 kbar

     number of scf cycles    =   1
     number of bfgs steps    =   0

     enthalpy           new  =     -92.3665770729 Ry

     new trust radius        =       0.4479549507 bohr
ibrav =      6
 celldm(1) =      7.32319579
 celldm(3) =      1.49591110
Input lattice vectors:
     0.92644157     0.00000000     0.00000000
     0.00000000     0.92644157     0.00000000
     0.00000000     0.00000000     1.38587423
New lattice vectors in INITIAL alat:
     0.92644157     0.00000000     0.00000000
     0.00000000     0.92644157     0.00000000
     0.00000000     0.00000000     1.38587423
New lattice vectors in NEW alat (for information only):
     1.00000000     0.00000000     0.00000000
     0.00000000     1.00000000     0.00000000
     0.00000000     0.00000000     1.49591110
Discrepancy in bohr =     0.000000    0.000000    0.000000
     new conv_thr            =       0.0000000100 Ry

     new unit-cell volume =    587.49980 a.u.^3 (    87.05849 Ang^3 )
     density =      1.33005 g/cm^3

CELL_PARAMETERS (alat=  7.90464942)
   0.926441567   0.000000000   0.000000000
   0.000000000   0.926441567   0.000000000
   0.000000000   0.000000000   1.385874226

ATOMIC_POSITIONS (crystal)
Li            0.0000000000        0.5000000000        0.2862905760
Li            0.0000000000        0.5000000000        0.7137094240
Li            0.5000000000        0.0000000000        0.2862905760
Li            0.5000000000        0.0000000000        0.7137094240
Li            0.0000000000        0.0000000000        0.0000000000
Li            0.5000000000        0.5000000000        0.0000000000
Si            0.0000000000        0.0000000000        0.5000000000



     Writing config-only to output data dir ./output/LiSi.save/
     NEW-OLD atomic charge density approx. for the potential

     negative rho (up, down):  6.534E-07 0.000E+00
     extrapolated charge   16.08501, renormalised to   22.00000

     total cpu time spent up to now is       16.3 secs

     Self-consistent Calculation

     iteration #  1     ecut=    80.00 Ry     beta= 0.70
     Davidson diagonalization with overlap
     c_bands:  1 eigenvalues not converged
     c_bands:  1 eigenvalues not converged
     ethr =  1.00E-06,  avg # of iterations =  9.9

     total cpu time spent up to now is       19.4 secs

     total energy              =     -94.39710774 Ry
     estimated scf accuracy    <       0.27325426 Ry

     iteration #  2     ecut=    80.00 Ry     beta= 0.70
     Davidson diagonalization with overlap
     ethr =  1.24E-03,  avg # of iterations =  2.9

     total cpu time spent up to now is       21.0 secs

     total energy              =     -94.62163891 Ry
     estimated scf accuracy    <       1.54867618 Ry

     iteration #  3     ecut=    80.00 Ry     beta= 0.70
     Davidson diagonalization with overlap
     ethr =  1.24E-03,  avg # of iterations =  2.0

     total cpu time spent up to now is       22.2 secs

     total energy              =     -94.78999119 Ry
     estimated scf accuracy    <       0.03147024 Ry

     iteration #  4     ecut=    80.00 Ry     beta= 0.70
     Davidson diagonalization with overlap
     ethr =  1.43E-04,  avg # of iterations =  1.6

     total cpu time spent up to now is       23.3 secs

     total energy              =     -94.78725245 Ry
     estimated scf accuracy    <       0.01791829 Ry

     iteration #  5     ecut=    80.00 Ry     beta= 0.70
     Davidson diagonalization with overlap
     ethr =  8.14E-05,  avg # of iterations =  1.1

     total cpu time spent up to now is       24.3 secs

     total energy              =     -94.78809802 Ry
     estimated scf accuracy    <       0.00115879 Ry

     iteration #  6     ecut=    80.00 Ry     beta= 0.70
     Davidson diagonalization with overlap
     ethr =  5.27E-06,  avg # of iterations =  4.0

     total cpu time spent up to now is       25.7 secs

     total energy              =     -94.78829874 Ry
     estimated scf accuracy    <       0.00001251 Ry

     iteration #  7     ecut=    80.00 Ry     beta= 0.70
     Davidson diagonalization with overlap
     ethr =  5.69E-08,  avg # of iterations =  3.3

     total cpu time spent up to now is       27.0 secs

     total energy              =     -94.78830335 Ry
     estimated scf accuracy    <       0.00000041 Ry

     iteration #  8     ecut=    80.00 Ry     beta= 0.70
     Davidson diagonalization with overlap
     ethr =  1.88E-09,  avg # of iterations =  2.2

     total cpu time spent up to now is       28.2 secs

     total energy              =     -94.78830341 Ry
     estimated scf accuracy    <       0.00000004 Ry

     iteration #  9     ecut=    80.00 Ry     beta= 0.70
     Davidson diagonalization with overlap
     ethr =  1.77E-10,  avg # of iterations =  2.1

     total cpu time spent up to now is       29.3 secs

     total energy              =     -94.78830341 Ry
     estimated scf accuracy    <       0.00000004 Ry

     iteration # 10     ecut=    80.00 Ry     beta= 0.70
     Davidson diagonalization with overlap
     ethr =  1.73E-10,  avg # of iterations =  1.1

     total cpu time spent up to now is       30.4 secs

     End of self-consistent calculation

          k = 0.0000 0.0000 0.0000 (  9001 PWs)   bands (ev):

   -42.4962 -41.7582 -41.5658 -41.5443 -41.5295 -41.4998  -3.9225   1.2476
     1.5959   3.1673   3.1673   7.0703   7.7648   7.7648   7.8362

          k = 0.0000 0.0000 0.1443 (  9030 PWs)   bands (ev):

   -42.4962 -41.7577 -41.5702 -41.5404 -41.5291 -41.5003  -3.9121   0.5516
     2.6523   3.2699   3.2699   6.6203   6.6203   6.9432   7.3856

          k = 0.0000 0.0000 0.2886 (  9002 PWs)   bands (ev):

   -42.4961 -41.7569 -41.5756 -41.5359 -41.5284 -41.5010  -3.8948   0.1116
     3.4802   3.4802   4.1577   5.7755   5.7755   5.8662   6.8938

          k = 0.0000 0.1349 0.0000 (  9041 PWs)   bands (ev):

   -42.4959 -41.7575 -41.5648 -41.5426 -41.5313 -41.5015  -3.8551   1.3283
     1.6367   2.6395   3.2780   6.5696   6.7706   7.6233   7.8429

          k = 0.0000 0.1349 0.1443 (  8995 PWs)   bands (ev):

   -42.4959 -41.7570 -41.5688 -41.5391 -41.5308 -41.5019  -3.8449   0.6287
     2.5728   2.8356   3.3779   5.7100   6.7510   7.1646   7.6465

          k = 0.0000 0.1349 0.2886 (  8996 PWs)   bands (ev):

   -42.4958 -41.7563 -41.5738 -41.5349 -41.5301 -41.5026  -3.8278   0.1918
     2.8525   3.5807   4.1246   5.0545   5.9238   6.1795   7.4268

          k = 0.0000 0.2698 0.0000 (  9013 PWs)   bands (ev):

   -42.4952 -41.7558 -41.5619 -41.5376 -41.5361 -41.5062  -3.6745   1.3578
     1.7482   1.9340   3.5858   5.1771   5.7329   7.9648   8.3685

          k = 0.0000 0.2698 0.1443 (  9018 PWs)   bands (ev):

   -42.4952 -41.7554 -41.5647 -41.5360 -41.5349 -41.5065  -3.6647   0.8439
     1.6803   2.8684   3.6764   4.5776   6.3978   7.1196   8.2580

          k = 0.0000 0.2698 0.2886 (  9001 PWs)   bands (ev):

   -42.4951 -41.7549 -41.5685 -41.5352 -41.5319 -41.5072  -3.6485   0.4290
     1.8053   3.5291   3.8552   4.7827   6.2146   6.3652   7.6785

          k = 0.0000 0.4048 0.0000 (  8988 PWs)   bands (ev):

   -42.4945 -41.7541 -41.5570 -41.5428 -41.5303 -41.5133  -3.4587   0.7432
     1.8858   2.2715   3.9811   3.9850   5.0158   7.7429   8.8736

          k = 0.0000 0.4048 0.1443 (  9022 PWs)   bands (ev):

   -42.4945 -41.7539 -41.5585 -41.5428 -41.5289 -41.5134  -3.4499   0.7982
     1.2766   2.8797   3.8356   4.0586   5.6691   7.5665   8.5143

          k = 0.0000 0.4048 0.2886 (  9029 PWs)   bands (ev):

   -42.4944 -41.7534 -41.5607 -41.5427 -41.5271 -41.5135  -3.4353   0.7852
     0.9990   2.6609   4.1964   4.9677   6.2184   7.0820   7.3325

          k = 0.0000-0.5397 0.0000 (  8970 PWs)   bands (ev):

   -42.4942 -41.7534 -41.5520 -41.5486 -41.5218 -41.5217  -3.3542   0.4524
     1.9541   2.8780   3.1284   4.1990   4.7510   7.4689   9.2248

          k = 0.0000-0.5397 0.1443 (  9010 PWs)   bands (ev):

   -42.4942 -41.7532 -41.5519 -41.5498 -41.5218 -41.5207  -3.3461   0.5223
     1.4744   2.7025   3.7050   4.2596   5.3603   7.6413   8.5820

          k = 0.0000-0.5397 0.2886 (  9036 PWs)   bands (ev):

   -42.4941 -41.7528 -41.5517 -41.5517 -41.5221 -41.5192  -3.3326   0.6652
     1.0779   2.2021   4.3693   5.0821   6.2656   7.0704   7.8853

          k = 0.1349 0.1349 0.0000 (  9006 PWs)   bands (ev):

   -42.4956 -41.7568 -41.5639 -41.5410 -41.5329 -41.5030  -3.7897   1.4052
     1.6715   2.5713   2.9624   6.1576   6.3690   7.5251   8.1903

          k = 0.1349 0.1349 0.1443 (  9003 PWs)   bands (ev):

   -42.4956 -41.7564 -41.5675 -41.5379 -41.5325 -41.5034  -3.7797   0.7036
     2.4941   2.8572   3.0541   5.7313   5.7719   7.6142   8.2257

          k = 0.1349 0.1349 0.2886 (  9011 PWs)   bands (ev):

   -42.4956 -41.7557 -41.5720 -41.5340 -41.5317 -41.5042  -3.7629   0.2708
     2.7208   3.2408   4.0743   5.1625   5.1652   6.5606   8.0113

          k = 0.1349 0.2698 0.0000 (  9003 PWs)   bands (ev):

   -42.4949 -41.7551 -41.5612 -41.5374 -41.5364 -41.5073  -3.6150   1.4260
     1.7654   2.0269   3.1471   5.0915   5.6240   7.3006   8.6733

          k = 0.1349 0.2698 0.1443 (  9019 PWs)   bands (ev):

   -42.4949 -41.7548 -41.5637 -41.5371 -41.5342 -41.5077  -3.6056   0.9117
     1.7479   2.8849   3.2247   4.6281   5.7562   7.1839   8.6475

          k = 0.1349 0.2698 0.2886 (  9011 PWs)   bands (ev):

   -42.4949 -41.7543 -41.5672 -41.5364 -41.5313 -41.5084  -3.5899   0.5045
     1.8654   3.3759   3.5624   4.7016   5.4525   6.7135   8.0940

          k = 0.1349 0.4048 0.0000 (  9006 PWs)   bands (ev):

   -42.4943 -41.7534 -41.5568 -41.5437 -41.5296 -41.5139  -3.4076   0.8493
     1.8783   2.3504   3.5443   3.9952   5.0301   6.7512   9.2204

          k = 0.1349 0.4048 0.1443 (  9020 PWs)   bands (ev):

   -42.4943 -41.7532 -41.5581 -41.5436 -41.5284 -41.5141  -3.3994   0.8996
     1.3334   2.9031   3.6010   3.8610   5.5023   6.7796   8.2020

          k = 0.1349 0.4048 0.2886 (  9018 PWs)   bands (ev):

   -42.4942 -41.7528 -41.5600 -41.5433 -41.5269 -41.5143  -3.3858   0.8554
     1.1006   2.7327   3.7170   4.7330   5.7746   6.8176   7.5793

          k = 0.1349-0.5397 0.0000 (  9032 PWs)   bands (ev):

   -42.4940 -41.7527 -41.5521 -41.5491 -41.5217 -41.5216  -3.3081   0.5711
     1.9330   2.9442   3.1714   3.7767   4.8052   6.3916   9.2902

          k = 0.1349-0.5397 0.1443 (  9010 PWs)   bands (ev):

   -42.4940 -41.7525 -41.5519 -41.5501 -41.5218 -41.5209  -3.3006   0.6406
     1.5076   2.7730   3.6677   3.8255   5.2991   6.5637   8.1685

          k = 0.1349-0.5397 0.2886 (  9010 PWs)   bands (ev):

   -42.4940 -41.7522 -41.5516 -41.5516 -41.5222 -41.5197  -3.2883   0.7826
     1.1351   2.2902   3.8999   4.7909   5.8570   7.0880   7.1671

          k = 0.2698 0.2698 0.0000 (  8992 PWs)   bands (ev):

   -42.4944 -41.7534 -41.5593 -41.5411 -41.5328 -41.5106  -3.4576   1.4908
     1.8100   2.2604   2.5457   4.7045   5.3476   6.2530   8.1681

          k = 0.2698 0.2698 0.1443 (  8999 PWs)   bands (ev):

   -42.4943 -41.7531 -41.5610 -41.5406 -41.5314 -41.5111  -3.4493   1.0966
     1.7610   2.6168   2.9377   4.5024   5.1171   6.3341   8.7209

          k = 0.2698 0.2698 0.2886 (  9007 PWs)   bands (ev):

   -42.4943 -41.7527 -41.5634 -41.5399 -41.5294 -41.5118  -3.4357   0.7259
     1.8442   2.7594   3.5117   4.1768   5.2083   6.3690   8.0148

          k = 0.2698 0.4048 0.0000 (  8989 PWs)   bands (ev):

   -42.4938 -41.7516 -41.5561 -41.5461 -41.5276 -41.5156  -3.2748   1.1490
     1.8597   2.5409   2.7826   3.9828   5.0655   5.3387   8.0187

          k = 0.2698 0.4048 0.1443 (  9004 PWs)   bands (ev):

   -42.4938 -41.7515 -41.5568 -41.5458 -41.5270 -41.5159  -3.2684   1.1772
     1.4972   2.7783   2.9726   3.8655   5.0952   5.5006   8.0124

          k = 0.2698 0.4048 0.2886 (  8998 PWs)   bands (ev):

   -42.4937 -41.7512 -41.5579 -41.5452 -41.5261 -41.5166  -3.2577   1.0553
     1.3887   2.8773   2.9407   4.0686   5.0852   5.9376   7.6844

          k = 0.2698-0.5397 0.0000 (  8996 PWs)   bands (ev):

   -42.4935 -41.7509 -41.5523 -41.5506 -41.5216 -41.5215  -3.1890   0.9256
     1.8821   2.9213   3.1920   3.2793   4.8980   4.9491   8.1194

          k = 0.2698-0.5397 0.1443 (  9012 PWs)   bands (ev):

   -42.4935 -41.7508 -41.5520 -41.5509 -41.5218 -41.5213  -3.1835   0.9933
     1.5946   2.9700   3.0187   3.5710   4.7772   5.4656   7.7131

          k = 0.2698-0.5397 0.2886 (  9024 PWs)   bands (ev):

   -42.4935 -41.7506 -41.5515 -41.5515 -41.5224 -41.5209  -3.1746   1.1317
     1.2985   2.5490   3.0888   4.1240   4.8291   5.9084   7.5254

          k = 0.4048 0.4048 0.0000 (  9006 PWs)   bands (ev):

   -42.4933 -41.7498 -41.5546 -41.5493 -41.5247 -41.5182  -3.1251   1.4888
     1.8400   2.2008   2.9724   3.8167   4.1540   5.1022   7.3986

          k = 0.4048 0.4048 0.1443 (  8997 PWs)   bands (ev):

   -42.4933 -41.7497 -41.5547 -41.5488 -41.5247 -41.5187  -3.1210   1.4800
     1.7055   2.2557   3.0877   3.6897   4.1968   5.0786   7.6329

          k = 0.4048 0.4048 0.2886 (  9008 PWs)   bands (ev):

   -42.4933 -41.7496 -41.5549 -41.5480 -41.5246 -41.5195  -3.1142   1.3398
     1.7078   2.3642   3.1174   3.4738   4.2133   5.2517   7.8134

          k = 0.4048-0.5397 0.0000 (  8990 PWs)   bands (ev):

   -42.4931 -41.7490 -41.5526 -41.5520 -41.5214 -41.5214  -3.0568   1.5035
     1.8315   2.3116   3.3253   3.3995   3.6760   5.1178   7.2212

          k = 0.4048-0.5397 0.1443 (  8992 PWs)   bands (ev):

   -42.4931 -41.7490 -41.5521 -41.5518 -41.5218 -41.5217  -3.0539   1.5664
     1.6964   2.3710   3.2156   3.4617   3.6330   5.0852   7.3803

          k = 0.4048-0.5397 0.2886 (  9018 PWs)   bands (ev):

   -42.4931 -41.7490 -41.5514 -41.5514 -41.5226 -41.5221  -3.0492   1.5244
     1.6938   2.4560   2.9417   3.5012   3.6970   4.9507   7.9563

          k =-0.5397-0.5397 0.0000 (  9024 PWs)   bands (ev):

   -42.4929 -41.7483 -41.5527 -41.5527 -41.5213 -41.5213  -2.9972   1.8106
     2.0725   2.0725   2.7257   3.5193   3.5193   5.1977   6.8737

          k =-0.5397-0.5397 0.1443 (  9004 PWs)   bands (ev):

   -42.4929 -41.7483 -41.5522 -41.5522 -41.5218 -41.5218  -2.9957   1.7495
     2.1215   2.1215   2.8029   3.4121   3.4121   4.9078   7.2602

          k =-0.5397-0.5397 0.2886 (  9048 PWs)   bands (ev):

   -42.4929 -41.7483 -41.5513 -41.5513 -41.5226 -41.5226  -2.9931   1.6574
     2.2177   2.2177   2.9619   3.2278   3.2278   4.4752   8.1914

     the Fermi energy is     3.7368 ev

!    total energy              =     -94.78830342 Ry
     estimated scf accuracy    <          1.3E-10 Ry
     smearing contrib. (-TS)   =      -0.00057298 Ry
     internal energy E=F+TS    =     -94.78773043 Ry

     The total energy is F=E-TS. E is the sum of the following terms:
     one-electron contribution =     -46.41252797 Ry
     hartree contribution      =      20.08833708 Ry
     xc contribution           =     -23.74361463 Ry
     ewald contribution        =     -44.71992492 Ry

     convergence has been achieved in  10 iterations

     Forces acting on atoms (cartesian axes, Ry/au):

     atom    1 type  1   force =     0.00000000    0.00000000   -0.00637982
     atom    2 type  1   force =     0.00000000    0.00000000    0.00637982
     atom    3 type  1   force =     0.00000000    0.00000000   -0.00637982
     atom    4 type  1   force =     0.00000000    0.00000000    0.00637982
     atom    5 type  1   force =     0.00000000    0.00000000    0.00000000
     atom    6 type  1   force =     0.00000000    0.00000000    0.00000000
     atom    7 type  2   force =     0.00000000    0.00000000    0.00000000
     The non-local contrib.  to forces
     atom    1 type  1   force =     0.00000000    0.00000000   -0.04674875
     atom    2 type  1   force =     0.00000000    0.00000000    0.04674875
     atom    3 type  1   force =     0.00000000    0.00000000   -0.04674875
     atom    4 type  1   force =     0.00000000    0.00000000    0.04674875
     atom    5 type  1   force =     0.00000000    0.00000000    0.00000000
     atom    6 type  1   force =     0.00000000    0.00000000    0.00000000
     atom    7 type  2   force =     0.00000000    0.00000000    0.00000000
     The ionic contribution  to forces
     atom    1 type  1   force =    -0.00000000    0.00000000   -0.31741922
     atom    2 type  1   force =    -0.00000000    0.00000000    0.31741922
     atom    3 type  1   force =     0.00000000   -0.00000000   -0.31741922
     atom    4 type  1   force =     0.00000000   -0.00000000    0.31741922
     atom    5 type  1   force =    -0.00000000   -0.00000000   -0.00000000
     atom    6 type  1   force =     0.00000000   -0.00000000    0.00000000
     atom    7 type  2   force =    -0.00000000   -0.00000000    0.00000000
     The local contribution  to forces
     atom    1 type  1   force =    -0.00000000   -0.00000000    0.35779521
     atom    2 type  1   force =     0.00000000   -0.00000000   -0.35779521
     atom    3 type  1   force =    -0.00000000    0.00000000    0.35779521
     atom    4 type  1   force =    -0.00000000    0.00000000   -0.35779521
     atom    5 type  1   force =    -0.00000000    0.00000000    0.00000000
     atom    6 type  1   force =     0.00000000    0.00000000    0.00000000
     atom    7 type  2   force =    -0.00000000   -0.00000000   -0.00000000
     The core correction contribution to forces
     atom    1 type  1   force =     0.00000000    0.00000000    0.00000000
     atom    2 type  1   force =     0.00000000    0.00000000    0.00000000
     atom    3 type  1   force =     0.00000000    0.00000000    0.00000000
     atom    4 type  1   force =     0.00000000    0.00000000    0.00000000
     atom    5 type  1   force =     0.00000000    0.00000000    0.00000000
     atom    6 type  1   force =     0.00000000    0.00000000    0.00000000
     atom    7 type  2   force =     0.00000000   -0.00000000   -0.00000000
     The Hubbard contrib.    to forces
     atom    1 type  1   force =     0.00000000    0.00000000    0.00000000
     atom    2 type  1   force =     0.00000000    0.00000000    0.00000000
     atom    3 type  1   force =     0.00000000    0.00000000    0.00000000
     atom    4 type  1   force =     0.00000000    0.00000000    0.00000000
     atom    5 type  1   force =     0.00000000    0.00000000    0.00000000
     atom    6 type  1   force =     0.00000000    0.00000000    0.00000000
     atom    7 type  2   force =     0.00000000    0.00000000    0.00000000
     The SCF correction term to forces
     atom    1 type  1   force =    -0.00000000    0.00000000   -0.00000705
     atom    2 type  1   force =    -0.00000000    0.00000000    0.00000705
     atom    3 type  1   force =     0.00000000   -0.00000000   -0.00000705
     atom    4 type  1   force =     0.00000000   -0.00000000    0.00000705
     atom    5 type  1   force =     0.00000000    0.00000000   -0.00000000
     atom    6 type  1   force =     0.00000000   -0.00000000   -0.00000000
     atom    7 type  2   force =    -0.00000000    0.00000000    0.00000000

     Total force =     0.012760     Total SCF correction =     0.000014


     Computing stress (Cartesian axis) and pressure

          total   stress  (Ry/bohr**3)                   (kbar)     P=      182.96
   0.00141322   0.00000000   0.00000000          207.89        0.00        0.00
   0.00000000   0.00141322   0.00000000            0.00      207.89        0.00
   0.00000000   0.00000000   0.00090478            0.00        0.00      133.10

     Energy error            =      4.2E-01 Ry
     Gradient error          =      6.4E-03 Ry/Bohr
     Cell gradient error     =      3.7E+02 kbar

     number of scf cycles    =   2
     number of bfgs steps    =   1

     enthalpy           old  =     -92.3665770729 Ry
     enthalpy           new  =     -92.7914321835 Ry

     CASE: enthalpy          _new < enthalpy          _old

     new trust radius        =       0.6497221598 bohr
ibrav =      6
 celldm(1) =      6.55501404
 celldm(3) =      1.44722788
Input lattice vectors:
     0.82926056     0.00000000     0.00000000
     0.00000000     0.82926056     0.00000000
     0.00000000     0.00000000     1.20012901
New lattice vectors in INITIAL alat:
     0.82926056     0.00000000     0.00000000
     0.00000000     0.82926056     0.00000000
     0.00000000     0.00000000     1.20012901
New lattice vectors in NEW alat (for information only):
     1.00000000     0.00000000     0.00000000
     0.00000000     1.00000000     0.00000000
     0.00000000     0.00000000     1.44722788
Discrepancy in bohr =     0.000000    0.000000    0.000000
     new conv_thr            =       0.0000000006 Ry

     new unit-cell volume =    407.62217 a.u.^3 (    60.40337 Ang^3 )
     density =      1.91698 g/cm^3

CELL_PARAMETERS (alat=  7.90464942)
   0.829260564   0.000000000   0.000000000
   0.000000000   0.829260564   0.000000000
   0.000000000   0.000000000   1.200129009

ATOMIC_POSITIONS (crystal)
Li            0.0000000000        0.5000000000        0.2851831299
Li            0.0000000000        0.5000000000        0.7148168701
Li            0.5000000000        0.0000000000        0.2851831299
Li            0.5000000000        0.0000000000        0.7148168701
Li            0.0000000000        0.0000000000        0.0000000000
Li            0.5000000000        0.5000000000        0.0000000000
Si            0.0000000000        0.0000000000        0.5000000000



     Writing config-only to output data dir ./output/LiSi.save/
     NEW-OLD atomic charge density approx. for the potential

     negative rho (up, down):  4.792E-04 0.000E+00
     extrapolated charge   12.30407, renormalised to   22.00000

     total cpu time spent up to now is       34.3 secs

     Self-consistent Calculation

     iteration #  1     ecut=    80.00 Ry     beta= 0.70
     Davidson diagonalization with overlap
     c_bands:  1 eigenvalues not converged
     c_bands:  1 eigenvalues not converged
     ethr =  1.00E-06,  avg # of iterations = 10.6

     negative rho (up, down):  1.489E-06 0.000E+00

     total cpu time spent up to now is       37.6 secs

     total energy              =     -93.59056357 Ry
     estimated scf accuracy    <       0.89119128 Ry

     iteration #  2     ecut=    80.00 Ry     beta= 0.70
     Davidson diagonalization with overlap
     ethr =  4.05E-03,  avg # of iterations =  2.3

     total cpu time spent up to now is       39.0 secs

     total energy              =     -94.09131257 Ry
     estimated scf accuracy    <       1.03608471 Ry

     iteration #  3     ecut=    80.00 Ry     beta= 0.70
     Davidson diagonalization with overlap
     ethr =  4.05E-03,  avg # of iterations =  2.0

     total cpu time spent up to now is       40.0 secs

     total energy              =     -94.30226414 Ry
     estimated scf accuracy    <       0.26787472 Ry

     iteration #  4     ecut=    80.00 Ry     beta= 0.70
     Davidson diagonalization with overlap
     ethr =  1.22E-03,  avg # of iterations =  1.9

     total cpu time spent up to now is       41.1 secs

     total energy              =     -94.34535963 Ry
     estimated scf accuracy    <       0.00701179 Ry

     iteration #  5     ecut=    80.00 Ry     beta= 0.70
     Davidson diagonalization with overlap
     ethr =  3.19E-05,  avg # of iterations =  2.8

     total cpu time spent up to now is       42.2 secs

     total energy              =     -94.34615916 Ry
     estimated scf accuracy    <       0.00011693 Ry

     iteration #  6     ecut=    80.00 Ry     beta= 0.70
     Davidson diagonalization with overlap
     ethr =  5.32E-07,  avg # of iterations =  3.2

     total cpu time spent up to now is       43.4 secs

     total energy              =     -94.34618515 Ry
     estimated scf accuracy    <       0.00000472 Ry

     iteration #  7     ecut=    80.00 Ry     beta= 0.70
     Davidson diagonalization with overlap
     ethr =  2.14E-08,  avg # of iterations =  2.3

     total cpu time spent up to now is       44.5 secs

     total energy              =     -94.34618592 Ry
     estimated scf accuracy    <       0.00000008 Ry

     iteration #  8     ecut=    80.00 Ry     beta= 0.70
     Davidson diagonalization with overlap
     ethr =  3.60E-10,  avg # of iterations =  2.8

     total cpu time spent up to now is       45.7 secs

     total energy              =     -94.34618593 Ry
     estimated scf accuracy    <       0.00000001 Ry

     iteration #  9     ecut=    80.00 Ry     beta= 0.70
     Davidson diagonalization with overlap
     ethr =  6.35E-11,  avg # of iterations =  2.0

     total cpu time spent up to now is       46.8 secs

     End of self-consistent calculation

          k = 0.0000 0.0000 0.0000 (  9001 PWs)   bands (ev):

   -39.7442 -38.9747 -38.8296 -38.7992 -38.6924 -38.5464  -1.8916   3.9560
     4.1997   5.3522   5.3522  10.5402  11.4249  11.5283  11.5283

          k = 0.0000 0.0000 0.1666 (  9030 PWs)   bands (ev):

   -39.7430 -38.9677 -38.8438 -38.7969 -38.6947 -38.5404  -1.8944   3.1094
     5.5135   5.5135   5.5195   9.6138   9.6138  10.3554  11.4892

          k = 0.0000 0.0000 0.3333 (  9002 PWs)   bands (ev):

   -39.7411 -38.9522 -38.8702 -38.7930 -38.6986 -38.5313  -1.8990   2.6326
     5.8687   5.8687   7.3538   8.3938   8.3938   9.6691  10.1459

          k = 0.0000 0.1507 0.0000 (  9041 PWs)   bands (ev):

   -39.7411 -38.9686 -38.8241 -38.8048 -38.6974 -38.5489  -1.8140   4.0468
     4.2099   4.7705   5.5043   9.7950  10.0663  11.2076  11.6148

          k = 0.0000 0.1507 0.1666 (  8995 PWs)   bands (ev):

   -39.7401 -38.9616 -38.8382 -38.8025 -38.6997 -38.5430  -1.8166   3.1721
     4.8883   5.5444   5.6629   8.6635   9.7795  10.7893  11.2173

          k = 0.0000 0.1507 0.3333 (  8996 PWs)   bands (ev):

   -39.7384 -38.9459 -38.8644 -38.7986 -38.7038 -38.5342  -1.8209   2.6961
     5.1445   6.0092   7.1405   7.9350   8.5778   9.8915  10.7769

          k = 0.0000 0.3015 0.0000 (  9013 PWs)   bands (ev):

   -39.7338 -38.9514 -38.8214 -38.8087 -38.7117 -38.5547  -1.6024   3.6531
     4.2403   4.3730   5.9365   8.1424   8.8343  11.6141  12.1649

          k = 0.0000 0.3015 0.1666 (  9018 PWs)   bands (ev):

   -39.7330 -38.9441 -38.8256 -38.8155 -38.7146 -38.5492  -1.6044   3.3496
     3.7636   5.5867   6.0853   7.4365   9.7194  10.2454  11.9449

          k = 0.0000 0.3015 0.3333 (  9001 PWs)   bands (ev):

   -39.7318 -38.9280 -38.8481 -38.8143 -38.7190 -38.5409  -1.6077   2.8869
     3.9125   6.1870   6.4016   7.9153   9.1242   9.8629  10.9971

          k = 0.0000 0.4522 0.0000 (  8988 PWs)   bands (ev):

   -39.7264 -38.9266 -38.8457 -38.7860 -38.7335 -38.5604  -1.3405   2.7568
     4.2811   4.8918   6.5308   6.7672   8.0415  10.8410  12.7375

          k = 0.0000 0.4522 0.1666 (  9022 PWs)   bands (ev):

   -39.7259 -38.9186 -38.8453 -38.7966 -38.7374 -38.5550  -1.3417   2.8167
     3.6424   5.4975   6.6590   6.6890   8.8387  10.7164  11.8353

          k = 0.0000 0.4522 0.3333 (  9029 PWs)   bands (ev):

   -39.7251 -38.9017 -38.8416 -38.8216 -38.7416 -38.5471  -1.3436   2.9325
     3.1865   5.2483   6.9169   8.1348   9.6936  10.0007  10.6336

          k = 0.0000-0.6029 0.0000 (  8970 PWs)   bands (ev):

   -39.7234 -38.9091 -38.8632 -38.7596 -38.7594 -38.5627  -1.2087   2.3996
     4.3020   5.5941   5.7760   6.8798   7.7650  10.2778  13.0382

          k = 0.0000-0.6029 0.1666 (  9010 PWs)   bands (ev):

   -39.7230 -38.8990 -38.8644 -38.7751 -38.7586 -38.5573  -1.2094   2.4536
     3.8109   5.3241   6.5362   6.9886   8.4943  10.5122  12.2535

          k = 0.0000-0.6029 0.3333 (  9036 PWs)   bands (ev):

   -39.7223 -38.8752 -38.8663 -38.8066 -38.7574 -38.5496  -1.2107   2.5549
     3.3868   4.8161   7.1977   8.2600   9.6339  10.3996  10.9067

          k = 0.1507 0.1507 0.0000 (  9006 PWs)   bands (ev):

   -39.7383 -38.9627 -38.8191 -38.8100 -38.7020 -38.5516  -1.7401   4.1307
     4.2104   4.6331   5.2539   9.2173   9.5383  11.3235  11.8787

          k = 0.1507 0.1507 0.1666 (  9003 PWs)   bands (ev):

   -39.7374 -38.9556 -38.8328 -38.8077 -38.7043 -38.5459  -1.7426   3.2310
     4.7244   5.3957   5.5548   8.6368   8.7916  11.5117  11.8463

          k = 0.1507 0.1507 0.3333 (  9011 PWs)   bands (ev):

   -39.7358 -38.9400 -38.8586 -38.8037 -38.7084 -38.5374  -1.7468   2.7583
     4.9317   5.7033   7.0315   7.8290   8.1741  10.1928  11.4845

          k = 0.1507 0.3015 0.0000 (  9003 PWs)   bands (ev):

   -39.7314 -38.9459 -38.8251 -38.8048 -38.7152 -38.5580  -1.5398   3.7081
     4.2145   4.4577   5.5236   7.9640   8.6580  10.8511  12.1608

          k = 0.1507 0.3015 0.1666 (  9019 PWs)   bands (ev):

   -39.7307 -38.9387 -38.8244 -38.8159 -38.7178 -38.5528  -1.5422   3.3947
     3.8161   5.5614   5.6552   7.4530   8.7608  10.6869  12.0544

          k = 0.1507 0.3015 0.3333 (  9011 PWs)   bands (ev):

   -39.7296 -38.9232 -38.8425 -38.8181 -38.7222 -38.5449  -1.5461   2.9447
     3.9467   5.8989   6.2407   7.6131   8.4640  10.2047  11.5709

          k = 0.1507 0.4522 0.0000 (  9006 PWs)   bands (ev):

   -39.7245 -38.9217 -38.8477 -38.7837 -38.7352 -38.5643  -1.2949   2.8730
     4.2235   4.9574   6.0879   6.7309   8.0148   9.7553  12.8410

          k = 0.1507 0.4522 0.1666 (  9020 PWs)   bands (ev):

   -39.7240 -38.9141 -38.8466 -38.7941 -38.7389 -38.5594  -1.2972   2.9301
     3.6669   5.4958   6.1945   6.6451   8.5367   9.8485  11.6889

          k = 0.1507 0.4522 0.3333 (  9018 PWs)   bands (ev):

   -39.7233 -38.8986 -38.8423 -38.8176 -38.7432 -38.5522  -1.3009   3.0409
     3.2379   5.3166   6.3686   7.6981   8.8485  10.0158  11.0271

          k = 0.1507-0.6029 0.0000 (  9032 PWs)   bands (ev):

   -39.7216 -38.9042 -38.8645 -38.7593 -38.7592 -38.5668  -1.1735   2.5370
     4.2290   5.6358   5.7943   6.4453   7.7851   9.1572  13.5714

          k = 0.1507-0.6029 0.1666 (  9010 PWs)   bands (ev):

   -39.7212 -38.8948 -38.8652 -38.7735 -38.7589 -38.5621  -1.1757   2.5904
     3.8126   5.3795   6.3666   6.5894   8.3238   9.4109  11.7860

          k = 0.1507-0.6029 0.3333 (  9010 PWs)   bands (ev):

   -39.7207 -38.8736 -38.8662 -38.8018 -38.7585 -38.5551  -1.1795   2.6907
     3.4277   4.8965   6.6257   7.7836   8.8577  10.2219  10.5527

          k = 0.3015 0.3015 0.0000 (  8992 PWs)   bands (ev):

   -39.7256 -38.9303 -38.8360 -38.7937 -38.7251 -38.5660  -1.3731   3.6466
     4.1512   4.7148   5.0287   7.3976   8.2809   9.4292  12.1093

          k = 0.3015 0.3015 0.1666 (  8999 PWs)   bands (ev):

   -39.7251 -38.9237 -38.8336 -38.8053 -38.7276 -38.5616  -1.3767   3.5038
     3.7625   5.1269   5.5312   7.1757   8.0658   9.4884  12.8282

          k = 0.3015 0.3015 0.3333 (  9007 PWs)   bands (ev):

   -39.7243 -38.9098 -38.8293 -38.8267 -38.7320 -38.5549  -1.3826   3.1167
     3.8287   5.3316   6.1921   6.7915   8.1884   9.6225  11.8120

          k = 0.3015 0.4522 0.0000 (  8989 PWs)   bands (ev):

   -39.7197 -38.9084 -38.8533 -38.7774 -38.7403 -38.5741  -1.1770   3.1952
     4.0867   5.1506   5.2820   6.5881   7.9574   8.1063  12.2517

          k = 0.3015 0.4522 0.1666 (  9004 PWs)   bands (ev):

   -39.7194 -38.9023 -38.8511 -38.7866 -38.7433 -38.5705  -1.1825   3.2414
     3.7341   5.3409   5.5300   6.4860   7.8606   8.4399  12.0660

          k = 0.3015 0.4522 0.3333 (  8998 PWs)   bands (ev):

   -39.7189 -38.8902 -38.8465 -38.8047 -38.7479 -38.5652  -1.1915   3.3235
     3.4048   5.4503   5.5475   6.7274   7.7869   9.0305  11.5464

          k = 0.3015-0.6029 0.0000 (  8996 PWs)   bands (ev):

   -39.7173 -38.8918 -38.8679 -38.7586 -38.7585 -38.5775  -1.0838   2.9502
     4.0596   5.6238   5.7453   5.8388   7.4443   7.8357  12.5166

          k = 0.3015-0.6029 0.1666 (  9012 PWs)   bands (ev):

   -39.7170 -38.8847 -38.8671 -38.7690 -38.7596 -38.5743  -1.0903   3.0017
     3.8165   5.5347   5.6702   6.1846   7.3609   8.3548  11.8008

          k = 0.3015-0.6029 0.3333 (  9024 PWs)   bands (ev):

   -39.7167 -38.8699 -38.8658 -38.7887 -38.7613 -38.5695  -1.1010   3.0984
     3.5476   5.1332   5.7394   6.8109   7.3932   8.9035  11.4127

          k = 0.4522 0.4522 0.0000 (  9006 PWs)   bands (ev):

   -39.7149 -38.8914 -38.8620 -38.7683 -38.7482 -38.5845  -1.0457   3.5564
     3.9533   4.8160   5.4702   6.2939   6.6841   7.9082  11.7835

          k = 0.4522 0.4522 0.1666 (  8997 PWs)   bands (ev):

   -39.7148 -38.8870 -38.8594 -38.7748 -38.7508 -38.5826  -1.0554   3.5815
     3.8189   4.8748   5.5935   6.1892   6.6762   7.9657  11.9747

          k = 0.4522 0.4522 0.3333 (  9008 PWs)   bands (ev):

   -39.7145 -38.8785 -38.8548 -38.7865 -38.7554 -38.5796  -1.0711   3.5761
     3.7035   4.9915   5.6901   6.0019   6.6377   8.2042  11.9810

          k = 0.4522-0.6029 0.0000 (  8990 PWs)   bands (ev):

   -39.7129 -38.8785 -38.8713 -38.7580 -38.7579 -38.5890  -0.9864   3.6410
     3.8990   4.9711   5.8023   5.8696   5.9936   7.8897  11.6738

          k = 0.4522-0.6029 0.1666 (  8992 PWs)   bands (ev):

   -39.7128 -38.8743 -38.8691 -38.7633 -38.7602 -38.5879  -0.9983   3.6885
     3.8225   5.0196   5.7296   5.9240   5.9411   7.8946  11.7773

          k = 0.4522-0.6029 0.3333 (  9018 PWs)   bands (ev):

   -39.7127 -38.8666 -38.8655 -38.7728 -38.7640 -38.5862  -1.0173   3.7178
     3.7773   5.0931   5.4859   5.9619   6.0293   7.8525  12.2324

          k =-0.6029-0.6029 0.0000 (  9024 PWs)   bands (ev):

   -39.7111 -38.8727 -38.8727 -38.7577 -38.7577 -38.5941  -0.9435   3.8347
     4.5146   4.7298   4.7298   5.9267   5.9267   7.9132  11.3654

          k =-0.6029-0.6029 0.1666 (  9004 PWs)   bands (ev):

   -39.7111 -38.8700 -38.8700 -38.7604 -38.7604 -38.5941  -0.9579   3.8278
     4.5522   4.7736   4.7736   5.8522   5.8522   7.6950  11.7427

          k =-0.6029-0.6029 0.3333 (  9048 PWs)   bands (ev):

   -39.7110 -38.8654 -38.8654 -38.7651 -38.7651 -38.5941  -0.9809   3.8170
     4.6189   4.8580   4.8580   5.7196   5.7196   7.3793  12.6138

     the Fermi energy is     6.3298 ev

!    total energy              =     -94.34618594 Ry
     estimated scf accuracy    <          6.0E-10 Ry
     smearing contrib. (-TS)   =       0.00058418 Ry
     internal energy E=F+TS    =     -94.34677011 Ry

     The total energy is F=E-TS. E is the sum of the following terms:
     one-electron contribution =     -37.69530273 Ry
     hartree contribution      =      18.24811156 Ry
     xc contribution           =     -24.40456945 Ry
     ewald contribution        =     -50.49500949 Ry

     convergence has been achieved in   9 iterations

     Forces acting on atoms (cartesian axes, Ry/au):

     atom    1 type  1   force =     0.00000000    0.00000000   -0.04750154
     atom    2 type  1   force =     0.00000000    0.00000000    0.04750154
     atom    3 type  1   force =     0.00000000    0.00000000   -0.04750154
     atom    4 type  1   force =     0.00000000    0.00000000    0.04750154
     atom    5 type  1   force =     0.00000000    0.00000000    0.00000000
     atom    6 type  1   force =     0.00000000    0.00000000    0.00000000
     atom    7 type  2   force =     0.00000000    0.00000000    0.00000000
     The non-local contrib.  to forces
     atom    1 type  1   force =     0.00000000    0.00000000   -0.03805998
     atom    2 type  1   force =     0.00000000    0.00000000    0.03805998
     atom    3 type  1   force =     0.00000000    0.00000000   -0.03805998
     atom    4 type  1   force =     0.00000000    0.00000000    0.03805998
     atom    5 type  1   force =     0.00000000    0.00000000    0.00000000
     atom    6 type  1   force =     0.00000000    0.00000000    0.00000000
     atom    7 type  2   force =     0.00000000    0.00000000    0.00000000
     The ionic contribution  to forces
     atom    1 type  1   force =    -0.00000000    0.00000000   -0.37426386
     atom    2 type  1   force =    -0.00000000    0.00000000    0.37426386
     atom    3 type  1   force =     0.00000000   -0.00000000   -0.37426386
     atom    4 type  1   force =     0.00000000   -0.00000000    0.37426386
     atom    5 type  1   force =    -0.00000000   -0.00000000    0.00000000
     atom    6 type  1   force =     0.00000000    0.00000000    0.00000000
     atom    7 type  2   force =    -0.00000000   -0.00000000    0.00000000
     The local contribution  to forces
     atom    1 type  1   force =    -0.00000000    0.00000000    0.36481174
     atom    2 type  1   force =     0.00000000    0.00000000   -0.36481174
     atom    3 type  1   force =     0.00000000    0.00000000    0.36481174
     atom    4 type  1   force =     0.00000000    0.00000000   -0.36481174
     atom    5 type  1   force =    -0.00000000    0.00000000    0.00000000
     atom    6 type  1   force =     0.00000000    0.00000000    0.00000000
     atom    7 type  2   force =    -0.00000000   -0.00000000   -0.00000000
     The core correction contribution to forces
     atom    1 type  1   force =     0.00000000    0.00000000    0.00000000
     atom    2 type  1   force =     0.00000000    0.00000000    0.00000000
     atom    3 type  1   force =     0.00000000    0.00000000    0.00000000
     atom    4 type  1   force =     0.00000000    0.00000000    0.00000000
     atom    5 type  1   force =     0.00000000    0.00000000    0.00000000
     atom    6 type  1   force =     0.00000000    0.00000000    0.00000000
     atom    7 type  2   force =    -0.00000000    0.00000000   -0.00000000
     The Hubbard contrib.    to forces
     atom    1 type  1   force =     0.00000000    0.00000000    0.00000000
     atom    2 type  1   force =     0.00000000    0.00000000    0.00000000
     atom    3 type  1   force =     0.00000000    0.00000000    0.00000000
     atom    4 type  1   force =     0.00000000    0.00000000    0.00000000
     atom    5 type  1   force =     0.00000000    0.00000000    0.00000000
     atom    6 type  1   force =     0.00000000    0.00000000    0.00000000
     atom    7 type  2   force =     0.00000000    0.00000000    0.00000000
     The SCF correction term to forces
     atom    1 type  1   force =    -0.00000000   -0.00000000    0.00001056
     atom    2 type  1   force =     0.00000000    0.00000000   -0.00001056
     atom    3 type  1   force =    -0.00000000    0.00000000    0.00001056
     atom    4 type  1   force =    -0.00000000    0.00000000   -0.00001056
     atom    5 type  1   force =     0.00000000    0.00000000    0.00000000
     atom    6 type  1   force =     0.00000000   -0.00000000    0.00000000
     atom    7 type  2   force =    -0.00000000   -0.00000000   -0.00000000

     Total force =     0.095003     Total SCF correction =     0.000021


     Computing stress (Cartesian axis) and pressure

          total   stress  (Ry/bohr**3)                   (kbar)     P=      656.16
   0.00471775   0.00000000   0.00000000          694.00        0.00        0.00
   0.00000000   0.00471775   0.00000000            0.00      694.00        0.00
   0.00000000   0.00000000   0.00394597            0.00        0.00      580.47

     Energy error            =      1.7E-01 Ry
     Gradient error          =      4.8E-02 Ry/Bohr
     Cell gradient error     =      1.9E+02 kbar

     number of scf cycles    =   3
     number of bfgs steps    =   2

     enthalpy           old  =     -92.7914321835 Ry
     enthalpy           new  =     -92.9607063288 Ry

     CASE: enthalpy          _new < enthalpy          _old

     new trust radius        =       0.1415617181 bohr
ibrav =      6
 celldm(1) =      6.78481961
 celldm(3) =      1.43973967
Input lattice vectors:
     0.85833277     0.00000000     0.00000000
     0.00000000     0.85833277     0.00000000
     0.00000000     0.00000000     1.23577574
New lattice vectors in INITIAL alat:
     0.85833277     0.00000000     0.00000000
     0.00000000     0.85833277     0.00000000
     0.00000000     0.00000000     1.23577574
New lattice vectors in NEW alat (for information only):
     1.00000000     0.00000000     0.00000000
     0.00000000     1.00000000     0.00000000
     0.00000000     0.00000000     1.43973967
Discrepancy in bohr =     0.000000    0.000000    0.000000
     new conv_thr            =       0.0000000048 Ry

     new unit-cell volume =    449.67515 a.u.^3 (    66.63498 Ang^3 )
     density =      1.73770 g/cm^3

CELL_PARAMETERS (alat=  7.90464942)
   0.858332767   0.000000000   0.000000000
   0.000000000   0.858332767   0.000000000
   0.000000000   0.000000000   1.235775737

ATOMIC_POSITIONS (crystal)
Li            0.0000000000        0.5000000000        0.2830227886
Li            0.0000000000        0.5000000000        0.7169772114
Li            0.5000000000        0.0000000000        0.2830227886
Li            0.5000000000        0.0000000000        0.7169772114
Li            0.0000000000        0.0000000000        0.0000000000
Li            0.5000000000        0.5000000000        0.0000000000
Si            0.0000000000        0.0000000000        0.5000000000



     Writing config-only to output data dir ./output/LiSi.save/
     NEW-OLD atomic charge density approx. for the potential
     extrapolated charge   24.05479, renormalised to   22.00000

     total cpu time spent up to now is       50.6 secs

     Self-consistent Calculation

     iteration #  1     ecut=    80.00 Ry     beta= 0.70
     Davidson diagonalization with overlap
     ethr =  1.00E-06,  avg # of iterations =  6.8

     total cpu time spent up to now is       52.9 secs

     total energy              =     -94.47317877 Ry
     estimated scf accuracy    <       0.01006750 Ry

     iteration #  2     ecut=    80.00 Ry     beta= 0.70
     Davidson diagonalization with overlap
     ethr =  4.58E-05,  avg # of iterations =  3.4

     total cpu time spent up to now is       54.5 secs

     total energy              =     -94.50640371 Ry
     estimated scf accuracy    <       0.05817844 Ry

     iteration #  3     ecut=    80.00 Ry     beta= 0.70
     Davidson diagonalization with overlap
     ethr =  4.58E-05,  avg # of iterations =  2.0

     total cpu time spent up to now is       55.7 secs

     total energy              =     -94.51210557 Ry
     estimated scf accuracy    <       0.00435942 Ry

     iteration #  4     ecut=    80.00 Ry     beta= 0.70
     Davidson diagonalization with overlap
     ethr =  1.98E-05,  avg # of iterations =  1.0

     total cpu time spent up to now is       56.7 secs

     total energy              =     -94.51138028 Ry
     estimated scf accuracy    <       0.00301362 Ry

     iteration #  5     ecut=    80.00 Ry     beta= 0.70
     Davidson diagonalization with overlap
     ethr =  1.37E-05,  avg # of iterations =  1.0

     total cpu time spent up to now is       57.6 secs

     total energy              =     -94.51095560 Ry
     estimated scf accuracy    <       0.00100175 Ry

     iteration #  6     ecut=    80.00 Ry     beta= 0.70
     Davidson diagonalization with overlap
     ethr =  4.55E-06,  avg # of iterations =  1.4

     total cpu time spent up to now is       58.6 secs

     total energy              =     -94.51106284 Ry
     estimated scf accuracy    <       0.00000171 Ry

     iteration #  7     ecut=    80.00 Ry     beta= 0.70
     Davidson diagonalization with overlap
     ethr =  7.76E-09,  avg # of iterations =  4.5

     total cpu time spent up to now is       60.1 secs

     total energy              =     -94.51106620 Ry
     estimated scf accuracy    <       0.00000059 Ry

     iteration #  8     ecut=    80.00 Ry     beta= 0.70
     Davidson diagonalization with overlap
     ethr =  2.70E-09,  avg # of iterations =  1.0

     total cpu time spent up to now is       61.1 secs

     total energy              =     -94.51106612 Ry
     estimated scf accuracy    <       0.00000025 Ry

     iteration #  9     ecut=    80.00 Ry     beta= 0.70
     Davidson diagonalization with overlap
     ethr =  1.12E-09,  avg # of iterations =  2.0

     total cpu time spent up to now is       62.2 secs

     End of self-consistent calculation

          k = 0.0000 0.0000 0.0000 (  9001 PWs)   bands (ev):

   -40.5605 -39.7099 -39.5844 -39.5627 -39.4860 -39.4441  -2.5325   3.1755
     3.4257   4.6429   4.6429   9.4426  10.3677  10.3677  10.4885

          k = 0.0000 0.0000 0.1618 (  9030 PWs)   bands (ev):

   -40.5601 -39.7012 -39.6014 -39.5609 -39.4878 -39.4361  -2.5293   2.3266
     4.7260   4.7947   4.7947   8.6727   8.6727   9.2833  10.3635

          k = 0.0000 0.0000 0.3237 (  9002 PWs)   bands (ev):

   -40.5595 -39.6776 -39.6365 -39.5577 -39.4909 -39.4253  -2.5240   1.8387
     5.1282   5.1282   6.5344   7.5240   7.5240   8.6594   9.0781

          k = 0.0000 0.1456 0.0000 (  9041 PWs)   bands (ev):

   -40.5590 -39.7046 -39.5805 -39.5667 -39.4896 -39.4463  -2.4579   3.2601
     3.4439   4.0888   4.7820   8.8156   9.1312  10.0707  10.4433

          k = 0.0000 0.1456 0.1618 (  8995 PWs)   bands (ev):

   -40.5586 -39.6960 -39.5974 -39.5648 -39.4915 -39.4383  -2.4545   2.3934
     4.1874   4.7624   4.9310   7.7580   8.8250   9.7303  10.1459

          k = 0.0000 0.1456 0.3237 (  8996 PWs)   bands (ev):

   -40.5581 -39.6728 -39.6318 -39.5617 -39.4947 -39.4277  -2.4489   1.9075
     4.4403   5.2554   6.2975   7.1020   7.6957   8.8634   9.7017

          k = 0.0000 0.2913 0.0000 (  9013 PWs)   bands (ev):

   -40.5552 -39.6897 -39.5789 -39.5695 -39.4999 -39.4513  -2.2555   2.9696
     3.4950   3.6326   5.1750   7.2544   7.9571  10.4528  10.9688

          k = 0.0000 0.2913 0.1618 (  9018 PWs)   bands (ev):

   -40.5550 -39.6814 -39.5874 -39.5751 -39.5025 -39.4433  -2.2517   2.5793
     3.1172   4.8136   5.3141   6.5787   8.7851   9.2508  10.8195

          k = 0.0000 0.2913 0.3237 (  9001 PWs)   bands (ev):

   -40.5545 -39.6593 -39.6189 -39.5730 -39.5062 -39.4328  -2.2455   2.1125
     3.2701   5.3620   5.6082   7.0829   8.2058   8.8632   9.9942

          k = 0.0000 0.4369 0.0000 (  8988 PWs)   bands (ev):

   -40.5515 -39.6690 -39.5973 -39.5532 -39.5155 -39.4560  -2.0078   2.1316
     3.5589   4.1279   5.7075   5.9444   7.1941   9.8247  11.5380

          k = 0.0000 0.4369 0.1618 (  9022 PWs)   bands (ev):

   -40.5513 -39.6608 -39.5972 -39.5660 -39.5197 -39.4475  -2.0037   2.1983
     2.9067   4.7233   5.8262   5.8643   7.9635   9.6887  10.8445

          k = 0.0000 0.4369 0.3237 (  9029 PWs)   bands (ev):

   -40.5510 -39.6397 -39.6035 -39.5878 -39.5235 -39.4371  -1.9969   2.3289
     2.4449   4.4408   6.0635   7.2700   8.7554   9.0269   9.7055

          k = 0.0000-0.5825 0.0000 (  8970 PWs)   bands (ev):

   -40.5499 -39.6554 -39.6101 -39.5343 -39.5341 -39.4579  -1.8847   1.7943
     3.5904   4.7986   5.0034   6.0125   6.9255   9.3450  11.8699

          k = 0.0000-0.5825 0.1618 (  9010 PWs)   bands (ev):

   -40.5497 -39.6467 -39.6101 -39.5518 -39.5343 -39.4491  -1.8806   1.8588
     3.0841   4.5380   5.7285   6.1132   7.6388   9.5654  11.1913

          k = 0.0000-0.5825 0.3237 (  9036 PWs)   bands (ev):

   -40.5495 -39.6228 -39.6101 -39.5862 -39.5346 -39.4386  -1.8737   1.9841
     2.6507   4.0063   6.3055   7.3717   8.7292   9.5002   9.8982

          k = 0.1456 0.1456 0.0000 (  9006 PWs)   bands (ev):

   -40.5575 -39.6994 -39.5769 -39.5704 -39.4929 -39.4487  -2.3863   3.3367
     3.4538   3.9835   4.5120   8.2900   8.6398  10.1425  10.6965

          k = 0.1456 0.1456 0.1618 (  9003 PWs)   bands (ev):

   -40.5572 -39.6909 -39.5935 -39.5685 -39.4948 -39.4409  -2.3829   2.4569
     4.0480   4.6460   4.7794   7.7324   7.8935  10.3464  10.7291

          k = 0.1456 0.1456 0.3237 (  9011 PWs)   bands (ev):

   -40.5567 -39.6682 -39.6272 -39.5653 -39.4980 -39.4305  -2.3772   1.9752
     4.2584   4.9362   6.1842   6.9623   7.3473   9.1509  10.3755

          k = 0.1456 0.2913 0.0000 (  9003 PWs)   bands (ev):

   -40.5539 -39.6847 -39.5814 -39.5667 -39.5024 -39.4546  -2.1930   3.0309
     3.4818   3.7215   4.7551   7.1041   7.8020   9.7312  11.1364

          k = 0.1456 0.2913 0.1618 (  9019 PWs)   bands (ev):

   -40.5537 -39.6766 -39.5844 -39.5774 -39.5047 -39.4468  -2.1896   2.6315
     3.1790   4.8031   4.8715   6.6037   7.8833   9.6058  11.0399

          k = 0.1456 0.2913 0.3237 (  9011 PWs)   bands (ev):

   -40.5533 -39.6553 -39.6144 -39.5757 -39.5083 -39.4367  -2.1840   2.1762
     3.3165   5.1114   5.4145   6.7594   7.6250   9.1731  10.5380

          k = 0.1456 0.4369 0.0000 (  9006 PWs)   bands (ev):

   -40.5504 -39.6642 -39.5984 -39.5516 -39.5168 -39.4601  -1.9590   2.2465
     3.5172   4.1979   5.2671   5.9237   7.1797   8.7883  11.7744

          k = 0.1456 0.4369 0.1618 (  9020 PWs)   bands (ev):

   -40.5502 -39.6564 -39.5977 -39.5645 -39.5206 -39.4520  -1.9558   2.3104
     2.9419   4.7318   5.3668   5.8325   7.6894   8.8670  10.6416

          k = 0.1456 0.4369 0.3237 (  9018 PWs)   bands (ev):

   -40.5500 -39.6367 -39.6000 -39.5884 -39.5244 -39.4421  -1.9505   2.4270
     2.5137   4.5120   5.5410   6.8365   8.0033   9.0102  10.0758

          k = 0.1456-0.5825 0.0000 (  9032 PWs)   bands (ev):

   -40.5489 -39.6505 -39.6108 -39.5341 -39.5340 -39.4623  -1.8441   1.9269
     3.5345   4.8484   5.0293   5.5844   6.9551   8.2616  12.2801

          k = 0.1456-0.5825 0.1618 (  9010 PWs)   bands (ev):

   -40.5488 -39.6422 -39.6105 -39.5507 -39.5344 -39.4540  -1.8412   1.9910
     3.0973   4.5987   5.5870   5.7120   7.4890   8.5003  10.7007

          k = 0.1456-0.5825 0.3237 (  9010 PWs)   bands (ev):

   -40.5486 -39.6201 -39.6100 -39.5828 -39.5352 -39.4441  -1.8363   2.1157
     2.6983   4.0897   5.7762   6.9067   8.0140   9.2375   9.6323

          k = 0.2913 0.2913 0.0000 (  8992 PWs)   bands (ev):

   -40.5509 -39.6706 -39.5889 -39.5588 -39.5095 -39.4626  -2.0271   3.0036
     3.4497   3.9830   4.2256   6.5923   7.4567   8.4307  10.8977

          k = 0.2913 0.2913 0.1618 (  8999 PWs)   bands (ev):

   -40.5507 -39.6632 -39.5870 -39.5734 -39.5115 -39.4555  -2.0248   2.7650
     3.1543   4.3218   4.7812   6.3592   7.2290   8.4982  11.7442

          k = 0.2913 0.2913 0.3237 (  9007 PWs)   bands (ev):

   -40.5504 -39.6444 -39.6018 -39.5836 -39.5149 -39.4462  -2.0210   2.3644
     3.2363   4.5236   5.3768   5.9625   7.3916   8.6283  10.7493

          k = 0.2913 0.4369 0.0000 (  8989 PWs)   bands (ev):

   -40.5478 -39.6512 -39.6017 -39.5471 -39.5205 -39.4707  -1.8324   2.5675
     3.4172   4.3765   4.4876   5.8187   7.1489   7.2229  10.9611

          k = 0.2913 0.4369 0.1618 (  9004 PWs)   bands (ev):

   -40.5477 -39.6447 -39.6000 -39.5594 -39.5233 -39.4640  -1.8318   2.6189
     3.0406   4.5280   4.7707   5.7054   7.0563   7.5343  10.8681

          k = 0.2913 0.4369 0.3237 (  8998 PWs)   bands (ev):

   -40.5475 -39.6292 -39.5965 -39.5833 -39.5270 -39.4557  -1.8310   2.6343
     2.7779   4.6460   4.7386   5.9130   7.0068   8.0819  10.4928

          k = 0.2913-0.5825 0.0000 (  8996 PWs)   bands (ev):

   -40.5465 -39.6376 -39.6126 -39.5337 -39.5336 -39.4742  -1.7400   2.3252
     3.4036   4.7583   4.9948   5.0928   6.6264   7.0308  11.1697

          k = 0.2913-0.5825 0.1618 (  9012 PWs)   bands (ev):

   -40.5464 -39.6309 -39.6115 -39.5471 -39.5347 -39.4674  -1.7405   2.3881
     3.1313   4.7686   4.8307   5.4132   6.5703   7.5082  10.5902

          k = 0.2913-0.5825 0.3237 (  9024 PWs)   bands (ev):

   -40.5463 -39.6147 -39.6097 -39.5713 -39.5367 -39.4594  -1.7413   2.5105
     2.8363   4.3347   4.9125   5.9964   6.6274   7.9762  10.3614

          k = 0.4369 0.4369 0.0000 (  9006 PWs)   bands (ev):

   -40.5452 -39.6345 -39.6075 -39.5406 -39.5262 -39.4827  -1.6903   2.9290
     3.3184   3.9696   4.7428   5.5608   5.8738   7.1231  10.4496

          k = 0.4369 0.4369 0.1618 (  8997 PWs)   bands (ev):

   -40.5451 -39.6297 -39.6054 -39.5500 -39.5282 -39.4782  -1.6933   2.9518
     3.1698   4.0335   4.8544   5.4358   5.8962   7.1287  10.6802

          k = 0.4369 0.4369 0.3237 (  9008 PWs)   bands (ev):

   -40.5450 -39.6197 -39.6019 -39.5659 -39.5318 -39.4724  -1.6982   2.8772
     3.1148   4.1626   4.9030   5.2141   5.8997   7.2997  10.8443

          k = 0.4369-0.5825 0.0000 (  8990 PWs)   bands (ev):

   -40.5441 -39.6224 -39.6144 -39.5332 -39.5332 -39.4882  -1.6257   2.9910
     3.2778   4.1127   5.0552   5.1439   5.2675   7.1137  10.3176

          k = 0.4369-0.5825 0.1618 (  8992 PWs)   bands (ev):

   -40.5441 -39.6185 -39.6126 -39.5404 -39.5350 -39.4850  -1.6305   3.0510
     3.1718   4.1720   4.9807   5.1932   5.2015   7.0762  10.4725

          k = 0.4369-0.5825 0.3237 (  9018 PWs)   bands (ev):

   -40.5440 -39.6107 -39.6095 -39.5524 -39.5382 -39.4808  -1.6384   3.0295
     3.1679   4.2639   4.7008   5.2506   5.2583   6.9581  11.0543

          k =-0.5825-0.5825 0.0000 (  9024 PWs)   bands (ev):

   -40.5431 -39.6151 -39.6151 -39.5330 -39.5330 -39.4951  -1.5748   3.2272
     3.8700   3.8700   3.9863   5.2164   5.2164   7.1505  10.0027

          k =-0.5825-0.5825 0.1618 (  9004 PWs)   bands (ev):

   -40.5431 -39.6130 -39.6130 -39.5351 -39.5351 -39.4951  -1.5817   3.1937
     3.9217   3.9217   4.0446   5.1197   5.1197   6.8798  10.4114

          k =-0.5825-0.5825 0.3237 (  9048 PWs)   bands (ev):

   -40.5431 -39.6094 -39.6094 -39.5388 -39.5388 -39.4951  -1.5930   3.1423
     4.0244   4.0244   4.1533   4.9478   4.9478   6.4874  11.3754

     the Fermi energy is     5.5252 ev

!    total energy              =     -94.51106615 Ry
     estimated scf accuracy    <          1.5E-09 Ry
     smearing contrib. (-TS)   =       0.00065345 Ry
     internal energy E=F+TS    =     -94.51171960 Ry

     The total energy is F=E-TS. E is the sum of the following terms:
     one-electron contribution =     -40.14560524 Ry
     hartree contribution      =      18.73352247 Ry
     xc contribution           =     -24.20920101 Ry
     ewald contribution        =     -48.89043582 Ry

     convergence has been achieved in   9 iterations

     Forces acting on atoms (cartesian axes, Ry/au):

     atom    1 type  1   force =     0.00000000    0.00000000   -0.02888142
     atom    2 type  1   force =     0.00000000    0.00000000    0.02888142
     atom    3 type  1   force =     0.00000000    0.00000000   -0.02888142
     atom    4 type  1   force =     0.00000000    0.00000000    0.02888142
     atom    5 type  1   force =     0.00000000    0.00000000    0.00000000
[...]

     Estimated total dynamical RAM >     184.98 MB

     Initial potential from superposition of free atoms

     starting charge      21.9720, renormalised to      22.0000
     Starting wfcs are   16 randomized atomic wfcs

     total cpu time spent up to now is      201.7 secs

     Self-consistent Calculation

     iteration #  1     ecut=    80.00 Ry     beta= 0.70
     Davidson diagonalization with overlap
     c_bands:  1 eigenvalues not converged
     c_bands:  1 eigenvalues not converged
     c_bands:  1 eigenvalues not converged
     c_bands:  1 eigenvalues not converged
     c_bands:  1 eigenvalues not converged
     c_bands:  1 eigenvalues not converged
     c_bands:  1 eigenvalues not converged
     ethr =  1.00E-06,  avg # of iterations = 16.3

     total cpu time spent up to now is      204.0 secs

     total energy              =     -94.45994128 Ry
     estimated scf accuracy    <       0.15838067 Ry

     iteration #  2     ecut=    80.00 Ry     beta= 0.70
     Davidson diagonalization with overlap
     ethr =  7.20E-04,  avg # of iterations =  2.0

     total cpu time spent up to now is      204.7 secs

     total energy              =     -94.48403093 Ry
     estimated scf accuracy    <       0.09545299 Ry

     iteration #  3     ecut=    80.00 Ry     beta= 0.70
     Davidson diagonalization with overlap
     ethr =  4.34E-04,  avg # of iterations =  2.0

     total cpu time spent up to now is      205.4 secs

     total energy              =     -94.50674128 Ry
     estimated scf accuracy    <       0.01185497 Ry

     iteration #  4     ecut=    80.00 Ry     beta= 0.70
     Davidson diagonalization with overlap
     ethr =  5.39E-05,  avg # of iterations =  2.0

     total cpu time spent up to now is      206.1 secs

     total energy              =     -94.50864289 Ry
     estimated scf accuracy    <       0.00018573 Ry

     iteration #  5     ecut=    80.00 Ry     beta= 0.70
     Davidson diagonalization with overlap
     ethr =  8.44E-07,  avg # of iterations =  3.4

     total cpu time spent up to now is      206.9 secs

     total energy              =     -94.50867102 Ry
     estimated scf accuracy    <       0.00001597 Ry

     iteration #  6     ecut=    80.00 Ry     beta= 0.70
     Davidson diagonalization with overlap
     ethr =  7.26E-08,  avg # of iterations =  2.0

     total cpu time spent up to now is      207.6 secs

     total energy              =     -94.50867452 Ry
     estimated scf accuracy    <       0.00000013 Ry

     iteration #  7     ecut=    80.00 Ry     beta= 0.70
     Davidson diagonalization with overlap
     ethr =  6.08E-10,  avg # of iterations =  3.2

     total cpu time spent up to now is      208.3 secs

     total energy              =     -94.50867457 Ry
     estimated scf accuracy    <          4.1E-09 Ry

     iteration #  8     ecut=    80.00 Ry     beta= 0.70
     Davidson diagonalization with overlap
     ethr =  1.86E-11,  avg # of iterations =  2.5

     total cpu time spent up to now is      209.0 secs

     total energy              =     -94.50867457 Ry
     estimated scf accuracy    <          6.9E-10 Ry

     iteration #  9     ecut=    80.00 Ry     beta= 0.70
     Davidson diagonalization with overlap
     ethr =  3.14E-12,  avg # of iterations =  2.0

     total cpu time spent up to now is      209.7 secs

     End of self-consistent calculation

          k = 0.0000 0.0000 0.0000 (  5283 PWs)   bands (ev):

   -40.6089 -39.5910 -39.5081 -39.3890 -39.3366 -39.0003  -2.1526   3.8060
     3.8060   4.2217   4.3155   8.8407  10.6527  10.6527  10.6783

          k = 0.0000 0.0000 0.1876 (  5284 PWs)   bands (ev):

   -40.6081 -39.5761 -39.4966 -39.4086 -39.3484 -38.9965  -2.1452   2.9482
     4.0621   4.0621   6.1693   8.5941   8.5941   8.6276  10.8472

          k = 0.0000 0.0000 0.3752 (  5328 PWs)   bands (ev):

   -40.6069 -39.5404 -39.4724 -39.4517 -39.3730 -38.9907  -2.1327   2.2728
     4.7228   4.7228   6.8529   6.8529   8.3433   8.4470  11.2004

          k = 0.0000 0.1370 0.0000 (  5285 PWs)   bands (ev):

   -40.6074 -39.5876 -39.5105 -39.3869 -39.3386 -39.0027  -2.1053   3.4190
     3.9304   4.2131   4.4400   9.0909   9.4396  10.1172  10.4651

          k = 0.0000 0.1370 0.1876 (  5298 PWs)   bands (ev):

   -40.6067 -39.5728 -39.4990 -39.4062 -39.3504 -38.9991  -2.0972   2.9873
     3.6799   4.1840   6.1292   7.9069   8.6994   9.2401  10.9034

          k = 0.0000 0.1370 0.3752 (  5318 PWs)   bands (ev):

   -40.6056 -39.5376 -39.4748 -39.4484 -39.3751 -38.9935  -2.0837   2.3268
     4.2140   4.8328   6.2881   6.9978   8.6245   8.9736  11.1510

          k = 0.0000 0.2740 0.0000 (  5297 PWs)   bands (ev):

   -40.6039 -39.5786 -39.5172 -39.3811 -39.3441 -39.0085  -1.9802   2.7049
     4.1932   4.2822   4.7179   7.8528   9.1531   9.6398  10.2767

          k = 0.0000 0.2740 0.1876 (  5293 PWs)   bands (ev):

   -40.6033 -39.5639 -39.5058 -39.3993 -39.3561 -39.0054  -1.9705   2.8419
     3.2120   4.5271   5.9004   7.2033   8.9213   9.6926  10.7473

          k = 0.0000 0.2740 0.3752 (  5299 PWs)   bands (ev):

   -40.6024 -39.5298 -39.4816 -39.4393 -39.3809 -39.0006  -1.9543   2.4834
     3.3180   5.1357   5.3858   7.4255   8.7343   9.7595  10.9509

          k = 0.0000 0.4110 0.0000 (  5290 PWs)   bands (ev):

   -40.6003 -39.5672 -39.5262 -39.3725 -39.3524 -39.0144  -1.8353   2.1121
     4.1746   4.7607   5.1620   6.7464   8.5570   8.5584  11.0337

          k = 0.0000 0.4110 0.1876 (  5289 PWs)   bands (ev):

   -40.5999 -39.5523 -39.5153 -39.3892 -39.3649 -39.0118  -1.8239   2.2594
     3.3619   4.9877   5.4752   6.9043   8.7056   9.3925  10.2532

          k = 0.0000 0.4110 0.3752 (  5307 PWs)   bands (ev):

   -40.5993 -39.5185 -39.4919 -39.4277 -39.3889 -39.0079  -1.8048   2.5851
     2.7418   4.6422   5.5197   8.1051   8.7082  10.0419  10.0591

          k = 0.0000-0.5480 0.0000 (  5284 PWs)   bands (ev):

   -40.5989 -39.5607 -39.5316 -39.3624 -39.3624 -39.0168  -1.7675   1.8833
     4.1673   5.0365   5.6641   6.0184   8.0449   8.3554  11.5841

          k = 0.0000-0.5480 0.1876 (  5288 PWs)   bands (ev):

   -40.5985 -39.5452 -39.5217 -39.3805 -39.3729 -39.0145  -1.7554   2.0243
     3.4637   5.2474   5.2476   6.8449   8.3329   9.2256  10.4192

          k = 0.0000-0.5480 0.3752 (  5274 PWs)   bands (ev):

   -40.5980 -39.5085 -39.5016 -39.4211 -39.3940 -39.0109  -1.7350   2.3399
     2.8636   4.3220   5.7188   8.6827   8.8315   9.1542  10.0904

          k = 0.1370 0.1370 0.0000 (  5287 PWs)   bands (ev):

   -40.6060 -39.5843 -39.5128 -39.3850 -39.3404 -39.0051  -2.0605   3.3362
     3.7845   4.1987   4.5463   8.7465   9.7022   9.7152   9.9476

          k = 0.1370 0.1370 0.1876 (  5309 PWs)   bands (ev):

   -40.6053 -39.5696 -39.5012 -39.4039 -39.3522 -39.0017  -2.0521   3.0205
     3.6118   4.0226   6.0763   7.8573   8.2137   9.6824  11.0031

          k = 0.1370 0.1370 0.3752 (  5298 PWs)   bands (ev):

   -40.6043 -39.5349 -39.4768 -39.4451 -39.3770 -38.9965  -2.0379   2.3811
     4.0702   4.6317   6.3179   6.5138   8.8332   9.4884  10.9911

          k = 0.1370 0.2740 0.0000 (  5282 PWs)   bands (ev):

   -40.6025 -39.5754 -39.5191 -39.3797 -39.3454 -39.0111  -1.9431   2.7656
     4.0244   4.1643   4.8118   7.7272   8.8818   9.0250  10.6601

          k = 0.1370 0.2740 0.1876 (  5295 PWs)   bands (ev):

   -40.6020 -39.5610 -39.5075 -39.3974 -39.3575 -39.0082  -1.9336   2.8874
     3.2687   4.2591   5.8705   7.1412   8.4502   9.1307  11.2292

          k = 0.1370 0.2740 0.3752 (  5302 PWs)   bands (ev):

   -40.6012 -39.5276 -39.4830 -39.4363 -39.3824 -39.0038  -1.9177   2.5378
     3.3622   4.8089   5.4845   6.7482   8.9715   9.4448  10.9515

          k = 0.1370 0.4110 0.0000 (  5295 PWs)   bands (ev):

   -40.5991 -39.5643 -39.5276 -39.3717 -39.3531 -39.0171  -1.8084   2.2153
     4.1304   4.4813   5.2456   6.7283   7.8109   8.5436  11.5194

          k = 0.1370 0.4110 0.1876 (  5295 PWs)   bands (ev):

   -40.5987 -39.5498 -39.5164 -39.3879 -39.3656 -39.0148  -1.7979   2.3610
     3.3926   4.7115   5.5095   6.7423   8.0148   8.8790  10.8099

          k = 0.1370 0.4110 0.3752 (  5303 PWs)   bands (ev):

   -40.5981 -39.5171 -39.4925 -39.4250 -39.3900 -39.0113  -1.7804   2.6746
     2.8102   4.7158   5.2071   7.1563   8.6173   9.0366  10.6786

          k = 0.1370-0.5480 0.0000 (  5288 PWs)   bands (ev):

   -40.5976 -39.5578 -39.5329 -39.3624 -39.3623 -39.0197  -1.7460   2.0001
     4.1165   4.7596   5.7517   6.0263   7.3037   8.3752  12.0685

          k = 0.1370-0.5480 0.1876 (  5284 PWs)   bands (ev):

   -40.5973 -39.5427 -39.5226 -39.3797 -39.3732 -39.0176  -1.7351   2.1415
     3.4832   4.9899   5.3024   6.6461   7.5342   9.0323  10.6627

          k = 0.1370-0.5480 0.3752 (  5308 PWs)   bands (ev):

   -40.5969 -39.5075 -39.5017 -39.4183 -39.3950 -39.0145  -1.7169   2.4594
     2.9196   4.4001   5.4155   7.4004   8.1753   9.1189  10.2480

          k = 0.2740 0.2740 0.0000 (  5271 PWs)   bands (ev):

   -40.5993 -39.5671 -39.5242 -39.3755 -39.3493 -39.0174  -1.8472   2.7788
     3.7323   4.0949   5.0470   7.2765   7.6465   8.7509  11.1361

          k = 0.2740 0.2740 0.1876 (  5289 PWs)   bands (ev):

   -40.5989 -39.5532 -39.5123 -39.3922 -39.3614 -39.0152  -1.8383   2.8905
     3.3968   3.9294   5.7666   6.7731   7.8420   8.2467  12.2336

          k = 0.2740 0.2740 0.3752 (  5296 PWs)   bands (ev):

   -40.5983 -39.5216 -39.4875 -39.4281 -39.3867 -39.0117  -1.8233   2.6944
     3.3272   4.4262   5.6311   5.8694   8.2090   8.8180  11.8148

          k = 0.2740 0.4110 0.0000 (  5284 PWs)   bands (ev):

   -40.5960 -39.5569 -39.5311 -39.3693 -39.3551 -39.0239  -1.7403   2.5049
     3.9703   4.0263   5.4276   6.5429   6.6277   8.5144  11.5106

          k = 0.2740 0.4110 0.1876 (  5291 PWs)   bands (ev):

   -40.5958 -39.5433 -39.5194 -39.3845 -39.3675 -39.0223  -1.7322   2.6439
     3.4822   4.1766   5.5812   6.3686   6.7427   8.3829  11.4745

          k = 0.2740 0.4110 0.3752 (  5296 PWs)   bands (ev):

   -40.5954 -39.5132 -39.4946 -39.4177 -39.3928 -39.0199  -1.7188   2.8895
     3.0436   4.5825   4.9722   6.0940   7.1786   8.2899  11.7965

          k = 0.2740-0.5480 0.0000 (  5290 PWs)   bands (ev):

   -40.5947 -39.5507 -39.5359 -39.3622 -39.3622 -39.0267  -1.6920   2.3501
     3.9981   4.2410   5.8934   6.0078   6.0520   8.4251  11.7632

          k = 0.2740-0.5480 0.1876 (  5294 PWs)   bands (ev):

   -40.5945 -39.5366 -39.5248 -39.3777 -39.3737 -39.0254  -1.6844   2.4933
     3.5363   4.4642   5.4513   6.2106   6.2406   8.5025  11.1425

          k = 0.2740-0.5480 0.3752 (  5292 PWs)   bands (ev):

   -40.5942 -39.5053 -39.5020 -39.4113 -39.3972 -39.0233  -1.6718   2.8181
     3.0810   4.6258   4.8298   6.2875   6.6896   8.0182  11.7124

          k = 0.4110 0.4110 0.0000 (  5284 PWs)   bands (ev):

   -40.5929 -39.5484 -39.5355 -39.3659 -39.3582 -39.0309  -1.6669   2.8452
     3.6798   3.9258   5.3933   5.7186   6.3761   8.4887  11.1979

          k = 0.4110 0.4110 0.1876 (  5301 PWs)   bands (ev):

   -40.5928 -39.5357 -39.5234 -39.3797 -39.3706 -39.0301  -1.6617   2.9755
     3.6134   3.8391   5.5666   5.6637   6.0270   8.0754  11.5778

          k = 0.4110 0.4110 0.3752 (  5304 PWs)   bands (ev):

   -40.5926 -39.5081 -39.4981 -39.4090 -39.3963 -39.0288  -1.6531   3.1399
     3.3637   4.2370   5.2236   5.3622   5.9849   7.4884  12.6735

          k = 0.4110-0.5480 0.0000 (  5300 PWs)   bands (ev):

   -40.5917 -39.5433 -39.5389 -39.3620 -39.3620 -39.0338  -1.6347   2.9316
     3.8171   3.8852   4.7905   6.0201   6.0657   8.4788  11.1045

          k = 0.4110-0.5480 0.1876 (  5308 PWs)   bands (ev):

   -40.5916 -39.5306 -39.5271 -39.3754 -39.3741 -39.0334  -1.6308   3.0781
     3.6102   4.0104   4.9513   5.6669   5.8984   7.9706  11.4936

          k = 0.4110-0.5480 0.3752 (  5316 PWs)   bands (ev):

   -40.5915 -39.5033 -39.5023 -39.4037 -39.3994 -39.0326  -1.6246   3.3097
     3.4164   4.3517   4.9438   5.3802   5.4931   7.1195  12.9191

          k =-0.5480-0.5480 0.0000 (  5324 PWs)   bands (ev):

   -40.5904 -39.5402 -39.5402 -39.3619 -39.3619 -39.0369  -1.6098   3.6581
     3.6581   3.8398   3.8428   6.0739   6.0739   8.5022  10.8611

          k =-0.5480-0.5480 0.1876 (  5300 PWs)   bands (ev):

   -40.5904 -39.5280 -39.5280 -39.3743 -39.3743 -39.0368  -1.6077   3.6800
     3.8025   3.8025   4.0051   5.7681   5.7681   7.7391  11.5999

          k =-0.5480-0.5480 0.3752 (  5312 PWs)   bands (ev):

   -40.5904 -39.5025 -39.5025 -39.4003 -39.4003 -39.0366  -1.6043   3.4498
     4.1626   4.1626   4.3666   5.1775   5.1775   6.7140  13.4002

     the Fermi energy is     5.8249 ev

!    total energy              =     -94.50867457 Ry
     estimated scf accuracy    <          8.8E-12 Ry
     smearing contrib. (-TS)   =       0.00096138 Ry
     internal energy E=F+TS    =     -94.50963594 Ry

     The total energy is F=E-TS. E is the sum of the following terms:
     one-electron contribution =     -40.01575521 Ry
     hartree contribution      =      18.82860890 Ry
     xc contribution           =     -24.25644078 Ry
     ewald contribution        =     -49.06604886 Ry

     convergence has been achieved in   9 iterations

     Forces acting on atoms (cartesian axes, Ry/au):

     atom    1 type  1   force =     0.00000000    0.00000000   -0.00000986
     atom    2 type  1   force =     0.00000000    0.00000000    0.00000986
     atom    3 type  1   force =     0.00000000    0.00000000   -0.00000986
     atom    4 type  1   force =     0.00000000    0.00000000    0.00000986
     atom    5 type  1   force =     0.00000000    0.00000000    0.00000000
     atom    6 type  1   force =     0.00000000    0.00000000    0.00000000
     atom    7 type  2   force =     0.00000000    0.00000000    0.00000000
     The non-local contrib.  to forces
     atom    1 type  1   force =     0.00000000    0.00000000   -0.00662576
     atom    2 type  1   force =     0.00000000    0.00000000    0.00662576
     atom    3 type  1   force =     0.00000000    0.00000000   -0.00662576
     atom    4 type  1   force =     0.00000000    0.00000000    0.00662576
     atom    5 type  1   force =     0.00000000    0.00000000    0.00000000
     atom    6 type  1   force =     0.00000000    0.00000000    0.00000000
     atom    7 type  2   force =     0.00000000    0.00000000    0.00000000
     The ionic contribution  to forces
     atom    1 type  1   force =    -0.00000000    0.00000000    0.01282158
     atom    2 type  1   force =    -0.00000000    0.00000000   -0.01282158
     atom    3 type  1   force =     0.00000000   -0.00000000    0.01282158
     atom    4 type  1   force =     0.00000000   -0.00000000   -0.01282158
     atom    5 type  1   force =    -0.00000000   -0.00000000   -0.00000000
     atom    6 type  1   force =     0.00000000    0.00000000   -0.00000000
     atom    7 type  2   force =    -0.00000000   -0.00000000    0.00000000
     The local contribution  to forces
     atom    1 type  1   force =     0.00000000    0.00000000   -0.00620390
     atom    2 type  1   force =    -0.00000000    0.00000000    0.00620390
     atom    3 type  1   force =     0.00000000    0.00000000   -0.00620390
     atom    4 type  1   force =     0.00000000   -0.00000000    0.00620390
     atom    5 type  1   force =    -0.00000000   -0.00000000   -0.00000000
     atom    6 type  1   force =     0.00000000    0.00000000   -0.00000000
     atom    7 type  2   force =    -0.00000000   -0.00000000   -0.00000000
     The core correction contribution to forces
     atom    1 type  1   force =     0.00000000    0.00000000    0.00000000
     atom    2 type  1   force =     0.00000000    0.00000000    0.00000000
     atom    3 type  1   force =     0.00000000    0.00000000    0.00000000
     atom    4 type  1   force =     0.00000000    0.00000000    0.00000000
     atom    5 type  1   force =     0.00000000    0.00000000    0.00000000
     atom    6 type  1   force =     0.00000000    0.00000000    0.00000000
     atom    7 type  2   force =     0.00000000    0.00000000   -0.00000000
     The Hubbard contrib.    to forces
     atom    1 type  1   force =     0.00000000    0.00000000    0.00000000
     atom    2 type  1   force =     0.00000000    0.00000000    0.00000000
     atom    3 type  1   force =     0.00000000    0.00000000    0.00000000
     atom    4 type  1   force =     0.00000000    0.00000000    0.00000000
     atom    5 type  1   force =     0.00000000    0.00000000    0.00000000
     atom    6 type  1   force =     0.00000000    0.00000000    0.00000000
     atom    7 type  2   force =     0.00000000    0.00000000    0.00000000
     The SCF correction term to forces
     atom    1 type  1   force =    -0.00000000    0.00000000   -0.00000178
     atom    2 type  1   force =    -0.00000000    0.00000000    0.00000178
     atom    3 type  1   force =     0.00000000   -0.00000000   -0.00000178
     atom    4 type  1   force =     0.00000000   -0.00000000    0.00000178
     atom    5 type  1   force =     0.00000000   -0.00000000    0.00000000
     atom    6 type  1   force =    -0.00000000    0.00000000    0.00000000
     atom    7 type  2   force =    -0.00000000    0.00000000    0.00000000

     Total force =     0.000020     Total SCF correction =     0.000004
     SCF correction compared to forces is large: reduce conv_thr to get better values


     Computing stress (Cartesian axis) and pressure

          total   stress  (Ry/bohr**3)                   (kbar)     P=      499.87
   0.00339803   0.00000000   0.00000000          499.87        0.00        0.00
   0.00000000   0.00339803   0.00000000            0.00      499.87        0.00
   0.00000000   0.00000000   0.00339804            0.00        0.00      499.87


     Writing all to output data dir ./output/LiSi.save/

     init_run     :      1.80s CPU      2.09s WALL (       2 calls)
     electrons    :    146.52s CPU    152.50s WALL (      16 calls)
     update_pot   :     10.68s CPU     10.81s WALL (      14 calls)
     forces       :      7.78s CPU      7.92s WALL (      16 calls)
     stress       :     35.98s CPU     37.52s WALL (      16 calls)

     Called by init_run:
     wfcinit      :      0.69s CPU      0.71s WALL (       2 calls)
     potinit      :      0.57s CPU      0.72s WALL (       2 calls)
     hinit0       :      0.46s CPU      0.54s WALL (       2 calls)

     Called by electrons:
     c_bands      :    126.59s CPU    131.21s WALL (     124 calls)
     sum_band     :     18.28s CPU     18.89s WALL (     124 calls)
     v_of_rho     :      1.67s CPU      2.36s WALL (     138 calls)
     mix_rho      :      0.13s CPU      0.20s WALL (     124 calls)

     Called by c_bands:
     init_us_2    :      3.89s CPU      4.19s WALL (   12690 calls)
     init_us_2:cp :      3.88s CPU      4.18s WALL (   12690 calls)
     cegterg      :    118.87s CPU    121.53s WALL (    5580 calls)

     Called by *egterg:
     cdiaghg      :      4.81s CPU      4.94s WALL (   20565 calls)
     h_psi        :    101.14s CPU    103.41s WALL (   21375 calls)
     g_psi        :      0.55s CPU      0.55s WALL (   15705 calls)

     Called by h_psi:
     h_psi:calbec :      7.45s CPU      7.63s WALL (   21375 calls)
     vloc_psi     :     86.87s CPU     88.83s WALL (   21375 calls)
     add_vuspsi   :      6.43s CPU      6.54s WALL (   21375 calls)

     General routines
     calbec       :      9.56s CPU      9.77s WALL (   24975 calls)
     fft          :      1.64s CPU      2.55s WALL (    1780 calls)
     ffts         :      0.06s CPU      0.09s WALL (     124 calls)
     fftw         :     91.74s CPU     93.74s WALL (  540944 calls)

     Parallel routines

     PWSCF        :   3m23.11s CPU   3m31.58s WALL


   This run was terminated on:   3:57:59  30Dec2024            

=------------------------------------------------------------------------------=
   JOB DONE.
=------------------------------------------------------------------------------=
