
     Program PWSCF v.7.2 starts on  4Feb2025 at 14:46:17 

     This program is part of the open-source Quantum ESPRESSO suite
     for quantum simulation of materials; please cite
         "P. Giannozzi et al., J. Phys.:Condens. Matter 21 395502 (2009);
         "P. Giannozzi et al., J. Phys.:Condens. Matter 29 465901 (2017);
         "P. Giannozzi et al., J. Chem. Phys. 152 154105 (2020);
          URL http://www.quantum-espresso.org", 
     in publications or presentations arising from this work. More details at
     http://www.quantum-espresso.org/quote

     Parallel version (MPI & OpenMP), running on      16 processor cores
     Number of MPI processes:                16
     Threads/MPI process:                     1

     MPI processes distributed on     1 nodes
     489835 MiB available memory on the printing compute node when the environment starts

     Waiting for input...
     Reading input from standard input

     Current dimensions of program PWSCF are:
     Max number of different atomic species (ntypx) = 10
     Max number of k-points (npk) =  40000
     Max angular momentum in pseudopotentials (lmaxx) =  4

     R & G space division:  proc/nbgrp/npool/nimage =      16
     Subspace diagonalization in iterative solution of the eigenvalue problem:
     a serial algorithm will be used


     Parallelization info
     --------------------
     sticks:   dense  smooth     PW     G-vecs:    dense   smooth      PW
     Min         110     110     31                 3901     3901     593
     Max         113     113     32                 3902     3902     598
     Sum        1765    1765    499                62429    62429    9515

     Using Slab Decomposition



     bravais-lattice index     =            4
     lattice parameter (alat)  =       8.4138  a.u.
     unit-cell volume          =     541.1596 (a.u.)^3
     number of atoms/cell      =            7
     number of atomic types    =            2
     number of electrons       =        27.00
     number of Kohn-Sham states=           18
     kinetic-energy cutoff     =      90.0000  Ry
     charge density cutoff     =     360.0000  Ry
     scf convergence threshold =      1.0E-08
     mixing beta               =       0.7000
     number of iterations used =            8  plain     mixing
     energy convergence thresh.=      5.0E-04
     force convergence thresh. =      1.0E-03
     press convergence thresh. =      1.0E+00
     Exchange-correlation= PBE
                           (   1   4   3   4   0   0   0)
     nstep                     =           50


     celldm(1)=   8.413820  celldm(2)=   0.000000  celldm(3)=   1.049096
     celldm(4)=   0.000000  celldm(5)=   0.000000  celldm(6)=   0.000000

     crystal axes: (cart. coord. in units of alat)
               a(1) = (   1.000000   0.000000   0.000000 )  
               a(2) = (  -0.500000   0.866025   0.000000 )  
               a(3) = (   0.000000   0.000000   1.049096 )  

     reciprocal axes: (cart. coord. in units 2 pi/alat)
               b(1) = (  1.000000  0.577350 -0.000000 )  
               b(2) = (  0.000000  1.154701  0.000000 )  
               b(3) = (  0.000000 -0.000000  0.953202 )  


     PseudoPot. # 1 for Li read from file:
     ../pseudo/Li_ONCV_PBE_sr.upf
     MD5 check sum: 50ff420e78310ffa21704f3361e624a4
     Pseudo is Norm-conserving, Zval =  3.0
     Generated using ONCVPSP code by D. R. Hamann
     Using radial grid of 1944 points,  4 beta functions with: 
                l(1) =   0
                l(2) =   0
                l(3) =   1
                l(4) =   1

     PseudoPot. # 2 for Si read from file:
     ../pseudo/Si_ONCV_PBE_sr.upf
     MD5 check sum: e543d271109d17c80368dfa7c482276d
     Pseudo is Norm-conserving + core correction, Zval =  4.0
     Generated using ONCVPSP code by D. R. Hamann
     Using radial grid of 1510 points,  6 beta functions with: 
                l(1) =   0
                l(2) =   0
                l(3) =   1
                l(4) =   1
                l(5) =   2
                l(6) =   2

     atomic species   valence    mass     pseudopotential
        Li             3.00     6.94100     Li( 1.00)
        Si             4.00    28.08550     Si( 1.00)

     12 Sym. Ops. (no inversion) found



   Cartesian axes

     site n.     atom                  positions (alat units)
         1           Li  tau(   1) = (   0.0000000   0.0000000   0.5245478  )
         2           Si  tau(   2) = (  -0.2139190   0.3705186   0.1843167  )
         3           Si  tau(   3) = (   0.4278380   0.0000000   0.8647790  )
         4           Si  tau(   4) = (   0.2860810   0.4955068   0.1843167  )
         5           Si  tau(   5) = (  -0.2139190   0.3705186   0.8647790  )
         6           Si  tau(   6) = (   0.4278380   0.0000000   0.1843167  )
         7           Si  tau(   7) = (   0.2860810   0.4955068   0.8647790  )

     number of k points=    72  Marzari-Vanderbilt smearing, width (Ry)=  0.0200
                       cart. coord. in units 2pi/alat
        k(    1) = (   0.0000000   0.0000000   0.0000000), wk =   0.0024691
        k(    2) = (   0.0000000   0.0000000   0.0953202), wk =   0.0049383
        k(    3) = (   0.0000000   0.0000000   0.1906404), wk =   0.0049383
        k(    4) = (   0.0000000   0.0000000   0.2859606), wk =   0.0049383
        k(    5) = (   0.0000000   0.0000000   0.3812808), wk =   0.0049383
        k(    6) = (   0.0000000   0.0000000  -0.4766009), wk =   0.0024691
        k(    7) = (   0.0000000   0.1283001   0.0000000), wk =   0.0148148
        k(    8) = (   0.0000000   0.1283001   0.0953202), wk =   0.0296296
        k(    9) = (   0.0000000   0.1283001   0.1906404), wk =   0.0296296
        k(   10) = (   0.0000000   0.1283001   0.2859606), wk =   0.0296296
        k(   11) = (   0.0000000   0.1283001   0.3812808), wk =   0.0296296
        k(   12) = (   0.0000000   0.1283001  -0.4766009), wk =   0.0148148
        k(   13) = (   0.0000000   0.2566001   0.0000000), wk =   0.0148148
        k(   14) = (   0.0000000   0.2566001   0.0953202), wk =   0.0296296
        k(   15) = (   0.0000000   0.2566001   0.1906404), wk =   0.0296296
        k(   16) = (   0.0000000   0.2566001   0.2859606), wk =   0.0296296
        k(   17) = (   0.0000000   0.2566001   0.3812808), wk =   0.0296296
        k(   18) = (   0.0000000   0.2566001  -0.4766009), wk =   0.0148148
        k(   19) = (   0.0000000   0.3849002   0.0000000), wk =   0.0148148
        k(   20) = (   0.0000000   0.3849002   0.0953202), wk =   0.0296296
        k(   21) = (   0.0000000   0.3849002   0.1906404), wk =   0.0296296
        k(   22) = (   0.0000000   0.3849002   0.2859606), wk =   0.0296296
        k(   23) = (   0.0000000   0.3849002   0.3812808), wk =   0.0296296
        k(   24) = (   0.0000000   0.3849002  -0.4766009), wk =   0.0148148
        k(   25) = (   0.0000000   0.5132002   0.0000000), wk =   0.0148148
        k(   26) = (   0.0000000   0.5132002   0.0953202), wk =   0.0296296
        k(   27) = (   0.0000000   0.5132002   0.1906404), wk =   0.0296296
        k(   28) = (   0.0000000   0.5132002   0.2859606), wk =   0.0296296
        k(   29) = (   0.0000000   0.5132002   0.3812808), wk =   0.0296296
        k(   30) = (   0.0000000   0.5132002  -0.4766009), wk =   0.0148148
        k(   31) = (   0.1111111   0.1924501   0.0000000), wk =   0.0148148
        k(   32) = (   0.1111111   0.1924501   0.0953202), wk =   0.0296296
        k(   33) = (   0.1111111   0.1924501   0.1906404), wk =   0.0296296
        k(   34) = (   0.1111111   0.1924501   0.2859606), wk =   0.0296296
        k(   35) = (   0.1111111   0.1924501   0.3812808), wk =   0.0296296
        k(   36) = (   0.1111111   0.1924501  -0.4766009), wk =   0.0148148
        k(   37) = (   0.1111111   0.3207501   0.0000000), wk =   0.0296296
        k(   38) = (   0.1111111   0.3207501   0.0953202), wk =   0.0592593
        k(   39) = (   0.1111111   0.3207501   0.1906404), wk =   0.0592593
        k(   40) = (   0.1111111   0.3207501   0.2859606), wk =   0.0592593
        k(   41) = (   0.1111111   0.3207501   0.3812808), wk =   0.0592593
        k(   42) = (   0.1111111   0.3207501  -0.4766009), wk =   0.0296296
        k(   43) = (   0.1111111   0.4490502   0.0000000), wk =   0.0296296
        k(   44) = (   0.1111111   0.4490502   0.0953202), wk =   0.0592593
        k(   45) = (   0.1111111   0.4490502   0.1906404), wk =   0.0592593
        k(   46) = (   0.1111111   0.4490502   0.2859606), wk =   0.0592593
        k(   47) = (   0.1111111   0.4490502   0.3812808), wk =   0.0592593
        k(   48) = (   0.1111111   0.4490502  -0.4766009), wk =   0.0296296
        k(   49) = (   0.1111111   0.5773503   0.0000000), wk =   0.0148148
        k(   50) = (   0.1111111   0.5773503   0.0953202), wk =   0.0296296
        k(   51) = (   0.1111111   0.5773503   0.1906404), wk =   0.0296296
        k(   52) = (   0.1111111   0.5773503   0.2859606), wk =   0.0296296
        k(   53) = (   0.1111111   0.5773503   0.3812808), wk =   0.0296296
        k(   54) = (   0.1111111   0.5773503  -0.4766009), wk =   0.0148148
        k(   55) = (   0.2222222   0.3849002   0.0000000), wk =   0.0148148
        k(   56) = (   0.2222222   0.3849002   0.0953202), wk =   0.0296296
        k(   57) = (   0.2222222   0.3849002   0.1906404), wk =   0.0296296
        k(   58) = (   0.2222222   0.3849002   0.2859606), wk =   0.0296296
        k(   59) = (   0.2222222   0.3849002   0.3812808), wk =   0.0296296
        k(   60) = (   0.2222222   0.3849002  -0.4766009), wk =   0.0148148
        k(   61) = (   0.2222222   0.5132002   0.0000000), wk =   0.0296296
        k(   62) = (   0.2222222   0.5132002   0.0953202), wk =   0.0592593
        k(   63) = (   0.2222222   0.5132002   0.1906404), wk =   0.0592593
        k(   64) = (   0.2222222   0.5132002   0.2859606), wk =   0.0592593
        k(   65) = (   0.2222222   0.5132002   0.3812808), wk =   0.0592593
        k(   66) = (   0.2222222   0.5132002  -0.4766009), wk =   0.0296296
        k(   67) = (   0.3333333   0.5773503   0.0000000), wk =   0.0049383
        k(   68) = (   0.3333333   0.5773503   0.0953202), wk =   0.0098765
        k(   69) = (   0.3333333   0.5773503   0.1906404), wk =   0.0098765
        k(   70) = (   0.3333333   0.5773503   0.2859606), wk =   0.0098765
        k(   71) = (   0.3333333   0.5773503   0.3812808), wk =   0.0098765
        k(   72) = (   0.3333333   0.5773503  -0.4766009), wk =   0.0049383

     Dense  grid:    62429 G-vectors     FFT dimensions: (  54,  54,  54)

     Estimated max dynamical RAM per process >      25.76 MB

     Estimated total dynamical RAM >     412.09 MB

     Initial potential from superposition of free atoms

     starting charge      26.9918, renormalised to      27.0000
     Starting wfcs are   26 randomized atomic wfcs

     total cpu time spent up to now is        1.4 secs

     Self-consistent Calculation

     iteration #  1     ecut=    90.00 Ry     beta= 0.70
     CG style diagonalization
     ethr =  1.00E-02,  avg # of iterations =  3.9

     total cpu time spent up to now is        4.5 secs

     total energy              =     -63.09391169 Ry
     estimated scf accuracy    <       0.69884741 Ry

     iteration #  2     ecut=    90.00 Ry     beta= 0.70
     CG style diagonalization
     ethr =  2.59E-03,  avg # of iterations =  4.0

     total cpu time spent up to now is        7.5 secs

     total energy              =     -63.24159014 Ry
     estimated scf accuracy    <       0.83863031 Ry

     iteration #  3     ecut=    90.00 Ry     beta= 0.70
     CG style diagonalization
     ethr =  2.59E-03,  avg # of iterations =  3.5

     total cpu time spent up to now is       10.1 secs

     total energy              =     -63.42006261 Ry
     estimated scf accuracy    <       0.00220787 Ry

     iteration #  4     ecut=    90.00 Ry     beta= 0.70
     CG style diagonalization
     c_bands:  1 eigenvalues not converged
     c_bands:  1 eigenvalues not converged
     c_bands:  2 eigenvalues not converged
     c_bands:  1 eigenvalues not converged
     c_bands:  1 eigenvalues not converged
     c_bands:  2 eigenvalues not converged
     c_bands:  1 eigenvalues not converged
     c_bands:  1 eigenvalues not converged
     c_bands:  1 eigenvalues not converged
     c_bands:  1 eigenvalues not converged
     c_bands:  1 eigenvalues not converged
     c_bands:  1 eigenvalues not converged
     c_bands:  1 eigenvalues not converged
     c_bands:  1 eigenvalues not converged
     c_bands:  1 eigenvalues not converged
     c_bands:  1 eigenvalues not converged
     ethr =  8.18E-06,  avg # of iterations =  6.3

     total cpu time spent up to now is       14.9 secs

     total energy              =     -63.42519224 Ry
     estimated scf accuracy    <       0.00194140 Ry

     iteration #  5     ecut=    90.00 Ry     beta= 0.70
     CG style diagonalization
     c_bands:  1 eigenvalues not converged
     ethr =  7.19E-06,  avg # of iterations =  3.3

     total cpu time spent up to now is       17.3 secs

     total energy              =     -63.42537731 Ry
     estimated scf accuracy    <       0.00009812 Ry

     iteration #  6     ecut=    90.00 Ry     beta= 0.70
     CG style diagonalization
     c_bands:  1 eigenvalues not converged
     ethr =  3.63E-07,  avg # of iterations =  4.2

     total cpu time spent up to now is       20.5 secs

     total energy              =     -63.42542584 Ry
     estimated scf accuracy    <       0.00000764 Ry

     iteration #  7     ecut=    90.00 Ry     beta= 0.70
     CG style diagonalization
     ethr =  2.83E-08,  avg # of iterations =  3.7

     total cpu time spent up to now is       23.3 secs

     total energy              =     -63.42542759 Ry
     estimated scf accuracy    <       0.00000021 Ry

     iteration #  8     ecut=    90.00 Ry     beta= 0.70
     CG style diagonalization
     ethr =  7.70E-10,  avg # of iterations =  4.2

     total cpu time spent up to now is       26.4 secs

     total energy              =     -63.42542772 Ry
     estimated scf accuracy    <       0.00000006 Ry

     iteration #  9     ecut=    90.00 Ry     beta= 0.70
     CG style diagonalization
     ethr =  2.24E-10,  avg # of iterations =  3.3

     total cpu time spent up to now is       28.8 secs

     End of self-consistent calculation

          k = 0.0000 0.0000 0.0000 (  7821 PWs)   bands (ev):

   -33.7112  -4.9875   2.2258   2.4481   3.7966   3.7966   4.6601   5.4100
     5.4100   8.9100   9.5727  11.6665  11.6665  11.7521  11.7521  12.9420
    12.9420  14.3894

          k = 0.0000 0.0000 0.0953 (  7857 PWs)   bands (ev):

   -33.7112  -4.9640   2.0785   2.2435   3.8178   3.8178   5.1564   5.4401
     5.4401   8.7444   9.5770  11.1780  11.1780  11.4695  11.4695  13.4699
    13.4699  14.3582

          k = 0.0000 0.0000 0.1906 (  7821 PWs)   bands (ev):

   -33.7112  -4.9002   1.4263   2.2912   3.8750   3.8750   5.5235   5.5235
     6.1810   8.3676   9.5939  10.4936  10.4936  10.8480  10.8480  14.2749
    14.3897  14.3897

          k = 0.0000 0.0000 0.2860 (  7767 PWs)   bands (ev):

   -33.7112  -4.8162   0.8501   2.3530   3.9497   3.9497   5.6368   5.6368
     7.3338   7.9739   9.6417   9.9247   9.9247  10.2641  10.2641  14.1467
    15.3079  15.3080

          k = 0.0000 0.0000 0.3813 (  7790 PWs)   bands (ev):

   -33.7112  -4.7433   0.4661   2.4058   4.0138   4.0138   5.7391   5.7391
     7.6922   8.3258   9.5508   9.5508   9.7834   9.8624   9.8624  13.6914
    14.3453  16.0229

          k = 0.0000 0.0000-0.4766 (  7766 PWs)   bands (ev):

   -33.7112  -4.7141   0.3312   2.4266   4.0392   4.0392   5.7813   5.7813
     7.5909   8.7116   9.4197   9.4197   9.7190   9.7190   9.9608  13.1452
    14.2269  16.3034

          k = 0.0000 0.1283 0.0000 (  7836 PWs)   bands (ev):

   -33.7112  -4.8844   1.4410   2.5569   3.4317   4.0878   4.7496   5.7626
     5.9881   8.4910  10.0862  10.9058  11.0852  11.4194  11.4426  13.3258
    13.6653  13.8310

          k = 0.0000 0.1283 0.0953 (  7823 PWs)   bands (ev):

   -33.7112  -4.8608   1.4606   2.1847   3.4551   4.1109   5.2435   5.7910
     6.0157   8.2565  10.0842  10.5253  10.6306  11.3652  11.9679  13.3349
    13.3980  14.3311

          k = 0.0000 0.1283 0.1906 (  7811 PWs)   bands (ev):

   -33.7112  -4.7969   1.5136   1.5301   3.5185   4.1726   5.8280   6.0894
     6.3026   7.7702   9.8151   9.9541  10.1718  11.4262  11.7166  13.5439
    13.9773  14.8123

          k = 0.0000 0.1283 0.2860 (  7781 PWs)   bands (ev):

   -33.7112  -4.7127   0.9526   1.5829   3.6018   4.2538   5.9218   6.1940
     7.2953   7.4634   9.2059   9.4699  10.1737  11.1142  11.2671  14.2809
    14.4234  15.0968

          k = 0.0000 0.1283 0.3813 (  7796 PWs)   bands (ev):

   -33.7111  -4.6397   0.5680   1.6421   3.6740   4.3243   5.9978   6.2880
     6.9710   8.5067   8.8017   9.1166  10.2599  10.7949  10.9566  13.7814
    14.7299  15.0894

          k = 0.0000 0.1283-0.4766 (  7802 PWs)   bands (ev):

   -33.7111  -4.6104   0.4329   1.6656   3.7028   4.3526   6.0286   6.3270
     6.8549   8.6582   8.9729   8.9820  10.3639  10.6719  10.8454  13.2194
    14.6477  16.0159

          k = 0.0000 0.2566 0.0000 (  7808 PWs)   bands (ev):

   -33.7111  -4.5802   0.1939   2.8791   2.8901   3.9459   5.0218   6.9017
     7.1881   7.5227   9.6651  10.3002  10.8851  11.0265  11.4134  13.9340
    14.3316  14.8236

          k = 0.0000 0.2566 0.0953 (  7814 PWs)   bands (ev):

   -33.7111  -4.5565   0.2152   2.4988   2.9151   3.9683   5.5268   6.9143
     7.2060   7.2122   9.7890  10.0713  10.3569  11.4176  11.9176  14.0300
    14.1578  14.5954

          k = 0.0000 0.2566 0.1906 (  7806 PWs)   bands (ev):

   -33.7111  -4.4922   0.2730   1.8370   2.9833   4.0273   6.5209   6.6178
     6.9993   7.2793   9.1816   9.5636  11.0520  11.4565  12.6165  13.7431
    13.9517  15.0864

          k = 0.0000 0.2566 0.2860 (  7797 PWs)   bands (ev):

   -33.7111  -4.4075   0.3487   1.2558   3.0735   4.1050   6.0584   7.0178
     7.3441   7.7926   8.5591   9.1264  11.4904  11.7620  12.5416  13.6843
    14.3330  15.1157

          k = 0.0000 0.2566 0.3813 (  7795 PWs)   bands (ev):

   -33.7111  -4.3339   0.4140   0.8692   3.1522   4.1730   5.6996   7.0764
     7.4387   8.1386   8.7569   8.9297  11.5373  11.9553  12.3610  13.9475
    14.0095  15.0661

          k = 0.0000 0.2566-0.4766 (  7786 PWs)   bands (ev):

   -33.7111  -4.3045   0.4399   0.7334   3.1838   4.2005   5.5729   7.0978
     7.4816   7.9833   8.6891   9.4067  11.5698  11.9137  12.3172  13.4541
    14.2083  15.2945

          k = 0.0000 0.3849 0.0000 (  7818 PWs)   bands (ev):

   -33.7111  -4.0988  -0.9856   2.4870   3.3953   3.6604   5.4415   6.4161
     8.0652   8.6034   8.8695   9.7901  10.4794  10.7030  12.8226  13.8899
    15.6719  16.0646

          k = 0.0000 0.3849 0.0953 (  7803 PWs)   bands (ev):

   -33.7111  -4.0749  -0.9634   2.5128   3.0004   3.6797   5.9287   6.0882
     8.2036   8.6507   9.1419   9.5761   9.7629  11.5920  12.8452  14.1360
    14.9331  15.1759

          k = 0.0000 0.3849 0.1906 (  7811 PWs)   bands (ev):

   -33.7111  -4.0099  -0.9033   2.3258   2.5833   3.7307   5.4137   7.0196
     8.3067   8.5651   8.9703   9.2629  10.1194  12.5674  12.9110  14.5503
    14.7527  15.0099

          k = 0.0000 0.3849 0.2860 (  7799 PWs)   bands (ev):

   -33.7110  -3.9242  -0.8243   1.7380   2.6768   3.7976   4.8578   8.0347
     8.1959   8.4252   8.8685   8.9222  11.1766  12.9541  13.3822  14.2435
    14.5070  14.6758

          k = 0.0000 0.3849 0.3813 (  7794 PWs)   bands (ev):

   -33.7110  -3.8498  -0.7561   1.3478   2.7588   3.8561   4.4862   7.6656
     8.4658   8.5622   8.9073   9.3659  12.1775  13.0399  13.5703  13.9377
    14.1336  14.4157

          k = 0.0000 0.3849-0.4766 (  7814 PWs)   bands (ev):

   -33.7110  -3.8200  -0.7289   1.2109   2.7918   3.8801   4.3550   7.5284
     8.4646   8.4863   8.9423   9.8706  12.7734  13.0318  13.2957  13.7472
    14.0381  14.2803

          k = 0.0000 0.5132 0.0000 (  7816 PWs)   bands (ev):

   -33.7110  -3.5588  -1.8880   2.2788   3.4879   4.0054   5.4747   5.8954
     7.5774   9.5436   9.7427  10.1310  10.2690  10.7494  12.3848  12.8255
    14.0061  16.1099

          k = 0.0000 0.5132 0.0953 (  7802 PWs)   bands (ev):

   -33.7110  -3.5344  -1.8658   2.3050   3.5044   3.5843   5.1169   6.4483
     8.0251   9.2006   9.4808   9.9181  10.4583  11.2747  12.4849  12.8860
    14.2842  16.1396

          k = 0.0000 0.5132 0.1906 (  7801 PWs)   bands (ev):

   -33.7110  -3.4681  -1.8056   2.3765   2.8856   3.5516   4.4899   7.5184
     8.4545   8.9051   9.0987  10.0338  10.5365  11.8651  12.7693  13.2253
    14.9971  15.9752

          k = 0.0000 0.5132 0.2860 (  7808 PWs)   bands (ev):

   -33.7110  -3.3806  -1.7266   2.2854   2.4714   3.6109   3.9365   7.8467
     8.6585   8.7449   9.5858  10.3902  10.6980  12.1524  13.0404  14.0207
    15.1010  15.8548

          k = 0.0000 0.5132 0.3813 (  7807 PWs)   bands (ev):

   -33.7110  -3.3045  -1.6583   1.8886   2.5547   3.5579   3.6719   7.4421
     8.4374   9.5718   9.9917  10.5963  11.2947  12.3256  13.5219  14.1069
    14.7764  15.4656

          k = 0.0000 0.5132-0.4766 (  7810 PWs)   bands (ev):

   -33.7110  -3.2739  -1.6310   1.7495   2.5883   3.4321   3.6887   7.2999
     8.3408   9.7216  10.3381  10.6550  11.7383  12.3935  13.4758  14.1376
    14.8452  15.4173

          k = 0.1111 0.1925 0.0000 (  7831 PWs)   bands (ev):

   -33.7112  -4.6804   0.5570   2.7644   2.7726   4.5339   4.9230   5.9050
     7.2127   7.8422  10.0472  10.0896  10.8725  11.1664  11.6388  13.3674
    14.1426  14.9583

          k = 0.1111 0.1925 0.0953 (  7813 PWs)   bands (ev):

   -33.7112  -4.6568   0.5780   2.3951   2.7884   4.5578   5.4151   5.9377
     7.2263   7.5514   9.5950  10.2652  10.9936  11.4451  11.5181  13.3101
    14.2508  14.9499

          k = 0.1111 0.1925 0.1906 (  7807 PWs)   bands (ev):

   -33.7111  -4.5927   0.6347   1.7356   2.8536   4.6231   5.9350   6.5079
     6.9492   7.3222   8.8962  10.2072  11.0331  11.5938  11.7868  13.6016
    13.9267  15.5735

          k = 0.1111 0.1925 0.2860 (  7784 PWs)   bands (ev):

   -33.7111  -4.5081   0.7090   1.1558   2.9398   4.7100   6.0205   6.4372
     7.3965   7.6626   8.3245   9.7884  11.0648  11.3551  12.2731  13.8453
    14.2636  15.1217

          k = 0.1111 0.1925 0.3813 (  7795 PWs)   bands (ev):

   -33.7111  -4.4347   0.7698   0.7729   3.0148   4.7866   6.0834   6.0857
     7.4706   7.9098   8.7777   9.4440  11.0613  11.1573  12.3334  13.9122
    14.3095  15.0660

          k = 0.1111 0.1925-0.4766 (  7796 PWs)   bands (ev):

   -33.7111  -4.4054   0.6343   0.7983   3.0449   4.8178   5.9612   6.1083
     7.5018   7.7794   9.2860   9.3157  10.9867  11.1777  12.2912  13.3675
    14.6123  15.3346

          k = 0.1111 0.3208 0.0000 (  7807 PWs)   bands (ev):

   -33.7111  -4.2840  -0.5301   2.1093   3.1941   4.6066   5.2791   6.7603
     6.8922   8.5059   9.2369   9.2864  10.5889  11.5944  12.3593  14.1170
    14.3668  16.4256

          k = 0.1111 0.3208 0.0953 (  7811 PWs)   bands (ev):

   -33.7111  -4.2603  -0.5080   2.1329   2.8057   4.6307   5.7873   6.5312
     6.7834   8.6599   8.8388   9.5885  10.7926  11.6160  12.3762  13.8846
    14.7084  14.8459

          k = 0.1111 0.3208 0.1906 (  7808 PWs)   bands (ev):

   -33.7111  -4.1956  -0.4480   2.1363   2.1974   4.6921   5.8974   6.7159
     6.9470   8.1758   8.8266  10.0753  10.8637  12.0884  12.4105  13.5746
    14.9480  15.1827

          k = 0.1111 0.3208 0.2860 (  7803 PWs)   bands (ev):

   -33.7111  -4.1103  -0.3694   1.5519   2.2817   4.7722   5.3445   6.8655
     7.5693   8.0915   8.9252   9.8267  11.5711  12.4022  12.4834  13.6581
    14.7612  15.0545

          k = 0.1111 0.3208 0.3813 (  7802 PWs)   bands (ev):

   -33.7111  -4.0363  -0.3015   1.1634   2.3554   4.8405   4.9770   6.9249
     7.2193   8.9906   9.1734   9.5127  11.8649  12.4831  13.0044  13.8703
    14.2250  14.4825

          k = 0.1111 0.3208-0.4766 (  7808 PWs)   bands (ev):

   -33.7111  -4.0067  -0.2744   1.0271   2.3850   4.8382   4.8777   6.9506
     7.0864   9.0363   9.3827   9.6937  11.8415  12.5086  13.5903  13.6365
    13.9049  14.2257

          k = 0.1111 0.4491 0.0000 (  7794 PWs)   bands (ev):

   -33.7110  -3.7419  -1.5419   1.7157   3.7829   4.4465   5.7512   5.8943
     7.8009   8.2158   8.7610  10.1094  10.7807  11.4055  12.2421  14.2066
    14.5369  15.3253

          k = 0.1111 0.4491 0.0953 (  7805 PWs)   bands (ev):

   -33.7110  -3.7178  -1.5193   1.7389   3.3758   4.4673   5.5159   6.2890
     8.0531   8.3280   8.5198  10.2783  10.7677  11.4586  12.3385  14.3033
    14.7602  15.0621

          k = 0.1111 0.4491 0.1906 (  7806 PWs)   bands (ev):

   -33.7110  -3.6523  -1.4580   1.8018   2.6910   4.5177   4.8778   7.3266
     7.7528   8.1984   9.2642  10.2222  10.7701  11.7986  12.7139  14.3950
    14.5244  15.3536

          k = 0.1111 0.4491 0.2860 (  7810 PWs)   bands (ev):

   -33.7110  -3.5659  -1.3774   1.8848   2.0981   4.2935   4.6108   7.1877
     8.2257   8.5750   9.6057  10.2921  11.0951  12.1234  13.2811  14.0825
    14.5381  15.6163

          k = 0.1111 0.4491 0.3813 (  7817 PWs)   bands (ev):

   -33.7110  -3.4908  -1.3077   1.7050   1.9572   3.9243   4.6688   6.8257
     8.3016   9.3812   9.6237  10.5251  11.7058  12.5387  13.2470  14.1504
    14.5255  15.2094

          k = 0.1111 0.4491-0.4766 (  7792 PWs)   bands (ev):

   -33.7110  -3.4607  -1.2798   1.5672   1.9861   3.7934   4.6937   6.6973
     8.3254   9.2832  10.1018  10.5901  12.0628  12.8579  12.9562  14.1830
    14.3467  15.2298

          k = 0.1111 0.5774 0.0000 (  7786 PWs)   bands (ev):

   -33.7110  -3.3529  -2.0951   1.5860   4.2408   4.3758   5.2851   6.0723
     7.3821   8.6108   9.3128   9.7483  11.3271  11.3453  12.0585  13.1855
    14.4941  16.1247

          k = 0.1111 0.5774 0.0953 (  7795 PWs)   bands (ev):

   -33.7110  -3.3283  -2.0726   1.6090   3.8073   4.3934   4.9295   6.6310
     7.8325   8.2516   9.3374   9.9224  11.0397  11.7510  12.0778  13.2287
    14.8127  15.8336

          k = 0.1111 0.5774 0.1906 (  7801 PWs)   bands (ev):

   -33.7110  -3.2617  -2.0118   1.6716   3.1006   4.2727   4.4722   7.6067
     7.7023   8.7707   9.4138   9.9132  10.8846  12.1318  12.4678  13.3716
    15.2364  15.5855

          k = 0.1111 0.5774 0.2860 (  7813 PWs)   bands (ev):

   -33.7110  -3.1736  -1.9319   1.7541   2.4961   3.7279   4.5299   7.0649
     8.8121   9.5352   9.6058   9.7487  11.0420  12.2107  13.2014  13.8004
    14.5590  16.4415

          k = 0.1111 0.5774 0.3813 (  7800 PWs)   bands (ev):

   -33.7110  -3.0970  -1.8629   1.8258   2.0970   3.3570   4.5907   6.7003
     9.3214   9.3324  10.1882  10.3267  11.4553  12.3175  13.7434  13.8039
    14.5885  15.7365

          k = 0.1111 0.5774-0.4766 (  7792 PWs)   bands (ev):

   -33.7110  -3.0662  -1.8353   1.8545   1.9573   3.2267   4.6154   6.5717
     9.2346   9.3934  10.3077  10.8756  11.6963  12.4483  13.2642  14.3396
    14.9245  15.0378

          k = 0.2222 0.3849 0.0000 (  7791 PWs)   bands (ev):

   -33.7110  -3.8113  -1.3429   1.3365   3.6993   5.5718   5.6840   6.1651
     6.8289   8.0205   8.2855  10.0269  10.8809  12.1151  12.4613  14.1294
    14.5499  15.1632

          k = 0.2222 0.3849 0.0953 (  7808 PWs)   bands (ev):

   -33.7110  -3.7874  -1.3199   1.3587   3.2975   5.5777   5.7921   6.1990
     6.8539   7.9407   8.4982  10.4076  10.9187  12.1721  12.1821  13.9223
    14.5791  15.5646

          k = 0.2222 0.3849 0.1906 (  7806 PWs)   bands (ev):

   -33.7110  -3.7222  -1.2576   1.4189   2.6175   5.0945   5.6796   6.8307
     7.1945   7.4577   9.3642  11.0209  11.0387  11.7156  12.3321  13.6025
    14.6723  16.3483

          k = 0.2222 0.3849 0.2860 (  7794 PWs)   bands (ev):

   -33.7110  -3.6362  -1.1756   1.4981   2.0273   4.5249   5.7620   6.7632
     6.9257   8.4938  10.0415  10.9127  11.4813  11.8390  12.3894  13.6504
    14.8416  15.9055

          k = 0.2222 0.3849 0.3813 (  7806 PWs)   bands (ev):

   -33.7110  -3.5616  -1.1047   1.5667   1.6362   4.1453   5.8369   6.4198
     6.9650   9.5557  10.2505  10.7230  11.7466  12.2394  12.6120  13.9602
    14.5343  15.7058

          k = 0.2222 0.3849-0.4766 (  7804 PWs)   bands (ev):

   -33.7110  -3.5317  -1.0764   1.4985   1.5947   4.0123   5.8672   6.2958
     6.9826  10.0454  10.2347  10.7004  11.9071  12.1333  13.1128  14.0166
    14.0850  15.3171

          k = 0.2222 0.5132 0.0000 (  7797 PWs)   bands (ev):

   -33.7110  -3.2467  -2.0990   0.9420   4.3154   5.4168   5.8131   6.1911
     7.3153   7.8085   7.8329   9.4179  10.8508  12.7479  12.7480  14.7859
    14.8079  15.5446

          k = 0.2222 0.5132 0.0953 (  7793 PWs)   bands (ev):

   -33.7110  -3.2225  -2.0757   0.9634   3.8940   5.0104   5.8477   6.7293
     7.4760   7.7647   7.9306   9.6368  11.0531  12.4989  12.7760  14.5291
    14.8221  15.8822

          k = 0.2222 0.5132 0.1906 (  7788 PWs)   bands (ev):

   -33.7110  -3.1567  -2.0122   1.0214   3.1983   4.3371   5.9116   6.8924
     7.7269   7.9732   8.8340   9.9169  11.4876  12.2026  12.8505  13.9933
    14.8801  16.3044

          k = 0.2222 0.5132 0.2860 (  7795 PWs)   bands (ev):

   -33.7110  -3.0698  -1.9287   1.0978   2.6004   3.7552   5.9905   6.3802
     7.9387   8.9843   9.8275  10.1519  11.3412  12.6894  13.0225  13.5443
    14.9526  16.0607

          k = 0.2222 0.5132 0.3813 (  7797 PWs)   bands (ev):

   -33.7110  -2.9942  -1.8562   1.1639   2.2051   3.3700   6.0283   6.0643
     8.0030   9.7746  10.5080  10.5215  11.3332  12.6961  13.2578  13.8973
    14.9398  15.4807

          k = 0.2222 0.5132-0.4766 (  7808 PWs)   bands (ev):

   -33.7110  -2.9640  -1.8273   1.1903   2.0666   3.2350   5.9109   6.0868
     8.0271   9.9204  10.5577  11.0293  11.5325  12.4434  13.4112  14.4842
    14.4998  15.5787

          k = 0.3333 0.5774 0.0000 (  7803 PWs)   bands (ev):

   -33.7110  -2.6747  -2.6747   0.6542   4.8987   4.8987   6.6914   6.6914
     7.2256   7.2256   7.4363   8.7509  10.3736  13.9984  13.9984  14.3952
    15.1588  15.1588

          k = 0.3333 0.5774 0.0953 (  7776 PWs)   bands (ev):

   -33.7110  -2.6507  -2.6507   0.6749   4.4737   4.4737   7.0971   7.0971
     7.1350   7.3903   7.3903   8.8677  10.6837  13.7070  13.7070  14.4106
    15.1762  15.1762

          k = 0.3333 0.5774 0.1906 (  7770 PWs)   bands (ev):

   -33.7110  -2.5854  -2.5854   0.7311   3.7777   3.7777   6.5817   7.2472
     7.2472   8.3604   8.3604   9.0001  11.4734  13.1302  13.1302  14.4518
    15.2212  15.2213

          k = 0.3333 0.5774 0.2860 (  7779 PWs)   bands (ev):

   -33.7110  -2.4992  -2.4992   0.8048   3.1812   3.1812   6.0795   7.3360
     7.3360   9.0761   9.5253   9.5253  12.4841  12.5635  12.5635  14.5050
    15.2925  15.2931

          k = 0.3333 0.5774 0.3813 (  7788 PWs)   bands (ev):

   -33.7110  -2.4244  -2.4244   0.8685   2.7874   2.7874   5.7409   7.4083
     7.4083   9.1182  10.6200  10.6200  12.0853  12.0853  13.5210  14.5501
    15.1527  15.4160

          k = 0.3333 0.5774-0.4766 (  7806 PWs)   bands (ev):

   -33.7110  -2.3944  -2.3944   0.8940   2.6495   2.6495   5.6216   7.4369
     7.4369   9.1322  11.2751  11.2751  11.7285  11.7285  14.3562  14.5183
    14.5677  15.6272

     the Fermi energy is    11.8991 ev

!    total energy              =     -63.42542772 Ry
     estimated scf accuracy    <          2.6E-09 Ry
     smearing contrib. (-TS)   =       0.00097754 Ry
     internal energy E=F+TS    =     -63.42640527 Ry

     The total energy is F=E-TS. E is the sum of the following terms:
     one-electron contribution =      18.29751829 Ry
     hartree contribution      =       6.51246601 Ry
     xc contribution           =     -23.90245868 Ry
     ewald contribution        =     -64.33393089 Ry

     convergence has been achieved in   9 iterations

     Forces acting on atoms (cartesian axes, Ry/au):

     atom    1 type  1   force =     0.00000000    0.00000000    0.00000000
     atom    2 type  2   force =     0.01428417   -0.02474090    1.06769958
     atom    3 type  2   force =    -0.02856833    0.00000000   -1.06769958
     atom    4 type  2   force =     0.01428417    0.02474090    1.06769958
     atom    5 type  2   force =     0.01428417   -0.02474090   -1.06769958
     atom    6 type  2   force =    -0.02856833   -0.00000000    1.06769958
     atom    7 type  2   force =     0.01428417    0.02474090   -1.06769958
     The non-local contrib.  to forces
     atom    1 type  1   force =    -0.00000000    0.00000000    0.00000000
     atom    2 type  2   force =    -0.00106511    0.00184483    0.79681489
     atom    3 type  2   force =     0.00213023   -0.00000000   -0.79681489
     atom    4 type  2   force =    -0.00106511   -0.00184483    0.79681489
     atom    5 type  2   force =    -0.00106511    0.00184483   -0.79681489
     atom    6 type  2   force =     0.00213023   -0.00000000    0.79681489
     atom    7 type  2   force =    -0.00106511   -0.00184483   -0.79681489
     The ionic contribution  to forces
     atom    1 type  1   force =    -0.00000000   -0.00000000   -0.00000000
     atom    2 type  2   force =     0.23659771   -0.40979926    3.08017057
     atom    3 type  2   force =    -0.47319543   -0.00000000   -3.08017057
     atom    4 type  2   force =     0.23659771    0.40979926    3.08017057
     atom    5 type  2   force =     0.23659771   -0.40979926   -3.08017057
     atom    6 type  2   force =    -0.47319543    0.00000000    3.08017057
     atom    7 type  2   force =     0.23659771    0.40979926   -3.08017057
     The local contribution  to forces
     atom    1 type  1   force =     0.00000000    0.00000000    0.00000000
     atom    2 type  2   force =    -0.22030321    0.38157636   -2.75645517
     atom    3 type  2   force =     0.44060643   -0.00000000    2.75645517
     atom    4 type  2   force =    -0.22030321   -0.38157636   -2.75645517
     atom    5 type  2   force =    -0.22030321    0.38157636    2.75645517
     atom    6 type  2   force =     0.44060643   -0.00000000   -2.75645517
     atom    7 type  2   force =    -0.22030321   -0.38157636    2.75645517
     The core correction contribution to forces
     atom    1 type  1   force =     0.00000000    0.00000000    0.00000000
     atom    2 type  2   force =    -0.00094623    0.00163892   -0.05286498
     atom    3 type  2   force =     0.00189246   -0.00000000    0.05286498
     atom    4 type  2   force =    -0.00094623   -0.00163892   -0.05286498
     atom    5 type  2   force =    -0.00094623    0.00163892    0.05286498
     atom    6 type  2   force =     0.00189246   -0.00000000   -0.05286498
     atom    7 type  2   force =    -0.00094623   -0.00163892    0.05286498
     The Hubbard contrib.    to forces
     atom    1 type  1   force =     0.00000000    0.00000000    0.00000000
     atom    2 type  2   force =     0.00000000    0.00000000    0.00000000
     atom    3 type  2   force =     0.00000000    0.00000000    0.00000000
     atom    4 type  2   force =     0.00000000    0.00000000    0.00000000
     atom    5 type  2   force =     0.00000000    0.00000000    0.00000000
     atom    6 type  2   force =     0.00000000    0.00000000    0.00000000
     atom    7 type  2   force =     0.00000000    0.00000000    0.00000000
     The SCF correction term to forces
     atom    1 type  1   force =    -0.00000000   -0.00000000    0.00000000
     atom    2 type  2   force =     0.00000101   -0.00000174    0.00003428
     atom    3 type  2   force =    -0.00000201    0.00000000   -0.00003428
     atom    4 type  2   force =     0.00000101    0.00000174    0.00003428
     atom    5 type  2   force =     0.00000101   -0.00000174   -0.00003428
     atom    6 type  2   force =    -0.00000201    0.00000000    0.00003428
     atom    7 type  2   force =     0.00000101    0.00000174   -0.00003428

     Total force =     2.616255     Total SCF correction =     0.000084


     Computing stress (Cartesian axis) and pressure

          total   stress  (Ry/bohr**3)                   (kbar)     P=     1242.37
   0.00328827  -0.00000000  -0.00000000          483.72       -0.00       -0.00
  -0.00000000   0.00328827  -0.00000000           -0.00      483.72       -0.00
   0.00000000   0.00000000   0.01875983            0.00        0.00     2759.67


     BFGS Geometry Optimization
     Energy error            =      0.0E+00 Ry
     Gradient error          =      1.1E+00 Ry/Bohr
     Cell gradient error     =      2.3E+03 kbar

     number of scf cycles    =   1
     number of bfgs steps    =   0

     enthalpy           new  =     -61.5860634593 Ry

     new trust radius        =       0.5000000000 bohr
ibrav =      4
 celldm(1) =      8.40730619
 celldm(3) =      1.16273961
Input lattice vectors:
     0.99922580    -0.00000000     0.00000000
    -0.49961290     0.86535493     0.00000000
    -0.00000000    -0.00000000     1.16183942
New lattice vectors in INITIAL alat:
     0.99922580     0.00000000     0.00000000
    -0.49961290     0.86535493     0.00000000
     0.00000000     0.00000000     1.16183942
New lattice vectors in NEW alat (for information only):
     1.00000000     0.00000000     0.00000000
    -0.50000000     0.86602540     0.00000000
     0.00000000     0.00000000     1.16273961
Discrepancy in bohr =     0.000000    0.000000    0.000000
     new conv_thr            =       0.0000000100 Ry

     new unit-cell volume =    598.38913 a.u.^3 (    88.67212 Ang^3 )
     density =      3.28568 g/cm^3

CELL_PARAMETERS (alat=  8.41382014)
   0.999225804   0.000000000   0.000000000
  -0.499612902   0.865354930   0.000000000
   0.000000000   0.000000000   1.161839422

ATOMIC_POSITIONS (crystal)
Li            0.0000000000        0.0000000000        0.5000000000
Si            0.0000000000        0.4268878060        0.2095412094
Si            0.4268878060        0.0000000000        0.7904587906
Si            0.5731121940        0.5731121940        0.2095412094
Si            0.0000000000        0.4268878060        0.7904587906
Si            0.4268878060        0.0000000000        0.2095412094
Si            0.5731121940        0.5731121940        0.7904587906



     Writing config-only to output data dir ./output/LiSi.save/
     NEW-OLD atomic charge density approx. for the potential
     extrapolated charge   29.58147, renormalised to   27.00000

     total cpu time spent up to now is       32.2 secs

     Self-consistent Calculation

     iteration #  1     ecut=    90.00 Ry     beta= 0.70
     CG style diagonalization
     c_bands:  2 eigenvalues not converged
     c_bands:  2 eigenvalues not converged
     c_bands:  1 eigenvalues not converged
     c_bands:  5 eigenvalues not converged
     c_bands:  4 eigenvalues not converged
     c_bands:  5 eigenvalues not converged
     c_bands:  3 eigenvalues not converged
     c_bands:  4 eigenvalues not converged
     c_bands:  4 eigenvalues not converged
     c_bands:  3 eigenvalues not converged
     c_bands:  1 eigenvalues not converged
     c_bands:  4 eigenvalues not converged
     c_bands:  5 eigenvalues not converged
     c_bands:  5 eigenvalues not converged
     c_bands:  2 eigenvalues not converged
     c_bands:  4 eigenvalues not converged
     c_bands:  5 eigenvalues not converged
     c_bands:  1 eigenvalues not converged
     c_bands:  4 eigenvalues not converged
     c_bands:  3 eigenvalues not converged
     c_bands:  4 eigenvalues not converged
     c_bands:  5 eigenvalues not converged
     c_bands:  4 eigenvalues not converged
     c_bands:  1 eigenvalues not converged
     c_bands:  4 eigenvalues not converged
     c_bands:  4 eigenvalues not converged
     c_bands:  4 eigenvalues not converged
     c_bands:  4 eigenvalues not converged
     c_bands:  1 eigenvalues not converged
     c_bands:  1 eigenvalues not converged
     c_bands:  4 eigenvalues not converged
     c_bands:  2 eigenvalues not converged
     c_bands:  2 eigenvalues not converged
     c_bands:  3 eigenvalues not converged
     c_bands:  4 eigenvalues not converged
     c_bands:  4 eigenvalues not converged
     ethr =  1.00E-06,  avg # of iterations = 17.6

     total cpu time spent up to now is       44.7 secs

     total energy              =     -64.05635001 Ry
     estimated scf accuracy    <       1.09000171 Ry

     iteration #  2     ecut=    90.00 Ry     beta= 0.70
     CG style diagonalization
     ethr =  4.04E-03,  avg # of iterations =  4.4

     total cpu time spent up to now is       47.9 secs

     total energy              =     -64.29897505 Ry
     estimated scf accuracy    <       3.14937608 Ry

     iteration #  3     ecut=    90.00 Ry     beta= 0.70
     CG style diagonalization
     ethr =  4.04E-03,  avg # of iterations =  3.5

     total cpu time spent up to now is       50.4 secs

     total energy              =     -64.76653648 Ry
     estimated scf accuracy    <       0.03232042 Ry

     iteration #  4     ecut=    90.00 Ry     beta= 0.70
     CG style diagonalization
     ethr =  1.20E-04,  avg # of iterations =  4.6

     total cpu time spent up to now is       53.5 secs

     total energy              =     -64.78530817 Ry
     estimated scf accuracy    <       0.00049188 Ry

     iteration #  5     ecut=    90.00 Ry     beta= 0.70
     CG style diagonalization
     c_bands:  1 eigenvalues not converged
     c_bands:  1 eigenvalues not converged
     c_bands:  1 eigenvalues not converged
     ethr =  1.82E-06,  avg # of iterations =  4.7

     total cpu time spent up to now is       56.8 secs

     total energy              =     -64.78558302 Ry
     estimated scf accuracy    <       0.00005102 Ry

     iteration #  6     ecut=    90.00 Ry     beta= 0.70
     CG style diagonalization
     ethr =  1.89E-07,  avg # of iterations =  3.6

     total cpu time spent up to now is       59.4 secs

     total energy              =     -64.78559361 Ry
     estimated scf accuracy    <       0.00000306 Ry

     iteration #  7     ecut=    90.00 Ry     beta= 0.70
     CG style diagonalization
     ethr =  1.13E-08,  avg # of iterations =  3.8

     total cpu time spent up to now is       62.0 secs

     total energy              =     -64.78559434 Ry
     estimated scf accuracy    <       0.00000032 Ry

     iteration #  8     ecut=    90.00 Ry     beta= 0.70
     CG style diagonalization
     ethr =  1.18E-09,  avg # of iterations =  3.8

     total cpu time spent up to now is       64.6 secs

     End of self-consistent calculation

          k = 0.0000 0.0000 0.0000 (  7821 PWs)   bands (ev):

   -34.9820  -4.4620   0.0818   3.0177   3.1832   4.5904   4.5904   5.7713
     5.7713   6.5352   9.3690   9.3690   9.5246  10.3363  10.3363  10.7863
    10.7863  12.1178

          k = 0.0000 0.0000 0.0861 (  7857 PWs)   bands (ev):

   -34.9820  -4.4299  -0.1380   3.0451   3.5068   4.6211   4.6211   5.8113
     5.8113   6.4322   9.1815   9.1815   9.5266   9.7098   9.7098  11.5050
    11.5050  12.0913

          k = 0.0000 0.0000 0.1721 (  7821 PWs)   bands (ev):

   -34.9820  -4.3396  -0.6095   3.1216   4.2895   4.7070   4.7070   5.9275
     5.9275   6.1740   8.7396   8.7396   9.0179   9.0179   9.5317  11.9921
    12.4660  12.4660

          k = 0.0000 0.0000 0.2582 (  7767 PWs)   bands (ev):

   -34.9820  -4.2118  -1.0919   3.2287   4.8270   4.8270   5.2858   5.8683
     6.1042   6.1042   8.2554   8.2554   8.4412   8.4412   9.5377  11.3954
    12.2120  13.4437

          k = 0.0000 0.0000 0.3443 (  7790 PWs)   bands (ev):

   -34.9820  -4.0897  -1.4482   3.3293   4.9392   4.9392   5.6230   6.2962
     6.2962   6.3060   7.8943   7.8943   8.0106   8.0106   9.5387  10.1789
    12.0606  14.3036

          k = 0.0000 0.0000-0.4304 (  7766 PWs)   bands (ev):

   -34.9820  -4.0369  -1.5819   3.3723   4.9869   4.9869   5.5279   6.3921
     6.3921   6.8704   7.7593   7.7593   7.8354   7.8354   9.4639   9.6039
    12.0308  14.7008

          k = 0.0000 0.1284 0.0000 (  7836 PWs)   bands (ev):

   -34.9820  -4.3554   0.1911   2.1971   3.2768   4.1196   4.6926   6.1246
     6.2943   6.4572   8.7347   9.0945   9.5606  10.0985  10.1431  11.0977
    11.4817  12.6640

          k = 0.0000 0.1284 0.0861 (  7823 PWs)   bands (ev):

   -34.9820  -4.3232  -0.0299   2.2266   3.6012   4.1535   4.7258   5.9860
     6.3266   6.4917   8.4870   8.7334   9.6835  10.0907  10.1619  11.3556
    11.4571  12.8374

          k = 0.0000 0.1284 0.1721 (  7811 PWs)   bands (ev):

   -34.9820  -4.2326  -0.5033   2.3094   4.2484   4.3848   4.8209   5.6564
     6.4135   6.5902   8.0056   8.1459   9.6359   9.8305  10.1521  11.7548
    12.0060  12.6901

          k = 0.0000 0.1284 0.2582 (  7781 PWs)   bands (ev):

   -34.9820  -4.1044  -0.9871   2.4257   4.3854   4.9506   5.2830   5.3874
     6.5384   6.7330   7.4983   7.6411   9.3425   9.4171  10.1848  11.5028
    12.4685  12.5801

          k = 0.0000 0.1284 0.3443 (  7796 PWs)   bands (ev):

   -34.9820  -3.9819  -1.3445   2.5356   4.5175   4.9916   5.0882   6.3834
     6.6877   6.8706   7.1228   7.2753   9.0248   9.1209  10.1038  10.3518
    12.5131  13.2931

          k = 0.0000 0.1284-0.4304 (  7802 PWs)   bands (ev):

   -34.9820  -3.9288  -1.4785   2.5828   4.5754   4.8824   5.1458   6.6775
     6.9012   6.9951   7.0551   7.1196   8.8883   9.0126   9.5498  10.2536
    12.4848  13.7296

          k = 0.0000 0.2568 0.0000 (  7808 PWs)   bands (ev):

   -34.9820  -4.0403   0.5147   0.8891   3.5103   3.5546   4.3880   5.1675
     7.4609   7.7153   7.9549   8.4218   8.5967   9.7787  11.5190  12.0517
    12.6320  12.7873

          k = 0.0000 0.2568 0.0861 (  7814 PWs)   bands (ev):

   -34.9820  -4.0078   0.2899   0.9204   3.5470   3.8800   4.4182   4.9816
     7.4999   7.6611   7.8226   8.2392   8.7048  10.2037  11.5456  11.9749
    12.3572  13.0661

          k = 0.0000 0.2568 0.1721 (  7806 PWs)   bands (ev):

   -34.9820  -3.9165  -0.1892   1.0082   3.6480   4.4824   4.5532   4.7005
     7.2711   7.4988   7.6793   7.9714   9.2995  10.7109  11.5773  11.9967
    12.0451  13.2128

          k = 0.0000 0.2568 0.2582 (  7797 PWs)   bands (ev):

   -34.9820  -3.7870  -0.6773   1.1323   3.7935   4.1152   4.6235   5.6779
     6.7651   7.1585   7.7343   8.0546   9.8793  10.6494  11.5836  11.7747
    12.0031  12.6685

          k = 0.0000 0.2568 0.3443 (  7795 PWs)   bands (ev):

   -34.9820  -3.6630  -1.0377   1.2506   3.7846   3.9371   4.7405   6.3715
     6.6851   6.8884   7.8201   8.1720  10.0755  10.4383  10.5278  11.7033
    12.2807  13.3968

          k = 0.0000 0.2568-0.4304 (  7786 PWs)   bands (ev):

   -34.9820  -3.6092  -1.1730   1.3018   3.6595   4.0009   4.7921   6.2216
     6.7429   7.2889   7.8624   8.2307   9.7383  10.1673  10.3989  11.7438
    12.5519  14.0258

          k = 0.0000 0.3852 0.0000 (  7818 PWs)   bands (ev):

   -34.9819  -3.5389  -0.3479   1.0324   3.0786   3.9848   4.0601   4.0660
     7.0166   7.4447   8.2013   8.7840   9.2812   9.8231  12.6391  13.2797
    13.3651  13.8528

          k = 0.0000 0.3852 0.0861 (  7803 PWs)   bands (ev):

   -34.9819  -3.5060  -0.3162   0.8012   3.1149   3.8506   4.0783   4.3335
     7.2000   7.4083   7.7406   9.0417   9.3616  10.1189  12.8188  13.2350
    13.2926  13.6456

          k = 0.0000 0.3852 0.1721 (  7811 PWs)   bands (ev):

   -34.9819  -3.4132  -0.2273   0.3126   3.2179   3.3987   4.1545   5.1280
     6.8627   7.2068   7.9728   9.2607   9.5125  10.8645  12.9085  12.9528
    13.2123  13.6011

          k = 0.0000 0.3852 0.2582 (  7799 PWs)   bands (ev):

   -34.9819  -3.2814  -0.1870  -0.0970   2.9323   3.3675   4.2592   6.1280
     6.3325   6.8465   8.5905   9.4936   9.8140  11.6022  12.0488  12.6445
    12.8168  13.6134

          k = 0.0000 0.3852 0.3443 (  7794 PWs)   bands (ev):

   -34.9819  -3.1548  -0.5500   0.0210   2.5858   3.5157   4.3581   5.9212
     6.5680   7.1874   8.9111   9.6460  10.3909  10.9606  11.8236  12.1936
    13.0396  13.7042

          k = 0.0000 0.3852-0.4304 (  7814 PWs)   bands (ev):

   -34.9819  -3.0997  -0.6873   0.0733   2.4554   3.5822   4.4006   5.7652
     6.4755   7.7719   8.9960   9.7061  10.0755  11.2989  11.5944  11.8446
    13.3143  13.7984

          k = 0.0000 0.5136 0.0000 (  7816 PWs)   bands (ev):

   -34.9819  -2.9670  -1.3015   1.6421   2.8579   3.1273   3.8660   4.4728
     6.1813   7.1982   7.9935   8.9758  10.5853  11.2176  12.6315  12.9498
    13.4631  14.8160

          k = 0.0000 0.5136 0.0861 (  7802 PWs)   bands (ev):

   -34.9819  -2.9333  -1.2703   1.3985   2.8944   2.9175   3.8910   4.8198
     6.4750   7.0763   7.5453   9.5076  10.6164  11.2593  12.8286  12.9521
    13.4737  14.5855

          k = 0.0000 0.5136 0.1721 (  7801 PWs)   bands (ev):

   -34.9819  -2.8380  -1.1824   0.8911   2.4654   2.9985   3.9604   5.6332
     6.6389   7.0169   7.2255  10.2991  10.7259  11.4082  12.8871  13.3215
    13.5534  13.9684

          k = 0.0000 0.5136 0.2582 (  7808 PWs)   bands (ev):

   -34.9819  -2.7020  -1.0581   0.3810   2.0008   3.1495   4.0570   6.1066
     6.6190   6.7001   8.1069  10.6930  11.0428  11.7899  12.4266  13.1466
    13.6094  14.0043

          k = 0.0000 0.5136 0.3443 (  7807 PWs)   bands (ev):

   -34.9818  -2.5705  -0.9396   0.0050   1.6567   3.2997   4.1472   5.6940
     6.4233   7.6935   8.9445  10.6938  11.2174  11.6523  12.3379  12.5251
    13.5254  14.0938

          k = 0.0000 0.5136-0.4304 (  7810 PWs)   bands (ev):

   -34.9818  -2.5130  -0.8884  -0.1367   1.5275   3.3673   4.1857   5.5360
     6.3325   8.2877   9.3346  10.3662  11.2484  11.7281  11.8515  12.6613
    13.3962  14.3134

          k = 0.1112 0.1926 0.0000 (  7831 PWs)   bands (ev):

   -34.9820  -4.1443   0.4077   1.2795   3.3143   3.4624   5.1240   5.4830
     6.4002   7.7423   7.7694   8.8263   9.2993   9.7064  11.1124  11.1483
    12.7436  13.0114

          k = 0.1112 0.1926 0.0861 (  7813 PWs)   bands (ev):

   -34.9820  -4.1119   0.1842   1.3104   3.3480   3.7889   5.1548   5.3122
     6.4256   7.5179   7.7815   8.7574   9.4356   9.8159  11.0107  11.3562
    12.4739  13.3893

          k = 0.1112 0.1926 0.1721 (  7807 PWs)   bands (ev):

   -34.9820  -4.0208  -0.2929   1.3973   3.4433   4.5751   4.9059   5.2626
     6.4926   7.0174   7.8511   8.4622   9.7623   9.9097  11.0937  11.7895
    12.1407  13.1012

          k = 0.1112 0.1926 0.2582 (  7784 PWs)   bands (ev):

   -34.9820  -3.8918  -0.7796   1.5201   3.5800   4.4813   5.4042   5.5673
     6.4511   6.6672   7.7996   8.2248   9.4934  10.3610  11.1990  11.6748
    12.0979  12.5772

          k = 0.1112 0.1926 0.3443 (  7795 PWs)   bands (ev):

   -34.9820  -3.7683  -1.1389   1.6369   3.7135   4.1587   5.5473   6.0988
     6.5283   6.8146   7.5579   8.2415   9.2455  10.3887  10.4564  11.2810
    12.5484  13.1906

          k = 0.1112 0.1926-0.4304 (  7796 PWs)   bands (ev):

   -34.9820  -3.7147  -1.2738   1.6873   3.7725   4.0363   5.6123   5.9673
     6.7023   7.2546   7.4391   8.2734   9.1414   9.7282  10.4299  11.3023
    12.9007  13.3075

          k = 0.1112 0.3210 0.0000 (  7807 PWs)   bands (ev):

   -34.9819  -3.7327   0.1461   0.8308   2.5961   3.8232   4.5382   5.1320
     6.9211   7.2631   7.5104   9.2149   9.2740   9.7675  11.8684  12.6177
    13.2338  14.1954

          k = 0.1112 0.3210 0.0861 (  7811 PWs)   bands (ev):

   -34.9819  -3.7000   0.1780   0.6024   2.6288   4.1507   4.3331   5.1665
     6.6953   7.3204   7.7191   8.9795   9.5641   9.9072  11.7670  12.6567
    13.4065  14.0379

          k = 0.1112 0.3210 0.1721 (  7808 PWs)   bands (ev):

   -34.9819  -3.6078   0.1172   0.2685   2.7211   3.8797   4.9399   5.2635
     6.2298   7.4057   8.0387   8.8855   9.7985  10.3325  11.6790  12.7173
    13.3376  13.5500

          k = 0.1112 0.3210 0.2582 (  7803 PWs)   bands (ev):

   -34.9819  -3.4771  -0.3748   0.3956   2.8527   3.4152   5.3826   5.7072
     6.0013   7.5028   7.8783   9.2546  10.0144  10.6444  11.9234  12.1149
    12.8914  13.0645

          k = 0.1112 0.3210 0.3443 (  7802 PWs)   bands (ev):

   -34.9819  -3.3516  -0.7381   0.5176   2.9804   3.0690   5.3778   5.5205
     6.9908   7.5625   7.6484   9.5502   9.9867  10.7666  11.2102  12.4629
    12.7263  13.1397

          k = 0.1112 0.3210-0.4304 (  7808 PWs)   bands (ev):

   -34.9819  -3.2971  -0.8746   0.5706   2.9384   3.0365   5.2482   5.5748
     7.4760   7.5032   7.7316   9.6550   9.7833  10.2377  11.8420  12.0607
    12.8386  13.3917

          k = 0.1112 0.4494 0.0000 (  7794 PWs)   bands (ev):

   -34.9819  -3.1651  -0.9172   1.4206   2.1810   3.5432   4.3152   4.9402
     6.4443   6.4889   8.5376   9.0979   9.1677  11.4176  12.7531  13.0415
    13.1985  14.8145

          k = 0.1112 0.4494 0.0861 (  7805 PWs)   bands (ev):

   -34.9819  -3.1318  -0.8852   1.1839   2.2130   3.3244   4.6528   4.9733
     6.2394   6.7859   8.4591   8.9413   9.5850  11.4490  12.7615  12.8914
    13.4145  14.7847

          k = 0.1112 0.4494 0.1721 (  7806 PWs)   bands (ev):

   -34.9819  -3.0379  -0.7949   0.6869   2.3031   2.8587   5.0493   5.4521
     5.8096   7.4525   8.2067   8.9796  10.2554  11.5471  12.5218  12.7513
    13.9176  14.3456

          k = 0.1112 0.4494 0.2582 (  7810 PWs)   bands (ev):

   -34.9819  -2.9042  -0.6669   0.1849   2.3809   2.4330   5.1580   5.3414
     6.4803   7.7067   8.3764   9.2000  10.8754  11.7490  12.1232  12.3614
    13.5696  14.2390

          k = 0.1112 0.4494 0.3443 (  7817 PWs)   bands (ev):

   -34.9819  -2.7754  -0.5442  -0.1853   2.0298   2.5553   4.9733   5.2995
     7.4503   7.5255   8.7836   9.7476  10.7721  11.5433  11.9829  12.2501
    13.3446  13.7702

          k = 0.1112 0.4494-0.4304 (  7792 PWs)   bands (ev):

   -34.9819  -2.7193  -0.4908  -0.3249   1.8974   2.6093   4.8467   5.3464
     7.3567   8.0981   8.8908  10.2074  10.2425  11.3056  12.0280  12.6427
    12.7559  13.9569

          k = 0.1112 0.5778 0.0000 (  7786 PWs)   bands (ev):

   -34.9818  -2.7481  -1.5080   1.8768   2.0461   2.9369   4.6599   4.8578
     5.9800   6.2935   8.7096   9.0226   9.9623  11.6294  12.7884  13.1560
    13.7973  13.9180

          k = 0.1112 0.5778 0.0861 (  7795 PWs)   bands (ev):

   -34.9818  -2.7140  -1.4765   1.6280   2.0776   2.7258   4.8881   5.0095
     6.0819   6.2931   8.4729   9.4019   9.9905  11.6738  12.8008  13.3547
    13.6359  13.9224

          k = 0.1112 0.5778 0.1721 (  7801 PWs)   bands (ev):

   -34.9818  -2.6178  -1.3880   1.1132   2.1645   2.2726   4.9692   5.6547
     5.8266   7.0008   8.1254  10.0694  10.0704  11.8190  12.7752  13.2632
    13.6602  14.1164

          k = 0.1112 0.5778 0.2582 (  7813 PWs)   bands (ev):

   -34.9818  -2.4803  -1.2628   0.5977   1.8007   2.2951   5.0619   5.2239
     6.8418   7.6052   8.0603  10.1810  10.7288  12.1091  12.2817  13.0978
    13.4489  13.9392

          k = 0.1112 0.5778 0.3443 (  7800 PWs)   bands (ev):

   -34.9818  -2.3470  -1.1434   0.2182   1.4542   2.4172   4.8430   5.2129
     7.4042   7.8722   8.8538  10.2951  11.1712  11.3411  12.2420  13.0587
    13.2694  13.4340

          k = 0.1112 0.5778-0.4304 (  7792 PWs)   bands (ev):

   -34.9818  -2.2886  -1.0918   0.0752   1.3240   2.4705   4.7175   5.2574
     7.3016   8.4474   9.2764  10.3880  10.7132  11.4146  11.8797  12.9807
    13.3628  13.6900

          k = 0.2224 0.3852 0.0000 (  7791 PWs)   bands (ev):

   -34.9819  -3.2400  -0.6832   1.3373   1.7471   3.8092   4.2572   5.9767
     6.1141   6.6868   7.3459   8.7724  10.1254  11.6310  11.8775  12.6112
    14.1005  14.7192

          k = 0.2224 0.3852 0.0861 (  7808 PWs)   bands (ev):

   -34.9819  -3.2069  -0.6504   1.1027   1.7781   3.5839   4.5901   5.7780
     6.1593   6.9765   7.3741   9.0161   9.9750  11.6618  11.7702  12.6221
    14.3425  14.7470

          k = 0.2224 0.3852 0.1721 (  7806 PWs)   bands (ev):

   -34.9819  -3.1135  -0.5580   0.6094   1.8642   3.1059   5.2552   5.4768
     6.2655   7.4426   7.6434   9.5403   9.6576  11.5832  11.7490  12.6035
    14.2594  14.8182

          k = 0.2224 0.3852 0.2582 (  7794 PWs)   bands (ev):

   -34.9819  -2.9808  -0.4265   0.1104   1.9857   2.6192   4.8787   6.4087
     6.4102   7.5317   8.2644   9.5102   9.9448  11.6041  11.8933  12.1875
    13.4701  14.4426

          k = 0.2224 0.3852 0.3443 (  7806 PWs)   bands (ev):

   -34.9819  -2.8530  -0.3001  -0.2576   2.1020   2.2588   4.5494   6.5527
     7.3932   7.6541   8.3655   9.9089   9.9733  11.1846  11.9528  12.1419
    13.5034  13.5471

          k = 0.2224 0.3852-0.4304 (  7804 PWs)   bands (ev):

   -34.9819  -2.7973  -0.3959  -0.2450   2.1231   2.1524   4.4248   6.6170
     7.5970   8.0738   8.3072   9.8181  10.2171  10.6944  12.1291  12.6098
    12.7340  13.6916

          k = 0.2224 0.5136 0.0000 (  7797 PWs)   bands (ev):

   -34.9818  -2.6462  -1.4710   1.3247   1.9536   3.0609   4.7771   5.5007
     5.8925   6.4073   8.1869   8.6381  10.4260  11.0382  12.4986  13.5188
    14.4053  15.4125

          k = 0.2224 0.5136 0.0861 (  7793 PWs)   bands (ev):

   -34.9818  -2.6125  -1.4381   1.3538   1.7112   2.8297   5.1118   5.3187
     6.1895   6.4656   8.3016   8.7781  10.2984  11.0830  12.3428  13.5301
    14.6358  15.2565

          k = 0.2224 0.5136 0.1721 (  7788 PWs)   bands (ev):

   -34.9818  -2.5175  -1.3451   1.2044   1.4375   2.3426   4.8923   5.9295
     6.4813   7.0141   8.4580   9.1482  10.0754  11.2336  11.9724  13.5290
    14.4491  15.2074

          k = 0.2224 0.5136 0.2582 (  7795 PWs)   bands (ev):

   -34.9818  -2.3819  -1.2129   0.6967   1.5529   1.8494   4.4637   6.6158
     6.9312   7.8833   8.5947   9.2817  10.1674  11.4174  11.6503  13.2735
    13.4339  14.6553

          k = 0.2224 0.5136 0.3443 (  7797 PWs)   bands (ev):

   -34.9818  -2.2509  -1.0856   0.3222   1.4838   1.6643   4.1441   6.7413
     7.9167   8.5100   8.7078   9.4307  10.3668  10.9926  11.8019  12.6886
    12.8642  14.1229

          k = 0.2224 0.5136-0.4304 (  7808 PWs)   bands (ev):

   -34.9818  -2.1936  -1.0301   0.1812   1.3470   1.7115   4.0239   6.7952
     8.3644   8.6091   8.8694   9.8544  10.1233  10.8279  11.5601  12.4133
    13.1691  13.5837

          k = 0.3336 0.5778 0.0000 (  7803 PWs)   bands (ev):

   -34.9818  -2.0524  -2.0524   1.0052   2.5382   2.5382   5.1324   5.3298
     5.3298   7.7763   7.7763   8.0875  10.1614  11.6668  11.6668  15.2353
    15.3499  15.6569

          k = 0.3336 0.5778 0.0861 (  7776 PWs)   bands (ev):

   -34.9818  -2.0187  -2.0187   1.0336   2.2953   2.2953   4.9549   5.6683
     5.6683   7.8107   7.8107   8.3020  10.2307  11.5047  11.5047  15.0002
    15.3757  15.4889

          k = 0.3336 0.5778 0.1721 (  7770 PWs)   bands (ev):

   -34.9818  -1.9236  -1.9236   1.1129   1.7899   1.7899   4.5603   6.4558
     6.4558   7.9133   7.9133   8.7615  10.4809  11.1180  11.1180  14.5345
    14.7806  15.4479

          k = 0.3336 0.5778 0.2582 (  7779 PWs)   bands (ev):

   -34.9818  -1.7879  -1.7879   1.2243   1.2821   1.2821   4.1459   7.3857
     7.3857   8.1101   8.1101   9.1602  10.6606  10.6606  11.0087  13.6794
    13.6794  14.0219

          k = 0.3336 0.5778 0.3443 (  7788 PWs)   bands (ev):

   -34.9818  -1.6567  -1.6567   0.9078   0.9078   1.3294   3.8370   7.9556
     7.9556   8.7105   8.7105   9.3712  10.1918  10.1918  11.7886  12.6275
    12.6275  13.4414

          k = 0.3336 0.5778-0.4304 (  7806 PWs)   bands (ev):

   -34.9818  -1.5993  -1.5993   0.7668   0.7668   1.3743   3.7212   8.0610
     8.0610   9.4328   9.5048   9.5048   9.6468   9.6468  12.1452  12.1452
    12.4963  12.8467

     the Fermi energy is    10.8326 ev

!    total energy              =     -64.78559444 Ry
     estimated scf accuracy    <          3.2E-09 Ry
     smearing contrib. (-TS)   =       0.00048035 Ry
     internal energy E=F+TS    =     -64.78607480 Ry

     The total energy is F=E-TS. E is the sum of the following terms:
     one-electron contribution =      19.39326346 Ry
     hartree contribution      =       4.70117192 Ry
     xc contribution           =     -23.04843073 Ry
     ewald contribution        =     -65.83207945 Ry

     convergence has been achieved in   8 iterations

     Forces acting on atoms (cartesian axes, Ry/au):

     atom    1 type  1   force =    -0.00000000    0.00000000    0.00000000
     atom    2 type  2   force =     0.00892388   -0.01545661    0.12071651
     atom    3 type  2   force =    -0.01784776    0.00000000   -0.12071651
     atom    4 type  2   force =     0.00892388    0.01545661    0.12071651
     atom    5 type  2   force =     0.00892388   -0.01545661   -0.12071651
     atom    6 type  2   force =    -0.01784776    0.00000000    0.12071651
     atom    7 type  2   force =     0.00892388    0.01545661   -0.12071651
     The non-local contrib.  to forces
     atom    1 type  1   force =    -0.00000000    0.00000000    0.00000000
     atom    2 type  2   force =    -0.00019832    0.00034350    0.14446577
     atom    3 type  2   force =     0.00039664   -0.00000000   -0.14446577
     atom    4 type  2   force =    -0.00019832   -0.00034350    0.14446577
     atom    5 type  2   force =    -0.00019832    0.00034350   -0.14446577
     atom    6 type  2   force =     0.00039664    0.00000000    0.14446577
     atom    7 type  2   force =    -0.00019832   -0.00034350   -0.14446577
     The ionic contribution  to forces
     atom    1 type  1   force =    -0.00000000    0.00000000   -0.00000000
     atom    2 type  2   force =     0.19647715   -0.34030841    1.07099329
     atom    3 type  2   force =    -0.39295430   -0.00000000   -1.07099329
     atom    4 type  2   force =     0.19647715    0.34030841    1.07099329
     atom    5 type  2   force =     0.19647715   -0.34030841   -1.07099329
     atom    6 type  2   force =    -0.39295430   -0.00000000    1.07099329
     atom    7 type  2   force =     0.19647715    0.34030841   -1.07099329
     The local contribution  to forces
     atom    1 type  1   force =     0.00000000    0.00000000    0.00000000
     atom    2 type  2   force =    -0.18636235    0.32278905   -1.08299091
     atom    3 type  2   force =     0.37272469   -0.00000000    1.08299091
     atom    4 type  2   force =    -0.18636235   -0.32278905   -1.08299091
     atom    5 type  2   force =    -0.18636235    0.32278905    1.08299091
     atom    6 type  2   force =     0.37272469   -0.00000000   -1.08299091
     atom    7 type  2   force =    -0.18636235   -0.32278905    1.08299091
     The core correction contribution to forces
     atom    1 type  1   force =     0.00000000    0.00000000    0.00000000
     atom    2 type  2   force =    -0.00098911    0.00171319   -0.01174904
     atom    3 type  2   force =     0.00197822   -0.00000000    0.01174904
     atom    4 type  2   force =    -0.00098911   -0.00171319   -0.01174904
     atom    5 type  2   force =    -0.00098911    0.00171319    0.01174904
     atom    6 type  2   force =     0.00197822   -0.00000000   -0.01174904
     atom    7 type  2   force =    -0.00098911   -0.00171319    0.01174904
     The Hubbard contrib.    to forces
     atom    1 type  1   force =     0.00000000    0.00000000    0.00000000
     atom    2 type  2   force =     0.00000000    0.00000000    0.00000000
     atom    3 type  2   force =     0.00000000    0.00000000    0.00000000
     atom    4 type  2   force =     0.00000000    0.00000000    0.00000000
     atom    5 type  2   force =     0.00000000    0.00000000    0.00000000
     atom    6 type  2   force =     0.00000000    0.00000000    0.00000000
     atom    7 type  2   force =     0.00000000    0.00000000    0.00000000
     The SCF correction term to forces
     atom    1 type  1   force =     0.00000000   -0.00000000   -0.00000000
     atom    2 type  2   force =    -0.00000349    0.00000605   -0.00000261
     atom    3 type  2   force =     0.00000699    0.00000000    0.00000261
     atom    4 type  2   force =    -0.00000349   -0.00000605   -0.00000261
     atom    5 type  2   force =    -0.00000349    0.00000605    0.00000261
     atom    6 type  2   force =     0.00000699    0.00000000   -0.00000261
     atom    7 type  2   force =    -0.00000349   -0.00000605    0.00000261

     Total force =     0.298908     Total SCF correction =     0.000018


     Computing stress (Cartesian axis) and pressure

          total   stress  (Ry/bohr**3)                   (kbar)     P=      400.19
   0.00284591  -0.00000000   0.00000000          418.65       -0.00        0.00
  -0.00000000   0.00284591   0.00000000           -0.00      418.65        0.00
  -0.00000000  -0.00000000   0.00246948           -0.00       -0.00      363.27

     Energy error            =      1.2E+00 Ry
     Gradient error          =      1.2E-01 Ry/Bohr
     Cell gradient error     =      1.4E+02 kbar

     number of scf cycles    =   2
     number of bfgs steps    =   1

     enthalpy           old  =     -61.5860634593 Ry
     enthalpy           new  =     -62.7517111362 Ry

     CASE: enthalpy          _new < enthalpy          _old

     new trust radius        =       0.1802103594 bohr
ibrav =      4
 celldm(1) =      8.27036047
 celldm(3) =      1.13845454
Input lattice vectors:
     0.98294952    -0.00000000    -0.00000000
    -0.49147476     0.85125926    -0.00000000
     0.00000000     0.00000000     1.11904334
New lattice vectors in INITIAL alat:
     0.98294952     0.00000000     0.00000000
    -0.49147476     0.85125926     0.00000000
     0.00000000     0.00000000     1.11904334
New lattice vectors in NEW alat (for information only):
     1.00000000     0.00000000     0.00000000
    -0.50000000     0.86602540     0.00000000
     0.00000000     0.00000000     1.13845454
Discrepancy in bohr =     0.000000    0.000000    0.000000
     new conv_thr            =       0.0000000100 Ry

     new unit-cell volume =    557.72439 a.u.^3 (    82.64623 Ang^3 )
     density =      3.52525 g/cm^3

CELL_PARAMETERS (alat=  8.41382014)
   0.982949521   0.000000000   0.000000000
  -0.491474760   0.851259256   0.000000000
   0.000000000   0.000000000   1.119043340

ATOMIC_POSITIONS (crystal)
Li           -0.0000000000        0.0000000000        0.5000000000
Si            0.0000000000        0.4247578863        0.2207475146
Si            0.4247578863        0.0000000000        0.7792524854
Si            0.5752421137        0.5752421137        0.2207475146
Si            0.0000000000        0.4247578863        0.7792524854
Si            0.4247578863        0.0000000000        0.2207475146
Si            0.5752421137        0.5752421137        0.7792524854



     Writing config-only to output data dir ./output/LiSi.save/
     NEW-OLD atomic charge density approx. for the potential
     extrapolated charge   25.03198, renormalised to   27.00000

     total cpu time spent up to now is       68.0 secs

     Self-consistent Calculation

     iteration #  1     ecut=    90.00 Ry     beta= 0.70
     CG style diagonalization
     c_bands:  1 eigenvalues not converged
     c_bands:  1 eigenvalues not converged
     c_bands:  3 eigenvalues not converged
     c_bands:  3 eigenvalues not converged
     c_bands:  5 eigenvalues not converged
     c_bands:  1 eigenvalues not converged
     c_bands:  2 eigenvalues not converged
     c_bands:  2 eigenvalues not converged
     c_bands:  1 eigenvalues not converged
     c_bands:  1 eigenvalues not converged
     c_bands:  1 eigenvalues not converged
     c_bands:  1 eigenvalues not converged
     c_bands:  1 eigenvalues not converged
     c_bands:  1 eigenvalues not converged
     c_bands:  1 eigenvalues not converged
     c_bands:  1 eigenvalues not converged
     c_bands:  1 eigenvalues not converged
     c_bands:  1 eigenvalues not converged
     c_bands:  1 eigenvalues not converged
     c_bands:  2 eigenvalues not converged
     c_bands:  1 eigenvalues not converged
     c_bands:  1 eigenvalues not converged
     c_bands:  2 eigenvalues not converged
     c_bands:  1 eigenvalues not converged
     c_bands:  1 eigenvalues not converged
     ethr =  1.00E-06,  avg # of iterations = 10.4

     total cpu time spent up to now is       75.7 secs

     total energy              =     -64.72536793 Ry
     estimated scf accuracy    <       0.00642938 Ry

     iteration #  2     ecut=    90.00 Ry     beta= 0.70
     CG style diagonalization
     ethr =  2.38E-05,  avg # of iterations =  4.9

     total cpu time spent up to now is       79.2 secs

     total energy              =     -64.73573459 Ry
     estimated scf accuracy    <       0.02175824 Ry

     iteration #  3     ecut=    90.00 Ry     beta= 0.70
     CG style diagonalization
     ethr =  2.38E-05,  avg # of iterations =  3.5

     total cpu time spent up to now is       81.8 secs

     total energy              =     -64.73726710 Ry
     estimated scf accuracy    <       0.00263497 Ry

     iteration #  4     ecut=    90.00 Ry     beta= 0.70
     CG style diagonalization
     ethr =  9.76E-06,  avg # of iterations =  3.0

     total cpu time spent up to now is       83.9 secs

     total energy              =     -64.73670033 Ry
     estimated scf accuracy    <       0.00138186 Ry

     iteration #  5     ecut=    90.00 Ry     beta= 0.70
     CG style diagonalization
     ethr =  5.12E-06,  avg # of iterations =  3.7

     total cpu time spent up to now is       86.5 secs

     total energy              =     -64.73699920 Ry
     estimated scf accuracy    <       0.00000687 Ry

     iteration #  6     ecut=    90.00 Ry     beta= 0.70
     CG style diagonalization
     ethr =  2.54E-08,  avg # of iterations =  4.8

     total cpu time spent up to now is       89.8 secs

     total energy              =     -64.73701540 Ry
     estimated scf accuracy    <       0.00000349 Ry

     iteration #  7     ecut=    90.00 Ry     beta= 0.70
     CG style diagonalization
     ethr =  1.29E-08,  avg # of iterations =  3.3

     total cpu time spent up to now is       92.2 secs

     total energy              =     -64.73701587 Ry
     estimated scf accuracy    <       0.00000008 Ry

     iteration #  8     ecut=    90.00 Ry     beta= 0.70
     CG style diagonalization
     ethr =  3.10E-10,  avg # of iterations =  4.1

     total cpu time spent up to now is       95.1 secs

     End of self-consistent calculation

          k = 0.0000 0.0000 0.0000 (  7821 PWs)   bands (ev):

   -34.0887  -3.8082   0.9589   3.6346   3.8626   5.6837   5.6837   6.5315
     6.5315   7.5140  10.3458  10.3699  10.3699  11.0017  11.0017  12.3244
    12.3244  12.9550

          k = 0.0000 0.0000 0.0894 (  7857 PWs)   bands (ev):

   -34.0887  -3.7644   0.6418   3.9009   4.0598   5.7271   5.7271   6.5814
     6.5814   7.3679  10.1234  10.1234  10.3498  10.5331  10.5331  12.8920
    12.8920  12.9255

          k = 0.0000 0.0000 0.1787 (  7821 PWs)   bands (ev):

   -34.0887  -3.6379   0.0123   4.0111   5.0149   5.8521   5.8521   6.7296
     6.7296   7.0075   9.5623   9.5623   9.8140   9.8140  10.3605  12.8404
    13.8973  13.8973

          k = 0.0000 0.0000 0.2681 (  7767 PWs)   bands (ev):

   -34.0887  -3.4482  -0.6152   4.1748   6.0379   6.0379   6.1876   6.5806
     6.9686   6.9686   8.9570   8.9570   9.1421   9.1421  10.3728  12.5168
    13.0067  14.9919

          k = 0.0000 0.0000 0.3574 (  7790 PWs)   bands (ev):

   -34.0887  -3.2479  -1.0961   4.3447   6.2241   6.2312   6.2312   7.2693
     7.2693   7.4153   8.4840   8.4840   8.5763   8.5763  10.3729  11.1663
    12.7733  16.0253

          k = 0.0000 0.0000-0.4468 (  7766 PWs)   bands (ev):

   -34.0887  -3.1516  -1.2882   4.4249   6.0775   6.3226   6.3226   7.4675
     7.4675   8.1793   8.2660   8.2660   8.3188   8.3188  10.2082  10.4827
    12.7383  16.5629

          k = 0.0000 0.1305 0.0000 (  7836 PWs)   bands (ev):

   -34.0887  -3.6982   1.0724   3.0600   3.7299   5.0948   5.5615   7.1193
     7.2684   7.3406   9.7238  10.1769  10.1849  10.7614  10.9653  12.4038
    12.9652  13.3359

          k = 0.0000 0.1305 0.0894 (  7823 PWs)   bands (ev):

   -34.0887  -3.6543   0.7534   3.1010   4.1567   5.1415   5.6059   6.9241
     7.3104   7.3840   9.3822   9.6686  10.3872  10.8758  11.0172  12.5932
    12.7571  13.7509

          k = 0.0000 0.1305 0.1787 (  7811 PWs)   bands (ev):

   -34.0887  -3.5275   0.1214   3.2192   5.1130   5.2775   5.7355   6.4736
     7.4270   7.5078   8.8044   8.9498  10.3815  10.6297  11.0347  12.9699
    13.0633  13.9172

          k = 0.0000 0.1305 0.2681 (  7781 PWs)   bands (ev):

   -34.0887  -3.3371  -0.5079   3.3957   5.4857   5.9125   5.9889   6.2888
     7.5967   7.6679   8.2223   8.3358  10.0429  10.1347  11.0850  12.6483
    13.3739  13.7565

          k = 0.0000 0.1305 0.3574 (  7796 PWs)   bands (ev):

   -34.0887  -3.1359  -0.9902   3.5809   5.5556   5.7158   6.1639   7.4889
     7.5498   7.7221   7.9389   8.0742   9.6248   9.7429  11.0009  11.3467
    13.2079  14.7656

          k = 0.0000 0.1305-0.4468 (  7802 PWs)   bands (ev):

   -34.0887  -3.0389  -1.1831   3.6695   5.3896   5.8333   6.2811   7.3672
     7.6026   7.8629   8.1607   8.3600   9.4198   9.5864  10.2995  11.1964
    13.1652  15.3930

          k = 0.0000 0.2611 0.0000 (  7808 PWs)   bands (ev):

   -34.0886  -3.3730   1.4087   1.7193   4.0114   4.4299   5.1808   6.1729
     8.5081   8.6652   8.8845   9.0188   9.7578  10.4279  12.3573  13.2491
    13.5478  14.0930

          k = 0.0000 0.2611 0.0894 (  7814 PWs)   bands (ev):

   -34.0886  -3.3288   1.0834   1.7627   4.4428   4.4780   5.2196   5.9058
     8.5498   8.5675   8.7645   9.2113   9.3627  11.0277  12.4168  13.1450
    13.4885  14.0769

          k = 0.0000 0.2611 0.1787 (  7806 PWs)   bands (ev):

   -34.0886  -3.2009   0.4440   1.8872   4.6184   5.2831   5.3497   5.4484
     8.0524   8.3396   8.7700   8.9703  10.0305  11.5463  12.5166  13.1645
    13.2105  14.4017

          k = 0.0000 0.2611 0.2681 (  7797 PWs)   bands (ev):

   -34.0886  -3.0085  -0.1905   2.0744   4.7492   4.8358   5.5132   6.5788
     7.4198   7.8494   8.9103   9.1184  10.6115  11.4049  12.5997  12.9086
    13.2265  13.8727

          k = 0.0000 0.2611 0.3574 (  7795 PWs)   bands (ev):

   -34.0886  -2.8044  -0.6773   2.2732   4.2937   5.0812   5.6983   6.8916
     7.3955   7.8700   9.0501   9.3163  10.7430  11.1208  11.4525  12.7529
    13.7033  14.3077

          k = 0.0000 0.2611-0.4468 (  7786 PWs)   bands (ev):

   -34.0886  -2.7054  -0.8726   2.3697   4.1088   5.2107   5.7898   6.6650
     7.2574   8.6191   9.1237   9.4309  10.4735  10.7663  11.0333  12.8112
    14.1546  14.3520

          k = 0.0000 0.3916 0.0000 (  7818 PWs)   bands (ev):

   -34.0885  -2.8552   0.4395   1.9481   3.9695   4.4560   4.8377   5.0526
     7.6091   8.3393   9.3829   9.6478  10.2911  10.6505  13.3265  14.3282
    14.5435  15.3034

          k = 0.0000 0.3916 0.0894 (  7803 PWs)   bands (ev):

   -34.0885  -2.8103   0.4828   1.6125   4.0181   4.7231   4.8744   4.9241
     7.9368   8.2228   8.6735  10.1017  10.4004  10.9713  13.5509  14.3490
    14.3789  14.9861

          k = 0.0000 0.3916 0.1787 (  7811 PWs)   bands (ev):

   -34.0885  -2.6805   0.6067   0.9622   4.1358   4.1606   4.9754   5.8754
     7.6273   8.0019   8.8531  10.3208  10.5623  11.8231  13.9512  14.0261
    14.2926  14.6688

          k = 0.0000 0.3916 0.2681 (  7799 PWs)   bands (ev):

   -34.0885  -2.4845   0.3136   0.8008   3.5266   4.3819   5.1256   6.9667
     7.0351   7.5530   9.6924  10.5899  10.7950  12.5167  13.1876  13.8071
    13.9483  14.7156

          k = 0.0000 0.3916 0.3574 (  7794 PWs)   bands (ev):

   -34.0885  -2.2750  -0.1801   1.0011   3.0546   4.6338   5.2798   6.4281
     7.1503   8.3227  10.1583  10.8328  11.2722  11.9348  12.5648  13.3891
    14.4227  14.9184

          k = 0.0000 0.3916-0.4468 (  7814 PWs)   bands (ev):

   -34.0885  -2.1726  -0.3795   1.0988   2.8643   4.7683   5.3518   6.1934
     7.0166   9.1238  10.2746  10.8308  10.9430  11.9265  12.5142  13.1304
    14.7117  15.2442

          k = 0.0000 0.5221 0.0000 (  7816 PWs)   bands (ev):

   -34.0885  -2.2632  -0.5489   2.5897   3.7365   4.0785   4.6475   4.9460
     6.7324   8.0794   9.1801   9.6759  11.6584  12.2319  13.3548  14.0982
    14.5984  15.9188

          k = 0.0000 0.5221 0.0894 (  7802 PWs)   bands (ev):

   -34.0885  -2.2172  -0.5062   2.2330   3.7761   3.7856   4.6813   5.4105
     7.1214   7.9209   8.4840  10.4634  11.6932  12.2802  13.5951  14.0991
    14.6061  15.7656

          k = 0.0000 0.5221 0.1787 (  7801 PWs)   bands (ev):

   -34.0884  -2.0838  -0.3828   1.5565   3.1730   3.9288   4.7768   6.4012
     7.3996   7.7933   8.0494  11.4271  11.8077  12.4466  14.0125  14.2380
    14.6518  15.3018

          k = 0.0000 0.5221 0.2681 (  7808 PWs)   bands (ev):

   -34.0884  -1.8812  -0.1978   0.8949   2.5676   4.1518   4.9160   6.7435
     7.3306   7.6090   9.0905  11.8118  12.2326  12.8978  13.5396  14.4024
    14.7499  15.0263

          k = 0.0000 0.5221 0.3574 (  7807 PWs)   bands (ev):

   -34.0884  -1.6620  -0.0027   0.3848   2.1021   4.4062   5.0560   6.1943
     7.0157   8.8353  10.1240  11.6622  12.4832  12.7106  13.6254  13.6751
    14.4320  15.2916

          k = 0.0000 0.5221-0.4468 (  7810 PWs)   bands (ev):

   -34.0884  -1.5532   0.0921   0.1760   1.9160   4.5429   5.1199   5.9567
     6.8875   9.6512  10.6616  11.1122  12.5434  12.5724  13.1568  14.0807
    14.1254  15.0934

          k = 0.1130 0.1958 0.0000 (  7831 PWs)   bands (ev):

   -34.0886  -3.4804   1.2975   2.1246   3.9149   4.1912   5.9826   6.4904
     7.3745   8.7355   8.7611   9.4390  10.3381  10.3775  11.9783  12.4321
    13.7068  14.1916

          k = 0.1130 0.1958 0.0894 (  7813 PWs)   bands (ev):

   -34.0886  -3.4362   0.9744   2.1674   4.2279   4.3534   6.0219   6.2476
     7.4100   8.4180   8.7954   9.5046  10.3728  10.5189  11.9294  12.5676
    13.6133  14.3797

          k = 0.1130 0.1958 0.1787 (  7807 PWs)   bands (ev):

   -34.0886  -3.3087   0.3375   2.2909   4.3640   5.3068   5.6934   6.1740
     7.5018   7.7919   8.8399   9.3434  10.5111  10.7334  12.0088  12.9903
    13.2993  14.3356

          k = 0.1130 0.1958 0.2681 (  7784 PWs)   bands (ev):

   -34.0886  -3.1170  -0.2953   2.4765   4.5651   5.1299   6.3814   6.4629
     7.1494   7.6885   8.5555   9.3063  10.1952  11.1172  12.1565  12.8219
    13.3426  13.7411

          k = 0.1130 0.1958 0.3574 (  7795 PWs)   bands (ev):

   -34.0886  -2.9139  -0.7806   2.6734   4.6828   4.7862   6.6231   6.6235
     7.6527   7.9274   8.1335   9.4458   9.8751  11.1120  11.3453  12.2886
    13.9660  13.9936

          k = 0.1130 0.1958-0.4468 (  7796 PWs)   bands (ev):

   -34.0886  -2.8156  -0.9750   2.7688   4.5011   4.8987   6.4249   6.7566
     7.8596   7.9295   8.5845   9.5222   9.7315  10.4763  11.0390  12.3247
    13.9590  14.5299

          k = 0.1130 0.3263 0.0000 (  7807 PWs)   bands (ev):

   -34.0886  -3.0554   0.9548   1.7377   3.4246   4.2895   5.5423   5.9799
     7.8797   8.0507   8.3374   9.8725  10.3810  10.7700  13.1173  13.4997
    14.0224  15.6233

          k = 0.1130 0.3263 0.0894 (  7811 PWs)   bands (ev):

   -34.0885  -3.0108   0.9985   1.4065   3.4700   4.7225   5.2427   6.0271
     7.5804   8.3330   8.4202   9.8231  10.5441  10.8597  12.9685  13.5942
    14.2310  15.3282

          k = 0.1130 0.3263 0.1787 (  7808 PWs)   bands (ev):

   -34.0885  -2.8819   0.7589   1.1266   3.5973   4.6347   5.6834   6.1549
     6.9964   8.4540   8.8374   9.7585  10.8168  11.2051  12.8541  13.7321
    14.4291  14.7491

          k = 0.1130 0.3263 0.2681 (  7803 PWs)   bands (ev):

   -34.0885  -2.6875   0.1195   1.3180   3.7890   4.0257   6.2784   6.4077
     6.9184   8.4890   8.7048  10.2575  10.9481  11.5397  13.0711  13.3249
    13.9861  14.1660

          k = 0.1130 0.3263 0.3574 (  7802 PWs)   bands (ev):

   -34.0885  -2.4804  -0.3717   1.5229   3.5513   3.9963   5.8907   6.5683
     8.0796   8.2087   8.7902  10.5564  10.9167  11.7013  12.1223  13.6630
    13.9675  14.4265

          k = 0.1130 0.3263-0.4468 (  7808 PWs)   bands (ev):

   -34.0885  -2.3795  -0.5693   1.6231   3.3591   4.0991   5.7023   6.6769
     7.9881   8.7549   9.0249  10.4691  10.9163  10.9401  12.5050  13.6040
[...]

   -33.9030  -2.3395   0.8678   3.3511   3.9804   4.7259   5.1923   6.3807
     7.7184   9.3232   9.6525  10.1328  10.5213  10.6673  13.3661  14.1388
    15.3615  16.3461

          k = 0.0000 0.3849 0.0953 (  7803 PWs)   bands (ev):

   -33.9030  -2.2753   0.9302   2.6837   4.0451   5.2028   5.5130   5.7849
     8.3810   8.9510   9.1237  10.1037  10.6938  11.3674  13.6185  14.2667
    15.0819  15.6630

          k = 0.0000 0.3849 0.1906 (  7811 PWs)   bands (ev):

   -33.9030  -2.0832   1.1141   1.7076   4.2360   4.8002   5.3832   6.8374
     7.9420   8.5088   9.5969  10.2610  10.8579  12.3765  13.9780  14.5400
    14.5939  15.3321

          k = 0.0000 0.3849 0.2860 (  7799 PWs)   bands (ev):

   -33.9030  -1.7647   0.7795   1.4384   3.9150   4.5541   5.6492   7.0470
     7.7669   8.3795  10.5035  10.6470  11.1289  12.7900  14.0830  14.2764
    14.7026  15.1117

          k = 0.0000 0.3849 0.3813 (  7794 PWs)   bands (ev):

   -33.9030  -1.3252  -0.0209   1.8651   3.1334   4.9932   5.9953   6.2629
     7.1936   9.8763  10.8318  11.1730  11.5308  12.4504  13.1661  14.4427
    14.8340  15.3705

          k = 0.0000 0.3849-0.4766 (  7814 PWs)   bands (ev):

   -33.9030  -0.8859  -0.5820   2.2995   2.5805   5.4696   5.6599   6.2783
     6.8301  11.0552  11.1341  11.2653  11.8503  11.8577  12.1186  14.8452
    15.0652  15.6062

          k = 0.0000 0.5132 0.0000 (  7816 PWs)   bands (ev):

   -33.9029  -1.7756  -0.0955   3.7544   4.0039   4.9970   5.2338   5.3866
     6.8931   9.0733   9.5946  10.3285  11.5362  12.3541  13.5074  13.7492
    14.6106  16.8391

          k = 0.0000 0.5132 0.0953 (  7802 PWs)   bands (ev):

   -33.9029  -1.7109  -0.0332   3.2895   3.8184   4.7667   5.0684   6.0536
     7.5793   8.7153   8.9282  11.1812  11.5966  12.4150  13.7052  13.9432
    14.6391  16.5746

          k = 0.0000 0.5132 0.1906 (  7803 PWs)   bands (ev):

   -33.9029  -1.5169   0.1531   2.2890   3.8341   4.0141   5.2242   7.3609
     7.7303   8.3140   8.8465  11.7078  12.3390  12.6324  13.8074  14.7180
    14.8197  16.0402

          k = 0.0000 0.5132 0.2860 (  7808 PWs)   bands (ev):

   -33.9029  -1.1947   0.4603   1.3638   2.9557   4.3289   5.4787   6.8364
     7.6560   8.8245  10.1331  11.9064  12.8112  13.4897  13.8020  14.8250
    15.1802  15.4482

          k = 0.0000 0.5132 0.3813 (  7807 PWs)   bands (ev):

   -33.9029  -0.7473   0.5382   0.8931   2.1819   4.7691   5.8005   6.0491
     7.0698  10.3043  11.3691  12.0423  13.1559  13.3394  13.9278  14.6610
    15.0672  15.3616

          k = 0.0000 0.5132-0.4766 (  7810 PWs)   bands (ev):

   -33.9029  -0.2595  -0.0680   1.2819   1.6702   5.2442   5.4413   6.0477
     6.7458  11.6009  11.6273  12.1378  12.6260  13.5062  13.7198  14.4997
    14.8846  15.2118

          k = 0.1111 0.1924 0.0000 (  7831 PWs)   bands (ev):

   -33.9031  -2.9362   2.5631   2.7059   4.1391   4.3386   6.1165   7.4604
     7.8557   8.9207   9.2730   9.7354  10.0450  11.4806  11.7986  13.2710
    13.8781  15.2256

          k = 0.1111 0.1924 0.0953 (  7813 PWs)   bands (ev):

   -33.9031  -2.8723   2.0653   2.6256   4.3033   4.9890   6.1726   7.3181
     7.5159   8.9759   9.0052   9.6163  10.5488  11.2888  11.8140  13.3224
    14.0295  15.1994

          k = 0.1111 0.1924 0.1906 (  7807 PWs)   bands (ev):

   -33.9031  -2.6813   1.0972   2.8125   4.4959   6.2689   6.2804   6.5203
     7.6802   8.0753   9.1360   9.6315  10.5127  11.3286  11.9906  13.6499
    13.9451  15.0831

          k = 0.1111 0.1924 0.2860 (  7784 PWs)   bands (ev):

   -33.9031  -2.3651   0.1876   3.1225   4.8046   5.5520   6.6761   7.1577
     7.8064   7.9573   8.8751   9.5763  10.0269  11.3230  12.2563  13.7497
    14.4015  14.7481

          k = 0.1111 0.1924 0.3813 (  7795 PWs)   bands (ev):

   -33.9031  -1.9315  -0.6090   3.5511   4.7901   5.2324   6.4312   7.0750
     8.2404   8.3155   9.2476   9.5591   9.9289  10.9097  12.4865  12.8545
    13.6588  15.5584

          k = 0.1111 0.1924-0.4766 (  7796 PWs)   bands (ev):

   -33.9031  -1.5222  -1.1401   4.0022   4.2257   5.7603   5.7934   7.4710
     7.7527   8.6180   9.0510  10.3944  10.3983  10.7570  11.3800  12.7116
    13.4259  16.7710

          k = 0.1111 0.3207 0.0000 (  7807 PWs)   bands (ev):

   -33.9031  -2.5304   1.3817   3.1412   3.5381   4.5963   6.1475   6.8968
     8.1199   8.4704   8.8752   9.6791  10.7655  11.4927  13.1500  13.9856
    14.1978  15.8279

          k = 0.1111 0.3207 0.0953 (  7811 PWs)   bands (ev):

   -33.9030  -2.4664   1.4445   2.4811   3.6115   5.3509   6.1556   6.3191
     8.2507   8.4487   8.8429  10.0333  10.8164  11.4349  13.1997  13.7910
    14.5457  15.8819

          k = 0.1111 0.3207 0.1906 (  7810 PWs)   bands (ev):

   -33.9030  -2.2747   1.4980   1.6418   3.7966   5.3096   6.3862   6.6313
     7.4045   8.6129   9.3954  10.2127  10.9724  11.6562  13.2575  13.8253
    14.8598  15.7615

          k = 0.1111 0.3207 0.2860 (  7803 PWs)   bands (ev):

   -33.9030  -1.9570   0.5915   1.9492   4.0991   4.4288   6.4180   6.7475
     8.1474   8.7147   9.0928  10.5443  11.2513  11.9191  13.5990  14.2240
    14.6196  14.8758

          k = 0.1111 0.3207 0.3813 (  7802 PWs)   bands (ev):

   -33.9030  -1.5197  -0.2092   2.3837   3.6413   4.5218   5.7191   7.1028
     8.1786   9.3085   9.7064  10.2923  11.5885  12.1613  13.0530  14.0773
    14.7487  15.0226

          k = 0.1111 0.3207-0.4766 (  7808 PWs)   bands (ev):

   -33.9030  -1.0917  -0.7591   2.8466   3.0609   4.9784   5.1548   7.5898
     7.6111   9.5979   9.9320  11.1298  11.6583  11.8926  12.0222  14.3839
    14.5721  15.8389

          k = 0.1111 0.4490 0.0000 (  7794 PWs)   bands (ev):

   -33.9030  -1.9697   0.2935   3.1494   3.7572   5.0708   5.8587   5.9886
     7.1959   8.4062   9.4392   9.8722  11.3235  12.5110  13.5828  14.0755
    15.2188  15.7240

          k = 0.1111 0.4490 0.0953 (  7805 PWs)   bands (ev):

   -33.9030  -1.9053   0.3565   3.0500   3.2324   5.2005   5.8748   6.0456
     7.7899   7.9802   9.6471   9.9578  11.3936  12.5612  13.6375  14.4683
    14.8452  15.7838

          k = 0.1111 0.4490 0.1906 (  7807 PWs)   bands (ev):

   -33.9029  -1.7124   0.5449   2.0778   3.3965   4.2579   6.1855   6.9205
     7.2646   8.9638   9.5192  10.1212  11.9931  12.7075  13.7299  14.2705
    15.3371  15.9249

          k = 0.1111 0.4490 0.2860 (  7810 PWs)   bands (ev):

   -33.9029  -1.3923   0.8512   1.1660   3.3471   3.7143   6.0142   6.6014
     8.5667   8.7405  10.3569  10.4101  12.5621  12.9441  13.7328  14.1861
    15.6499  15.8521

          k = 0.1111 0.4490 0.3813 (  7817 PWs)   bands (ev):

   -33.9029  -0.9491   0.3452   1.2962   2.5686   4.1199   5.3210   6.9396
     8.0256  10.1460  10.6914  11.1689  12.7695  13.0853  13.3120  14.6945
    15.1440  15.5444

          k = 0.1111 0.4490-0.4766 (  7792 PWs)   bands (ev):

   -33.9029  -0.4879  -0.2373   1.7340   2.0112   4.5436   4.7912   7.3388
     7.5330  10.9528  10.9927  11.6027  12.1074  13.0691  13.3575  14.7639
    15.0537  15.6763

          k = 0.1111 0.5773 0.0000 (  7786 PWs)   bands (ev):

   -33.9029  -1.5581  -0.3017   3.0228   4.2632   5.1946   5.4040   5.9190
     6.6953   8.2605   9.3629  11.0281  11.2492  12.3481  14.0482  14.1029
    14.8944  16.0883

          k = 0.1111 0.5773 0.0953 (  7795 PWs)   bands (ev):

   -33.9029  -1.4931  -0.2391   3.0819   3.5255   4.5878   5.9707   6.2471
     7.3472   7.7766   9.5653  11.0804  11.3539  12.4133  14.0970  14.5042
    14.9124  15.7105

          k = 0.1111 0.5773 0.1906 (  7801 PWs)   bands (ev):

   -33.9029  -1.2984  -0.0518   2.5154   3.2460   3.6693   6.1017   6.8700
     7.5678   8.6045   9.3209  11.2328  12.0546  12.5698  14.2325  14.9113
    14.9815  15.4862

          k = 0.1111 0.5773 0.2860 (  7813 PWs)   bands (ev):

   -33.9029  -0.9749   0.2582   1.5840   2.7472   3.5831   5.8830   6.5397
     8.5900   8.9933  10.0432  11.4647  12.6734  13.1439  14.2078  14.4429
    14.8664  16.2486

          k = 0.1111 0.5773 0.3813 (  7800 PWs)   bands (ev):

   -33.9029  -0.5248   0.6828   0.7645   1.9762   3.9900   5.1928   6.8696
     7.9661  10.4151  11.3336  11.6929  12.8105  13.6347  13.8732  14.2769
    14.6553  15.6883

          k = 0.1111 0.5773-0.4766 (  7792 PWs)   bands (ev):

   -33.9029  -0.0160   0.1320   1.0824   1.4590   4.4045   4.6728   7.2398
     7.4999  11.4306  11.5802  12.1588  12.6945  13.4004  13.7471  13.9854
    14.4756  15.7241

          k = 0.2222 0.3849 0.0000 (  7791 PWs)   bands (ev):

   -33.9030  -2.0429   0.5374   2.7217   3.6660   5.0181   6.1881   6.9964
     7.5211   7.8989   8.4707   9.2765  12.3667  12.7658  13.4133  14.0173
    14.9648  15.3173

          k = 0.2222 0.3849 0.0953 (  7808 PWs)   bands (ev):

   -33.9030  -1.9786   0.6013   2.7578   3.0146   5.4958   5.7927   7.1716
     7.3536   8.1577   8.5548   9.7915  11.9944  12.8325  13.4493  13.7285
    15.4220  15.4708

          k = 0.2222 0.3849 0.1906 (  7806 PWs)   bands (ev):

   -33.9030  -1.7861   0.7927   1.9921   2.9748   4.5254   6.4181   7.1745
     7.3709   8.7189   9.1877  10.4802  11.4222  12.9793  13.4308  13.5659
    15.6163  16.1844

          k = 0.2222 0.3849 0.2860 (  7794 PWs)   bands (ev):

   -33.9029  -1.4668   1.0785   1.1105   3.2640   3.6203   5.6295   7.6664
     8.5794   8.9759   9.5948  10.6485  11.5542  13.1880  13.5838  13.8229
    15.5683  16.1238

          k = 0.2222 0.3849 0.3813 (  7806 PWs)   bands (ev):

   -33.9029  -1.0253   0.2731   1.5521   2.8203   3.6612   4.9069   8.0621
     9.1722   9.2830  10.0202  10.4554  12.5177  13.0953  13.3920  14.6059
    15.0568  15.7880

          k = 0.2222 0.3849-0.4766 (  7804 PWs)   bands (ev):

   -33.9029  -0.5735  -0.3008   2.0392   2.2130   4.0165   4.4417   8.4307
     8.7452   9.5135  10.0488  11.5112  11.9681  13.1507  13.4257  14.9008
    15.0778  15.8336

          k = 0.2222 0.5132 0.0000 (  7797 PWs)   bands (ev):

   -33.9029  -1.4526  -0.2646   2.3228   4.3182   5.4145   5.5203   6.6008
     7.4115   7.4427   9.0179   9.5237  11.8469  12.6614  14.7145  14.7360
    15.2857  16.4851

          k = 0.2222 0.5132 0.0953 (  7795 PWs)   bands (ev):

   -33.9029  -1.3879  -0.2006   2.3800   3.6053   4.7241   6.3272   6.8723
     7.3324   7.6022   9.5019   9.6031  11.8852  12.3476  14.3618  14.7830
    15.7244  16.4824

          k = 0.2222 0.5132 0.1906 (  7788 PWs)   bands (ev):

   -33.9029  -1.1942  -0.0089   2.5150   2.6445   3.7476   6.0317   7.6403
     7.6604   8.6504   9.7317  10.2447  11.8967  12.0504  13.7108  14.8870
    16.1291  16.5687

          k = 0.2222 0.5132 0.2860 (  7795 PWs)   bands (ev):

   -33.9029  -0.8725   0.3092   1.6755   2.7747   2.9087   5.2264   7.9345
     9.0533   9.5530  10.0222  10.5339  11.9918  12.3157  13.2839  14.9391
    15.6860  16.0772

          k = 0.2222 0.5132 0.3813 (  7798 PWs)   bands (ev):

   -33.9029  -0.4256   0.7473   0.8662   2.0266   3.2370   4.5184   8.3264
     9.3249  10.2527  10.4685  11.1921  12.3415  12.5181  13.4325  14.5456
    14.7579  15.7751

          k = 0.2222 0.5132-0.4766 (  7808 PWs)   bands (ev):

   -33.9029   0.0635   0.2503   1.2261   1.4321   3.5509   4.0936   8.7669
     8.8502  10.6332  10.6805  11.7883  12.3276  13.2095  13.5695  13.6821
    14.0894  16.1248

          k = 0.3333 0.5773 0.0000 (  7803 PWs)   bands (ev):

   -33.9029  -0.8542  -0.8542   2.0135   4.9224   4.9224   6.0540   6.0540
     6.9946   8.8190   8.8190   8.8337  10.9195  13.9313  13.9313  16.4302
    16.4303  16.7136

          k = 0.3333 0.5773 0.0953 (  7776 PWs)   bands (ev):

   -33.9029  -0.7895  -0.7895   2.0708   4.1950   4.1950   6.5235   6.8756
     6.8756   8.8794   8.8794   9.3663  10.9629  13.5447  13.5447  16.3859
    16.7365  16.7678

          k = 0.3333 0.5773 0.1906 (  7770 PWs)   bands (ev):

   -33.9029  -0.5959  -0.5959   2.2416   3.1945   3.1945   5.7090   8.1351
     8.1351   9.0679   9.0679  10.3160  11.1087  12.8193  12.8193  15.7329
    16.7590  16.7591

          k = 0.3333 0.5773 0.2860 (  7779 PWs)   bands (ev):

   -33.9029  -0.2741  -0.2741   2.2703   2.2703   2.5211   4.9125   9.1957
     9.1957   9.5806   9.5806  11.0089  11.5377  12.1823  12.1823  15.3791
    16.0992  16.0992

          k = 0.3333 0.5773 0.3813 (  7788 PWs)   bands (ev):

   -33.9029   0.1734   0.1734   1.4563   1.4563   2.8886   4.2232   9.6382
     9.6382  10.3167  10.3167  11.2427  12.1017  12.1827  12.1827  14.8256
    14.8256  15.5367

          k = 0.3333 0.5773-0.4766 (  7806 PWs)   bands (ev):

   -33.9029   0.6760   0.6760   0.8310   0.8310   3.1665   3.8366   9.9405
     9.9405  10.2559  10.2559  11.3194  12.2836  13.0823  13.0823  13.6059
    13.6059  15.9357

     the Fermi energy is    12.2925 ev

!    total energy              =     -64.76581690 Ry
     estimated scf accuracy    <          9.6E-12 Ry
     smearing contrib. (-TS)   =       0.00025942 Ry
     internal energy E=F+TS    =     -64.76607632 Ry

     The total energy is F=E-TS. E is the sum of the following terms:
     one-electron contribution =      23.75537445 Ry
     hartree contribution      =       3.98597178 Ry
     xc contribution           =     -23.30302278 Ry
     ewald contribution        =     -69.20439977 Ry

     convergence has been achieved in  10 iterations

     Forces acting on atoms (cartesian axes, Ry/au):

     atom    1 type  1   force =     0.00000000    0.00000000    0.00000000
     atom    2 type  2   force =     0.00000065   -0.00000113    0.00003160
     atom    3 type  2   force =    -0.00000131   -0.00000000   -0.00003160
     atom    4 type  2   force =     0.00000065    0.00000113    0.00003160
     atom    5 type  2   force =     0.00000065   -0.00000113   -0.00003160
     atom    6 type  2   force =    -0.00000131   -0.00000000    0.00003160
     atom    7 type  2   force =     0.00000065    0.00000113   -0.00003160
     The non-local contrib.  to forces
     atom    1 type  1   force =    -0.00000000   -0.00000000    0.00000000
     atom    2 type  2   force =    -0.00384328    0.00665676    0.02569516
     atom    3 type  2   force =     0.00768656   -0.00000000   -0.02569516
     atom    4 type  2   force =    -0.00384328   -0.00665676    0.02569516
     atom    5 type  2   force =    -0.00384328    0.00665676   -0.02569516
     atom    6 type  2   force =     0.00768656   -0.00000000    0.02569516
     atom    7 type  2   force =    -0.00384328   -0.00665676   -0.02569516
     The ionic contribution  to forces
     atom    1 type  1   force =    -0.00000000    0.00000000   -0.00000000
     atom    2 type  2   force =     0.12265308   -0.21244137   -0.36746141
     atom    3 type  2   force =    -0.24530616   -0.00000000    0.36746141
     atom    4 type  2   force =     0.12265308    0.21244137   -0.36746141
     atom    5 type  2   force =     0.12265308   -0.21244137    0.36746141
     atom    6 type  2   force =    -0.24530616   -0.00000000   -0.36746141
     atom    7 type  2   force =     0.12265308    0.21244137    0.36746141
     The local contribution  to forces
     atom    1 type  1   force =     0.00000000    0.00000000    0.00000000
     atom    2 type  2   force =    -0.11815486    0.20465022    0.34373498
     atom    3 type  2   force =     0.23630972   -0.00000000   -0.34373498
     atom    4 type  2   force =    -0.11815486   -0.20465022    0.34373498
     atom    5 type  2   force =    -0.11815486    0.20465022   -0.34373498
     atom    6 type  2   force =     0.23630972   -0.00000000    0.34373498
     atom    7 type  2   force =    -0.11815486   -0.20465022   -0.34373498
     The core correction contribution to forces
     atom    1 type  1   force =     0.00000000    0.00000000    0.00000000
     atom    2 type  2   force =    -0.00065450    0.00113362   -0.00193893
     atom    3 type  2   force =     0.00130899    0.00000000    0.00193893
     atom    4 type  2   force =    -0.00065450   -0.00113362   -0.00193893
     atom    5 type  2   force =    -0.00065450    0.00113362    0.00193893
     atom    6 type  2   force =     0.00130899    0.00000000   -0.00193893
     atom    7 type  2   force =    -0.00065450   -0.00113362    0.00193893
     The Hubbard contrib.    to forces
     atom    1 type  1   force =     0.00000000    0.00000000    0.00000000
     atom    2 type  2   force =     0.00000000    0.00000000    0.00000000
     atom    3 type  2   force =     0.00000000    0.00000000    0.00000000
     atom    4 type  2   force =     0.00000000    0.00000000    0.00000000
     atom    5 type  2   force =     0.00000000    0.00000000    0.00000000
     atom    6 type  2   force =     0.00000000    0.00000000    0.00000000
     atom    7 type  2   force =     0.00000000    0.00000000    0.00000000
     The SCF correction term to forces
     atom    1 type  1   force =    -0.00000000   -0.00000000   -0.00000000
     atom    2 type  2   force =     0.00000021   -0.00000036    0.00000180
     atom    3 type  2   force =    -0.00000042    0.00000000   -0.00000180
     atom    4 type  2   force =     0.00000021    0.00000036    0.00000180
     atom    5 type  2   force =     0.00000021   -0.00000036   -0.00000180
     atom    6 type  2   force =    -0.00000042   -0.00000000    0.00000180
     atom    7 type  2   force =     0.00000021    0.00000036   -0.00000180

     Total force =     0.000077     Total SCF correction =     0.000005


     Computing stress (Cartesian axis) and pressure

          total   stress  (Ry/bohr**3)                   (kbar)     P=      500.01
   0.00339902   0.00000000   0.00000000          500.01        0.00        0.00
   0.00000000   0.00339902   0.00000000            0.00      500.01        0.00
   0.00000000   0.00000000   0.00339903            0.00        0.00      500.01


     Writing all to output data dir ./output/LiSi.save/

     init_run     :      2.00s CPU      2.16s WALL (       2 calls)
     electrons    :    393.56s CPU    412.48s WALL (      18 calls)
     update_pot   :      5.61s CPU      5.70s WALL (      16 calls)
     forces       :      7.30s CPU      7.45s WALL (      18 calls)
     stress       :     45.55s CPU     46.73s WALL (      18 calls)

     Called by init_run:
     wfcinit      :      1.36s CPU      1.40s WALL (       2 calls)
     potinit      :      0.30s CPU      0.31s WALL (       2 calls)
     hinit0       :      0.28s CPU      0.39s WALL (       2 calls)

     Called by electrons:
     c_bands      :    368.18s CPU    385.92s WALL (     135 calls)
     sum_band     :     24.30s CPU     25.15s WALL (     135 calls)
     v_of_rho     :      0.98s CPU      1.05s WALL (     146 calls)
     mix_rho      :      0.10s CPU      0.17s WALL (     135 calls)

     Called by c_bands:
     init_us_2    :      4.17s CPU      4.61s WALL (   22176 calls)
     init_us_2:cp :      4.13s CPU      4.59s WALL (   22176 calls)
     ccgdiagg     :    318.31s CPU    331.34s WALL (    9755 calls)
     wfcrot       :     47.76s CPU     49.86s WALL (    8099 calls)

     Called by *cgdiagg:
     h_psi        :    282.05s CPU    293.76s WALL (  611253 calls)

     Called by h_psi:
     h_psi:calbec :     40.75s CPU     42.46s WALL (  611253 calls)
     vloc_psi     :    181.46s CPU    189.22s WALL (  611253 calls)
     add_vuspsi   :     57.25s CPU     59.51s WALL (  611253 calls)
     hs_1psi      :    240.85s CPU    250.66s WALL (  603154 calls)
     s_1psi       :     32.93s CPU     34.15s WALL (  603154 calls)

     General routines
     calbec       :     75.96s CPU     79.26s WALL ( 1220887 calls)
     fft          :      0.66s CPU      0.79s WALL (    1915 calls)
     ffts         :      0.03s CPU      0.03s WALL (     135 calls)
     fftw         :    178.74s CPU    186.04s WALL ( 1675136 calls)

     Parallel routines

     PWSCF        :   7m34.61s CPU   7m55.77s WALL


   This run was terminated on:  14:54:12   4Feb2025            

=------------------------------------------------------------------------------=
   JOB DONE.
=------------------------------------------------------------------------------=
