
     Program PWSCF v.7.3.1 starts on 27Feb2025 at 19:27: 9 

     This program is part of the open-source Quantum ESPRESSO suite
     for quantum simulation of materials; please cite
         "P. Giannozzi et al., J. Phys.:Condens. Matter 21 395502 (2009);
         "P. Giannozzi et al., J. Phys.:Condens. Matter 29 465901 (2017);
         "P. Giannozzi et al., J. Chem. Phys. 152 154105 (2020);
          URL http://www.quantum-espresso.org", 
     in publications or presentations arising from this work. More details at
     http://www.quantum-espresso.org/quote

     Parallel version (MPI & OpenMP), running on      16 processor cores
     Number of MPI processes:                16
     Threads/MPI process:                     1

     MPI processes distributed on     1 nodes
     493580 MiB available memory on the printing compute node when the environment starts

     Waiting for input...
     Reading input from standard input

     Current dimensions of program PWSCF are:
     Max number of different atomic species (ntypx) = 10
     Max number of k-points (npk) =  40000
     Max angular momentum in pseudopotentials (lmaxx) =  4

     R & G space division:  proc/nbgrp/npool/nimage =      16
     Subspace diagonalization in iterative solution of the eigenvalue problem:
     a serial algorithm will be used


     Parallelization info
     --------------------
     sticks:   dense  smooth     PW     G-vecs:    dense   smooth      PW
     Min         147     147     49                 2038     2038     394
     Max         148     148     50                 2039     2039     395
     Sum        2357    2357    787                32617    32617    6313

     Using Slab Decomposition



     bravais-lattice index     =            5
     lattice parameter (alat)  =      23.9170  a.u.
     unit-cell volume          =     413.3271 (a.u.)^3
     number of atoms/cell      =            7
     number of atomic types    =            2
     number of electrons       =        22.00
     number of Kohn-Sham states=           15
     kinetic-energy cutoff     =      70.0000  Ry
     charge density cutoff     =     280.0000  Ry
     scf convergence threshold =      1.0E-08
     mixing beta               =       0.7000
     number of iterations used =            8  plain     mixing
     energy convergence thresh.=      5.0E-04
     force convergence thresh. =      1.0E-03
     press convergence thresh. =      1.0E+00
     Exchange-correlation= PBE
                           (   1   4   3   4   0   0   0)
     nstep                     =           50


     celldm(1)=  23.917048  celldm(2)=   0.000000  celldm(3)=   0.000000
     celldm(4)=   0.982455  celldm(5)=   0.000000  celldm(6)=   0.000000

     crystal axes: (cart. coord. in units of alat)
               a(1) = (   0.093663  -0.054076   0.994134 )  
               a(2) = (   0.000000   0.108153   0.994134 )  
               a(3) = (  -0.093663  -0.054076   0.994134 )  

     reciprocal axes: (cart. coord. in units 2 pi/alat)
               b(1) = (  5.338291 -3.082064  0.335300 )  
               b(2) = (  0.000000  6.164128  0.335300 )  
               b(3) = ( -5.338291 -3.082064  0.335300 )  


     PseudoPot. # 1 for Li read from file:
     ../pseudo/Li_ONCV_PBE_sr.upf
     MD5 check sum: 50ff420e78310ffa21704f3361e624a4
     Pseudo is Norm-conserving, Zval =  3.0
     Generated using ONCVPSP code by D. R. Hamann
     Using radial grid of 1944 points,  4 beta functions with: 
                l(1) =   0
                l(2) =   0
                l(3) =   1
                l(4) =   1

     PseudoPot. # 2 for Si read from file:
     ../pseudo/Si_ONCV_PBE_sr.upf
     MD5 check sum: e543d271109d17c80368dfa7c482276d
     Pseudo is Norm-conserving + core correction, Zval =  4.0
     Generated using ONCVPSP code by D. R. Hamann
     Using radial grid of 1510 points,  6 beta functions with: 
                l(1) =   0
                l(2) =   0
                l(3) =   1
                l(4) =   1
                l(5) =   2
                l(6) =   2

     atomic species   valence    mass     pseudopotential
     Li                3.00     6.94100     Li( 1.00)
     Si                4.00    28.08550     Si( 1.00)

      6 Sym. Ops. (no inversion) found



   Cartesian axes

     site n.     atom                  positions (alat units)
         1        Li     tau(   1) = (   0.0000000  -0.0000000   1.0894469  )
         2        Li     tau(   2) = (   0.0000000  -0.0000000   1.3283672  )
         3        Li     tau(   3) = (  -0.0000000  -0.0000000   1.5618406  )
         4        Li     tau(   4) = (  -0.0000000  -0.0000000   1.7971145  )
         5        Li     tau(   5) = (  -0.0000000  -0.0000000   2.2010879  )
         6        Li     tau(   6) = (   0.0000000  -0.0000000   2.4430284  )
         7        Si     tau(   7) = (   0.0000000  -0.0000000   0.8773364  )

     number of k points=    32  Marzari-Vanderbilt smearing, width (Ry)=  0.0200
                       cart. coord. in units 2pi/alat
        k(    1) = (   0.0000000   0.0000000   0.0000000), wk =   0.0092593
        k(    2) = (  -0.8897152  -0.5136773   0.0558834), wk =   0.0555556
        k(    3) = (  -1.7794304  -1.0273546   0.1117667), wk =   0.0555556
        k(    4) = (   2.6691455   1.5410319  -0.1676501), wk =   0.0277778
        k(    5) = (  -0.8897152   0.5136773   0.1117667), wk =   0.0555556
        k(    6) = (  -1.7794304  -0.0000000   0.1676501), wk =   0.1111111
        k(    7) = (   2.6691455   2.5683865  -0.1117667), wk =   0.1111111
        k(    8) = (   1.7794304   2.0547092  -0.0558834), wk =   0.1111111
        k(    9) = (   0.8897152   1.5410319   0.0000000), wk =   0.0555556
        k(   10) = (  -1.7794304   1.0273546   0.2235334), wk =   0.0555556
        k(   11) = (   2.6691455   3.5957411  -0.0558834), wk =   0.1111111
        k(   12) = (   1.7794304   3.0820638   0.0000000), wk =   0.0555556
        k(   13) = (   2.6691455  -1.5410319  -0.3353001), wk =   0.0277778
        k(   14) = (   0.0000000  -0.0000000   0.1676501), wk =   0.0185185
        k(   15) = (  -0.8897152  -0.5136773   0.2235334), wk =   0.0555556
        k(   16) = (   3.5588607   2.0547092  -0.0558834), wk =   0.0555556
        k(   17) = (   2.6691455   1.5410319   0.0000000), wk =   0.0555556
        k(   18) = (   1.7794304   1.0273546   0.0558834), wk =   0.0555556
        k(   19) = (  -0.8897152   0.5136773   0.2794168), wk =   0.0555556
        k(   20) = (   3.5588607   3.0820638   0.0000000), wk =   0.1111111
        k(   21) = (   2.6691455   2.5683865   0.0558834), wk =   0.1111111
        k(   22) = (   1.7794304   2.0547092   0.1117667), wk =   0.1111111
        k(   23) = (   3.5588607  -2.0547092  -0.2794168), wk =   0.0555556
        k(   24) = (   2.6691455  -2.5683865  -0.2235334), wk =   0.1111111
        k(   25) = (   1.7794304  -3.0820638  -0.1676501), wk =   0.0555556
        k(   26) = (   2.6691455  -1.5410319  -0.1676501), wk =   0.0555556
        k(   27) = (   0.0000000  -0.0000000   0.3353001), wk =   0.0185185
        k(   28) = (   4.4485759   2.5683865   0.0558834), wk =   0.0555556
        k(   29) = (   3.5588607   2.0547092   0.1117667), wk =   0.0555556
        k(   30) = (   4.4485759  -2.5683865  -0.2235334), wk =   0.0555556
        k(   31) = (   3.5588607  -3.0820638  -0.1676501), wk =   0.0555556
        k(   32) = (   0.0000000   0.0000000  -0.5029502), wk =   0.0092593

     Dense  grid:    32617 G-vectors     FFT dimensions: ( 128, 128, 128)

     Estimated max dynamical RAM per process >      23.13 MB

     Estimated total dynamical RAM >     370.11 MB

     Initial potential from superposition of free atoms

     starting charge      21.9720, renormalised to      22.0000
     Starting wfcs are   16 randomized atomic wfcs

     total cpu time spent up to now is        2.1 secs

     per-process dynamical memory:    59.5 Mb

     Self-consistent Calculation

     iteration #  1     ecut=    70.00 Ry     beta= 0.70
     Davidson diagonalization with overlap
     ethr =  1.00E-02,  avg # of iterations =  6.2

     total cpu time spent up to now is        6.6 secs

     total energy              =     -91.46229003 Ry
     estimated scf accuracy    <       3.18727580 Ry

     iteration #  2     ecut=    70.00 Ry     beta= 0.70
     Davidson diagonalization with overlap
     ethr =  1.00E-02,  avg # of iterations =  6.3

     total cpu time spent up to now is       11.3 secs

     total energy              =     -92.05961846 Ry
     estimated scf accuracy    <      57.03976017 Ry

     iteration #  3     ecut=    70.00 Ry     beta= 0.70
     Davidson diagonalization with overlap
     ethr =  1.00E-02,  avg # of iterations =  5.0

     total cpu time spent up to now is       15.7 secs

     total energy              =     -93.31811051 Ry
     estimated scf accuracy    <       8.37665362 Ry

     iteration #  4     ecut=    70.00 Ry     beta= 0.70
     Davidson diagonalization with overlap
     ethr =  1.00E-02,  avg # of iterations =  2.7

     total cpu time spent up to now is       18.9 secs

     total energy              =     -93.65146539 Ry
     estimated scf accuracy    <       5.06376332 Ry

     iteration #  5     ecut=    70.00 Ry     beta= 0.70
     Davidson diagonalization with overlap
     ethr =  1.00E-02,  avg # of iterations =  1.2

     total cpu time spent up to now is       21.9 secs

     total energy              =     -93.74979309 Ry
     estimated scf accuracy    <       0.77184761 Ry

     iteration #  6     ecut=    70.00 Ry     beta= 0.70
     Davidson diagonalization with overlap
     ethr =  3.51E-03,  avg # of iterations =  1.8

     total cpu time spent up to now is       24.8 secs

     total energy              =     -93.78673064 Ry
     estimated scf accuracy    <       1.10482398 Ry

     iteration #  7     ecut=    70.00 Ry     beta= 0.70
     Davidson diagonalization with overlap
     ethr =  3.51E-03,  avg # of iterations =  1.0

     total cpu time spent up to now is       27.7 secs

     total energy              =     -93.84533051 Ry
     estimated scf accuracy    <       0.03353836 Ry

     iteration #  8     ecut=    70.00 Ry     beta= 0.70
     Davidson diagonalization with overlap
     ethr =  1.52E-04,  avg # of iterations =  2.3

     total cpu time spent up to now is       30.6 secs

     total energy              =     -93.84391036 Ry
     estimated scf accuracy    <       0.03902293 Ry

     iteration #  9     ecut=    70.00 Ry     beta= 0.70
     Davidson diagonalization with overlap
     ethr =  1.52E-04,  avg # of iterations =  1.5

     total cpu time spent up to now is       33.4 secs

     total energy              =     -93.84520501 Ry
     estimated scf accuracy    <       0.07759124 Ry

     iteration # 10     ecut=    70.00 Ry     beta= 0.70
     Davidson diagonalization with overlap
     ethr =  1.52E-04,  avg # of iterations =  1.0

     total cpu time spent up to now is       36.1 secs

     total energy              =     -93.84971395 Ry
     estimated scf accuracy    <       0.00534972 Ry

     iteration # 11     ecut=    70.00 Ry     beta= 0.70
     Davidson diagonalization with overlap
     ethr =  2.43E-05,  avg # of iterations =  1.5

     total cpu time spent up to now is       38.9 secs

     total energy              =     -93.84961781 Ry
     estimated scf accuracy    <       0.00173874 Ry

     iteration # 12     ecut=    70.00 Ry     beta= 0.70
     Davidson diagonalization with overlap
     ethr =  7.90E-06,  avg # of iterations =  1.7

     total cpu time spent up to now is       41.7 secs

     total energy              =     -93.84968558 Ry
     estimated scf accuracy    <       0.00000779 Ry

     iteration # 13     ecut=    70.00 Ry     beta= 0.70
     Davidson diagonalization with overlap
     ethr =  3.54E-08,  avg # of iterations =  3.0

     total cpu time spent up to now is       44.7 secs

     total energy              =     -93.84968644 Ry
     estimated scf accuracy    <       0.00000007 Ry

     iteration # 14     ecut=    70.00 Ry     beta= 0.70
     Davidson diagonalization with overlap
     ethr =  3.18E-10,  avg # of iterations =  3.3

     total cpu time spent up to now is       48.2 secs

     total energy              =     -93.84968646 Ry
     estimated scf accuracy    <       0.00000002 Ry

     iteration # 15     ecut=    70.00 Ry     beta= 0.70
     Davidson diagonalization with overlap
     ethr =  1.13E-10,  avg # of iterations =  1.6

     total cpu time spent up to now is       51.2 secs

     total energy              =     -93.84968646 Ry
     estimated scf accuracy    <       0.00000010 Ry

     iteration # 16     ecut=    70.00 Ry     beta= 0.70
     Davidson diagonalization with overlap
     ethr =  1.13E-10,  avg # of iterations =  1.1

     total cpu time spent up to now is       54.0 secs

     End of self-consistent calculation

          k = 0.0000 0.0000 0.0000 (  4017 PWs)   bands (ev):

   -41.5165 -39.7127 -39.5351 -39.3199 -38.9227 -38.7440  -7.1290   1.6536
     3.0231   3.8262   4.0277   6.0464   7.0274   9.6696  12.6688

          k =-0.8897-0.5137 0.0559 (  4049 PWs)   bands (ev):

   -41.4602 -39.6358 -39.4605 -39.2688 -38.9031 -38.7452  -6.3305   2.1105
     3.3475   4.2439   4.5622   6.6021   7.4241  10.1824  12.8358

          k =-1.7794-1.0274 0.1118 (  4072 PWs)   bands (ev):

   -41.3468 -39.4775 -39.3011 -39.1507 -38.8720 -38.7672  -4.0294   2.9549
     4.3765   5.1822   5.9714   6.7866   8.2315   9.2621  11.8777

          k = 2.6691 1.5410-0.1677 (  4082 PWs)   bands (ev):

   -41.2897 -39.3961 -39.2177 -39.0646 -38.8686 -38.7973  -1.3137   0.8816
     5.4895   6.0902   6.6481   7.2458   8.4369   9.0523  11.2223

          k =-0.8897 0.5137 0.1118 (  4050 PWs)   bands (ev):

   -41.4602 -39.6358 -39.4605 -39.2688 -38.9031 -38.7452  -6.3305   2.1104
     3.3533   4.1834   4.6415   6.4906   7.5503  10.1009  12.9048

          k =-1.7794-0.0000 0.1677 (  4075 PWs)   bands (ev):

   -41.3753 -39.5179 -39.3425 -39.1840 -38.8781 -38.7578  -4.7722   2.9594
     4.0703   4.9026   5.7751   7.3543   8.3901   9.3289  10.3277

          k = 2.6691 2.5684-0.1118 (  4108 PWs)   bands (ev):

   -41.2900 -39.3973 -39.2189 -39.0667 -38.8672 -38.7949  -1.8730   2.6544
     5.5611   5.9284   6.4463   7.4994   8.0895   9.0992  10.1153

          k = 1.7794 2.0547-0.0559 (  4111 PWs)   bands (ev):

   -41.2900 -39.3973 -39.2189 -39.0667 -38.8672 -38.7950  -1.8730   2.6544
     5.5739   5.8851   6.5099   7.4462   8.0601   9.2438  10.0021

          k = 0.8897 1.5410 0.0000 (  4086 PWs)   bands (ev):

   -41.3754 -39.5180 -39.3425 -39.1840 -38.8781 -38.7578  -4.7722   2.9599
     4.0577   4.9740   5.6489   7.7128   8.0264   9.3320  10.3733

          k =-1.7794 1.0274 0.2235 (  4078 PWs)   bands (ev):

   -41.3468 -39.4775 -39.3011 -39.1507 -38.8720 -38.7671  -4.0294   2.9547
     4.3893   5.1190   6.1288   6.6633   8.1546   9.4686  11.5341

          k = 2.6691 3.5957-0.0559 (  4101 PWs)   bands (ev):

   -41.2900 -39.3973 -39.2189 -39.0667 -38.8671 -38.7949  -1.8730   2.6544
     5.5569   5.9387   6.4418   7.4778   8.1230   9.0887  10.1043

          k = 1.7794 3.0821 0.0000 (  4132 PWs)   bands (ev):

   -41.2617 -39.3575 -39.1793 -39.0014 -38.8823 -38.8128   0.6683   2.5967
     2.9398   7.1736   8.3995   8.7710   9.4951   9.5122   9.9818

          k = 2.6691-1.5410-0.3353 (  4104 PWs)   bands (ev):

   -41.2897 -39.3961 -39.2177 -39.0647 -38.8686 -38.7973  -1.3137   0.8815
     5.4787   6.1915   6.4719   7.3861   8.3421   9.0937  11.2225

          k = 0.0000-0.0000 0.1677 (  4020 PWs)   bands (ev):

   -41.5165 -39.7127 -39.5351 -39.3199 -38.9227 -38.7440  -7.1290   1.6535
     3.0406   3.6759   4.2152   5.8531   7.2510   9.5119  12.8036

          k =-0.8897-0.5137 0.2235 (  4051 PWs)   bands (ev):

   -41.4602 -39.6358 -39.4605 -39.2688 -38.9031 -38.7452  -6.3305   2.1101
     3.3719   4.0665   4.8220   6.2416   7.8358   9.8945  12.9344

          k = 3.5589 2.0547-0.0559 (  4070 PWs)   bands (ev):

   -41.3468 -39.4775 -39.3011 -39.1507 -38.8720 -38.7671  -4.0294   2.9546
     4.3902   5.1293   6.0157   6.9039   7.8613   9.7666  11.3225

          k = 2.6691 1.5410 0.0000 (  4088 PWs)   bands (ev):

   -41.2897 -39.3961 -39.2177 -39.0647 -38.8686 -38.7973  -1.3137   0.8815
     5.4867   6.1104   6.6056   7.2836   8.4134   9.0634  11.2223

          k = 1.7794 1.0274 0.0559 (  4070 PWs)   bands (ev):

   -41.3468 -39.4775 -39.3010 -39.1507 -38.8720 -38.7671  -4.0294   2.9550
     4.3760   5.1756   6.0227   6.6878   8.4466   9.0527  11.9887

          k =-0.8897 0.5137 0.2794 (  4050 PWs)   bands (ev):

   -41.4602 -39.6358 -39.4605 -39.2688 -38.9031 -38.7452  -6.3305   2.1098
     3.3858   4.0060   4.9397   6.0828   8.0343   9.7141  13.0289

          k = 3.5589 3.0821 0.0000 (  4087 PWs)   bands (ev):

   -41.3754 -39.5180 -39.3425 -39.1840 -38.8781 -38.7578  -4.7722   2.9583
     4.0984   4.7888   6.0564   6.9100   8.8237   9.3143  10.2034

          k = 2.6691 2.5684 0.0559 (  4108 PWs)   bands (ev):

   -41.2900 -39.3973 -39.2189 -39.0667 -38.8671 -38.7949  -1.8730   2.6544
     5.5482   5.9839   6.3750   7.5362   8.1489   8.9597  10.2017

          k = 1.7794 2.0547 0.1118 (  4112 PWs)   bands (ev):

   -41.2900 -39.3973 -39.2189 -39.0667 -38.8671 -38.7949  -1.8730   2.6544
     5.5714   5.8901   6.5083   7.4358   8.0751   9.2402   9.9962

          k = 3.5589-2.0547-0.2794 (  4078 PWs)   bands (ev):

   -41.3468 -39.4775 -39.3011 -39.1507 -38.8720 -38.7672  -4.0294   2.9544
     4.4042   5.0718   6.1605   6.7766   7.8341  10.0406  10.9593

          k = 2.6691-2.5684-0.2235 (  4104 PWs)   bands (ev):

   -41.2900 -39.3973 -39.2189 -39.0667 -38.8671 -38.7949  -1.8730   2.6544
     5.5463   5.9897   6.3716   7.5251   8.1680   8.9523  10.1963

          k = 1.7794-3.0821-0.1677 (  4130 PWs)   bands (ev):

   -41.2617 -39.3575 -39.1793 -39.0014 -38.8823 -38.8128   0.6683   2.5967
     2.9398   7.1736   8.3995   8.7710   9.4953   9.5120   9.9819

          k = 2.6691-1.5410-0.1677 (  4107 PWs)   bands (ev):

   -41.2897 -39.3961 -39.2177 -39.0647 -38.8686 -38.7973  -1.3137   0.8815
     5.4813   6.1592   6.5199   7.3531   8.3661   9.0841  11.2225

          k = 0.0000-0.0000 0.3353 (  4029 PWs)   bands (ev):

   -41.5165 -39.7127 -39.5351 -39.3199 -38.9227 -38.7439  -7.1290   1.6532
     3.0852   3.5094   4.4827   5.5234   7.6589   9.1602  13.0681

          k = 4.4486 2.5684 0.0559 (  4044 PWs)   bands (ev):

   -41.4602 -39.6358 -39.4605 -39.2688 -38.9031 -38.7452  -6.3305   2.1096
     3.4093   3.9277   5.1415   5.8358   8.3361   9.4393  13.0267

          k = 3.5589 2.0547 0.1118 (  4074 PWs)   bands (ev):

   -41.3468 -39.4775 -39.3011 -39.1507 -38.8720 -38.7672  -4.0294   2.9543
     4.4046   5.0760   6.1005   6.9272   7.6845  10.3092  10.7199

          k = 4.4486-2.5684-0.2235 (  4050 PWs)   bands (ev):

   -41.4602 -39.6358 -39.4605 -39.2689 -38.9031 -38.7452  -6.3305   2.1094
     3.4182   3.9026   5.2407   5.7214   8.4831   9.2937  13.0589

          k = 3.5589-3.0821-0.1677 (  4080 PWs)   bands (ev):

   -41.3753 -39.5179 -39.3425 -39.1840 -38.8781 -38.7577  -4.7722   2.9578
     4.1143   4.7389   6.3077   6.6075   9.0489   9.2859  10.1128

          k = 0.0000 0.0000-0.5030 (  4042 PWs)   bands (ev):

   -41.5165 -39.7127 -39.5351 -39.3199 -38.9227 -38.7440  -7.1290   1.6531
     3.1163   3.4362   4.6376   5.3402   7.9001   8.9319  13.2012

     the Fermi energy is     6.5927 ev

!    total energy              =     -93.84968646 Ry
     estimated scf accuracy    <          2.9E-09 Ry
     smearing contrib. (-TS)   =       0.00016201 Ry
     internal energy E=F+TS    =     -93.84984847 Ry

     The total energy is F=E-TS. E is the sum of the following terms:
     one-electron contribution =     -48.69502202 Ry
     hartree contribution      =      23.45612962 Ry
     xc contribution           =     -24.56322096 Ry
     ewald contribution        =     -44.04773511 Ry

     convergence has been achieved in  16 iterations

     Forces acting on atoms (cartesian axes, Ry/au):

     atom    1 type  1   force =    -0.00000000    0.00000000   -0.10442292
     atom    2 type  1   force =    -0.00000000   -0.00000000   -0.00121403
     atom    3 type  1   force =    -0.00000000    0.00000000    0.12317970
     atom    4 type  1   force =    -0.00000000   -0.00000000   -0.57103014
     atom    5 type  1   force =     0.00000000   -0.00000000    0.02334152
     atom    6 type  1   force =    -0.00000000    0.00000000   -0.03213865
     atom    7 type  2   force =    -0.00000000   -0.00000000    0.56228451

     Total force =     0.818472     Total SCF correction =     0.000138


     Computing stress (Cartesian axis) and pressure

          total   stress  (Ry/bohr**3)                   (kbar)     P=      804.76
   0.00574240   0.00000000   0.00000000          844.74        0.00        0.00
  -0.00000000   0.00574240   0.00000000           -0.00      844.74        0.00
   0.00000000   0.00000000   0.00492717            0.00        0.00      724.81


     BFGS Geometry Optimization
     Energy error            =      0.0E+00 Ry
     Gradient error          =      5.7E-01 Ry/Bohr
     Cell gradient error     =      3.4E+02 kbar

     number of scf cycles    =   1
     number of bfgs steps    =   0

     enthalpy           new  =     -92.4448161351 Ry

     new trust radius        =       0.5000000000 bohr
ibrav =      5
 celldm(1) =     24.72219145
 celldm(4) =      0.98185072
Input lattice vectors:
     0.09846776    -0.05685039     1.02739156
     0.00000000     0.11370078     1.02739156
    -0.09846776    -0.05685039     1.02739156
New lattice vectors in INITIAL alat:
     0.09846776    -0.05685039     1.02739156
     0.00000000     0.11370078     1.02739156
    -0.09846776    -0.05685039     1.02739156
New lattice vectors in NEW alat (for information only):
     0.09526090    -0.05499890     0.99393183
     0.00000000     0.10999781     0.99393183
    -0.09526090    -0.05499890     0.99393183
Discrepancy in bohr =     0.000000    0.000000    0.000000
     new conv_thr            =       0.0000000100 Ry

     new unit-cell volume =    472.10375 a.u.^3 (    69.95856 Ang^3 )
     density =      1.65515 g/cm^3

CELL_PARAMETERS (alat= 23.91704779)
   0.098467761  -0.056850388   1.027391557
   0.000000000   0.113700776   1.027391557
  -0.098467761  -0.056850388   1.027391557

ATOMIC_POSITIONS (crystal)
Li               0.3640098327        0.3640098327        0.3640098327
Li               0.4453867672        0.4453867672        0.4453867672
Li               0.5251974151        0.5251974151        0.5251974151
Li               0.5955630234        0.5955630234        0.5955630234
Li               0.7383115274        0.7383115274        0.7383115274
Li               0.8187531539        0.8187531539        0.8187531539
Si               0.3010732902        0.3010732902        0.3010732902



     Writing config-only to output data dir ./output/LiSi.save/ :
     XML data file
     NEW-OLD atomic charge density approx. for the potential

     negative rho (up, down):  1.050E-05 0.000E+00

     total cpu time spent up to now is       54.7 secs

     per-process dynamical memory:    65.6 Mb

     Self-consistent Calculation

     iteration #  1     ecut=    70.00 Ry     beta= 0.70
     Davidson diagonalization with overlap
     c_bands:  1 eigenvalues not converged
     ethr =  1.00E-06,  avg # of iterations = 11.9

     total cpu time spent up to now is       63.9 secs

     total energy              =     -94.38570009 Ry
     estimated scf accuracy    <       0.14936182 Ry

     iteration #  2     ecut=    70.00 Ry     beta= 0.70
     Davidson diagonalization with overlap
     ethr =  6.79E-04,  avg # of iterations =  3.6

     total cpu time spent up to now is       67.5 secs

     total energy              =     -94.34432169 Ry
     estimated scf accuracy    <       0.71640535 Ry

     iteration #  3     ecut=    70.00 Ry     beta= 0.70
     Davidson diagonalization with overlap
     ethr =  6.79E-04,  avg # of iterations =  2.8

     total cpu time spent up to now is       70.9 secs

     total energy              =     -94.38355318 Ry
     estimated scf accuracy    <       1.12649885 Ry

     iteration #  4     ecut=    70.00 Ry     beta= 0.70
     Davidson diagonalization with overlap
     ethr =  6.79E-04,  avg # of iterations =  2.2

     total cpu time spent up to now is       73.8 secs

     total energy              =     -94.45242798 Ry
     estimated scf accuracy    <       0.24630590 Ry

     iteration #  5     ecut=    70.00 Ry     beta= 0.70
     Davidson diagonalization with overlap
     ethr =  6.79E-04,  avg # of iterations =  1.0

     total cpu time spent up to now is       76.6 secs

     total energy              =     -94.46423842 Ry
     estimated scf accuracy    <       0.01991821 Ry

     iteration #  6     ecut=    70.00 Ry     beta= 0.70
     Davidson diagonalization with overlap
     ethr =  9.05E-05,  avg # of iterations =  1.4

     total cpu time spent up to now is       79.5 secs

     total energy              =     -94.46345750 Ry
     estimated scf accuracy    <       0.03690199 Ry

     iteration #  7     ecut=    70.00 Ry     beta= 0.70
     Davidson diagonalization with overlap
     ethr =  9.05E-05,  avg # of iterations =  1.0

     total cpu time spent up to now is       82.2 secs

     total energy              =     -94.46478990 Ry
     estimated scf accuracy    <       0.00219244 Ry

     iteration #  8     ecut=    70.00 Ry     beta= 0.70
     Davidson diagonalization with overlap
     ethr =  9.97E-06,  avg # of iterations =  2.1

     total cpu time spent up to now is       85.0 secs

     total energy              =     -94.46502166 Ry
     estimated scf accuracy    <       0.00016968 Ry

     iteration #  9     ecut=    70.00 Ry     beta= 0.70
     Davidson diagonalization with overlap
     ethr =  7.71E-07,  avg # of iterations =  1.8

     total cpu time spent up to now is       87.9 secs

     total energy              =     -94.46502299 Ry
     estimated scf accuracy    <       0.00013240 Ry

     iteration # 10     ecut=    70.00 Ry     beta= 0.70
     Davidson diagonalization with overlap
     ethr =  6.02E-07,  avg # of iterations =  1.0

     total cpu time spent up to now is       90.7 secs

     total energy              =     -94.46503120 Ry
     estimated scf accuracy    <       0.00000086 Ry

     iteration # 11     ecut=    70.00 Ry     beta= 0.70
     Davidson diagonalization with overlap
     ethr =  3.89E-09,  avg # of iterations =  2.7

     total cpu time spent up to now is       93.9 secs

     total energy              =     -94.46503134 Ry
     estimated scf accuracy    <       0.00000033 Ry

     iteration # 12     ecut=    70.00 Ry     beta= 0.70
     Davidson diagonalization with overlap
     ethr =  1.48E-09,  avg # of iterations =  1.0

     total cpu time spent up to now is       96.9 secs

     End of self-consistent calculation

          k = 0.0000 0.0000 0.0000 (  4017 PWs)   bands (ev):

   -40.5420 -40.4331 -40.3196 -40.1241 -40.0263 -39.8935  -7.5324   0.4099
     1.7871   2.5212   3.0816   4.7475   6.3324   9.0725  11.7322

          k =-0.8463-0.4886 0.0541 (  4049 PWs)   bands (ev):

   -40.4929 -40.3863 -40.2876 -40.0935 -40.0122 -39.8967  -6.7126   1.0388
     2.1546   2.9666   3.6094   5.3100   6.7862   9.5106  11.7686

          k =-1.6926-0.9772 0.1081 (  4072 PWs)   bands (ev):

   -40.3955 -40.2839 -40.2136 -40.0319 -39.9881 -39.9154  -4.2860   2.7579
     3.3061   4.2100   4.8311   5.5075   6.9678   8.1275  10.4418

          k = 2.5389 1.4658-0.1622 (  4082 PWs)   bands (ev):

   -40.3479 -40.2318 -40.1573 -40.0009 -39.9837 -39.9358  -0.6368  -0.0505
     4.5367   5.0907   5.5814   6.1958   7.0697   7.5849   9.8457

          k =-0.8463 0.4886 0.1081 (  4050 PWs)   bands (ev):

   -40.4929 -40.3862 -40.2877 -40.0935 -40.0122 -39.8967  -6.7126   1.0386
     2.1589   2.9439   3.6439   5.2654   6.8382   9.4600  11.7394

          k =-1.6926-0.0000 0.1622 (  4075 PWs)   bands (ev):

   -40.4199 -40.3107 -40.2348 -40.0474 -39.9934 -39.9083  -5.0885   2.2586
     2.9543   3.8023   4.7216   6.2657   7.5782   8.9713   9.1757

          k = 2.5389 2.4431-0.1081 (  4108 PWs)   bands (ev):

   -40.3485 -40.2325 -40.1585 -40.0011 -39.9830 -39.9348  -1.9079   2.6501
     4.5105   4.8737   5.5103   6.5417   7.3410   7.7979   8.7266

          k = 1.6926 1.9544-0.0541 (  4111 PWs)   bands (ev):

   -40.3485 -40.2325 -40.1586 -40.0012 -39.9830 -39.9348  -1.9079   2.6501
     4.5239   4.8279   5.6034   6.4070   7.3654   7.9662   8.5886

          k = 0.8463 1.4658 0.0000 (  4086 PWs)   bands (ev):

   -40.4200 -40.3108 -40.2348 -40.0475 -39.9935 -39.9084  -5.0885   2.2608
     2.9381   3.8680   4.6118   6.4714   7.3512   8.9773   9.2303

          k =-1.6926 0.9772 0.2163 (  4078 PWs)   bands (ev):

   -40.3956 -40.2840 -40.2137 -40.0319 -39.9882 -39.9154  -4.2860   2.7539
     3.3275   4.1305   4.9580   5.4653   6.8489   8.3178  10.2352

          k = 2.5389 3.4203-0.0541 (  4101 PWs)   bands (ev):

   -40.3484 -40.2325 -40.1585 -40.0011 -39.9829 -39.9347  -1.9079   2.6501
     4.4940   4.9162   5.4706   6.5648   7.2861   7.9031   8.6435

          k = 1.6926 2.9317 0.0000 (  4132 PWs)   bands (ev):

   -40.3258 -40.2092 -40.1172 -39.9906 -39.9858 -39.9449   1.6043   1.9447
     2.4650   6.1296   7.1834   7.4230   8.1709   8.1773   8.5962

          k = 2.5389-1.4658-0.3244 (  4104 PWs)   bands (ev):

   -40.3480 -40.2319 -40.1575 -40.0010 -39.9837 -39.9359  -0.6368  -0.0505
     4.5195   5.2616   5.3559   6.2956   7.0467   7.5774   9.8608

          k = 0.0000-0.0000 0.1622 (  4020 PWs)   bands (ev):

   -40.5420 -40.4331 -40.3195 -40.1241 -40.0263 -39.8935  -7.5324   0.4098
     1.7987   2.4611   3.1695   4.6491   6.4488   8.9397  11.8802

          k =-0.8463-0.4886 0.2163 (  4051 PWs)   bands (ev):

   -40.4929 -40.3863 -40.2877 -40.0935 -40.0122 -39.8967  -6.7126   1.0381
     2.1741   2.8752   3.7590   5.1156   7.0247   9.2295  12.1057

          k = 3.3852 1.9544-0.0541 (  4070 PWs)   bands (ev):

   -40.3956 -40.2840 -40.2136 -40.0319 -39.9881 -39.9153  -4.2860   2.7506
     3.3446   4.0910   4.9644   5.5521   6.6859   8.5336  10.0233

          k = 2.5389 1.4658 0.0000 (  4088 PWs)   bands (ev):

   -40.3479 -40.2318 -40.1574 -40.0010 -39.9836 -39.9358  -0.6368  -0.0505
     4.5322   5.1180   5.5382   6.2230   7.0643   7.5830   9.8495

          k = 1.6926 0.9772 0.0541 (  4070 PWs)   bands (ev):

   -40.3955 -40.2839 -40.2136 -40.0319 -39.9882 -39.9154  -4.2860   2.7596
     3.2984   4.2343   4.8181   5.4744   7.0737   8.0069  10.5542

          k =-0.8463 0.4886 0.2704 (  4050 PWs)   bands (ev):

   -40.4929 -40.3862 -40.2877 -40.0935 -40.0123 -39.8967  -6.7126   1.0379
     2.1836   2.8397   3.8262   5.0312   7.1274   9.1264  11.9672

          k = 3.3852 2.9317 0.0000 (  4087 PWs)   bands (ev):

   -40.4200 -40.3107 -40.2349 -40.0475 -39.9935 -39.9084  -5.0885   2.2543
     2.9901   3.6915   4.9578   5.9190   7.9809   8.9135   9.0537

          k = 2.5389 2.4431 0.0541 (  4108 PWs)   bands (ev):

   -40.3485 -40.2325 -40.1585 -40.0011 -39.9830 -39.9348  -1.9079   2.6500
     4.4915   4.9497   5.3988   6.7049   7.2493   7.7173   8.7975

          k = 1.6926 1.9544 0.1081 (  4112 PWs)   bands (ev):

   -40.3485 -40.2326 -40.1586 -40.0012 -39.9830 -39.9348  -1.9079   2.6502
     4.5139   4.8481   5.5841   6.4190   7.3427   8.0339   8.5290

          k = 3.3852-1.9544-0.2704 (  4078 PWs)   bands (ev):

   -40.3956 -40.2840 -40.2137 -40.0319 -39.9881 -39.9154  -4.2860   2.7468
     3.3693   4.0258   5.0825   5.5062   6.5944   8.7593   9.7816

          k = 2.5389-2.4431-0.2163 (  4104 PWs)   bands (ev):

   -40.3485 -40.2325 -40.1585 -40.0011 -39.9829 -39.9347  -1.9079   2.6500
     4.4843   4.9753   5.3746   6.7200   7.2154   7.7644   8.7630

          k = 1.6926-2.9317-0.1622 (  4130 PWs)   bands (ev):

   -40.3257 -40.2091 -40.1172 -39.9906 -39.9858 -39.9449   1.6043   1.9447
     2.4650   6.1296   7.1834   7.4230   8.1726   8.1756   8.5970

          k = 2.5389-1.4658-0.1622 (  4107 PWs)   bands (ev):

   -40.3480 -40.2320 -40.1575 -40.0011 -39.9838 -39.9359  -0.6368  -0.0505
     4.5236   5.1907   5.4385   6.2725   7.0528   7.5792   9.8570

          k = 0.0000-0.0000 0.3244 (  4029 PWs)   bands (ev):

   -40.5421 -40.4332 -40.3196 -40.1242 -40.0263 -39.8934  -7.5324   0.4095
     1.8251   2.3627   3.3369   4.4543   6.6823   8.6741  12.1752

          k = 4.2315 2.4431 0.0541 (  4044 PWs)   bands (ev):

   -40.4929 -40.3862 -40.2877 -40.0935 -40.0122 -39.8966  -6.7126   1.0374
     2.2015   2.7828   3.9524   4.8761   7.3310   8.8863  12.2979

          k = 3.3852 1.9544 0.1081 (  4074 PWs)   bands (ev):

   -40.3956 -40.2840 -40.2136 -40.0319 -39.9881 -39.9155  -4.2860   2.7453
     3.3791   4.0073   5.0757   5.5668   6.5150   8.9225   9.6189

          k = 4.2315-2.4431-0.2163 (  4050 PWs)   bands (ev):

   -40.4928 -40.3862 -40.2878 -40.0935 -40.0123 -39.8967  -6.7126   1.0372
     2.2071   2.7669   3.9935   4.8275   7.3914   8.8250  12.1907

          k = 3.3852-2.9317-0.1622 (  4080 PWs)   bands (ev):

   -40.4199 -40.3107 -40.2348 -40.0475 -39.9935 -39.9083  -5.0885   2.2522
     3.0104   3.6410   5.1200   5.7178   8.2329   8.7795   9.0212

          k = 0.0000-0.0000-0.4867 (  4042 PWs)   bands (ev):

   -40.5422 -40.4332 -40.3197 -40.1243 -40.0264 -39.8936  -7.5324   0.4093
     1.8404   2.3184   3.4270   4.3499   6.8068   8.5342  12.3277

     the Fermi energy is     5.5391 ev

!    total energy              =     -94.46503136 Ry
     estimated scf accuracy    <          5.0E-10 Ry
     smearing contrib. (-TS)   =      -0.00065563 Ry
     internal energy E=F+TS    =     -94.46437573 Ry

     The total energy is F=E-TS. E is the sum of the following terms:
     one-electron contribution =     -46.73197173 Ry
     hartree contribution      =      21.63227869 Ry
     xc contribution           =     -24.13066716 Ry
     ewald contribution        =     -45.23401553 Ry

     convergence has been achieved in  12 iterations

     Forces acting on atoms (cartesian axes, Ry/au):

     atom    1 type  1   force =    -0.00000000   -0.00000000   -0.07495687
     atom    2 type  1   force =     0.00000000    0.00000000   -0.00064433
     atom    3 type  1   force =    -0.00000000    0.00000000    0.08881327
     atom    4 type  1   force =    -0.00000000    0.00000000   -0.17936051
     atom    5 type  1   force =    -0.00000000   -0.00000000    0.01442045
     atom    6 type  1   force =     0.00000000   -0.00000000   -0.01570333
     atom    7 type  2   force =     0.00000000   -0.00000000    0.16743131

     Total force =     0.272332     Total SCF correction =     0.000042


     Computing stress (Cartesian axis) and pressure

          total   stress  (Ry/bohr**3)                   (kbar)     P=      385.68
   0.00245282   0.00000000  -0.00000000          360.82        0.00       -0.00
   0.00000000   0.00245282   0.00000000            0.00      360.82        0.00
   0.00000000   0.00000000   0.00295968            0.00        0.00      435.38

     Energy error            =      4.2E-01 Ry
     Gradient error          =      1.8E-01 Ry/Bohr
     Cell gradient error     =      1.4E+02 kbar

     number of scf cycles    =   2
     number of bfgs steps    =   1

     enthalpy           old  =     -92.4448161351 Ry
     enthalpy           new  =     -92.8603833132 Ry

     CASE: enthalpy          _new < enthalpy          _old

     new trust radius        =       0.3024455642 bohr
ibrav =      5
 celldm(1) =     24.44757328
 celldm(4) =      0.98235616
Input lattice vectors:
     0.09600851    -0.05543054     1.01615238
    -0.00000000     0.11086108     1.01615238
    -0.09600851    -0.05543054     1.01615238
New lattice vectors in INITIAL alat:
     0.09600851    -0.05543054     1.01615238
     0.00000000     0.11086108     1.01615238
    -0.09600851    -0.05543054     1.01615238
New lattice vectors in NEW alat (for information only):
     0.09392508    -0.05422767     0.99410132
     0.00000000     0.10845534     0.99410132
    -0.09392508    -0.05422767     0.99410132
Discrepancy in bohr =     0.000000    0.000000    0.000000
     new conv_thr            =       0.0000000100 Ry

     new unit-cell volume =    443.90665 a.u.^3 (    65.78018 Ang^3 )
     density =      1.76029 g/cm^3

CELL_PARAMETERS (alat= 23.91704779)
   0.096008512  -0.055430541   1.016152376
   0.000000000   0.110861081   1.016152376
  -0.096008512  -0.055430541   1.016152376

ATOMIC_POSITIONS (crystal)
Li               0.3624907732        0.3624907732        0.3624907732
Li               0.4453732484        0.4453732484        0.4453732484
Li               0.5269964889        0.5269964889        0.5269964889
Li               0.5914602040        0.5914602040        0.5914602040
Li               0.7386085077        0.7386085077        0.7386085077
Li               0.8184199615        0.8184199615        0.8184199615
Si               0.3049458262        0.3049458262        0.3049458262



     Writing config-only to output data dir ./output/LiSi.save/ :
     XML data file
     NEW-OLD atomic charge density approx. for the potential

     total cpu time spent up to now is       97.7 secs

     per-process dynamical memory:    66.7 Mb

     Self-consistent Calculation

     iteration #  1     ecut=    70.00 Ry     beta= 0.70
     Davidson diagonalization with overlap
     ethr =  1.00E-06,  avg # of iterations =  9.7

     total cpu time spent up to now is      105.9 secs

     total energy              =     -94.39350010 Ry
     estimated scf accuracy    <       0.10758132 Ry

     iteration #  2     ecut=    70.00 Ry     beta= 0.70
     Davidson diagonalization with overlap
     ethr =  4.89E-04,  avg # of iterations =  5.8

     total cpu time spent up to now is      110.2 secs

     total energy              =     -93.70334668 Ry
     estimated scf accuracy    <      17.07165922 Ry

     iteration #  3     ecut=    70.00 Ry     beta= 0.70
     Davidson diagonalization with overlap
     ethr =  4.89E-04,  avg # of iterations =  4.7

     total cpu time spent up to now is      114.0 secs

     total energy              =     -94.43032097 Ry
     estimated scf accuracy    <       0.33751565 Ry

     iteration #  4     ecut=    70.00 Ry     beta= 0.70
     Davidson diagonalization with overlap
     ethr =  4.89E-04,  avg # of iterations =  2.2

     total cpu time spent up to now is      117.3 secs

     total energy              =     -94.44690509 Ry
     estimated scf accuracy    <       0.39417436 Ry

     iteration #  5     ecut=    70.00 Ry     beta= 0.70
     Davidson diagonalization with overlap
     ethr =  4.89E-04,  avg # of iterations =  1.4

     total cpu time spent up to now is      120.0 secs

     total energy              =     -94.46781140 Ry
     estimated scf accuracy    <       0.04614669 Ry

     iteration #  6     ecut=    70.00 Ry     beta= 0.70
     Davidson diagonalization with overlap
     ethr =  2.10E-04,  avg # of iterations =  1.0

     total cpu time spent up to now is      122.7 secs

     total energy              =     -94.47110251 Ry
     estimated scf accuracy    <       0.00088560 Ry

     iteration #  7     ecut=    70.00 Ry     beta= 0.70
     Davidson diagonalization with overlap
     ethr =  4.03E-06,  avg # of iterations =  3.4

     total cpu time spent up to now is      125.7 secs

     total energy              =     -94.47116076 Ry
     estimated scf accuracy    <       0.00024341 Ry

     iteration #  8     ecut=    70.00 Ry     beta= 0.70
     Davidson diagonalization with overlap
     ethr =  1.11E-06,  avg # of iterations =  2.2

     total cpu time spent up to now is      128.6 secs

     total energy              =     -94.47119755 Ry
     estimated scf accuracy    <       0.00001904 Ry

     iteration #  9     ecut=    70.00 Ry     beta= 0.70
     Davidson diagonalization with overlap
     ethr =  8.66E-08,  avg # of iterations =  1.5

     total cpu time spent up to now is      131.6 secs

     total energy              =     -94.47119930 Ry
     estimated scf accuracy    <       0.00000147 Ry

     iteration # 10     ecut=    70.00 Ry     beta= 0.70
     Davidson diagonalization with overlap
     ethr =  6.68E-09,  avg # of iterations =  1.9

     total cpu time spent up to now is      134.7 secs

     total energy              =     -94.47119950 Ry
     estimated scf accuracy    <       0.00000017 Ry

     iteration # 11     ecut=    70.00 Ry     beta= 0.70
     Davidson diagonalization with overlap
     ethr =  7.53E-10,  avg # of iterations =  1.6

     total cpu time spent up to now is      137.6 secs

     End of self-consistent calculation

          k = 0.0000 0.0000 0.0000 (  4017 PWs)   bands (ev):

   -39.9604 -39.8584 -39.7713 -39.5269 -39.4568 -39.2951  -7.5383   0.2954
     2.3582   2.9389   3.5470   5.0411   6.8880   9.4010  12.9810

          k =-0.8680-0.5011 0.0547 (  4049 PWs)   bands (ev):

   -39.8910 -39.8109 -39.7346 -39.4911 -39.4343 -39.2949  -6.6569   1.0076
     2.7259   3.4069   4.0655   5.6257   7.3968   9.9297  12.9072

          k =-1.7360-1.0023 0.1093 (  4072 PWs)   bands (ev):

   -39.7414 -39.7129 -39.6543 -39.4193 -39.3935 -39.3087  -4.0499   3.0352
     3.8702   4.7428   5.4337   6.1460   7.3762   8.6789  11.1560

          k = 2.6039 1.5034-0.1640 (  4082 PWs)   bands (ev):

   -39.6671 -39.6622 -39.5939 -39.3847 -39.3807 -39.3270  -0.2399   0.6739
     5.0772   5.5619   6.1395   6.6571   7.5477   8.2355  10.1441

          k =-0.8680 0.5011 0.1093 (  4050 PWs)   bands (ev):

   -39.8910 -39.8109 -39.7346 -39.4911 -39.4343 -39.2949  -6.6569   1.0075
     2.7293   3.3904   4.0910   5.5960   7.4331   9.8918  12.8826

          k =-1.7360 0.0000 0.1640 (  4075 PWs)   bands (ev):

   -39.7804 -39.7379 -39.6764 -39.4374 -39.4028 -39.3025  -4.9120   2.3999
     3.5199   4.3034   5.1780   6.6833   8.3220   9.8384  10.0637

          k = 2.6039 2.5056-0.1093 (  4108 PWs)   bands (ev):

   -39.6682 -39.6628 -39.5952 -39.3845 -39.3801 -39.3256  -1.5052   3.4794
     5.0342   5.2707   6.0810   7.1028   8.1345   8.5475   9.4555

          k = 1.7360 2.0045-0.0547 (  4111 PWs)   bands (ev):

   -39.6682 -39.6628 -39.5952 -39.3845 -39.3801 -39.3256  -1.5052   3.4796
     5.0669   5.2068   6.1963   6.9147   8.3508   8.5663   9.2763

          k = 0.8680 1.5034 0.0000 (  4086 PWs)   bands (ev):

   -39.7805 -39.7380 -39.6764 -39.4374 -39.4028 -39.3025  -4.9120   2.4005
     3.5078   4.3610   5.0815   6.8287   8.1433   9.8587  10.1343

          k =-1.7360 1.0023 0.2187 (  4078 PWs)   bands (ev):

   -39.7414 -39.7129 -39.6544 -39.4194 -39.3935 -39.3086  -4.0499   3.0338
     3.8866   4.6692   5.5814   6.0690   7.2852   8.8440  10.9293

          k = 2.6039 3.5079-0.0547 (  4101 PWs)   bands (ev):

   -39.6681 -39.6628 -39.5952 -39.3845 -39.3801 -39.3256  -1.5052   3.4796
     5.0078   5.3155   6.0551   7.0975   8.1236   8.6712   9.2969

          k = 1.7360 3.0068 0.0000 (  4132 PWs)   bands (ev):

   -39.6382 -39.6381 -39.5470 -39.3883 -39.3651 -39.3330   2.2182   2.3006
     3.7427   6.7663   7.8470   8.1338   8.8098   8.9000   9.0950

          k = 2.6039-1.5034-0.3280 (  4104 PWs)   bands (ev):

   -39.6672 -39.6623 -39.5940 -39.3848 -39.3807 -39.3270  -0.2399   0.6739
     5.0532   5.7619   5.8584   6.8002   7.5293   8.2057  10.1659

          k = 0.0000-0.0000 0.1640 (  4020 PWs)   bands (ev):

   -39.9604 -39.8585 -39.7713 -39.5269 -39.4568 -39.2951  -7.5383   0.2953
     2.3676   2.8983   3.6069   4.9773   6.9656   9.3146  13.1044

          k =-0.8680-0.5011 0.2187 (  4051 PWs)   bands (ev):

   -39.8910 -39.8109 -39.7346 -39.4911 -39.4343 -39.2949  -6.6569   1.0075
     2.7415   3.3373   4.1791   5.4907   7.5698   9.7232  13.2459

          k = 3.4719 2.0045-0.0547 (  4070 PWs)   bands (ev):

   -39.7415 -39.7128 -39.6543 -39.4193 -39.3935 -39.3086  -4.0499   3.0325
     3.9005   4.6310   5.5862   6.1839   7.0885   9.0801  10.6675

          k = 2.6039 1.5034 0.0000 (  4088 PWs)   bands (ev):

   -39.6672 -39.6622 -39.5939 -39.3847 -39.3806 -39.3270  -0.2399   0.6739
     5.0707   5.5936   6.0822   6.6982   7.5435   8.2280  10.1496

          k = 1.7360 1.0023 0.0547 (  4070 PWs)   bands (ev):

   -39.7414 -39.7129 -39.6543 -39.4193 -39.3935 -39.3086  -4.0499   3.0358
     3.8639   4.7661   5.4203   6.1043   7.4925   8.5523  11.3223

          k =-0.8680 0.5011 0.2734 (  4050 PWs)   bands (ev):

   -39.8910 -39.8109 -39.7346 -39.4911 -39.4343 -39.2949  -6.6569   1.0075
     2.7490   3.3097   4.2291   5.4313   7.6447   9.6445  13.1099

          k = 3.4719 3.0068 0.0000 (  4087 PWs)   bands (ev):

   -39.7804 -39.7380 -39.6765 -39.4374 -39.4028 -39.3025  -4.9120   2.3989
     3.5466   4.2057   5.3796   6.4092   8.6957   9.6947   9.9569

          k = 2.6039 2.5056 0.0547 (  4108 PWs)   bands (ev):

   -39.6682 -39.6628 -39.5952 -39.3845 -39.3801 -39.3256  -1.5052   3.4793
     5.0018   5.3517   5.9667   7.3261   7.8841   8.5781   9.5371

          k = 1.7360 2.0045 0.1093 (  4112 PWs)   bands (ev):

   -39.6682 -39.6628 -39.5952 -39.3845 -39.3802 -39.3256  -1.5052   3.4797
     5.0451   5.2362   6.1834   6.9151   8.3124   8.6890   9.1696

          k = 3.4719-2.0045-0.2734 (  4078 PWs)   bands (ev):

   -39.7414 -39.7129 -39.6543 -39.4194 -39.3935 -39.3087  -4.0499   3.0311
     3.9196   4.5707   5.7508   6.0746   7.0220   9.2790  10.4347

          k = 2.6039-2.5056-0.2187 (  4104 PWs)   bands (ev):

   -39.6681 -39.6628 -39.5952 -39.3845 -39.3801 -39.3256  -1.5052   3.4794
     4.9918   5.3736   5.9519   7.3179   7.8925   8.6181   9.4683

          k = 1.7360-3.0068-0.1640 (  4130 PWs)   bands (ev):

   -39.6382 -39.6381 -39.5469 -39.3883 -39.3650 -39.3330   2.2182   2.3006
     3.7427   6.7663   7.8470   8.1338   8.8105   8.8986   9.0968

          k = 2.6039-1.5034-0.1640 (  4107 PWs)   bands (ev):

   -39.6672 -39.6623 -39.5940 -39.3848 -39.3807 -39.3271  -0.2399   0.6739
     5.0587   5.6776   5.9587   6.7685   7.5343   8.2131  10.1604

          k = 0.0000-0.0000 0.3280 (  4029 PWs)   bands (ev):

   -39.9604 -39.8585 -39.7713 -39.5269 -39.4568 -39.2950  -7.5383   0.2953
     2.3889   2.8261   3.7237   4.8477   7.1241   9.1378  13.3694

          k = 4.3399 2.5056 0.0547 (  4044 PWs)   bands (ev):

   -39.8909 -39.8109 -39.7346 -39.4911 -39.4343 -39.2948  -6.6569   1.0074
     2.7632   3.2637   4.3218   5.3212   7.7941   9.4669  13.5230

          k = 3.4719 2.0045 0.1093 (  4074 PWs)   bands (ev):

   -39.7415 -39.7129 -39.6543 -39.4193 -39.3935 -39.3087  -4.0499   3.0305
     3.9276   4.5529   5.7336   6.1659   6.9189   9.4503  10.2560

          k = 4.3399-2.5056-0.2187 (  4050 PWs)   bands (ev):

   -39.8909 -39.8109 -39.7346 -39.4911 -39.4343 -39.2949  -6.6569   1.0074
     2.7676   3.2510   4.3498   5.2887   7.8364   9.4225  13.3669

          k = 3.4719-3.0068-0.1640 (  4080 PWs)   bands (ev):

   -39.7805 -39.7379 -39.6764 -39.4374 -39.4028 -39.3025  -4.9120   2.3984
     3.5617   4.1615   5.5034   6.2564   8.9594   9.4982   9.9350

          k =-0.0000-0.0000-0.4921 (  4042 PWs)   bands (ev):

   -39.9604 -39.8586 -39.7714 -39.5269 -39.4568 -39.2951  -7.5383   0.2953
     2.4012   2.7922   3.7842   4.7795   7.2073   9.0454  13.5166

     the Fermi energy is     6.1269 ev

!    total energy              =     -94.47119950 Ry
     estimated scf accuracy    <          2.3E-09 Ry
     smearing contrib. (-TS)   =      -0.00149781 Ry
     internal energy E=F+TS    =     -94.46970170 Ry

     The total energy is F=E-TS. E is the sum of the following terms:
     one-electron contribution =     -43.36353542 Ry
     hartree contribution      =      20.42273300 Ry
     xc contribution           =     -24.19908058 Ry
     ewald contribution        =     -47.32981869 Ry

     convergence has been achieved in  11 iterations

     Forces acting on atoms (cartesian axes, Ry/au):

     atom    1 type  1   force =     0.00000000   -0.00000000   -0.03406852
     atom    2 type  1   force =    -0.00000000   -0.00000000   -0.00134474
     atom    3 type  1   force =     0.00000000    0.00000000    0.07630967
     atom    4 type  1   force =     0.00000000    0.00000000   -0.07026447
     atom    5 type  1   force =     0.00000000    0.00000000    0.00327983
     atom    6 type  1   force =     0.00000000   -0.00000000   -0.00232740
     atom    7 type  2   force =    -0.00000000    0.00000000    0.02841563

     Total force =     0.112900     Total SCF correction =     0.000112


     Computing stress (Cartesian axis) and pressure

          total   stress  (Ry/bohr**3)                   (kbar)     P=      427.71
   0.00282356  -0.00000000  -0.00000000          415.36       -0.00       -0.00
  -0.00000000   0.00282356   0.00000000           -0.00      415.36        0.00
  -0.00000000   0.00000000   0.00307548           -0.00        0.00      452.42

     Energy error            =      1.0E-01 Ry
     Gradient error          =      7.6E-02 Ry/Bohr
     Cell gradient error     =      8.5E+01 kbar

     number of scf cycles    =   3
     number of bfgs steps    =   2

     enthalpy           old  =     -92.8603833132 Ry
     enthalpy           new  =     -92.9623914490 Ry

     CASE: enthalpy          _new < enthalpy          _old

     new trust radius        =       0.2111417432 bohr
ibrav =      5
 celldm(1) =     24.14616110
 celldm(4) =      0.98274180
Input lattice vectors:
     0.09378281    -0.05414553     1.00375485
    -0.00000000     0.10829106     1.00375485
    -0.09378281    -0.05414553     1.00375485
New lattice vectors in INITIAL alat:
     0.09378281    -0.05414553     1.00375485
     0.00000000     0.10829106     1.00375485
    -0.09378281    -0.05414553     1.00375485
New lattice vectors in NEW alat (for information only):
     0.09289295    -0.05363177     0.99423062
     0.00000000     0.10726353     0.99423062
    -0.09289295    -0.05363177     0.99423062
Discrepancy in bohr =     0.000000    0.000000    0.000000
     new conv_thr            =       0.0000000076 Ry

     new unit-cell volume =    418.39598 a.u.^3 (    61.99989 Ang^3 )
     density =      1.86761 g/cm^3

CELL_PARAMETERS (alat= 23.91704779)
   0.093782813  -0.054145532   1.003754855
   0.000000000   0.108291065   1.003754855
  -0.093782813  -0.054145532   1.003754855

ATOMIC_POSITIONS (crystal)
Li               0.3613511354        0.3613511354        0.3613511354
Li               0.4453382862        0.4453382862        0.4453382862
Li               0.5291913823        0.5291913823        0.5291913823
Li               0.5885642849        0.5885642849        0.5885642849
Li               0.7387551391        0.7387551391        0.7387551391
Li               0.8182804723        0.8182804723        0.8182804723
Si               0.3068143099        0.3068143099        0.3068143099



     Writing config-only to output data dir ./output/LiSi.save/ :
     XML data file
     NEW-OLD atomic charge density approx. for the potential

     total cpu time spent up to now is      138.3 secs

     per-process dynamical memory:    66.7 Mb

     Self-consistent Calculation

     iteration #  1     ecut=    70.00 Ry     beta= 0.70
     Davidson diagonalization with overlap
     ethr =  1.00E-06,  avg # of iterations =  8.8

     total cpu time spent up to now is      146.3 secs

     total energy              =     -94.37490450 Ry
     estimated scf accuracy    <       0.05329296 Ry

     iteration #  2     ecut=    70.00 Ry     beta= 0.70
     Davidson diagonalization with overlap
     ethr =  2.42E-04,  avg # of iterations =  5.1

     total cpu time spent up to now is      150.2 secs

     total energy              =     -94.07722197 Ry
     estimated scf accuracy    <       6.31765583 Ry

     iteration #  3     ecut=    70.00 Ry     beta= 0.70
     Davidson diagonalization with overlap
     ethr =  2.42E-04,  avg # of iterations =  4.2

     total cpu time spent up to now is      153.9 secs

     total energy              =     -94.38276908 Ry
     estimated scf accuracy    <       0.30934505 Ry

     iteration #  4     ecut=    70.00 Ry     beta= 0.70
     Davidson diagonalization with overlap
     ethr =  2.42E-04,  avg # of iterations =  2.3

     total cpu time spent up to now is      157.0 secs

     total energy              =     -94.40021337 Ry
     estimated scf accuracy    <       0.14916476 Ry

     iteration #  5     ecut=    70.00 Ry     beta= 0.70
     Davidson diagonalization with overlap
     ethr =  2.42E-04,  avg # of iterations =  1.5

     total cpu time spent up to now is      159.8 secs

     total energy              =     -94.40864620 Ry
     estimated scf accuracy    <       0.04646086 Ry

     iteration #  6     ecut=    70.00 Ry     beta= 0.70
     Davidson diagonalization with overlap
     ethr =  2.11E-04,  avg # of iterations =  1.0

     total cpu time spent up to now is      162.6 secs

     total energy              =     -94.41125780 Ry
     estimated scf accuracy    <       0.00067407 Ry

     iteration #  7     ecut=    70.00 Ry     beta= 0.70
     Davidson diagonalization with overlap
     ethr =  3.06E-06,  avg # of iterations =  3.2

     total cpu time spent up to now is      165.7 secs

     total energy              =     -94.41132601 Ry
     estimated scf accuracy    <       0.00007935 Ry

     iteration #  8     ecut=    70.00 Ry     beta= 0.70
     Davidson diagonalization with overlap
     ethr =  3.61E-07,  avg # of iterations =  1.9

     total cpu time spent up to now is      168.7 secs

     total energy              =     -94.41133311 Ry
     estimated scf accuracy    <       0.00004163 Ry

     iteration #  9     ecut=    70.00 Ry     beta= 0.70
     Davidson diagonalization with overlap
     ethr =  1.89E-07,  avg # of iterations =  1.0

     total cpu time spent up to now is      171.6 secs

     total energy              =     -94.41133751 Ry
     estimated scf accuracy    <       0.00000245 Ry

     iteration # 10     ecut=    70.00 Ry     beta= 0.70
     Davidson diagonalization with overlap
     ethr =  1.11E-08,  avg # of iterations =  1.7

     total cpu time spent up to now is      174.7 secs

     total energy              =     -94.41133761 Ry
     estimated scf accuracy    <       0.00000127 Ry

     iteration # 11     ecut=    70.00 Ry     beta= 0.70
     Davidson diagonalization with overlap
     ethr =  5.76E-09,  avg # of iterations =  1.0

     total cpu time spent up to now is      177.5 secs

     End of self-consistent calculation

          k = 0.0000 0.0000 0.0000 (  4017 PWs)   bands (ev):

   -39.4658 -39.3475 -39.2064 -39.0883 -38.9208 -38.7262  -7.5661   0.3736
     2.9207   3.4257   4.0348   5.3994   7.3608   9.6502  14.2621

          k =-0.8886-0.5130 0.0553 (  4049 PWs)   bands (ev):

   -39.3845 -39.2932 -39.1587 -39.0452 -38.8892 -38.7225  -6.6399   1.1377
     3.2930   3.8874   4.5460   6.0108   7.9138  10.2495  14.0042

          k =-1.7772-1.0260 0.1107 (  4072 PWs)   bands (ev):

   -39.2229 -39.1629 -39.0602 -38.9580 -38.8296 -38.7327  -3.9059   3.3288
     4.4276   5.2571   5.9379   6.7469   7.8304   9.2377  11.8702

          k = 2.6657 1.5391-0.1660 (  4082 PWs)   bands (ev):

   -39.1587 -39.0581 -39.0089 -38.9135 -38.8082 -38.7537  -0.0537   1.2510
     5.6053   6.0134   6.6947   7.1383   8.0769   8.8686  10.6474

          k =-0.8886 0.5130 0.1107 (  4050 PWs)   bands (ev):

   -39.3845 -39.2932 -39.1587 -39.0452 -38.8892 -38.7225  -6.6399   1.1377
     3.2961   3.8733   4.5677   5.9867   7.9437  10.2194  13.9716

          k =-1.7772 0.0000 0.1660 (  4075 PWs)   bands (ev):

   -39.2610 -39.2021 -39.0854 -38.9800 -38.8436 -38.7267  -4.8087   2.6339
     4.0852   4.8084   5.6425   7.1321   8.9365  10.4882  10.7261

          k = 2.6657 2.5651-0.1107 (  4108 PWs)   bands (ev):

   -39.1593 -39.0607 -39.0094 -38.9138 -38.8072 -38.7517  -1.2539   4.0475
     5.4956   5.7731   6.6442   7.6223   8.6866   9.3215  10.1687

          k = 1.7772 2.0521-0.0553 (  4111 PWs)   bands (ev):

   -39.1593 -39.0607 -39.0094 -38.9138 -38.8072 -38.7517  -1.2539   4.0477
     5.5225   5.7134   6.7906   7.3867   9.0062   9.2457   9.9741

          k = 0.8886 1.5391 0.0000 (  4086 PWs)   bands (ev):

   -39.2610 -39.2021 -39.0854 -38.9800 -38.8437 -38.7267  -4.8087   2.6340
     4.0736   4.8651   5.5504   7.2562   8.7766  10.5042  10.8148

          k =-1.7772 1.0260 0.2214 (  4078 PWs)   bands (ev):

   -39.2229 -39.1630 -39.0602 -38.9580 -38.8296 -38.7327  -3.9059   3.3282
     4.4426   5.1836   6.0858   6.6613   7.7573   9.3927  11.5966

          k = 2.6657 3.5911-0.0553 (  4101 PWs)   bands (ev):

   -39.1593 -39.0607 -39.0094 -38.9137 -38.8072 -38.7517  -1.2539   4.0477
     5.4744   5.8088   6.6268   7.6012   8.7254   9.4264   9.9598

          k = 1.7772 3.0781 0.0000 (  4132 PWs)   bands (ev):

   -39.1313 -38.9923 -38.9834 -38.8910 -38.8122 -38.7598   2.5527   2.5773
     4.7181   7.3871   8.5049   8.8203   9.4204   9.5984   9.6464

          k = 2.6657-1.5391-0.3321 (  4104 PWs)   bands (ev):

   -39.1587 -39.0582 -39.0090 -38.9136 -38.8082 -38.7537  -0.0537   1.2509
     5.5735   6.2097   6.3858   7.3467   8.0349   8.8263  10.6829

          k = 0.0000-0.0000 0.1660 (  4020 PWs)   bands (ev):

   -39.4658 -39.3475 -39.2064 -39.0883 -38.9208 -38.7262  -7.5661   0.3736
     2.9289   3.3928   4.0836   5.3495   7.4209   9.5889  14.3810

          k =-0.8886-0.5130 0.2214 (  4051 PWs)   bands (ev):

   -39.3845 -39.2932 -39.1586 -39.0452 -38.8892 -38.7225  -6.6399   1.1377
     3.3079   3.8265   4.6441   5.8996   8.0572  10.0916  14.3249

          k = 3.5543 2.0521-0.0553 (  4070 PWs)   bands (ev):

   -39.2229 -39.1629 -39.0602 -38.9580 -38.8295 -38.7327  -3.9059   3.3276
     4.4559   5.1458   6.0880   6.8090   7.5258   9.6371  11.3176

          k = 2.6657 1.5391 0.0000 (  4088 PWs)   bands (ev):

   -39.1587 -39.0582 -39.0090 -38.9135 -38.8082 -38.7537  -0.0537   1.2509
     5.5964   6.0482   6.6211   7.2007   8.0678   8.8579  10.6563

          k = 1.7772 1.0260 0.0553 (  4070 PWs)   bands (ev):

   -39.2229 -39.1629 -39.0602 -38.9580 -38.8296 -38.7327  -3.9059   3.3291
     4.4217   5.2800   5.9262   6.6943   7.9567   9.1087  12.0845

          k =-0.8886 0.5130 0.2767 (  4050 PWs)   bands (ev):

   -39.3844 -39.2932 -39.1586 -39.0452 -38.8892 -38.7226  -6.6399   1.1377
     3.3149   3.8021   4.6870   5.8505   8.1197  10.0277  14.1570

          k = 3.5543 3.0781 0.0000 (  4087 PWs)   bands (ev):

   -39.2610 -39.2022 -39.0854 -38.9800 -38.8437 -38.7267  -4.8087   2.6335
     4.1109   4.7127   5.8305   6.8902   9.2840  10.3520  10.5911

          k = 2.6657 2.5651 0.0553 (  4108 PWs)   bands (ev):

   -39.1593 -39.0607 -39.0094 -38.9138 -38.8072 -38.7517  -1.2539   4.0474
     5.4672   5.8498   6.5180   7.8972   8.3821   9.3731  10.2544

          k = 1.7772 2.0521 0.1107 (  4112 PWs)   bands (ev):

   -39.1593 -39.0607 -39.0094 -38.9138 -38.8072 -38.7517  -1.2539   4.0478
     5.5071   5.7348   6.7824   7.3802   9.0028   9.3405   9.8513

          k = 3.5543-2.0521-0.2767 (  4078 PWs)   bands (ev):

   -39.2230 -39.1630 -39.0602 -38.9580 -38.8296 -38.7327  -3.9059   3.3270
     4.4736   5.0858   6.2456   6.6918   7.4794   9.8269  11.0710

          k = 2.6657-2.5651-0.2214 (  4104 PWs)   bands (ev):

   -39.1593 -39.0607 -39.0094 -38.9137 -38.8072 -38.7517  -1.2539   4.0475
     5.4588   5.8674   6.5076   7.8720   8.4172   9.4099  10.1586

          k = 1.7772-3.0781-0.1660 (  4130 PWs)   bands (ev):

   -39.1313 -38.9923 -38.9834 -38.8910 -38.8122 -38.7598   2.5527   2.5773
     4.7181   7.3871   8.5049   8.8203   9.4215   9.5893   9.6560

          k = 2.6657-1.5391-0.1660 (  4107 PWs)   bands (ev):

   -39.1587 -39.0582 -39.0090 -38.9136 -38.8082 -38.7537  -0.0537   1.2509
     5.5806   6.1360   6.4800   7.3016   8.0469   8.8368  10.6741

          k = 0.0000-0.0000 0.3321 (  4029 PWs)   bands (ev):

   -39.4658 -39.3475 -39.2064 -39.0884 -38.9208 -38.7262  -7.5661   0.3736
     2.9476   3.3327   4.1797   5.2470   7.5440   9.4617  14.6550

          k = 4.4429 2.5651 0.0553 (  4044 PWs)   bands (ev):

   -39.3844 -39.2933 -39.1586 -39.0452 -38.8892 -38.7225  -6.6399   1.1377
     3.3288   3.7602   4.7667   5.7587   8.2432   9.8896  14.5123

          k = 3.5543 2.0521 0.1107 (  4074 PWs)   bands (ev):

   -39.2230 -39.1629 -39.0602 -38.9580 -38.8295 -38.7327  -3.9059   3.3266
     4.4814   5.0682   6.2308   6.8101   7.3448   9.9992  10.8906

          k = 4.4429-2.5651-0.2214 (  4050 PWs)   bands (ev):

   -39.3844 -39.2933 -39.1586 -39.0452 -38.8892 -38.7225  -6.6399   1.1377
     3.3330   3.7488   4.7902   5.7319   8.2780   9.8538  14.3685

          k = 3.5543-3.0781-0.1660 (  4080 PWs)   bands (ev):

   -39.2610 -39.2022 -39.0853 -38.9800 -38.8436 -38.7267  -4.8087   2.6333
     4.1256   4.6692   5.9409   6.7566   9.5252  10.1616  10.5673

          k =-0.0000-0.0000-0.4981 (  4042 PWs)   bands (ev):

   -39.4658 -39.3476 -39.2064 -39.0884 -38.9208 -38.7263  -7.5661   0.3736
     2.9584   3.3039   4.2292   5.1931   7.6081   9.3949  14.8222

     the Fermi energy is     6.7059 ev

!    total energy              =     -94.41133768 Ry
     estimated scf accuracy    <          6.8E-09 Ry
     smearing contrib. (-TS)   =      -0.00204522 Ry
     internal energy E=F+TS    =     -94.40929246 Ry

     The total energy is F=E-TS. E is the sum of the following terms:
     one-electron contribution =     -40.71771940 Ry
     hartree contribution      =      19.55615644 Ry
     xc contribution           =     -24.29835791 Ry
     ewald contribution        =     -48.94937159 Ry

     convergence has been achieved in  11 iterations

     Forces acting on atoms (cartesian axes, Ry/au):

     atom    1 type  1   force =     0.00000000    0.00000000    0.00689360
     atom    2 type  1   force =    -0.00000000   -0.00000000   -0.00183710
     atom    3 type  1   force =     0.00000000   -0.00000000    0.05646148
     atom    4 type  1   force =     0.00000000   -0.00000000   -0.02118222
     atom    5 type  1   force =     0.00000000    0.00000000   -0.00578832
     atom    6 type  1   force =     0.00000000    0.00000000    0.01226514
     atom    7 type  2   force =     0.00000000    0.00000000   -0.04681256

     Total force =     0.077864     Total SCF correction =     0.000214


     Computing stress (Cartesian axis) and pressure

          total   stress  (Ry/bohr**3)                   (kbar)     P=      506.06
   0.00340123  -0.00000000   0.00000000          500.34       -0.00        0.00
   0.00000000   0.00340123   0.00000000            0.00      500.34        0.00
  -0.00000000   0.00000000   0.00351796           -0.00        0.00      517.51

     Energy error            =      2.7E-02 Ry
     Gradient error          =      5.6E-02 Ry/Bohr
     Cell gradient error     =      1.8E+01 kbar

     number of scf cycles    =   4
     number of bfgs steps    =   3

     enthalpy           old  =     -92.9623914490 Ry
     enthalpy           new  =     -92.9892386339 Ry

     CASE: enthalpy          _new < enthalpy          _old

     new trust radius        =       0.0932815121 bohr
ibrav =      5
 celldm(1) =     24.17498269
 celldm(4) =      0.98292712
Input lattice vectors:
     0.09338927    -0.05391832     1.00501577
     0.00000000     0.10783664     1.00501577
    -0.09338927    -0.05391832     1.00501577
New lattice vectors in INITIAL alat:
     0.09338927    -0.05391832     1.00501577
     0.00000000     0.10783664     1.00501577
    -0.09338927    -0.05391832     1.00501577
New lattice vectors in NEW alat (for information only):
     0.09239286    -0.05334304     0.99429275
     0.00000000     0.10668608     0.99429275
    -0.09239286    -0.05334304     0.99429275
Discrepancy in bohr =     0.000000    0.000000    0.000000
     new conv_thr            =       0.0000000054 Ry

     new unit-cell volume =    415.41312 a.u.^3 (    61.55787 Ang^3 )
     density =      1.88102 g/cm^3

CELL_PARAMETERS (alat= 23.91704779)
   0.093389273  -0.053918322   1.005015766
   0.000000000   0.107836644   1.005015766
  -0.093389273  -0.053918322   1.005015766

ATOMIC_POSITIONS (crystal)
Li               0.3612348175        0.3612348175        0.3612348175
Li               0.4453032394        0.4453032394        0.4453032394
Li               0.5304865890        0.5304865890        0.5304865890
Li               0.5876252499        0.5876252499        0.5876252499
Li               0.7386959072        0.7386959072        0.7386959072
Li               0.8184429409        0.8184429409        0.8184429409
Si               0.3065062661        0.3065062661        0.3065062661



     Writing config-only to output data dir ./output/LiSi.save/ :
     XML data file
     NEW-OLD atomic charge density approx. for the potential

     total cpu time spent up to now is      178.2 secs

     per-process dynamical memory:    66.7 Mb

     Self-consistent Calculation

     iteration #  1     ecut=    70.00 Ry     beta= 0.70
     Davidson diagonalization with overlap
     ethr =  1.00E-06,  avg # of iterations =  6.5

     total cpu time spent up to now is      184.6 secs

     total energy              =     -94.40183815 Ry
     estimated scf accuracy    <       0.00876268 Ry

     iteration #  2     ecut=    70.00 Ry     beta= 0.70
     Davidson diagonalization with overlap
     ethr =  3.98E-05,  avg # of iterations =  4.5

     total cpu time spent up to now is      188.5 secs

     total energy              =     -94.36809080 Ry
     estimated scf accuracy    <       0.72477950 Ry

     iteration #  3     ecut=    70.00 Ry     beta= 0.70
     Davidson diagonalization with overlap
     ethr =  3.98E-05,  avg # of iterations =  4.6

     total cpu time spent up to now is      192.5 secs

     total energy              =     -94.40030597 Ry
     estimated scf accuracy    <       0.13019259 Ry

     iteration #  4     ecut=    70.00 Ry     beta= 0.70
     Davidson diagonalization with overlap
     ethr =  3.98E-05,  avg # of iterations =  2.3

     total cpu time spent up to now is      195.5 secs

     total energy              =     -94.40674646 Ry
     estimated scf accuracy    <       0.02097761 Ry

     iteration #  5     ecut=    70.00 Ry     beta= 0.70
     Davidson diagonalization with overlap
     ethr =  3.98E-05,  avg # of iterations =  1.2

     total cpu time spent up to now is      198.4 secs

     total energy              =     -94.40778025 Ry
     estimated scf accuracy    <       0.00433071 Ry

     iteration #  6     ecut=    70.00 Ry     beta= 0.70
     Davidson diagonalization with overlap
     ethr =  1.97E-05,  avg # of iterations =  1.1

     total cpu time spent up to now is      201.3 secs

     total energy              =     -94.40799028 Ry
     estimated scf accuracy    <       0.00004306 Ry

     iteration #  7     ecut=    70.00 Ry     beta= 0.70
     Davidson diagonalization with overlap
     ethr =  1.96E-07,  avg # of iterations =  2.8

     total cpu time spent up to now is      204.4 secs

     total energy              =     -94.40799853 Ry
     estimated scf accuracy    <       0.00002632 Ry

     iteration #  8     ecut=    70.00 Ry     beta= 0.70
     Davidson diagonalization with overlap
     ethr =  1.20E-07,  avg # of iterations =  1.3

     total cpu time spent up to now is      207.2 secs

     total energy              =     -94.40800166 Ry
     estimated scf accuracy    <       0.00000016 Ry

     iteration #  9     ecut=    70.00 Ry     beta= 0.70
     Davidson diagonalization with overlap
     ethr =  7.36E-10,  avg # of iterations =  3.5

     total cpu time spent up to now is      210.6 secs

     total energy              =     -94.40800174 Ry
     estimated scf accuracy    <       0.00000011 Ry

     iteration # 10     ecut=    70.00 Ry     beta= 0.70
     Davidson diagonalization with overlap
     ethr =  4.79E-10,  avg # of iterations =  1.9

     total cpu time spent up to now is      213.6 secs

     total energy              =     -94.40800176 Ry
     estimated scf accuracy    <       0.00000002 Ry

     iteration # 11     ecut=    70.00 Ry     beta= 0.70
     Davidson diagonalization with overlap
     ethr =  9.28E-11,  avg # of iterations =  1.6

     total cpu time spent up to now is      216.5 secs

     End of self-consistent calculation

          k = 0.0000 0.0000 0.0000 (  4017 PWs)   bands (ev):

   -39.3889 -39.2775 -39.1230 -39.0160 -38.8530 -38.6531  -7.5903   0.3630
     2.9828   3.4862   4.0925   5.4050   7.3311   9.5743  14.5160

          k =-0.8923-0.5152 0.0553 (  4049 PWs)   bands (ev):

   -39.3085 -39.2202 -39.0737 -38.9711 -38.8190 -38.6477  -6.6555   1.1394
     3.3604   3.9415   4.6019   6.0301   7.9032  10.2004  14.1810

          k =-1.7846-1.0304 0.1106 (  4072 PWs)   bands (ev):

   -39.1557 -39.0763 -38.9730 -38.8797 -38.7537 -38.6550  -3.8975   3.3664
     4.5092   5.3192   5.9858   6.8363   7.8759   9.2854  11.9629

          k = 2.6770 1.5455-0.1658 (  4082 PWs)   bands (ev):

   -39.0926 -38.9675 -38.9212 -38.8325 -38.7274 -38.6771  -0.0331   1.3348
     5.7000   6.0650   6.7699   7.2314   8.1509   8.9420  10.6970

          k =-0.8923 0.5152 0.1106 (  4050 PWs)   bands (ev):

   -39.3084 -39.2202 -39.0737 -38.9711 -38.8190 -38.6477  -6.6555   1.1394
     3.3634   3.9279   4.6230   6.0066   7.9317  10.1728  14.1501

          k =-1.7846 0.0000 0.1658 (  4075 PWs)   bands (ev):

   -39.1911 -39.1194 -38.9986 -38.9029 -38.7694 -38.6495  -4.8080   2.6592
     4.1630   4.8660   5.6876   7.1719   8.9708  10.5850  10.7880

          k = 2.6770 2.5759-0.1106 (  4108 PWs)   bands (ev):

   -39.0932 -38.9701 -38.9215 -38.8328 -38.7265 -38.6749  -1.2256   4.1327
     5.5584   5.8640   6.7237   7.6779   8.7548   9.4460  10.2721

          k = 1.7846 2.0607-0.0553 (  4111 PWs)   bands (ev):

   -39.0933 -38.9701 -38.9216 -38.8328 -38.7265 -38.6749  -1.2256   4.1329
     5.5825   5.8053   6.8841   7.4278   9.0839   9.3555  10.0811

          k = 0.8923 1.5455 0.0000 (  4086 PWs)   bands (ev):

   -39.1911 -39.1194 -38.9986 -38.9029 -38.7694 -38.6495  -4.8080   2.6594
     4.1512   4.9236   5.5954   7.2941   8.8136  10.6039  10.8780

          k =-1.7846 1.0304 0.2211 (  4078 PWs)   bands (ev):

   -39.1557 -39.0764 -38.9729 -38.8797 -38.7537 -38.6550  -3.8976   3.3659
     4.5244   5.2454   6.1279   6.7562   7.8031   9.4410  11.6698

          k = 2.6770 3.6063-0.0553 (  4101 PWs)   bands (ev):

   -39.0932 -38.9701 -38.9215 -38.8328 -38.7265 -38.6749  -1.2256   4.1329
     5.5401   5.8960   6.7085   7.6542   8.8004   9.5465  10.0576

          k = 1.7846 3.0911 0.0000 (  4132 PWs)   bands (ev):

   -39.0647 -38.9002 -38.8957 -38.8081 -38.7283 -38.6851   2.5959   2.6154
     4.8755   7.5137   8.6012   8.9394   9.5118   9.6888   9.7471

          k = 2.6770-1.5455-0.3317 (  4104 PWs)   bands (ev):

   -39.0927 -38.9675 -38.9212 -38.8325 -38.7274 -38.6771  -0.0331   1.3348
     5.6641   6.2490   6.4781   7.4452   8.1043   8.8953  10.7356

          k =-0.0000-0.0000 0.1658 (  4020 PWs)   bands (ev):

   -39.3890 -39.2775 -39.1230 -39.0161 -38.8530 -38.6531  -7.5903   0.3630
     2.9906   3.4546   4.1405   5.3562   7.3873   9.5198  14.6373

          k =-0.8923-0.5152 0.2211 (  4051 PWs)   bands (ev):

   -39.3085 -39.2202 -39.0737 -38.9711 -38.8190 -38.6477  -6.6555   1.1394
     3.3751   3.8820   4.6986   5.9207   8.0396  10.0569  14.4890

          k = 3.5693 2.0607-0.0553 (  4070 PWs)   bands (ev):

   -39.1557 -39.0763 -38.9730 -38.8797 -38.7537 -38.6550  -3.8976   3.3653
     4.5387   5.2042   6.1420   6.8927   7.5762   9.6756  11.4034

          k = 2.6770 1.5455 0.0000 (  4088 PWs)   bands (ev):

   -39.0926 -38.9675 -38.9212 -38.8325 -38.7274 -38.6771  -0.0331   1.3348
     5.6897   6.1001   6.6979   7.2944   8.1409   8.9302  10.7067

          k = 1.7846 1.0304 0.0553 (  4070 PWs)   bands (ev):

   -39.1557 -39.0763 -38.9729 -38.8797 -38.7537 -38.6550  -3.8975   3.3667
     4.5030   5.3446   5.9688   6.7876   7.9989   9.1611  12.1770

          k =-0.8923 0.5152 0.2764 (  4050 PWs)   bands (ev):

   -39.3084 -39.2202 -39.0737 -38.9712 -38.8190 -38.6477  -6.6555   1.1394
     3.3820   3.8583   4.7407   5.8726   8.0986   9.9983  14.3296

          k = 3.5693 3.0911 0.0000 (  4087 PWs)   bands (ev):

   -39.1911 -39.1194 -38.9986 -38.9029 -38.7694 -38.6495  -4.8080   2.6589
     4.1896   4.7687   5.8748   6.9332   9.3113  10.4239  10.6739

          k = 2.6770 2.5759 0.0553 (  4108 PWs)   bands (ev):

   -39.0932 -38.9701 -38.9215 -38.8328 -38.7265 -38.6749  -1.2256   4.1326
     5.5323   5.9408   6.5910   7.9622   8.4434   9.5029  10.3559

          k = 1.7846 2.0607 0.1106 (  4112 PWs)   bands (ev):

   -39.0932 -38.9701 -38.9216 -38.8328 -38.7265 -38.6749  -1.2256   4.1330
     5.5700   5.8235   6.8774   7.4199   9.0918   9.4355   9.9605

          k = 3.5693-2.0607-0.2764 (  4078 PWs)   bands (ev):

   -39.1557 -39.0764 -38.9730 -38.8797 -38.7537 -38.6550  -3.8976   3.3648
     4.5568   5.1443   6.2926   6.7810   7.5306   9.8640  11.1506

          k = 2.6770-2.5759-0.2211 (  4104 PWs)   bands (ev):

   -39.0932 -38.9701 -38.9215 -38.8328 -38.7265 -38.6749  -1.2256   4.1327
     5.5248   5.9570   6.5815   7.9344   8.4820   9.5396  10.2560

          k = 1.7846-3.0911-0.1658 (  4130 PWs)   bands (ev):

   -39.0647 -38.9002 -38.8957 -38.8080 -38.7283 -38.6851   2.5959   2.6154
     4.8755   7.5137   8.6012   8.9394   9.5130   9.6803   9.7563

          k = 2.6770-1.5455-0.1658 (  4107 PWs)   bands (ev):

   -39.0927 -38.9675 -38.9212 -38.8325 -38.7274 -38.6771  -0.0331   1.3348
     5.6720   6.1850   6.5618   7.3982   8.1178   8.9069  10.7260

          k =-0.0000-0.0000 0.3317 (  4029 PWs)   bands (ev):

   -39.3890 -39.2776 -39.1230 -39.0161 -38.8530 -38.6531  -7.5903   0.3630
     3.0082   3.3968   4.2357   5.2553   7.5019   9.4067  14.9263

          k = 4.4616 2.5759 0.0553 (  4044 PWs)   bands (ev):

   -39.3084 -39.2202 -39.0737 -38.9712 -38.8190 -38.6477  -6.6555   1.1394
     3.3958   3.8171   4.8201   5.7815   8.2147   9.8730  14.6677

          k = 3.5693 2.0607 0.1106 (  4074 PWs)   bands (ev):

   -39.1557 -39.0763 -38.9730 -38.8797 -38.7537 -38.6550  -3.8975   3.3645
     4.5653   5.1251   6.2866   6.8898   7.3986  10.0240  10.9836

          k = 4.4616-2.5759-0.2211 (  4050 PWs)   bands (ev):

   -39.3084 -39.2202 -39.0737 -38.9712 -38.8190 -38.6477  -6.6555   1.1394
     3.3999   3.8059   4.8433   5.7551   8.2471   9.8404  14.5340

          k = 3.5693-3.0911-0.1658 (  4080 PWs)   bands (ev):

   -39.1911 -39.1194 -38.9985 -38.9029 -38.7694 -38.6495  -4.8080   2.6587
     4.2050   4.7244   5.9840   6.8015   9.5429  10.2310  10.6578

          k =-0.0000-0.0000-0.4975 (  4042 PWs)   bands (ev):

   -39.3889 -39.2776 -39.1230 -39.0162 -38.8530 -38.6532  -7.5903   0.3630
     3.0183   3.3692   4.2851   5.2018   7.5612   9.3474  15.1131

     the Fermi energy is     6.7875 ev

!    total energy              =     -94.40800176 Ry
     estimated scf accuracy    <          5.3E-10 Ry
     smearing contrib. (-TS)   =      -0.00220570 Ry
     internal energy E=F+TS    =     -94.40579606 Ry

     The total energy is F=E-TS. E is the sum of the following terms:
     one-electron contribution =     -39.88040953 Ry
     hartree contribution      =      19.19737059 Ry
     xc contribution           =     -24.30757585 Ry
     ewald contribution        =     -49.41518126 Ry

     convergence has been achieved in  11 iterations

     Forces acting on atoms (cartesian axes, Ry/au):

     atom    1 type  1   force =     0.00000000    0.00000000    0.00330536
     atom    2 type  1   force =     0.00000000    0.00000000   -0.00167728
     atom    3 type  1   force =    -0.00000000    0.00000000    0.04331403
     atom    4 type  1   force =     0.00000000    0.00000000   -0.00923141
     atom    5 type  1   force =     0.00000000    0.00000000   -0.00577977
     atom    6 type  1   force =    -0.00000000   -0.00000000    0.01786406
     atom    7 type  2   force =     0.00000000    0.00000000   -0.04779497

     Total force =     0.067911     Total SCF correction =     0.000054


     Computing stress (Cartesian axis) and pressure

          total   stress  (Ry/bohr**3)                   (kbar)     P=      513.84
   0.00349178   0.00000000  -0.00000000          513.66        0.00       -0.00
   0.00000000   0.00349178   0.00000000            0.00      513.66        0.00
   0.00000000   0.00000000   0.00349540            0.00        0.00      514.19

     Energy error            =      6.8E-03 Ry
     Gradient error          =      4.8E-02 Ry/Bohr
     Cell gradient error     =      1.4E+01 kbar

     number of scf cycles    =   5
     number of bfgs steps    =   4

     enthalpy           old  =     -92.9892386339 Ry
     enthalpy           new  =     -92.9960412700 Ry

     CASE: enthalpy          _new < enthalpy          _old

     new trust radius        =       0.1027385610 bohr
ibrav =      5
 celldm(1) =     24.21929231
 celldm(4) =      0.98304176
Input lattice vectors:
     0.09324579    -0.05383548     1.00689675
     0.00000000     0.10767097     1.00689675
    -0.09324579    -0.05383548     1.00689675
New lattice vectors in INITIAL alat:
     0.09324579    -0.05383548     1.00689675
     0.00000000     0.10767097     1.00689675
    -0.09324579    -0.05383548     1.00689675
New lattice vectors in NEW alat (for information only):
     0.09208213    -0.05316364     0.99433119
     0.00000000     0.10632729     0.99433119
    -0.09208213    -0.05316364     0.99433119
Discrepancy in bohr =     0.000000    0.000000    0.000000
     new conv_thr            =       0.0000000014 Ry

     new unit-cell volume =    414.91274 a.u.^3 (    61.48373 Ang^3 )
     density =      1.88329 g/cm^3

CELL_PARAMETERS (alat= 23.91704779)
   0.093245794  -0.053835484   1.006896748
   0.000000000   0.107670968   1.006896748
  -0.093245794  -0.053835484   1.006896748

ATOMIC_POSITIONS (crystal)
Li               0.3611232281        0.3611232281        0.3611232281
Li               0.4452587994        0.4452587994        0.4452587994
Li               0.5319113164        0.5319113164        0.5319113164
Li               0.5868202229        0.5868202229        0.5868202229
Li               0.7385939499        0.7385939499        0.7385939499
Li               0.8187896254        0.8187896254        0.8187896254
Si               0.3057978679        0.3057978679        0.3057978679



     Writing config-only to output data dir ./output/LiSi.save/ :
     XML data file
     NEW-OLD atomic charge density approx. for the potential

     total cpu time spent up to now is      217.3 secs

     per-process dynamical memory:    66.7 Mb

     Self-consistent Calculation

     iteration #  1     ecut=    70.00 Ry     beta= 0.70
     Davidson diagonalization with overlap
     ethr =  1.00E-06,  avg # of iterations =  6.8

     total cpu time spent up to now is      223.6 secs

     total energy              =     -94.40317736 Ry
     estimated scf accuracy    <       0.01313113 Ry

     iteration #  2     ecut=    70.00 Ry     beta= 0.70
     Davidson diagonalization with overlap
     ethr =  5.97E-05,  avg # of iterations =  4.4

     total cpu time spent up to now is      227.4 secs

     total energy              =     -94.33097824 Ry
     estimated scf accuracy    <       1.68465024 Ry

     iteration #  3     ecut=    70.00 Ry     beta= 0.70
     Davidson diagonalization with overlap
     ethr =  5.97E-05,  avg # of iterations =  4.7

     total cpu time spent up to now is      231.2 secs

     total energy              =     -94.40436608 Ry
     estimated scf accuracy    <       0.12961946 Ry

     iteration #  4     ecut=    70.00 Ry     beta= 0.70
[...]
         7        Si     tau(   7) = (   0.0000000  -0.0000000   0.9271160  )

     number of k points=    32  Marzari-Vanderbilt smearing, width (Ry)=  0.0200
                       cart. coord. in units 2pi/alat
        k(    1) = (   0.0000000   0.0000000   0.0000000), wk =   0.0092593
        k(    2) = (  -0.8988530  -0.5189530   0.0540297), wk =   0.0555556
        k(    3) = (  -1.7977059  -1.0379060   0.1080593), wk =   0.0555556
        k(    4) = (   2.6965589   1.5568590  -0.1620890), wk =   0.0277778
        k(    5) = (  -0.8988530   0.5189530   0.1080593), wk =   0.0555556
        k(    6) = (  -1.7977059  -0.0000000   0.1620890), wk =   0.1111111
        k(    7) = (   2.6965589   2.5947650  -0.1080593), wk =   0.1111111
        k(    8) = (   1.7977059   2.0758120  -0.0540297), wk =   0.1111111
        k(    9) = (   0.8988530   1.5568590   0.0000000), wk =   0.0555556
        k(   10) = (  -1.7977059   1.0379060   0.2161187), wk =   0.0555556
        k(   11) = (   2.6965589   3.6326710  -0.0540297), wk =   0.1111111
        k(   12) = (   1.7977059   3.1137180   0.0000000), wk =   0.0555556
        k(   13) = (   2.6965589  -1.5568590  -0.3241780), wk =   0.0277778
        k(   14) = (  -0.0000000  -0.0000000   0.1620890), wk =   0.0185185
        k(   15) = (  -0.8988530  -0.5189530   0.2161187), wk =   0.0555556
        k(   16) = (   3.5954119   2.0758120  -0.0540297), wk =   0.0555556
        k(   17) = (   2.6965589   1.5568590   0.0000000), wk =   0.0555556
        k(   18) = (   1.7977059   1.0379060   0.0540297), wk =   0.0555556
        k(   19) = (  -0.8988530   0.5189530   0.2701484), wk =   0.0555556
        k(   20) = (   3.5954119   3.1137180   0.0000000), wk =   0.1111111
        k(   21) = (   2.6965589   2.5947650   0.0540297), wk =   0.1111111
        k(   22) = (   1.7977059   2.0758120   0.1080593), wk =   0.1111111
        k(   23) = (   3.5954119  -2.0758120  -0.2701484), wk =   0.0555556
        k(   24) = (   2.6965589  -2.5947650  -0.2161187), wk =   0.1111111
        k(   25) = (   1.7977059  -3.1137180  -0.1620890), wk =   0.0555556
        k(   26) = (   2.6965589  -1.5568590  -0.1620890), wk =   0.0555556
        k(   27) = (  -0.0000000  -0.0000000   0.3241780), wk =   0.0185185
        k(   28) = (   4.4942649   2.5947650   0.0540297), wk =   0.0555556
        k(   29) = (   3.5954119   2.0758120   0.1080593), wk =   0.0555556
        k(   30) = (   4.4942649  -2.5947650  -0.2161187), wk =   0.0555556
        k(   31) = (   3.5954119  -3.1137180  -0.1620890), wk =   0.0555556
        k(   32) = (  -0.0000000   0.0000000  -0.4862670), wk =   0.0092593

     Dense  grid:    33143 G-vectors     FFT dimensions: ( 135, 135, 135)

     Estimated max dynamical RAM per process >      25.47 MB

     Estimated total dynamical RAM >     407.50 MB

     Initial potential from superposition of free atoms

     starting charge      21.9720, renormalised to      22.0000
     Starting wfcs are   16 randomized atomic wfcs

     total cpu time spent up to now is      668.6 secs

     per-process dynamical memory:    53.1 Mb

     Self-consistent Calculation

     iteration #  1     ecut=    70.00 Ry     beta= 0.70
     Davidson diagonalization with overlap
     c_bands:  1 eigenvalues not converged
     c_bands:  1 eigenvalues not converged
     c_bands:  1 eigenvalues not converged
     c_bands:  1 eigenvalues not converged
     ethr =  1.00E-06,  avg # of iterations = 16.5

     total cpu time spent up to now is      683.4 secs

     total energy              =     -92.11443115 Ry
     estimated scf accuracy    <       2.76691204 Ry

     iteration #  2     ecut=    70.00 Ry     beta= 0.70
     Davidson diagonalization with overlap
     ethr =  1.00E-02,  avg # of iterations =  6.2

     total cpu time spent up to now is      690.7 secs

     total energy              =     -93.31539409 Ry
     estimated scf accuracy    <      62.01077684 Ry

     iteration #  3     ecut=    70.00 Ry     beta= 0.70
     Davidson diagonalization with overlap
     ethr =  1.00E-02,  avg # of iterations =  4.1

     total cpu time spent up to now is      696.8 secs

     total energy              =     -94.45416790 Ry
     estimated scf accuracy    <      14.16695936 Ry

     iteration #  4     ecut=    70.00 Ry     beta= 0.70
     Davidson diagonalization with overlap
     ethr =  1.00E-02,  avg # of iterations =  2.0

     total cpu time spent up to now is      701.1 secs

     total energy              =     -94.50903201 Ry
     estimated scf accuracy    <       4.53881191 Ry

     iteration #  5     ecut=    70.00 Ry     beta= 0.70
     Davidson diagonalization with overlap
     ethr =  1.00E-02,  avg # of iterations =  1.3

     total cpu time spent up to now is      705.3 secs

     total energy              =     -94.46960636 Ry
     estimated scf accuracy    <       2.66749702 Ry

     iteration #  6     ecut=    70.00 Ry     beta= 0.70
     Davidson diagonalization with overlap
     ethr =  1.00E-02,  avg # of iterations =  1.3

     total cpu time spent up to now is      709.6 secs

     total energy              =     -94.33545338 Ry
     estimated scf accuracy    <       1.39692553 Ry

     iteration #  7     ecut=    70.00 Ry     beta= 0.70
     Davidson diagonalization with overlap
     ethr =  6.35E-03,  avg # of iterations =  1.9

     total cpu time spent up to now is      714.0 secs

     total energy              =     -94.45760000 Ry
     estimated scf accuracy    <       0.44536094 Ry

     iteration #  8     ecut=    70.00 Ry     beta= 0.70
     Davidson diagonalization with overlap
     ethr =  2.02E-03,  avg # of iterations =  1.2

     total cpu time spent up to now is      718.1 secs

     total energy              =     -94.43535920 Ry
     estimated scf accuracy    <       0.25057056 Ry

     iteration #  9     ecut=    70.00 Ry     beta= 0.70
     Davidson diagonalization with overlap
     ethr =  1.14E-03,  avg # of iterations =  1.1

     total cpu time spent up to now is      722.3 secs

     total energy              =     -94.44692867 Ry
     estimated scf accuracy    <       0.00713963 Ry

     iteration # 10     ecut=    70.00 Ry     beta= 0.70
     Davidson diagonalization with overlap
     ethr =  3.25E-05,  avg # of iterations =  4.4

     total cpu time spent up to now is      727.3 secs

     total energy              =     -94.43945282 Ry
     estimated scf accuracy    <       0.15311274 Ry

     iteration # 11     ecut=    70.00 Ry     beta= 0.70
     Davidson diagonalization with overlap
     ethr =  3.25E-05,  avg # of iterations =  3.3

     total cpu time spent up to now is      732.0 secs

     total energy              =     -94.44608519 Ry
     estimated scf accuracy    <       0.00381844 Ry

     iteration # 12     ecut=    70.00 Ry     beta= 0.70
     Davidson diagonalization with overlap
     ethr =  1.74E-05,  avg # of iterations =  1.0

     total cpu time spent up to now is      736.3 secs

     total energy              =     -94.44622705 Ry
     estimated scf accuracy    <       0.00029548 Ry

     iteration # 13     ecut=    70.00 Ry     beta= 0.70
     Davidson diagonalization with overlap
     ethr =  1.34E-06,  avg # of iterations =  2.0

     total cpu time spent up to now is      740.7 secs

     total energy              =     -94.44623584 Ry
     estimated scf accuracy    <       0.00002695 Ry

     iteration # 14     ecut=    70.00 Ry     beta= 0.70
     Davidson diagonalization with overlap
     ethr =  1.22E-07,  avg # of iterations =  1.8

     total cpu time spent up to now is      745.0 secs

     total energy              =     -94.44623870 Ry
     estimated scf accuracy    <       0.00000540 Ry

     iteration # 15     ecut=    70.00 Ry     beta= 0.70
     Davidson diagonalization with overlap
     ethr =  2.45E-08,  avg # of iterations =  1.6

     total cpu time spent up to now is      749.3 secs

     total energy              =     -94.44623868 Ry
     estimated scf accuracy    <       0.00000353 Ry

     iteration # 16     ecut=    70.00 Ry     beta= 0.70
     Davidson diagonalization with overlap
     ethr =  1.61E-08,  avg # of iterations =  1.0

     total cpu time spent up to now is      753.5 secs

     total energy              =     -94.44623895 Ry
     estimated scf accuracy    <       0.00000005 Ry

     iteration # 17     ecut=    70.00 Ry     beta= 0.70
     Davidson diagonalization with overlap
     ethr =  2.16E-10,  avg # of iterations =  2.6

     total cpu time spent up to now is      758.0 secs

     total energy              =     -94.44623895 Ry
     estimated scf accuracy    <          6.8E-09 Ry

     iteration # 18     ecut=    70.00 Ry     beta= 0.70
     Davidson diagonalization with overlap
     ethr =  3.07E-11,  avg # of iterations =  1.4

     total cpu time spent up to now is      762.2 secs

     total energy              =     -94.44623895 Ry
     estimated scf accuracy    <          8.5E-10 Ry

     iteration # 19     ecut=    70.00 Ry     beta= 0.70
     Davidson diagonalization with overlap
     ethr =  3.85E-12,  avg # of iterations =  1.8

     total cpu time spent up to now is      766.6 secs

     total energy              =     -94.44623895 Ry
     estimated scf accuracy    <          1.5E-10 Ry

     iteration # 20     ecut=    70.00 Ry     beta= 0.70
     Davidson diagonalization with overlap
     ethr =  6.61E-13,  avg # of iterations =  1.6

     total cpu time spent up to now is      770.8 secs

     End of self-consistent calculation

          k = 0.0000 0.0000 0.0000 (  4097 PWs)   bands (ev):

   -39.3756 -39.3411 -39.0808 -39.0046 -38.8435 -38.6826  -7.8449   0.2117
     2.8516   3.3281   3.9293   5.1166   6.2704   9.4120  14.7557

          k =-0.8989-0.5190 0.0540 (  4107 PWs)   bands (ev):

   -39.3238 -39.2850 -39.0224 -38.9490 -38.8014 -38.6576  -6.8998   0.9894
     3.2649   3.8091   4.4417   5.7981   7.0301  10.0017  14.0755

          k =-1.7977-1.0379 0.1081 (  4151 PWs)   bands (ev):

   -39.2200 -39.1724 -38.9102 -38.8202 -38.7165 -38.6186  -4.1138   3.1983
     4.5790   5.2601   5.8264   6.7482   7.7551   9.0162  11.8355

          k = 2.6966 1.5569-0.1621 (  4152 PWs)   bands (ev):

   -39.1679 -39.1159 -38.8569 -38.7374 -38.6733 -38.6137  -0.2253   1.1702
     5.7149   6.1323   6.8216   7.2838   8.1293   8.8204  10.7223

          k =-0.8989 0.5190 0.1081 (  4113 PWs)   bands (ev):

   -39.3238 -39.2850 -39.0224 -38.9490 -38.8014 -38.6577  -6.8998   0.9894
     3.2682   3.7950   4.4632   5.7720   7.0528   9.9869  14.0551

          k =-1.7977-0.0000 0.1621 (  4147 PWs)   bands (ev):

   -39.2460 -39.2007 -38.9377 -38.8557 -38.7379 -38.6260  -5.0331   2.5053
     4.1739   4.7780   5.5370   6.9993   8.4572  10.5245  10.6519

          k = 2.6966 2.5948-0.1081 (  4156 PWs)   bands (ev):

   -39.1682 -39.1162 -38.8573 -38.7392 -38.6733 -38.6118  -1.4186   3.9504
     5.4369   6.1070   6.7383   7.6167   8.7048   9.3834  10.2557

          k = 1.7977 2.0758-0.0540 (  4156 PWs)   bands (ev):

   -39.1682 -39.1162 -38.8573 -38.7392 -38.6733 -38.6118  -1.4186   3.9505
     5.4423   6.0575   6.9380   7.3388   9.0330   9.2921  10.0542

          k = 0.8989 1.5569 0.0000 (  4154 PWs)   bands (ev):

   -39.2461 -39.2007 -38.9377 -38.8557 -38.7379 -38.6260  -5.0331   2.5055
     4.1591   4.8442   5.4401   7.1278   8.3180  10.5442  10.7229

          k =-1.7977 1.0379 0.2161 (  4147 PWs)   bands (ev):

   -39.2200 -39.1724 -38.9102 -38.8202 -38.7166 -38.6186  -4.1138   3.1981
     4.6009   5.1668   5.9757   6.6713   7.6825   9.1633  11.5460

          k = 2.6966 3.6327-0.0540 (  4159 PWs)   bands (ev):

   -39.1682 -39.1162 -38.8573 -38.7392 -38.6733 -38.6118  -1.4186   3.9504
     5.4317   6.1295   6.7135   7.6073   8.7372   9.4853  10.0348

          k = 1.7977 3.1137 0.0000 (  4156 PWs)   bands (ev):

   -39.1426 -39.0882 -38.8317 -38.6868 -38.6494 -38.6215   2.4062   2.4615
     4.7558   8.0565   8.4659   8.8587   9.4852   9.8005   9.9668

          k = 2.6966-1.5569-0.3242 (  4154 PWs)   bands (ev):

   -39.1679 -39.1158 -38.8569 -38.7374 -38.6733 -38.6137  -0.2253   1.1702
     5.6929   6.2544   6.5913   7.4867   8.0846   8.7733  10.7498

          k =-0.0000-0.0000 0.1621 (  4094 PWs)   bands (ev):

   -39.3756 -39.3411 -39.0808 -39.0046 -38.8435 -38.6826  -7.8449   0.2117
     2.8595   3.2974   3.9778   5.0610   6.3122   9.3870  14.8876

          k =-0.8989-0.5190 0.2161 (  4098 PWs)   bands (ev):

   -39.3237 -39.2850 -39.0224 -38.9490 -38.8014 -38.6576  -6.8998   0.9894
     3.2807   3.7487   4.5387   5.6795   7.1323   9.9246  14.2859

          k = 3.5954 2.0758-0.0540 (  4140 PWs)   bands (ev):

   -39.2200 -39.1724 -38.9102 -38.8201 -38.7165 -38.6186  -4.1138   3.1977
     4.6185   5.1225   5.9954   6.7838   7.4794   9.3623  11.3212

          k = 2.6966 1.5569 0.0000 (  4151 PWs)   bands (ev):

   -39.1679 -39.1158 -38.8569 -38.7374 -38.6733 -38.6137  -0.2253   1.1702
     5.7089   6.1575   6.7604   7.3421   8.1199   8.8086  10.7292

          k = 1.7977 1.0379 0.0540 (  4151 PWs)   bands (ev):

   -39.2200 -39.1724 -38.9102 -38.8202 -38.7166 -38.6186  -4.1138   3.1985
     4.5720   5.2881   5.8061   6.7062   7.8703   8.9032  12.0168

          k =-0.8989 0.5190 0.2701 (  4112 PWs)   bands (ev):

   -39.3238 -39.2851 -39.0224 -38.9491 -38.8014 -38.6576  -6.8998   0.9894
     3.2883   3.7241   4.5819   5.6276   7.1735   9.8947  14.2075

          k = 3.5954 3.1137 0.0000 (  4145 PWs)   bands (ev):

   -39.2460 -39.2007 -38.9376 -38.8557 -38.7379 -38.6260  -5.0331   2.5051
     4.2091   4.6666   5.7279   6.7567   8.7182  10.3890  10.5882

          k = 2.6966 2.5948 0.0540 (  4160 PWs)   bands (ev):

   -39.1682 -39.1162 -38.8573 -38.7392 -38.6733 -38.6118  -1.4186   3.9503
     5.4293   6.1896   6.5713   7.9157   8.3868   9.4410  10.3468

          k = 1.7977 2.0758 0.1081 (  4163 PWs)   bands (ev):

   -39.1682 -39.1162 -38.8573 -38.7392 -38.6733 -38.6118  -1.4186   3.9505
     5.4395   6.0669   6.9235   7.3408   9.0308   9.3774   9.9315

          k = 3.5954-2.0758-0.2701 (  4150 PWs)   bands (ev):

   -39.2200 -39.1724 -38.9102 -38.8202 -38.7165 -38.6186  -4.1138   3.1974
     4.6486   5.0445   6.1458   6.6754   7.4357   9.5207  11.0933

          k = 2.6966-2.5948-0.2161 (  4158 PWs)   bands (ev):

   -39.1682 -39.1162 -38.8573 -38.7392 -38.6733 -38.6118  -1.4186   3.9504
     5.4268   6.2063   6.5543   7.8985   8.4154   9.4780  10.2417

          k = 1.7977-3.1137-0.1621 (  4154 PWs)   bands (ev):

   -39.1425 -39.0882 -38.8317 -38.6868 -38.6494 -38.6215   2.4062   2.4615
     4.7558   8.0565   8.4659   8.8587   9.4854   9.8005  10.2213

          k = 2.6966-1.5569-0.1621 (  4166 PWs)   bands (ev):

   -39.1679 -39.1159 -38.8569 -38.7374 -38.6733 -38.6137  -0.2253   1.1702
     5.6979   6.2165   6.6495   7.4409   8.0978   8.7850  10.7429

          k =-0.0000-0.0000 0.3242 (  4119 PWs)   bands (ev):

   -39.3756 -39.3411 -39.0808 -39.0047 -38.8435 -38.6826  -7.8449   0.2117
     2.8774   3.2411   4.0761   4.9478   6.3899   9.3368  15.2615

          k = 4.4943 2.5948 0.0540 (  4103 PWs)   bands (ev):

   -39.3237 -39.2850 -39.0224 -38.9490 -38.8014 -38.6577  -6.8998   0.9894
     3.3034   3.6821   4.6625   5.5314   7.2466   9.8322  14.4603

          k = 3.5954 2.0758 0.1081 (  4146 PWs)   bands (ev):

   -39.2200 -39.1724 -38.9102 -38.8202 -38.7165 -38.6186  -4.1138   3.1973
     4.6609   5.0218   6.1457   6.7575   7.3264   9.6346  10.9735

          k = 4.4943-2.5948-0.2161 (  4112 PWs)   bands (ev):

   -39.3238 -39.2851 -39.0224 -38.9491 -38.8014 -38.6577  -6.8998   0.9894
     3.3081   3.6703   4.6869   5.5030   7.2660   9.8170  14.3924

          k = 3.5954-3.1137-0.1621 (  4138 PWs)   bands (ev):

   -39.2460 -39.2007 -38.9376 -38.8557 -38.7379 -38.6260  -5.0331   2.5050
     4.2312   4.6140   5.8382   6.6245   8.8532  10.2822  10.5808

          k =-0.0000 0.0000-0.4863 (  4128 PWs)   bands (ev):

   -39.3756 -39.3412 -39.0808 -39.0047 -38.8435 -38.6826  -7.8449   0.2117
     2.8877   3.2141   4.1292   4.8874   6.4266   9.3117  15.7317

     the Fermi energy is     6.7234 ev

!    total energy              =     -94.44623895 Ry
     estimated scf accuracy    <          1.5E-11 Ry
     smearing contrib. (-TS)   =      -0.00183203 Ry
     internal energy E=F+TS    =     -94.44440692 Ry

     The total energy is F=E-TS. E is the sum of the following terms:
     one-electron contribution =     -36.85217496 Ry
     hartree contribution      =      17.63725995 Ry
     xc contribution           =     -24.29538961 Ry
     ewald contribution        =     -50.93410230 Ry

     convergence has been achieved in  20 iterations

     Forces acting on atoms (cartesian axes, Ry/au):

     atom    1 type  1   force =    -0.00000000    0.00000000   -0.00050454
     atom    2 type  1   force =     0.00000000   -0.00000000    0.00031394
     atom    3 type  1   force =     0.00000000    0.00000000   -0.00012239
     atom    4 type  1   force =    -0.00000000    0.00000000   -0.00010523
     atom    5 type  1   force =    -0.00000000   -0.00000000    0.00042648
     atom    6 type  1   force =    -0.00000000   -0.00000000   -0.00016942
     atom    7 type  2   force =    -0.00000000   -0.00000000    0.00016116

     Total force =     0.000785     Total SCF correction =     0.000009


     Computing stress (Cartesian axis) and pressure

          total   stress  (Ry/bohr**3)                   (kbar)     P=      500.83
   0.00339968   0.00000000   0.00000000          500.11        0.00        0.00
   0.00000000   0.00339968   0.00000000            0.00      500.11        0.00
   0.00000000   0.00000000   0.00341429            0.00        0.00      502.26


     Writing all to output data dir ./output/LiSi.save/ :
     XML data file, charge density, pseudopotentials, collected wavefunctions

     init_run     :      3.60s CPU      3.86s WALL (       2 calls)
     electrons    :    738.26s CPU    755.33s WALL (      18 calls)
     update_pot   :      1.35s CPU      1.48s WALL (      16 calls)
     forces       :      2.16s CPU      2.44s WALL (      18 calls)
     stress       :      6.74s CPU      7.04s WALL (      18 calls)

     Called by init_run:
     wfcinit      :      2.76s CPU      2.83s WALL (       2 calls)
     potinit      :      0.18s CPU      0.20s WALL (       2 calls)
     hinit0       :      0.62s CPU      0.77s WALL (       2 calls)

     Called by electrons:
     c_bands      :    602.54s CPU    615.05s WALL (     216 calls)
     sum_band     :    118.81s CPU    120.94s WALL (     216 calls)
     v_of_rho     :     17.29s CPU     18.39s WALL (     233 calls)
     mix_rho      :      0.52s CPU      0.85s WALL (     216 calls)

     Called by c_bands:
     init_us_2    :      2.14s CPU      2.54s WALL (   15040 calls)
     cegterg      :    598.80s CPU    608.04s WALL (    6912 calls)

     Called by *egterg:
     cdiaghg      :      7.56s CPU      8.05s WALL (   25113 calls)
     h_psi        :    587.51s CPU    595.97s WALL (   25721 calls)
     g_psi        :      0.19s CPU      0.20s WALL (   18745 calls)

     Called by h_psi:
     h_psi:calbec :      5.32s CPU      5.54s WALL (   25721 calls)
     vloc_psi     :    579.61s CPU    587.70s WALL (   25721 calls)
     add_vuspsi   :      2.25s CPU      2.32s WALL (   25721 calls)

     General routines
     calbec       :      5.91s CPU      6.17s WALL (   28601 calls)
     fft          :      5.18s CPU      6.17s WALL (    2779 calls)
     ffts         :      0.34s CPU      0.42s WALL (     216 calls)
     fftw         :    615.46s CPU    623.63s WALL (  627368 calls)

     Parallel routines

     PWSCF        :    752.52s CPU    771.72s WALL


   This run was terminated on:  19:40: 0  27Feb2025            

=------------------------------------------------------------------------------=
   JOB DONE.
=------------------------------------------------------------------------------=
