
     Program PWSCF v.7.2 starts on 30Dec2024 at  4: 6:49 

     This program is part of the open-source Quantum ESPRESSO suite
     for quantum simulation of materials; please cite
         "P. Giannozzi et al., J. Phys.:Condens. Matter 21 395502 (2009);
         "P. Giannozzi et al., J. Phys.:Condens. Matter 29 465901 (2017);
         "P. Giannozzi et al., J. Chem. Phys. 152 154105 (2020);
          URL http://www.quantum-espresso.org", 
     in publications or presentations arising from this work. More details at
     http://www.quantum-espresso.org/quote

     Parallel version (MPI & OpenMP), running on       8 processor cores
     Number of MPI processes:                 8
     Threads/MPI process:                     1

     MPI processes distributed on     1 nodes
     479300 MiB available memory on the printing compute node when the environment starts

     Waiting for input...
     Reading input from standard input

     Current dimensions of program PWSCF are:
     Max number of different atomic species (ntypx) = 10
     Max number of k-points (npk) =  40000
     Max angular momentum in pseudopotentials (lmaxx) =  4

     R & G space division:  proc/nbgrp/npool/nimage =       8
     Subspace diagonalization in iterative solution of the eigenvalue problem:
     a serial algorithm will be used


     Parallelization info
     --------------------
     sticks:   dense  smooth     PW     G-vecs:    dense   smooth      PW
     Min         186     186     53                 4622     4622     726
     Max         187     187     54                 4623     4623     729
     Sum        1489    1489    431                36977    36977    5823

     Using Slab Decomposition



     bravais-lattice index     =            5
     lattice parameter (alat)  =       8.4137  a.u.
     unit-cell volume          =     382.3409 (a.u.)^3
     number of atoms/cell      =            7
     number of atomic types    =            2
     number of electrons       =        22.00
     number of Kohn-Sham states=           15
     kinetic-energy cutoff     =      80.0000  Ry
     charge density cutoff     =     320.0000  Ry
     scf convergence threshold =      1.0E-08
     mixing beta               =       0.7000
     number of iterations used =            8  plain     mixing
     energy convergence thresh.=      1.0E-04
     force convergence thresh. =      1.0E-03
     press convergence thresh. =      1.0E+00
     Exchange-correlation= PBE
                           (   1   4   3   4   0   0   0)
     nstep                     =           50


     celldm(1)=   8.413732  celldm(2)=   0.000000  celldm(3)=   0.000000
     celldm(4)=   0.558893  celldm(5)=   0.000000  celldm(6)=   0.000000

     crystal axes: (cart. coord. in units of alat)
               a(1) = (   0.469631  -0.271142   0.840196 )  
               a(2) = (   0.000000   0.542283   0.840196 )  
               a(3) = (  -0.469631  -0.271142   0.840196 )  

     reciprocal axes: (cart. coord. in units 2 pi/alat)
               b(1) = (  1.064665 -0.614685  0.396733 )  
               b(2) = (  0.000000  1.229370  0.396733 )  
               b(3) = ( -1.064665 -0.614685  0.396733 )  


     PseudoPot. # 1 for Li read from file:
     ../pseudo/Li_ONCV_PBE_sr.upf
     MD5 check sum: 50ff420e78310ffa21704f3361e624a4
     Pseudo is Norm-conserving, Zval =  3.0
     Generated using ONCVPSP code by D. R. Hamann
     Using radial grid of 1944 points,  4 beta functions with: 
                l(1) =   0
                l(2) =   0
                l(3) =   1
                l(4) =   1

     PseudoPot. # 2 for Si read from file:
     ../pseudo/Si_ONCV_PBE_sr.upf
     MD5 check sum: e543d271109d17c80368dfa7c482276d
     Pseudo is Norm-conserving + core correction, Zval =  4.0
     Generated using ONCVPSP code by D. R. Hamann
     Using radial grid of 1510 points,  6 beta functions with: 
                l(1) =   0
                l(2) =   0
                l(3) =   1
                l(4) =   1
                l(5) =   2
                l(6) =   2

     atomic species   valence    mass     pseudopotential
        Li             3.00     6.94100     Li( 1.00)
        Si             4.00    28.08550     Si( 1.00)

      6 Sym. Ops., with inversion, found



   Cartesian axes

     site n.     atom                  positions (alat units)
         1           Li  tau(   1) = (   0.1626779  -0.2849870   1.4656163  )
         2           Li  tau(   2) = (  -0.6323090  -0.5284380   1.0549707  )
         3           Li  tau(   3) = (  -0.3041641  -0.5300483   1.4656163  )
         4           Li  tau(   4) = (  -0.1654670  -0.2833767   1.0549707  )
         5           Li  tau(   5) = (   0.1414862  -0.8118147   1.4656163  )
         6           Li  tau(   6) = (  -0.6111174  -0.0016103   1.0549707  )
         7           Si  tau(   7) = (   0.0000000  -0.0000000   1.2602935  )

     number of k points=    23  Marzari-Vanderbilt smearing, width (Ry)=  0.0200
                       cart. coord. in units 2pi/alat
        k(    1) = (   0.0000000   0.0000000   0.0000000), wk =   0.0160000
        k(    2) = (  -0.2129331  -0.1229370   0.0793466), wk =   0.0960000
        k(    3) = (  -0.4258661  -0.2458739   0.1586932), wk =   0.0960000
        k(    4) = (  -0.2129331   0.1229370   0.1586932), wk =   0.0960000
        k(    5) = (  -0.4258661   0.0000000   0.2380398), wk =   0.0960000
        k(    6) = (   0.4258661   0.4917479  -0.0793466), wk =   0.0960000
        k(    7) = (   0.2129331   0.3688109   0.0000000), wk =   0.0960000
        k(    8) = (  -0.4258661   0.2458739   0.3173864), wk =   0.0960000
        k(    9) = (   0.4258661   0.7376218   0.0000000), wk =   0.0960000
        k(   10) = (  -0.0000000   0.0000000   0.2380398), wk =   0.0320000
        k(   11) = (  -0.2129331  -0.1229370   0.3173864), wk =   0.0960000
        k(   12) = (   0.6387992   0.3688109   0.0000000), wk =   0.0960000
        k(   13) = (   0.4258661   0.2458739   0.0793466), wk =   0.0960000
        k(   14) = (  -0.2129331   0.1229370   0.3967330), wk =   0.0960000
        k(   15) = (   0.6387992   0.6146848   0.0793466), wk =   0.0960000
        k(   16) = (   0.4258661   0.4917479   0.1586932), wk =   0.0960000
        k(   17) = (   0.6387992  -0.3688109  -0.2380398), wk =   0.0960000
        k(   18) = (  -0.0000000   0.0000000   0.4760796), wk =   0.0320000
        k(   19) = (   0.8517323   0.4917479   0.1586932), wk =   0.0960000
        k(   20) = (  -0.4258661  -0.0000000  -0.2380398), wk =   0.0960000
        k(   21) = (   0.4258661  -0.4917479   0.0793466), wk =   0.0960000
        k(   22) = (   0.6387992  -0.6146848  -0.0793466), wk =   0.0960000
        k(   23) = (   0.4258661  -0.4917479  -0.1586932), wk =   0.0960000

     Dense  grid:    36977 G-vectors     FFT dimensions: (  48,  48,  48)

     Estimated max dynamical RAM per process >      18.84 MB

     Estimated total dynamical RAM >     150.69 MB

     Initial potential from superposition of free atoms

     starting charge      21.9720, renormalised to      22.0000
     Starting wfcs are   16 randomized atomic wfcs

     total cpu time spent up to now is        1.0 secs

     Self-consistent Calculation

     iteration #  1     ecut=    80.00 Ry     beta= 0.70
     Davidson diagonalization with overlap
     ethr =  1.00E-02,  avg # of iterations =  4.8

     total cpu time spent up to now is        1.6 secs

     total energy              =     -93.78350801 Ry
     estimated scf accuracy    <       0.33541611 Ry

     iteration #  2     ecut=    80.00 Ry     beta= 0.70
     Davidson diagonalization with overlap
     ethr =  1.52E-03,  avg # of iterations =  2.3

     total cpu time spent up to now is        2.0 secs

     total energy              =     -93.88265600 Ry
     estimated scf accuracy    <       0.18046017 Ry

     iteration #  3     ecut=    80.00 Ry     beta= 0.70
     Davidson diagonalization with overlap
     ethr =  8.20E-04,  avg # of iterations =  2.0

     total cpu time spent up to now is        2.5 secs

     total energy              =     -93.91363206 Ry
     estimated scf accuracy    <       0.00081440 Ry

     iteration #  4     ecut=    80.00 Ry     beta= 0.70
     Davidson diagonalization with overlap
     ethr =  3.70E-06,  avg # of iterations =  6.5

     total cpu time spent up to now is        3.1 secs

     total energy              =     -93.91389829 Ry
     estimated scf accuracy    <       0.00018158 Ry

     iteration #  5     ecut=    80.00 Ry     beta= 0.70
     Davidson diagonalization with overlap
     ethr =  8.25E-07,  avg # of iterations =  2.0

     total cpu time spent up to now is        3.5 secs

     total energy              =     -93.91392660 Ry
     estimated scf accuracy    <       0.00000164 Ry

     iteration #  6     ecut=    80.00 Ry     beta= 0.70
     Davidson diagonalization with overlap
     ethr =  7.47E-09,  avg # of iterations =  3.1

     total cpu time spent up to now is        3.9 secs

     total energy              =     -93.91392727 Ry
     estimated scf accuracy    <       0.00000012 Ry

     iteration #  7     ecut=    80.00 Ry     beta= 0.70
     Davidson diagonalization with overlap
     ethr =  5.42E-10,  avg # of iterations =  2.0

     total cpu time spent up to now is        4.3 secs

     End of self-consistent calculation

          k = 0.0000 0.0000 0.0000 (  4623 PWs)   bands (ev):

   -39.0654 -38.7169 -38.7068 -38.7068 -38.6989 -38.6989  -1.1461   5.3815
     5.5213   5.5213   6.2400   7.3163   8.5412   8.5412   9.7767

          k =-0.2129-0.1229 0.0793 (  4604 PWs)   bands (ev):

   -39.0304 -38.7461 -38.7224 -38.7103 -38.6989 -38.6861  -1.0853   4.3088
     5.1063   5.5015   6.0856   7.3346   8.7963   9.5427  11.4480

          k =-0.4259-0.2459 0.1587 (  4589 PWs)   bands (ev):

   -38.9410 -38.8315 -38.7321 -38.7108 -38.6980 -38.6821  -0.9724   3.2820
     4.5030   5.5080   6.0059   7.0866   9.2179  11.6737  12.3352

          k =-0.2129 0.1229 0.1587 (  4634 PWs)   bands (ev):

   -39.0205 -38.7380 -38.7262 -38.7211 -38.7049 -38.6838  -1.0608   4.2743
     4.8552   5.3756   6.3034   6.9611   9.3324   9.6748  11.4600

          k =-0.4259 0.0000 0.2380 (  4619 PWs)   bands (ev):

   -38.9517 -38.7907 -38.7464 -38.7209 -38.7123 -38.6737  -0.9600   3.5640
     4.4053   4.9652   6.2221   6.7666  10.0896  11.8691  12.2396

          k = 0.4259 0.4917-0.0793 (  4618 PWs)   bands (ev):

   -38.8860 -38.8509 -38.7650 -38.7148 -38.7054 -38.6738  -0.9206   3.2836
     4.3999   4.4419   6.3292   7.3620   9.8260  10.8281  12.8323

          k = 0.2129 0.3688 0.0000 (  4599 PWs)   bands (ev):

   -38.9771 -38.7676 -38.7633 -38.7003 -38.6996 -38.6872  -1.0056   3.7333
     4.4774   5.0716   6.6074   6.7517   9.3489  10.4149  12.0774

          k =-0.4259 0.2459 0.3174 (  4630 PWs)   bands (ev):

   -38.9103 -38.7927 -38.7696 -38.7312 -38.7185 -38.6741  -0.8918   3.3145
     4.2736   5.2833   5.6869   6.1241  11.5406  12.1126  12.9144

          k = 0.4259 0.7376 0.0000 (  4620 PWs)   bands (ev):

   -38.8390 -38.8374 -38.8082 -38.7274 -38.7162 -38.6682  -0.8668   3.3050
     4.1840   4.3141   6.0477   7.0531  10.5911  11.5833  13.3842

          k =-0.0000 0.0000 0.2380 (  4616 PWs)   bands (ev):

   -39.0344 -38.7485 -38.7116 -38.7116 -38.6944 -38.6944  -1.0775   4.0762
     5.5438   5.5438   6.8366   7.8899   8.7353   8.7353   9.3983

          k =-0.2129-0.1229 0.3174 (  4615 PWs)   bands (ev):

   -38.9836 -38.7600 -38.7582 -38.7233 -38.6975 -38.6732  -0.9909   3.6806
     4.4663   5.3199   6.9338   7.6307   8.7053  10.5292  11.2840

          k = 0.6388 0.3688 0.0000 (  4613 PWs)   bands (ev):

   -38.8912 -38.8472 -38.7499 -38.7448 -38.6955 -38.6675  -0.9105   3.3013
     3.9889   5.0380   6.0715   8.3058   8.8482  11.8131  12.3181

          k = 0.4259 0.2459 0.0793 (  4617 PWs)   bands (ev):

   -38.9489 -38.7912 -38.7548 -38.7261 -38.6891 -38.6855  -0.9618   3.5235
     4.3189   5.0860   6.1262   6.9287   9.3169  11.4911  12.8060

          k =-0.2129 0.1229 0.3967 (  4626 PWs)   bands (ev):

   -38.9588 -38.7834 -38.7446 -38.7406 -38.6913 -38.6775  -0.9440   3.3953
     4.4882   5.4734   6.5036   7.2330   9.2591  10.9715  11.9028

          k = 0.6388 0.6147 0.0793 (  4615 PWs)   bands (ev):

   -38.8886 -38.7965 -38.7837 -38.7706 -38.6879 -38.6692  -0.8756   3.3634
     3.9016   4.8022   6.1005   7.7670   9.8336  11.8863  12.6037

          k = 0.4259 0.4917 0.1587 (  4630 PWs)   bands (ev):

   -38.8786 -38.8072 -38.7951 -38.7532 -38.6835 -38.6787  -0.8885   3.5084
     3.7805   4.6008   6.0469   7.5861   9.5000  12.2629  12.5584

          k = 0.6388-0.3688-0.2380 (  4621 PWs)   bands (ev):

   -38.8521 -38.8326 -38.7850 -38.7665 -38.6836 -38.6769  -0.8568   3.3166
     3.7457   5.2416   5.6826   7.0618  10.5344  12.4744  13.2065

          k =-0.0000 0.0000 0.4761 (  4643 PWs)   bands (ev):

   -38.9579 -38.8259 -38.7162 -38.7162 -38.6902 -38.6902  -0.9473   3.0678
     5.5960   5.5960   6.6028   7.9846   9.0257   9.0257  10.4201

          k = 0.8517 0.4917 0.1587 (  4634 PWs)   bands (ev):

   -38.9120 -38.8304 -38.7578 -38.7388 -38.6828 -38.6751  -0.8925   3.0991
     4.3226   5.4641   6.5449   8.2242   8.6274  11.0619  12.1488

          k =-0.4259-0.0000-0.2380 (  4619 PWs)   bands (ev):

   -38.9514 -38.7908 -38.7470 -38.7217 -38.7119 -38.6728  -0.9574   3.5159
     4.4691   4.8212   6.1142   7.5005   9.6003  10.8616  11.8793

          k = 0.4259-0.4917 0.0793 (  4618 PWs)   bands (ev):

   -38.8864 -38.8499 -38.7662 -38.7145 -38.7056 -38.6733  -0.9196   3.3631
     3.9325   4.8763   6.1783   8.1861   8.5797  11.0932  13.1722

          k = 0.6388-0.6147-0.0793 (  4615 PWs)   bands (ev):

   -38.8883 -38.7961 -38.7816 -38.7743 -38.6870 -38.6694  -0.8738   3.3733
     3.8688   4.6377   6.8541   7.2405   9.6228  11.7899  12.9456

          k = 0.4259-0.4917-0.1587 (  4630 PWs)   bands (ev):

   -38.8783 -38.8056 -38.7967 -38.7541 -38.6842 -38.6774  -0.8868   3.4892
     3.8968   4.2939   6.7185   7.2399   9.3741  11.4345  13.1188

     the Fermi energy is     6.7814 ev

!    total energy              =     -93.91392728 Ry
     estimated scf accuracy    <          6.7E-09 Ry
     smearing contrib. (-TS)   =      -0.00051772 Ry
     internal energy E=F+TS    =     -93.91340956 Ry

     The total energy is F=E-TS. E is the sum of the following terms:
     one-electron contribution =     -37.65176482 Ry
     hartree contribution      =      18.53122521 Ry
     xc contribution           =     -24.61828548 Ry
     ewald contribution        =     -50.17458447 Ry

     convergence has been achieved in   7 iterations

     Forces acting on atoms (cartesian axes, Ry/au):

     atom    1 type  1   force =     0.12147218   -0.19331831    0.15609826
     atom    2 type  1   force =    -0.12147218    0.19331831   -0.15609826
     atom    3 type  1   force =     0.10668248    0.20185715    0.15609826
     atom    4 type  1   force =    -0.10668248   -0.20185715   -0.15609826
     atom    5 type  1   force =    -0.22815466   -0.00853884    0.15609826
     atom    6 type  1   force =     0.22815466    0.00853884   -0.15609826
     atom    7 type  2   force =    -0.00000000    0.00000000    0.00000000
     The non-local contrib.  to forces
     atom    1 type  1   force =     0.01946623   -0.00444656    0.02917485
     atom    2 type  1   force =    -0.01946623    0.00444656   -0.02917485
     atom    3 type  1   force =    -0.00588228    0.01908153    0.02917485
     atom    4 type  1   force =     0.00588228   -0.01908153   -0.02917485
     atom    5 type  1   force =    -0.01358395   -0.01463497    0.02917485
     atom    6 type  1   force =     0.01358395    0.01463497   -0.02917485
     atom    7 type  2   force =    -0.00000000    0.00000000   -0.00000000
     The ionic contribution  to forces
     atom    1 type  1   force =     0.49260297   -0.86262992    1.01296011
     atom    2 type  1   force =    -0.49260297    0.86262992   -1.01296011
     atom    3 type  1   force =     0.50075794    0.85792165    1.01296011
     atom    4 type  1   force =    -0.50075794   -0.85792165   -1.01296011
     atom    5 type  1   force =    -0.99336091    0.00470827    1.01296011
     atom    6 type  1   force =     0.99336091   -0.00470827   -1.01296011
     atom    7 type  2   force =    -0.00000000   -0.00000000    0.00000000
     The local contribution  to forces
     atom    1 type  1   force =    -0.39057536    0.67370998   -0.88600444
     atom    2 type  1   force =     0.39057536   -0.67370998    0.88600444
     atom    3 type  1   force =    -0.38816228   -0.67510317   -0.88600444
     atom    4 type  1   force =     0.38816228    0.67510317    0.88600444
     atom    5 type  1   force =     0.77873764    0.00139319   -0.88600444
     atom    6 type  1   force =    -0.77873764   -0.00139319    0.88600444
     atom    7 type  2   force =     0.00000000   -0.00000000   -0.00000000
     The core correction contribution to forces
     atom    1 type  1   force =     0.00000000    0.00000000    0.00000000
     atom    2 type  1   force =     0.00000000    0.00000000    0.00000000
     atom    3 type  1   force =     0.00000000    0.00000000    0.00000000
     atom    4 type  1   force =     0.00000000    0.00000000    0.00000000
     atom    5 type  1   force =     0.00000000    0.00000000    0.00000000
     atom    6 type  1   force =     0.00000000    0.00000000    0.00000000
     atom    7 type  2   force =     0.00000000   -0.00000000    0.00000000
     The Hubbard contrib.    to forces
     atom    1 type  1   force =     0.00000000    0.00000000    0.00000000
     atom    2 type  1   force =     0.00000000    0.00000000    0.00000000
     atom    3 type  1   force =     0.00000000    0.00000000    0.00000000
     atom    4 type  1   force =     0.00000000    0.00000000    0.00000000
     atom    5 type  1   force =     0.00000000    0.00000000    0.00000000
     atom    6 type  1   force =     0.00000000    0.00000000    0.00000000
     atom    7 type  2   force =     0.00000000    0.00000000    0.00000000
     The SCF correction term to forces
     atom    1 type  1   force =    -0.00002167    0.00004819   -0.00003226
     atom    2 type  1   force =     0.00002167   -0.00004819    0.00003226
     atom    3 type  1   force =    -0.00003090   -0.00004286   -0.00003226
     atom    4 type  1   force =     0.00003090    0.00004286    0.00003226
     atom    5 type  1   force =     0.00005256   -0.00000533   -0.00003226
     atom    6 type  1   force =    -0.00005256    0.00000533    0.00003226
     atom    7 type  2   force =    -0.00000000    0.00000000    0.00000000

     Total force =     0.677469     Total SCF correction =     0.000152


     Computing stress (Cartesian axis) and pressure

          total   stress  (Ry/bohr**3)                   (kbar)     P=      931.64
   0.00668093   0.00000000   0.00000000          982.80        0.00        0.00
  -0.00000000   0.00668093   0.00000000           -0.00      982.80        0.00
  -0.00000000   0.00000000   0.00563772           -0.00        0.00      829.34


     BFGS Geometry Optimization
     Energy error            =      0.0E+00 Ry
     Gradient error          =      2.3E-01 Ry/Bohr
     Cell gradient error     =      4.8E+02 kbar

     number of scf cycles    =   1
     number of bfgs steps    =   0

     enthalpy           new  =     -92.6143768023 Ry

     new trust radius        =       0.3208730714 bohr
ibrav =      5
 celldm(1) =      8.94973218
 celldm(4) =      0.54354754
Input lattice vectors:
     0.50816430    -0.29338880     0.88722112
     0.00000000     0.58677760     0.88722112
    -0.50816430    -0.29338880     0.88722112
New lattice vectors in INITIAL alat:
     0.50816430    -0.29338880     0.88722112
     0.00000000     0.58677760     0.88722112
    -0.50816430    -0.29338880     0.88722112
New lattice vectors in NEW alat (for information only):
     0.47773029    -0.27581771     0.83408534
     0.00000000     0.55163542     0.83408534
    -0.47773029    -0.27581771     0.83408534
Discrepancy in bohr =     0.000000    0.000000    0.000000
     new conv_thr            =       0.0000000100 Ry

     new unit-cell volume =    472.71217 a.u.^3 (    70.04872 Ang^3 )
     density =      1.65302 g/cm^3

CELL_PARAMETERS (alat=  8.41373174)
   0.508164304  -0.293388798   0.887221116
   0.000000000   0.586777596   0.887221116
  -0.508164304  -0.293388798   0.887221116

ATOMIC_POSITIONS (crystal)
Li            0.9666877880        0.2102178651        0.5895508567
Li            0.0333122120       -0.2102178651        1.4104491433
Li            0.5895508567       -0.0333122120        1.2102178651
Li            0.4104491433        0.0333122120        0.7897821349
Li            1.2102178651       -0.4104491433        0.9666877880
Li           -0.2102178651        0.4104491433        1.0333122120
Si            0.5000000000        0.5000000000        0.5000000000



     Writing config-only to output data dir ./output/LiSi.save/
     NEW-OLD atomic charge density approx. for the potential
     extrapolated charge   26.20052, renormalised to   22.00000

     total cpu time spent up to now is        6.0 secs

     Self-consistent Calculation

     iteration #  1     ecut=    80.00 Ry     beta= 0.70
     Davidson diagonalization with overlap
     ethr =  1.00E-06,  avg # of iterations = 12.4

     total cpu time spent up to now is        7.2 secs

     total energy              =     -94.25332559 Ry
     estimated scf accuracy    <       0.42115226 Ry

     iteration #  2     ecut=    80.00 Ry     beta= 0.70
     Davidson diagonalization with overlap
     ethr =  1.91E-03,  avg # of iterations =  2.3

     total cpu time spent up to now is        7.7 secs

     total energy              =     -94.53687982 Ry
     estimated scf accuracy    <       0.45055411 Ry

     iteration #  3     ecut=    80.00 Ry     beta= 0.70
     Davidson diagonalization with overlap
     ethr =  1.91E-03,  avg # of iterations =  2.0

     total cpu time spent up to now is        8.0 secs

     total energy              =     -94.58025997 Ry
     estimated scf accuracy    <       0.02353097 Ry

     iteration #  4     ecut=    80.00 Ry     beta= 0.70
     Davidson diagonalization with overlap
     ethr =  1.07E-04,  avg # of iterations =  2.0

     total cpu time spent up to now is        8.4 secs

     total energy              =     -94.58337867 Ry
     estimated scf accuracy    <       0.00063601 Ry

     iteration #  5     ecut=    80.00 Ry     beta= 0.70
     Davidson diagonalization with overlap
     ethr =  2.89E-06,  avg # of iterations =  4.6

     total cpu time spent up to now is        8.9 secs

     total energy              =     -94.58354373 Ry
     estimated scf accuracy    <       0.00002939 Ry

     iteration #  6     ecut=    80.00 Ry     beta= 0.70
     Davidson diagonalization with overlap
     ethr =  1.34E-07,  avg # of iterations =  2.1

     total cpu time spent up to now is        9.3 secs

     total energy              =     -94.58354732 Ry
     estimated scf accuracy    <       0.00000223 Ry

     iteration #  7     ecut=    80.00 Ry     beta= 0.70
     Davidson diagonalization with overlap
     ethr =  1.01E-08,  avg # of iterations =  2.3

     total cpu time spent up to now is        9.7 secs

     total energy              =     -94.58354786 Ry
     estimated scf accuracy    <       0.00000010 Ry

     iteration #  8     ecut=    80.00 Ry     beta= 0.70
     Davidson diagonalization with overlap
     ethr =  4.71E-10,  avg # of iterations =  2.9

     total cpu time spent up to now is       10.1 secs

     total energy              =     -94.58354786 Ry
     estimated scf accuracy    <       0.00000002 Ry

     iteration #  9     ecut=    80.00 Ry     beta= 0.70
     Davidson diagonalization with overlap
     ethr =  9.57E-11,  avg # of iterations =  2.1

     total cpu time spent up to now is       10.5 secs

     End of self-consistent calculation

          k = 0.0000 0.0000 0.0000 (  4623 PWs)   bands (ev):

   -40.3617 -40.1619 -40.1577 -40.1577 -40.1576 -40.1576  -2.7511   3.9880
     3.9880   4.3615   4.5498   6.0330   7.1482   7.1482   7.7465

          k =-0.1968-0.1136 0.0751 (  4604 PWs)   bands (ev):

   -40.3441 -40.1862 -40.1663 -40.1596 -40.1519 -40.1460  -2.6529   2.8894
     3.7072   4.0265   4.8819   6.0566   7.1001   7.8974   8.9941

          k =-0.3936-0.2272 0.1503 (  4589 PWs)   bands (ev):

   -40.3009 -40.2312 -40.1710 -40.1592 -40.1497 -40.1423  -2.4669   1.8325
     3.2088   3.9544   4.9107   5.8419   7.0562   9.5645   9.8758

          k =-0.1968 0.1136 0.1503 (  4634 PWs)   bands (ev):

   -40.3384 -40.1829 -40.1731 -40.1647 -40.1586 -40.1367  -2.6214   2.8975
     3.4454   3.8209   5.0854   5.5368   7.8076   7.9991   9.0142

          k =-0.3936 0.0000 0.2254 (  4619 PWs)   bands (ev):

   -40.3034 -40.2134 -40.1873 -40.1602 -40.1578 -40.1325  -2.4598   2.1444
     3.0334   3.4509   4.8952   5.5265   8.2419   9.5672   9.9237

          k = 0.3936 0.4545-0.0751 (  4618 PWs)   bands (ev):

   -40.2775 -40.2369 -40.1957 -40.1565 -40.1533 -40.1349  -2.3856   1.8464
     2.9593   3.1024   5.0186   6.0587   7.8891   8.8926  10.0298

          k = 0.1968 0.3408 0.0000 (  4599 PWs)   bands (ev):

   -40.3181 -40.1965 -40.1929 -40.1544 -40.1500 -40.1425  -2.5195   2.3348
     3.0467   3.6689   5.4009   5.4949   7.5895   8.2097   9.5860

          k =-0.3936 0.2272 0.3006 (  4630 PWs)   bands (ev):

   -40.2808 -40.2167 -40.2003 -40.1722 -40.1595 -40.1254  -2.3670   1.9088
     2.8421   3.6803   4.3021   4.8963   9.5308  10.1630  10.7883

          k = 0.3936 0.6817 0.0000 (  4620 PWs)   bands (ev):

   -40.2511 -40.2381 -40.2163 -40.1653 -40.1583 -40.1259  -2.3186   1.9017
     2.7073   2.8908   4.6979   5.6655   8.7513   9.5202  10.8082

          k = 0.0000 0.0000 0.2254 (  4616 PWs)   bands (ev):

   -40.3441 -40.1795 -40.1735 -40.1735 -40.1418 -40.1418  -2.6605   2.7555
     3.9406   3.9406   5.5825   6.2617   7.3719   7.3719   7.4209

          k =-0.1968-0.1136 0.3006 (  4615 PWs)   bands (ev):

   -40.3176 -40.2004 -40.1856 -40.1748 -40.1442 -40.1319  -2.5291   2.2975
     3.0160   3.8086   5.5028   6.2308   7.1397   8.6534   9.1330

          k = 0.5904 0.3408 0.0000 (  4613 PWs)   bands (ev):

   -40.2765 -40.2382 -40.1847 -40.1814 -40.1423 -40.1315  -2.3873   1.8531
     2.6060   3.6131   4.8241   6.6713   7.3264   9.5187  10.1545

          k = 0.3936 0.2272 0.0751 (  4617 PWs)   bands (ev):

   -40.3040 -40.2085 -40.1883 -40.1717 -40.1468 -40.1353  -2.4558   2.0995
     2.9382   3.6290   4.8518   5.6572   7.4741   9.3369  10.3734

          k =-0.1968 0.1136 0.3757 (  4626 PWs)   bands (ev):

   -40.3034 -40.2027 -40.1913 -40.1875 -40.1420 -40.1279  -2.4688   2.0150
     3.0496   3.7891   5.0045   5.9569   7.6505   9.2236   9.7978

          k = 0.5904 0.5681 0.0751 (  4615 PWs)   bands (ev):

   -40.2678 -40.2200 -40.2125 -40.1875 -40.1387 -40.1283  -2.3508   1.9662
     2.4768   3.2453   4.7604   6.4133   8.1419   9.4490  10.1688

          k = 0.3936 0.4545 0.1503 (  4630 PWs)   bands (ev):

   -40.2692 -40.2182 -40.2160 -40.1783 -40.1395 -40.1338  -2.3454   2.0795
     2.3959   3.1060   4.7832   6.1735   7.8855   9.6023  10.2082

          k = 0.5904-0.3408-0.2254 (  4621 PWs)   bands (ev):

   -40.2515 -40.2385 -40.1988 -40.1982 -40.1414 -40.1266  -2.3206   1.9032
     2.3247   3.6631   4.3097   5.7602   8.7867  10.0307  10.8331

          k = 0.0000 0.0000 0.4508 (  4643 PWs)   bands (ev):

   -40.3016 -40.2224 -40.1834 -40.1834 -40.1321 -40.1321  -2.4886   1.6880
     3.8762   3.8762   5.4164   5.9950   7.7373   7.7373   8.7622

          k = 0.7871 0.4545 0.1503 (  4634 PWs)   bands (ev):

   -40.2781 -40.2267 -40.2002 -40.1886 -40.1317 -40.1295  -2.4010   1.7086
     2.8549   3.7913   5.0133   6.7978   7.2940   9.1053  10.0561

          k =-0.3936-0.0000-0.2254 (  4619 PWs)   bands (ev):

   -40.3035 -40.2131 -40.1854 -40.1652 -40.1562 -40.1312  -2.4579   2.1119
     3.0679   3.3513   4.9115   6.0123   7.8013   8.7380   9.8307

          k = 0.3936-0.4545 0.0751 (  4618 PWs)   bands (ev):

   -40.2775 -40.2374 -40.1939 -40.1593 -40.1532 -40.1335  -2.3849   1.9069
     2.5935   3.4269   5.0035   6.6383   6.9160   8.8920  10.6471

          k = 0.5904-0.5681-0.0751 (  4615 PWs)   bands (ev):

   -40.2680 -40.2204 -40.2112 -40.1879 -40.1408 -40.1265  -2.3495   1.9798
     2.4505   3.1261   5.3341   5.9603   7.8751   9.6492  10.4483

          k = 0.3936-0.4545-0.1503 (  4630 PWs)   bands (ev):

   -40.2694 -40.2183 -40.2152 -40.1783 -40.1430 -40.1308  -2.3442   2.0714
     2.4839   2.8740   5.3285   5.9880   7.3831   9.4975  10.6456

     the Fermi energy is     5.4284 ev

!    total energy              =     -94.58354787 Ry
     estimated scf accuracy    <          7.0E-10 Ry
     smearing contrib. (-TS)   =       0.00072599 Ry
     internal energy E=F+TS    =     -94.58427385 Ry

     The total energy is F=E-TS. E is the sum of the following terms:
     one-electron contribution =     -40.86770746 Ry
     hartree contribution      =      18.64467212 Ry
     xc contribution           =     -24.09237601 Ry
     ewald contribution        =     -48.26886252 Ry

     convergence has been achieved in   9 iterations

     Forces acting on atoms (cartesian axes, Ry/au):

     atom    1 type  1   force =     0.04654760   -0.06260327    0.03382537
     atom    2 type  1   force =    -0.04654760    0.06260327   -0.03382537
     atom    3 type  1   force =     0.03094222    0.07161304    0.03382537
     atom    4 type  1   force =    -0.03094222   -0.07161304   -0.03382537
     atom    5 type  1   force =    -0.07748982   -0.00900977    0.03382537
     atom    6 type  1   force =     0.07748982    0.00900977   -0.03382537
     atom    7 type  2   force =     0.00000000    0.00000000   -0.00000000
     The non-local contrib.  to forces
     atom    1 type  1   force =     0.04323759   -0.01943297    0.03067888
     atom    2 type  1   force =    -0.04323759    0.01943297   -0.03067888
     atom    3 type  1   force =    -0.00478935    0.04716134    0.03067888
     atom    4 type  1   force =     0.00478935   -0.04716134   -0.03067888
     atom    5 type  1   force =    -0.03844824   -0.02772837    0.03067888
     atom    6 type  1   force =     0.03844824    0.02772837   -0.03067888
     atom    7 type  2   force =     0.00000000    0.00000000    0.00000000
     The ionic contribution  to forces
     atom    1 type  1   force =     0.26726524   -0.32556063    0.30143443
     atom    2 type  1   force =    -0.26726524    0.32556063   -0.30143443
     atom    3 type  1   force =     0.14831116    0.39423881    0.30143443
     atom    4 type  1   force =    -0.14831116   -0.39423881   -0.30143443
     atom    5 type  1   force =    -0.41557640   -0.06867817    0.30143443
     atom    6 type  1   force =     0.41557640    0.06867817   -0.30143443
     atom    7 type  2   force =    -0.00000000   -0.00000000    0.00000000
     The local contribution  to forces
     atom    1 type  1   force =    -0.26395364    0.28238097   -0.29827822
     atom    2 type  1   force =     0.26395364   -0.28238097    0.29827822
     atom    3 type  1   force =    -0.11257227   -0.36978105   -0.29827822
     atom    4 type  1   force =     0.11257227    0.36978105    0.29827822
     atom    5 type  1   force =     0.37652592    0.08740007   -0.29827822
     atom    6 type  1   force =    -0.37652592   -0.08740007    0.29827822
     atom    7 type  2   force =     0.00000000    0.00000000    0.00000000
     The core correction contribution to forces
     atom    1 type  1   force =     0.00000000    0.00000000    0.00000000
     atom    2 type  1   force =     0.00000000    0.00000000    0.00000000
     atom    3 type  1   force =     0.00000000    0.00000000    0.00000000
     atom    4 type  1   force =     0.00000000    0.00000000    0.00000000
     atom    5 type  1   force =     0.00000000    0.00000000    0.00000000
     atom    6 type  1   force =     0.00000000    0.00000000    0.00000000
     atom    7 type  2   force =     0.00000000    0.00000000    0.00000000
     The Hubbard contrib.    to forces
     atom    1 type  1   force =     0.00000000    0.00000000    0.00000000
     atom    2 type  1   force =     0.00000000    0.00000000    0.00000000
     atom    3 type  1   force =     0.00000000    0.00000000    0.00000000
     atom    4 type  1   force =     0.00000000    0.00000000    0.00000000
     atom    5 type  1   force =     0.00000000    0.00000000    0.00000000
     atom    6 type  1   force =     0.00000000    0.00000000    0.00000000
     atom    7 type  2   force =     0.00000000    0.00000000    0.00000000
     The SCF correction term to forces
     atom    1 type  1   force =    -0.00000159    0.00000937   -0.00000972
     atom    2 type  1   force =     0.00000159   -0.00000937    0.00000972
     atom    3 type  1   force =    -0.00000732   -0.00000606   -0.00000972
     atom    4 type  1   force =     0.00000732    0.00000606    0.00000972
     atom    5 type  1   force =     0.00000891   -0.00000330   -0.00000972
     atom    6 type  1   force =    -0.00000891    0.00000330    0.00000972
     atom    7 type  2   force =    -0.00000000    0.00000000    0.00000000

     Total force =     0.208279     Total SCF correction =     0.000033


     Computing stress (Cartesian axis) and pressure

          total   stress  (Ry/bohr**3)                   (kbar)     P=      380.69
   0.00276944  -0.00000000   0.00000000          407.40       -0.00        0.00
   0.00000000   0.00276944   0.00000000            0.00      407.40        0.00
  -0.00000000   0.00000000   0.00222479           -0.00        0.00      327.28

     Energy error            =      3.6E-01 Ry
     Gradient error          =      7.7E-02 Ry/Bohr
     Cell gradient error     =      1.7E+02 kbar

     number of scf cycles    =   2
     number of bfgs steps    =   1

     enthalpy           old  =     -92.6143768023 Ry
     enthalpy           new  =     -92.9768318505 Ry

     CASE: enthalpy          _new < enthalpy          _old

     new trust radius        =       0.1463717670 bohr
ibrav =      5
 celldm(1) =      8.73968559
 celldm(4) =      0.53009732
Input lattice vectors:
     0.50349610    -0.29069361     0.86079681
    -0.00000000     0.58138722     0.86079681
    -0.50349610    -0.29069361     0.86079681
New lattice vectors in INITIAL alat:
     0.50349610    -0.29069361     0.86079681
     0.00000000     0.58138722     0.86079681
    -0.50349610    -0.29069361     0.86079681
New lattice vectors in NEW alat (for information only):
     0.48471779    -0.27985195     0.82869268
     0.00000000     0.55970390     0.82869268
    -0.48471779    -0.27985195     0.82869268
Discrepancy in bohr =     0.000000    0.000000    0.000000
     new conv_thr            =       0.0000000077 Ry

     new unit-cell volume =    450.24560 a.u.^3 (    66.71951 Ang^3 )
     density =      1.73550 g/cm^3

CELL_PARAMETERS (alat=  8.41373174)
   0.503496098  -0.290693608   0.860796810
   0.000000000   0.581387216   0.860796810
  -0.503496098  -0.290693608   0.860796810

ATOMIC_POSITIONS (crystal)
Li            0.9857556725        0.1984713603        0.5905955406
Li            0.0142443275       -0.1984713603        1.4094044594
Li            0.5905955406       -0.0142443275        1.1984713603
Li            0.4094044594        0.0142443275        0.8015286397
Li            1.1984713603       -0.4094044594        0.9857556725
Li           -0.1984713603        0.4094044594        1.0142443275
Si            0.5000000000        0.5000000000        0.5000000000



     Writing config-only to output data dir ./output/LiSi.save/
     NEW-OLD atomic charge density approx. for the potential
     extrapolated charge   20.90363, renormalised to   22.00000

     total cpu time spent up to now is       12.1 secs

     Self-consistent Calculation

     iteration #  1     ecut=    80.00 Ry     beta= 0.70
     Davidson diagonalization with overlap
     ethr =  1.00E-06,  avg # of iterations = 10.8

     total cpu time spent up to now is       13.2 secs

     total energy              =     -94.58028548 Ry
     estimated scf accuracy    <       0.01065773 Ry

     iteration #  2     ecut=    80.00 Ry     beta= 0.70
     Davidson diagonalization with overlap
     ethr =  4.84E-05,  avg # of iterations =  2.0

     total cpu time spent up to now is       13.7 secs

     total energy              =     -94.59029519 Ry
     estimated scf accuracy    <       0.00416057 Ry

     iteration #  3     ecut=    80.00 Ry     beta= 0.70
     Davidson diagonalization with overlap
     ethr =  1.89E-05,  avg # of iterations =  2.0

     total cpu time spent up to now is       14.0 secs

     total energy              =     -94.59068403 Ry
     estimated scf accuracy    <       0.00039066 Ry

     iteration #  4     ecut=    80.00 Ry     beta= 0.70
     Davidson diagonalization with overlap
     ethr =  1.78E-06,  avg # of iterations =  1.4

     total cpu time spent up to now is       14.4 secs

     total energy              =     -94.59069749 Ry
     estimated scf accuracy    <       0.00003135 Ry

     iteration #  5     ecut=    80.00 Ry     beta= 0.70
     Davidson diagonalization with overlap
     ethr =  1.42E-07,  avg # of iterations =  2.0

     total cpu time spent up to now is       14.7 secs

     total energy              =     -94.59070225 Ry
     estimated scf accuracy    <       0.00000012 Ry

     iteration #  6     ecut=    80.00 Ry     beta= 0.70
     Davidson diagonalization with overlap
     ethr =  5.57E-10,  avg # of iterations =  4.0

     total cpu time spent up to now is       15.2 secs

     total energy              =     -94.59070233 Ry
     estimated scf accuracy    <       0.00000004 Ry

     iteration #  7     ecut=    80.00 Ry     beta= 0.70
     Davidson diagonalization with overlap
     ethr =  1.62E-10,  avg # of iterations =  2.0

     total cpu time spent up to now is       15.6 secs

     End of self-consistent calculation

          k = 0.0000 0.0000 0.0000 (  4623 PWs)   bands (ev):

   -40.0169 -39.7600 -39.7600 -39.7506 -39.7499 -39.7499  -2.4089   4.3699
     4.3699   4.9440   5.0680   6.5894   7.5418   7.5418   8.1230

          k =-0.1986-0.1147 0.0774 (  4604 PWs)   bands (ev):

   -39.9958 -39.7956 -39.7675 -39.7522 -39.7412 -39.7353  -2.3064   3.2955
     4.0841   4.4207   5.5062   6.4947   7.5579   8.4181   9.2208

          k =-0.3972-0.2293 0.1549 (  4589 PWs)   bands (ev):

   -39.9442 -39.8535 -39.7747 -39.7505 -39.7339 -39.7313  -2.1103   2.1816
     3.5679   4.3578   5.4668   6.3712   7.4734   9.7794  10.4694

          k =-0.1986 0.1147 0.1549 (  4634 PWs)   bands (ev):

   -39.9889 -39.7912 -39.7797 -39.7609 -39.7455 -39.7216  -2.2697   3.3333
     3.8040   4.1896   5.6244   5.8971   8.3995   8.6715   9.3687

          k =-0.3972 0.0000 0.2323 (  4619 PWs)   bands (ev):

   -39.9466 -39.8315 -39.7983 -39.7505 -39.7466 -39.7146  -2.0971   2.5086
     3.3745   3.8284   5.3086   6.0621   8.9105   9.9048  10.4557

          k = 0.3972 0.4587-0.0774 (  4618 PWs)   bands (ev):

   -39.9163 -39.8598 -39.8086 -39.7432 -39.7417 -39.7189  -2.0210   2.1840
     3.3105   3.4754   5.4790   6.6883   8.4280   9.3496  10.3456

          k = 0.1986 0.3440 0.0000 (  4599 PWs)   bands (ev):

   -39.9645 -39.8074 -39.8054 -39.7427 -39.7387 -39.7293  -2.1672   2.7356
     3.3694   4.0612   5.9259   6.0768   8.0064   8.7812   9.9985

          k =-0.3972 0.2293 0.3098 (  4630 PWs)   bands (ev):

   -39.9190 -39.8377 -39.8142 -39.7702 -39.7443 -39.7031  -1.9907   2.2438
     3.1689   4.0334   4.6613   5.4160  10.3422  10.8479  11.5444

          k = 0.3972 0.6880 0.0000 (  4620 PWs)   bands (ev):

   -39.8856 -39.8607 -39.8353 -39.7593 -39.7430 -39.7047  -1.9402   2.2156
     3.0486   3.2291   5.1983   6.0984   9.4226  10.1076  11.4158

          k = 0.0000 0.0000 0.2323 (  4616 PWs)   bands (ev):

   -39.9958 -39.7817 -39.7817 -39.7719 -39.7283 -39.7283  -2.3039   3.1987
     4.2755   4.2755   5.9979   6.7872   7.8462   7.8462   7.9559

          k =-0.1986-0.1147 0.3098 (  4615 PWs)   bands (ev):

   -39.9641 -39.8166 -39.7834 -39.7798 -39.7295 -39.7146  -2.1616   2.6748
     3.3562   4.1626   5.7939   6.8094   7.7690   9.0290   9.6924

          k = 0.5958 0.3440 0.0000 (  4613 PWs)   bands (ev):

   -39.9154 -39.8633 -39.7928 -39.7765 -39.7259 -39.7144  -2.0158   2.1907
     2.9359   4.0060   5.2058   7.2734   7.9618   9.9008  10.4222

          k = 0.3972 0.2293 0.0774 (  4617 PWs)   bands (ev):

   -39.9474 -39.8268 -39.7968 -39.7666 -39.7323 -39.7182  -2.0967   2.4888
     3.2430   4.0237   5.2607   6.2435   8.0981   9.8637  10.6126

          k =-0.1986 0.1147 0.3872 (  4626 PWs)   bands (ev):

   -39.9478 -39.8088 -39.8049 -39.7932 -39.7262 -39.7072  -2.0896   2.3632
     3.3945   4.0973   5.2822   6.5144   8.2439   9.8427  10.3866

          k = 0.5958 0.5733 0.0774 (  4615 PWs)   bands (ev):

   -39.9061 -39.8415 -39.8254 -39.7859 -39.7216 -39.7080  -1.9667   2.2799
     2.8164   3.5754   5.1464   6.9390   8.8147   9.9648  10.7274

          k = 0.3972 0.4587 0.1549 (  4630 PWs)   bands (ev):

   -39.9055 -39.8400 -39.8341 -39.7701 -39.7235 -39.7153  -1.9728   2.4459
     2.6923   3.4587   5.2310   6.7488   8.5031   9.9781  10.8415

          k = 0.5958-0.3440-0.2323 (  4621 PWs)   bands (ev):

   -39.8884 -39.8627 -39.8127 -39.7951 -39.7253 -39.7045  -1.9349   2.2130
     2.6560   4.0086   4.6518   6.3323   9.5152  10.5315  11.4671

          k = 0.0000 0.0000 0.4647 (  4643 PWs)   bands (ev):

   -39.9484 -39.8198 -39.7978 -39.7978 -39.7123 -39.7123  -2.1000   2.0279
     4.1497   4.1497   5.8215   6.3093   8.3336   8.3336   9.6887

          k = 0.7944 0.4587 0.1549 (  4634 PWs)   bands (ev):

   -39.9224 -39.8281 -39.8141 -39.8026 -39.7118 -39.7094  -2.0078   2.0225
     3.1846   4.0907   5.2647   7.4003   7.9467   9.5461  10.7872

          k =-0.3972-0.0000-0.2323 (  4619 PWs)   bands (ev):

   -39.9467 -39.8315 -39.7957 -39.7595 -39.7410 -39.7139  -2.0946   2.4634
     3.4150   3.7189   5.4784   6.3742   8.3448   9.2916  10.5715

          k = 0.3972-0.4587 0.0774 (  4618 PWs)   bands (ev):

   -39.9162 -39.8607 -39.8062 -39.7496 -39.7382 -39.7176  -2.0200   2.2466
     2.9355   3.8013   5.5390   7.1886   7.3976   9.4396  11.1407

          k = 0.5958-0.5733-0.0774 (  4615 PWs)   bands (ev):

   -39.9062 -39.8425 -39.8234 -39.7863 -39.7242 -39.7058  -1.9650   2.2857
     2.7906   3.4677   5.6620   6.5472   8.4606  10.2113  11.1160

          k = 0.3972-0.4587-0.1549 (  4630 PWs)   bands (ev):

   -39.9057 -39.8414 -39.8319 -39.7707 -39.7264 -39.7126  -1.9711   2.4103
     2.8063   3.2278   5.8398   6.4844   7.9092  10.0762  11.3808

     the Fermi energy is     5.8694 ev

!    total energy              =     -94.59070234 Ry
     estimated scf accuracy    <          3.7E-09 Ry
     smearing contrib. (-TS)   =       0.00104726 Ry
     internal energy E=F+TS    =     -94.59174960 Ry

     The total energy is F=E-TS. E is the sum of the following terms:
     one-electron contribution =     -39.18092478 Ry
     hartree contribution      =      18.14285465 Ry
     xc contribution           =     -24.13774968 Ry
     ewald contribution        =     -49.41592978 Ry

     convergence has been achieved in   7 iterations

     Forces acting on atoms (cartesian axes, Ry/au):

     atom    1 type  1   force =     0.04020332   -0.04417093    0.01171894
     atom    2 type  1   force =    -0.04020332    0.04417093   -0.01171894
     atom    3 type  1   force =     0.01815149    0.05690256    0.01171894
     atom    4 type  1   force =    -0.01815149   -0.05690256   -0.01171894
     atom    5 type  1   force =    -0.05835480   -0.01273163    0.01171894
     atom    6 type  1   force =     0.05835480    0.01273163   -0.01171894
     atom    7 type  2   force =    -0.00000000   -0.00000000    0.00000000
     The non-local contrib.  to forces
     atom    1 type  1   force =     0.04454513   -0.01218868    0.03302695
     atom    2 type  1   force =    -0.04454513    0.01218868   -0.03302695
     atom    3 type  1   force =    -0.01171686    0.04467156    0.03302695
     atom    4 type  1   force =     0.01171686   -0.04467156   -0.03302695
     atom    5 type  1   force =    -0.03282828   -0.03248287    0.03302695
     atom    6 type  1   force =     0.03282828    0.03248287   -0.03302695
     atom    7 type  2   force =    -0.00000000    0.00000000    0.00000000
     The ionic contribution  to forces
     atom    1 type  1   force =     0.22974429   -0.18016133    0.09534123
     atom    2 type  1   force =    -0.22974429    0.18016133   -0.09534123
     atom    3 type  1   force =     0.04115214    0.28904506    0.09534123
     atom    4 type  1   force =    -0.04115214   -0.28904506   -0.09534123
     atom    5 type  1   force =    -0.27089644   -0.10888373    0.09534123
     atom    6 type  1   force =     0.27089644    0.10888373   -0.09534123
     atom    7 type  2   force =    -0.00000000    0.00000000    0.00000000
     The local contribution  to forces
     atom    1 type  1   force =    -0.23409324    0.14819965   -0.11664741
     atom    2 type  1   force =     0.23409324   -0.14819965    0.11664741
     atom    3 type  1   force =    -0.01129804   -0.27683051   -0.11664741
     atom    4 type  1   force =     0.01129804    0.27683051    0.11664741
     atom    5 type  1   force =     0.24539128    0.12863087   -0.11664741
     atom    6 type  1   force =    -0.24539128   -0.12863087    0.11664741
     atom    7 type  2   force =     0.00000000   -0.00000000    0.00000000
     The core correction contribution to forces
     atom    1 type  1   force =     0.00000000    0.00000000    0.00000000
     atom    2 type  1   force =     0.00000000    0.00000000    0.00000000
     atom    3 type  1   force =     0.00000000    0.00000000    0.00000000
     atom    4 type  1   force =     0.00000000    0.00000000    0.00000000
     atom    5 type  1   force =     0.00000000    0.00000000    0.00000000
     atom    6 type  1   force =     0.00000000    0.00000000    0.00000000
     atom    7 type  2   force =     0.00000000    0.00000000    0.00000000
     The Hubbard contrib.    to forces
     atom    1 type  1   force =     0.00000000    0.00000000    0.00000000
     atom    2 type  1   force =     0.00000000    0.00000000    0.00000000
     atom    3 type  1   force =     0.00000000    0.00000000    0.00000000
     atom    4 type  1   force =     0.00000000    0.00000000    0.00000000
     atom    5 type  1   force =     0.00000000    0.00000000    0.00000000
     atom    6 type  1   force =     0.00000000    0.00000000    0.00000000
     atom    7 type  2   force =     0.00000000    0.00000000    0.00000000
     The SCF correction term to forces
     atom    1 type  1   force =     0.00000713   -0.00002056   -0.00000183
     atom    2 type  1   force =    -0.00000713    0.00002056    0.00000183
     atom    3 type  1   force =     0.00001424    0.00001645   -0.00000183
     atom    4 type  1   force =    -0.00001424   -0.00001645    0.00000183
     atom    5 type  1   force =    -0.00002137    0.00000411   -0.00000183
     atom    6 type  1   force =     0.00002137   -0.00000411    0.00000183
     atom    7 type  2   force =     0.00000000    0.00000000   -0.00000000

     Total force =     0.149091     Total SCF correction =     0.000053


     Computing stress (Cartesian axis) and pressure

          total   stress  (Ry/bohr**3)                   (kbar)     P=      397.66
   0.00293780  -0.00000000   0.00000000          432.16       -0.00        0.00
   0.00000000   0.00293780   0.00000000            0.00      432.16        0.00
   0.00000000   0.00000000   0.00223411            0.00        0.00      328.65

     Energy error            =      8.4E-02 Ry
     Gradient error          =      5.8E-02 Ry/Bohr
     Cell gradient error     =      1.7E+02 kbar

     number of scf cycles    =   3
     number of bfgs steps    =   2

     enthalpy           old  =     -92.9768318505 Ry
     enthalpy           new  =     -93.0603486612 Ry

     CASE: enthalpy          _new < enthalpy          _old

     new trust radius        =       0.2167245063 bohr
ibrav =      5
 celldm(1) =      8.40671870
 celldm(4) =      0.50250501
Input lattice vectors:
     0.49833021    -0.28771108     0.81683719
    -0.00000000     0.57542216     0.81683719
    -0.49833021    -0.28771108     0.81683719
New lattice vectors in INITIAL alat:
     0.49833021    -0.28771108     0.81683719
     0.00000000     0.57542216     0.81683719
    -0.49833021    -0.28771108     0.81683719
New lattice vectors in NEW alat (for information only):
     0.49874592    -0.28795109     0.81751861
     0.00000000     0.57590218     0.81751861
    -0.49874592    -0.28795109     0.81751861
Discrepancy in bohr =     0.000000    0.000000    0.000000
     new conv_thr            =       0.0000000058 Ry

     new unit-cell volume =    418.52994 a.u.^3 (    62.01974 Ang^3 )
     density =      1.86702 g/cm^3

CELL_PARAMETERS (alat=  8.41373174)
   0.498330205  -0.287711078   0.816837189
   0.000000000   0.575422156   0.816837189
  -0.498330205  -0.287711078   0.816837189

ATOMIC_POSITIONS (crystal)
Li            1.0101378515        0.1828913252        0.5894231860
Li           -0.0101378515       -0.1828913252        1.4105768140
Li            0.5894231860        0.0101378515        1.1828913252
Li            0.4105768140       -0.0101378515        0.8171086748
Li            1.1828913252       -0.4105768140        1.0101378515
Li           -0.1828913252        0.4105768140        0.9898621485
Si            0.5000000000        0.5000000000        0.5000000000



     Writing config-only to output data dir ./output/LiSi.save/
     NEW-OLD atomic charge density approx. for the potential
     extrapolated charge   20.33499, renormalised to   22.00000

     total cpu time spent up to now is       17.2 secs

     Self-consistent Calculation

     iteration #  1     ecut=    80.00 Ry     beta= 0.70
     Davidson diagonalization with overlap
     c_bands:  1 eigenvalues not converged
     ethr =  1.00E-06,  avg # of iterations = 11.5

     total cpu time spent up to now is       18.3 secs

     total energy              =     -94.54011554 Ry
     estimated scf accuracy    <       0.02329686 Ry

     iteration #  2     ecut=    80.00 Ry     beta= 0.70
     Davidson diagonalization with overlap
     ethr =  1.06E-04,  avg # of iterations =  2.0

     total cpu time spent up to now is       18.7 secs

     total energy              =     -94.56243649 Ry
     estimated scf accuracy    <       0.01331583 Ry

     iteration #  3     ecut=    80.00 Ry     beta= 0.70
     Davidson diagonalization with overlap
     ethr =  6.05E-05,  avg # of iterations =  2.0

     total cpu time spent up to now is       19.1 secs

     total energy              =     -94.56367735 Ry
     estimated scf accuracy    <       0.00102825 Ry

     iteration #  4     ecut=    80.00 Ry     beta= 0.70
     Davidson diagonalization with overlap
     ethr =  4.67E-06,  avg # of iterations =  1.3

     total cpu time spent up to now is       19.4 secs

     total energy              =     -94.56371099 Ry
     estimated scf accuracy    <       0.00006314 Ry

     iteration #  5     ecut=    80.00 Ry     beta= 0.70
     Davidson diagonalization with overlap
     c_bands:  1 eigenvalues not converged
     ethr =  2.87E-07,  avg # of iterations =  3.0

     total cpu time spent up to now is       19.8 secs

     total energy              =     -94.56372312 Ry
     estimated scf accuracy    <       0.00000123 Ry

     iteration #  6     ecut=    80.00 Ry     beta= 0.70
     Davidson diagonalization with overlap
     ethr =  5.61E-09,  avg # of iterations =  2.4

     total cpu time spent up to now is       20.2 secs

     total energy              =     -94.56372331 Ry
     estimated scf accuracy    <       0.00000007 Ry

     iteration #  7     ecut=    80.00 Ry     beta= 0.70
     Davidson diagonalization with overlap
     ethr =  3.18E-10,  avg # of iterations =  2.3

     total cpu time spent up to now is       20.6 secs

     total energy              =     -94.56372333 Ry
     estimated scf accuracy    <       0.00000001 Ry

     iteration #  8     ecut=    80.00 Ry     beta= 0.70
     Davidson diagonalization with overlap
     ethr =  5.70E-11,  avg # of iterations =  2.0

     total cpu time spent up to now is       20.9 secs

     End of self-consistent calculation

          k = 0.0000 0.0000 0.0000 (  4623 PWs)   bands (ev):

   -39.5473 -39.1948 -39.1948 -39.1693 -39.1693 -39.1496  -1.8921   4.9088
     4.9088   5.5050   6.2089   7.3365   8.1087   8.1087   8.7893

          k =-0.2007-0.1159 0.0816 (  4604 PWs)   bands (ev):

   -39.5200 -39.2454 -39.2019 -39.1680 -39.1562 -39.1341  -1.7936   3.8666
     4.6466   5.0055   6.5745   7.1637   8.1521   9.1622   9.6174

          k =-0.4013-0.2317 0.1632 (  4589 PWs)   bands (ev):

   -39.4526 -39.3276 -39.2103 -39.1667 -39.1472 -39.1223  -1.6050   2.7228
     4.1326   4.9846   6.2701   7.3223   8.1685   9.9960  11.2250

          k =-0.2007 0.1159 0.1632 (  4634 PWs)   bands (ev):

   -39.5102 -39.2410 -39.2224 -39.1840 -39.1441 -39.1242  -1.7491   3.9425
     4.3706   4.7118   6.3814   6.5883   9.1916   9.5511  10.0692

          k =-0.4013 0.0000 0.2448 (  4619 PWs)   bands (ev):

   -39.4543 -39.2990 -39.2465 -39.1718 -39.1470 -39.1080  -1.5779   3.0479
     3.9262   4.3949   5.9770   6.9285   9.7952  10.3648  11.1002

          k = 0.4013 0.4634-0.0816 (  4618 PWs)   bands (ev):

   -39.4164 -39.3348 -39.2607 -39.1577 -39.1470 -39.1105  -1.5123   2.7143
     3.8449   4.0800   6.2569   7.7170   9.1873   9.9596  10.7759

          k = 0.2007 0.3476 0.0000 (  4599 PWs)   bands (ev):

   -39.4798 -39.2598 -39.2573 -39.1560 -39.1510 -39.1224  -1.6626   3.3394
     3.8605   4.6735   6.6689   7.2017   8.5650   9.7260  10.3581

          k =-0.4013 0.2317 0.3265 (  4630 PWs)   bands (ev):

   -39.4166 -39.3040 -39.2763 -39.1999 -39.1385 -39.0919  -1.4571   2.7637
     3.7123   4.5200   5.1901   6.3218  11.4755  11.7599  12.5667

          k = 0.4013 0.6951 0.0000 (  4620 PWs)   bands (ev):

   -39.3740 -39.3346 -39.3030 -39.1841 -39.1382 -39.0934  -1.4124   2.7118
     3.5684   3.7906   6.0029   6.7457  10.5581  10.8482  12.2677

          k = 0.0000 0.0000 0.2448 (  4616 PWs)   bands (ev):

   -39.5179 -39.2313 -39.2313 -39.1796 -39.1328 -39.1328  -1.7643   3.8975
     4.7207   4.7207   6.4693   7.5473   8.5642   8.5642   8.9786

          k =-0.2007-0.1159 0.3265 (  4615 PWs)   bands (ev):

   -39.4756 -39.2816 -39.2321 -39.1950 -39.1333 -39.1087  -1.6170   3.2433
     3.8833   4.6513   6.2098   7.6997   8.6123   9.6672  10.5291

          k = 0.6020 0.3476 0.0000 (  4613 PWs)   bands (ev):

   -39.4127 -39.3428 -39.2420 -39.1972 -39.1267 -39.1056  -1.4899   2.7200
     3.4763   4.5828   5.7708   8.2204   9.0344  10.3207  11.2315

          k = 0.4013 0.2317 0.0816 (  4617 PWs)   bands (ev):

   -39.4573 -39.2873 -39.2465 -39.1926 -39.1268 -39.1160  -1.5875   3.0968
     3.7269   4.6053   5.8688   7.2852   9.0931  10.5761  11.1197

          k =-0.2007 0.1159 0.4081 (  4626 PWs)   bands (ev):

   -39.4532 -39.2687 -39.2647 -39.2184 -39.1238 -39.0978  -1.5264   2.9132
     3.9015   4.4987   5.6753   7.4032   9.0615  10.6064  11.4221

          k = 0.6020 0.5793 0.0816 (  4615 PWs)   bands (ev):

   -39.3981 -39.3157 -39.2857 -39.2136 -39.1169 -39.0972  -1.4165   2.7739
     3.3581   4.0563   5.7173   7.7348   9.8695  10.6416  11.7201

          k = 0.4013 0.4634 0.1632 (  4630 PWs)   bands (ev):

   -39.4017 -39.3061 -39.2997 -39.1934 -39.1168 -39.1095  -1.4529   3.0126
     3.1835   4.0025   5.9359   7.7267   9.3387  10.5427  11.8180

          k = 0.6020-0.3476-0.2448 (  4621 PWs)   bands (ev):

   -39.3759 -39.3397 -39.2745 -39.2258 -39.1177 -39.0936  -1.3881   2.7051
     3.2027   4.4793   5.1632   7.2995  10.5481  11.2522  12.4126

          k = 0.0000 0.0000 0.4897 (  4643 PWs)   bands (ev):

   -39.4537 -39.2600 -39.2600 -39.2447 -39.1041 -39.1041  -1.5073   2.5787
     4.4846   4.4846   6.0697   7.1214   9.2591   9.2591  11.0878

          k = 0.8027 0.4634 0.1632 (  4634 PWs)   bands (ev):

   -39.4198 -39.2911 -39.2645 -39.2494 -39.1021 -39.1000  -1.4220   2.5330
     3.6545   4.4722   5.6236   8.2337   8.9642  10.2707  11.8672

          k =-0.4013-0.0000-0.2448 (  4619 PWs)   bands (ev):

   -39.4544 -39.2995 -39.2424 -39.1827 -39.1376 -39.1101  -1.5748   2.9921
     3.9585   4.2991   6.4260   6.8530   9.2576  10.1114  11.1747

          k = 0.4013-0.4634 0.0816 (  4618 PWs)   bands (ev):

   -39.4162 -39.3363 -39.2574 -39.1670 -39.1391 -39.1111  -1.5111   2.7773
     3.4752   4.4058   6.4111   7.8306   8.4057  10.1679  11.4380

          k = 0.6020-0.5793-0.0816 (  4615 PWs)   bands (ev):

   -39.3980 -39.3176 -39.2829 -39.2143 -39.1190 -39.0953  -1.4143   2.7711
     3.3295   3.9789   6.0959   7.5076   9.3097  11.1190  12.1163

          k = 0.4013-0.4634-0.1632 (  4630 PWs)   bands (ev):

   -39.4018 -39.3092 -39.2956 -39.1950 -39.1163 -39.1093  -1.4508   2.9325
     3.3357   3.7906   6.5974   7.2675   8.8277  10.8065  12.6555

     the Fermi energy is     6.6126 ev

!    total energy              =     -94.56372333 Ry
     estimated scf accuracy    <          5.7E-10 Ry
     smearing contrib. (-TS)   =       0.00027195 Ry
     internal energy E=F+TS    =     -94.56399528 Ry

     The total energy is F=E-TS. E is the sum of the following terms:
     one-electron contribution =     -37.06953943 Ry
     hartree contribution      =      17.60288230 Ry
     xc contribution           =     -24.23142149 Ry
     ewald contribution        =     -50.86591667 Ry

     convergence has been achieved in   8 iterations

     Forces acting on atoms (cartesian axes, Ry/au):

     atom    1 type  1   force =     0.03589438   -0.02687460   -0.00699284
     atom    2 type  1   force =    -0.03589438    0.02687460    0.00699284
     atom    3 type  1   force =     0.00532690    0.04452275   -0.00699284
     atom    4 type  1   force =    -0.00532690   -0.04452275    0.00699284
     atom    5 type  1   force =    -0.04122128   -0.01764815   -0.00699284
     atom    6 type  1   force =     0.04122128    0.01764815    0.00699284
     atom    7 type  2   force =     0.00000000    0.00000000    0.00000000
     The non-local contrib.  to forces
     atom    1 type  1   force =     0.04759127   -0.00477684    0.04544824
     atom    2 type  1   force =    -0.04759127    0.00477684   -0.04544824
     atom    3 type  1   force =    -0.01965876    0.04360367    0.04544824
     atom    4 type  1   force =     0.01965876   -0.04360367   -0.04544824
     atom    5 type  1   force =    -0.02793250   -0.03882682    0.04544824
     atom    6 type  1   force =     0.02793250    0.03882682   -0.04544824
     atom    7 type  2   force =    -0.00000000    0.00000000   -0.00000000
     The ionic contribution  to forces
     atom    1 type  1   force =     0.19380614   -0.04524431   -0.08724352
     atom    2 type  1   force =    -0.19380614    0.04524431    0.08724352
     atom    3 type  1   force =    -0.05772035    0.19046320   -0.08724352
     atom    4 type  1   force =     0.05772035   -0.19046320    0.08724352
     atom    5 type  1   force =    -0.13608579   -0.14521888   -0.08724352
     atom    6 type  1   force =     0.13608579    0.14521888    0.08724352
     atom    7 type  2   force =    -0.00000000    0.00000000   -0.00000000
     The local contribution  to forces
     atom    1 type  1   force =    -0.20550101    0.02315467    0.03479440
     atom    2 type  1   force =     0.20550101   -0.02315467   -0.03479440
     atom    3 type  1   force =     0.08269797   -0.18954643    0.03479440
     atom    4 type  1   force =    -0.08269797    0.18954643   -0.03479440
     atom    5 type  1   force =     0.12280304    0.16639176    0.03479440
     atom    6 type  1   force =    -0.12280304   -0.16639176   -0.03479440
     atom    7 type  2   force =     0.00000000   -0.00000000    0.00000000
     The core correction contribution to forces
     atom    1 type  1   force =     0.00000000    0.00000000    0.00000000
     atom    2 type  1   force =     0.00000000    0.00000000    0.00000000
     atom    3 type  1   force =     0.00000000    0.00000000    0.00000000
     atom    4 type  1   force =     0.00000000    0.00000000    0.00000000
     atom    5 type  1   force =     0.00000000    0.00000000    0.00000000
     atom    6 type  1   force =     0.00000000    0.00000000    0.00000000
     atom    7 type  2   force =     0.00000000    0.00000000    0.00000000
     The Hubbard contrib.    to forces
     atom    1 type  1   force =     0.00000000    0.00000000    0.00000000
     atom    2 type  1   force =     0.00000000    0.00000000    0.00000000
     atom    3 type  1   force =     0.00000000    0.00000000    0.00000000
     atom    4 type  1   force =     0.00000000    0.00000000    0.00000000
     atom    5 type  1   force =     0.00000000    0.00000000    0.00000000
     atom    6 type  1   force =     0.00000000    0.00000000    0.00000000
     atom    7 type  2   force =     0.00000000    0.00000000    0.00000000
     The SCF correction term to forces
     atom    1 type  1   force =    -0.00000201   -0.00000812    0.00000805
     atom    2 type  1   force =     0.00000201    0.00000812   -0.00000805
     atom    3 type  1   force =     0.00000803    0.00000232    0.00000805
     atom    4 type  1   force =    -0.00000803   -0.00000232   -0.00000805
     atom    5 type  1   force =    -0.00000603    0.00000580    0.00000805
     atom    6 type  1   force =     0.00000603   -0.00000580   -0.00000805
     atom    7 type  2   force =    -0.00000000    0.00000000   -0.00000000

     Total force =     0.111163     Total SCF correction =     0.000028


     Computing stress (Cartesian axis) and pressure

          total   stress  (Ry/bohr**3)                   (kbar)     P=      447.11
   0.00338154  -0.00000000   0.00000000          497.44       -0.00        0.00
   0.00000000   0.00338154   0.00000000            0.00      497.44        0.00
   0.00000000   0.00000000   0.00235503            0.00        0.00      346.44

     Energy error            =      8.1E-02 Ry
     Gradient error          =      4.5E-02 Ry/Bohr
     Cell gradient error     =      1.5E+02 kbar

     number of scf cycles    =   4
     number of bfgs steps    =   3

     enthalpy           old  =     -93.0603486612 Ry
     enthalpy           new  =     -93.1411689771 Ry

     CASE: enthalpy          _new < enthalpy          _old

     new trust radius        =       0.3302957281 bohr
ibrav =      5
 celldm(1) =      7.95298156
 celldm(4) =      0.44660816
Input lattice vectors:
     0.49721325    -0.28706620     0.75089776
     0.00000000     0.57413241     0.75089776
    -0.49721325    -0.28706620     0.75089776
New lattice vectors in INITIAL alat:
     0.49721325    -0.28706620     0.75089776
     0.00000000     0.57413241     0.75089776
    -0.49721325    -0.28706620     0.75089776
New lattice vectors in NEW alat (for information only):
     0.52601894    -0.30369717     0.79440047
     0.00000000     0.60739435     0.79440047
    -0.52601894    -0.30369717     0.79440047
Discrepancy in bohr =     0.000000    0.000000    0.000000
     new conv_thr            =       0.0000000045 Ry

     new unit-cell volume =    383.02119 a.u.^3 (    56.75788 Ang^3 )
     density =      2.04010 g/cm^3

CELL_PARAMETERS (alat=  8.41373174)
   0.497213249  -0.287066203   0.750897757
   0.000000000   0.574132407   0.750897757
  -0.497213249  -0.287066203   0.750897757

ATOMIC_POSITIONS (crystal)
Li            1.0422290516        0.1623111794        0.5848287691
Li           -0.0422290516       -0.1623111794        1.4151712309
Li            0.5848287691        0.0422290516        1.1623111794
Li            0.4151712309       -0.0422290516        0.8376888206
Li            1.1623111794       -0.4151712309        1.0422290516
Li           -0.1623111794        0.4151712309        0.9577709484
Si            0.5000000000        0.5000000000        0.5000000000



     Writing config-only to output data dir ./output/LiSi.save/
     NEW-OLD atomic charge density approx. for the potential

     negative rho (up, down):  2.246E-07 0.000E+00
     extrapolated charge   19.96304, renormalised to   22.00000

     total cpu time spent up to now is       22.5 secs

     Self-consistent Calculation

     iteration #  1     ecut=    80.00 Ry     beta= 0.70
     Davidson diagonalization with overlap
     c_bands:  1 eigenvalues not converged
     c_bands:  1 eigenvalues not converged
     ethr =  1.00E-06,  avg # of iterations = 12.1

     total cpu time spent up to now is       23.6 secs

     total energy              =     -94.48339615 Ry
     estimated scf accuracy    <       0.04187256 Ry

     iteration #  2     ecut=    80.00 Ry     beta= 0.70
     Davidson diagonalization with overlap
     ethr =  1.90E-04,  avg # of iterations =  2.0

     total cpu time spent up to now is       24.1 secs

     total energy              =     -94.51572572 Ry
     estimated scf accuracy    <       0.02258166 Ry

     iteration #  3     ecut=    80.00 Ry     beta= 0.70
     Davidson diagonalization with overlap
     ethr =  1.03E-04,  avg # of iterations =  2.0

     total cpu time spent up to now is       24.4 secs

     total energy              =     -94.51764423 Ry
     estimated scf accuracy    <       0.00168717 Ry

     iteration #  4     ecut=    80.00 Ry     beta= 0.70
     Davidson diagonalization with overlap
     ethr =  7.67E-06,  avg # of iterations =  2.0

     total cpu time spent up to now is       24.7 secs

     total energy              =     -94.51778874 Ry
     estimated scf accuracy    <       0.00002414 Ry

     iteration #  5     ecut=    80.00 Ry     beta= 0.70
     Davidson diagonalization with overlap
     ethr =  1.10E-07,  avg # of iterations =  3.3

     total cpu time spent up to now is       25.2 secs

     total energy              =     -94.51779493 Ry
     estimated scf accuracy    <       0.00000206 Ry

     iteration #  6     ecut=    80.00 Ry     beta= 0.70
     Davidson diagonalization with overlap
     ethr =  9.37E-09,  avg # of iterations =  2.0

     total cpu time spent up to now is       25.5 secs

     total energy              =     -94.51779518 Ry
     estimated scf accuracy    <       0.00000008 Ry

     iteration #  7     ecut=    80.00 Ry     beta= 0.70
     Davidson diagonalization with overlap
     ethr =  3.77E-10,  avg # of iterations =  2.3

     total cpu time spent up to now is       25.9 secs

     total energy              =     -94.51779520 Ry
     estimated scf accuracy    <          5.4E-09 Ry

     iteration #  8     ecut=    80.00 Ry     beta= 0.70
     Davidson diagonalization with overlap
     ethr =  2.47E-11,  avg # of iterations =  2.1

     total cpu time spent up to now is       26.2 secs

     End of self-consistent calculation

          k = 0.0000 0.0000 0.0000 (  4623 PWs)   bands (ev):

   -39.0721 -38.5567 -38.5567 -38.5297 -38.5297 -38.4293  -1.2294   5.5567
     5.5567   6.1611   7.8462   8.2646   8.8391   8.8391   9.8346

          k =-0.2011-0.1161 0.0888 (  4604 PWs)   bands (ev):

   -39.0356 -38.6451 -38.5636 -38.5243 -38.4927 -38.4138  -1.1464   4.5413
     5.3912   5.7396   7.9564   8.4042   8.8291   9.7874  10.4745

          k =-0.4022-0.2322 0.1776 (  4589 PWs)   bands (ev):

   -38.9440 -38.7693 -38.5715 -38.5189 -38.4795 -38.3934  -0.9886   3.4108
     4.9595   5.7914   7.2650   8.8656   9.2478  10.1236  12.0366

          k =-0.2011 0.1161 0.1776 (  4634 PWs)   bands (ev):

   -39.0190 -38.6481 -38.6015 -38.5405 -38.4402 -38.4260  -1.0901   4.6491
     5.1427   5.3279   7.0109   8.0890  10.0820  10.4938  10.9398

          k =-0.4022-0.0000 0.2663 (  4619 PWs)   bands (ev):

   -38.9407 -38.7358 -38.6327 -38.5296 -38.4476 -38.3903  -0.9379   3.7069
     4.7335   5.0907   6.8185   8.2565  10.7469  10.9396  11.9600

          k = 0.4022 0.4645-0.0888 (  4618 PWs)   bands (ev):

   -38.8970 -38.7752 -38.6537 -38.5092 -38.4622 -38.3801  -0.9005   3.4031
     4.5737   4.9218   7.4182   9.0432   9.9650  10.7028  11.4800

          k = 0.2011 0.3484 0.0000 (  4599 PWs)   bands (ev):

   -38.9847 -38.6588 -38.6537 -38.5013 -38.4855 -38.3923  -1.0430   4.1030
     4.5185   5.5178   7.7287   8.8992   9.3833  10.3340  11.2433

          k =-0.4022 0.2322 0.3551 (  4630 PWs)   bands (ev):

   -38.8833 -38.7223 -38.7106 -38.5646 -38.4215 -38.3752  -0.8044   3.4607
     4.5166   5.0151   5.7844   7.7923  12.4281  12.7478  13.8484

          k = 0.4022 0.6967 0.0000 (  4620 PWs)   bands (ev):

   -38.8279 -38.7718 -38.7337 -38.5456 -38.4295 -38.3691  -0.7773   3.3954
     4.1877   4.6246   6.8237   7.8669  11.4117  12.4233  13.1869

          k = 0.0000 0.0000 0.2663 (  4616 PWs)   bands (ev):

   -39.0224 -38.6388 -38.6388 -38.4805 -38.4473 -38.4473  -1.0650   4.8890
     5.1767   5.1767   6.8407   8.7161   9.5875   9.5875  10.3823

          k =-0.2011-0.1161 0.3551 (  4615 PWs)   bands (ev):

   -38.9595 -38.7183 -38.6379 -38.5177 -38.4486 -38.3940  -0.9215   3.9426
     4.6256   5.1717   6.6346   8.9505   9.6536  10.6107  11.6607

          k = 0.6034 0.3484 0.0000 (  4613 PWs)   bands (ev):

   -38.8799 -38.7915 -38.6466 -38.5418 -38.4411 -38.3761  -0.8474   3.4082
     4.2728   5.2489   6.4683   9.5773  10.4352  10.9862  12.3279

          k = 0.4022 0.2322 0.0888 (  4617 PWs)   bands (ev):

   -38.9539 -38.6878 -38.6521 -38.5572 -38.4359 -38.3898  -0.9668   3.8908
     4.4310   5.2976   6.6440   9.0020  10.4288  11.1481  12.1635

          k =-0.2011 0.1161 0.4439 (  4626 PWs)   bands (ev):

   -38.9205 -38.7045 -38.6905 -38.5617 -38.4173 -38.3820  -0.8026   3.6839
     4.5253   4.8638   6.0526   8.7259  10.0633  11.6494  12.6696

          k = 0.6034 0.5806 0.0888 (  4615 PWs)   bands (ev):

   -38.8422 -38.7646 -38.7124 -38.5771 -38.4083 -38.3727  -0.7352   3.4680
     4.0785   4.6038   6.3111   8.9007  11.0704  11.7184  13.2002

          k = 0.4022 0.4645 0.1776 (  4630 PWs)   bands (ev):

   -38.8761 -38.7342 -38.7082 -38.5636 -38.4118 -38.3837  -0.8276   3.7030
     3.9448   4.7028   6.8158   9.2117  10.3160  11.2000  12.9226

          k = 0.6034-0.3484-0.2663 (  4621 PWs)   bands (ev):

   -38.8216 -38.7741 -38.7096 -38.6008 -38.3942 -38.3773  -0.7185   3.3990
     3.9786   4.9401   5.7407   8.8419  11.4973  12.3706  13.6118

          k = 0.0000 0.0000 0.5327 (  4643 PWs)   bands (ev):

   -38.9109 -38.6967 -38.6967 -38.5943 -38.3888 -38.3888  -0.7196   3.3932
     4.7475   4.7475   6.1804   8.2687  10.6208  10.6208  12.8692

          k = 0.8045 0.4645 0.1776 (  4634 PWs)   bands (ev):

   -38.8596 -38.7371 -38.7003 -38.6161 -38.3860 -38.3779  -0.6626   3.2907
     4.1713   4.7967   5.9535   9.2142  10.4763  11.4007  13.3488

          k =-0.4022-0.0000-0.2663 (  4619 PWs)   bands (ev):

   -38.9408 -38.7368 -38.6265 -38.5412 -38.4363 -38.3951  -0.9350   3.6579
     4.7076   5.0806   7.2778   7.9463  10.5422  11.1703  11.6038

          k = 0.4022-0.4645 0.0888 (  4618 PWs)   bands (ev):

   -38.8965 -38.7775 -38.6486 -38.5188 -38.4546 -38.3813  -0.8994   3.4601
     4.2277   5.2603   7.7003   8.4003  10.2000  10.6747  11.8008

          k = 0.6034-0.5806-0.0888 (  4615 PWs)   bands (ev):

   -38.8415 -38.7680 -38.7091 -38.5777 -38.4094 -38.3717  -0.7329   3.4621
     4.0302   4.5960   6.4731   8.9779  10.3311  12.4043  13.3217

          k = 0.4022-0.4645-0.1776 (  4630 PWs)   bands (ev):

   -38.8763 -38.7343 -38.7072 -38.5651 -38.4093 -38.3854  -0.8255   3.6135
     4.0923   4.5474   7.2677   8.6300  10.3042  11.3972  13.0083

     the Fermi energy is     7.8543 ev

!    total energy              =     -94.51779520 Ry
     estimated scf accuracy    <          7.0E-11 Ry
     smearing contrib. (-TS)   =      -0.00087626 Ry
     internal energy E=F+TS    =     -94.51691895 Ry

     The total energy is F=E-TS. E is the sum of the following terms:
     one-electron contribution =     -34.73703766 Ry
     hartree contribution      =      17.05685847 Ry
     xc contribution           =     -24.36283888 Ry
     ewald contribution        =     -52.47390089 Ry

     convergence has been achieved in   8 iterations

     Forces acting on atoms (cartesian axes, Ry/au):

     atom    1 type  1   force =     0.03091401   -0.00772183   -0.01788161
     atom    2 type  1   force =    -0.03091401    0.00772183    0.01788161
     atom    3 type  1   force =    -0.00876971    0.03063323   -0.01788161
     atom    4 type  1   force =     0.00876971   -0.03063323    0.01788161
     atom    5 type  1   force =    -0.02214430   -0.02291140   -0.01788161
     atom    6 type  1   force =     0.02214430    0.02291140    0.01788161
     atom    7 type  2   force =     0.00000000    0.00000000    0.00000000
     The non-local contrib.  to forces
     atom    1 type  1   force =     0.04747440   -0.00517190    0.05334948
     atom    2 type  1   force =    -0.04747440    0.00517190   -0.05334948
     atom    3 type  1   force =    -0.01925820    0.04369998    0.05334948
     atom    4 type  1   force =     0.01925820   -0.04369998   -0.05334948
     atom    5 type  1   force =    -0.02821619   -0.03852809    0.05334948
     atom    6 type  1   force =     0.02821619    0.03852809   -0.05334948
     atom    7 type  2   force =     0.00000000    0.00000000    0.00000000
     The ionic contribution  to forces
     atom    1 type  1   force =     0.14519644    0.06179590   -0.19586835
     atom    2 type  1   force =    -0.14519644   -0.06179590    0.19586835
     atom    3 type  1   force =    -0.12611505    0.09484586   -0.19586835
     atom    4 type  1   force =     0.12611505   -0.09484586    0.19586835
     atom    5 type  1   force =    -0.01908140   -0.15664176   -0.19586835
     atom    6 type  1   force =     0.01908140    0.15664176    0.19586835
     atom    7 type  2   force =    -0.00000000    0.00000000    0.00000000
     The local contribution  to forces
     atom    1 type  1   force =    -0.16175403   -0.06434293    0.12463388
     atom    2 type  1   force =     0.16175403    0.06434293   -0.12463388
     atom    3 type  1   force =     0.13659962   -0.10791164    0.12463388
     atom    4 type  1   force =    -0.13659962    0.10791164   -0.12463388
     atom    5 type  1   force =     0.02515441    0.17225456    0.12463388
     atom    6 type  1   force =    -0.02515441   -0.17225456   -0.12463388
     atom    7 type  2   force =     0.00000000    0.00000000    0.00000000
     The core correction contribution to forces
     atom    1 type  1   force =     0.00000000    0.00000000    0.00000000
     atom    2 type  1   force =     0.00000000    0.00000000    0.00000000
     atom    3 type  1   force =     0.00000000    0.00000000    0.00000000
     atom    4 type  1   force =     0.00000000    0.00000000    0.00000000
     atom    5 type  1   force =     0.00000000    0.00000000    0.00000000
     atom    6 type  1   force =     0.00000000    0.00000000    0.00000000
     atom    7 type  2   force =     0.00000000    0.00000000    0.00000000
     The Hubbard contrib.    to forces
     atom    1 type  1   force =     0.00000000    0.00000000    0.00000000
     atom    2 type  1   force =     0.00000000    0.00000000    0.00000000
     atom    3 type  1   force =     0.00000000    0.00000000    0.00000000
     atom    4 type  1   force =     0.00000000    0.00000000    0.00000000
     atom    5 type  1   force =     0.00000000    0.00000000    0.00000000
     atom    6 type  1   force =     0.00000000    0.00000000    0.00000000
     atom    7 type  2   force =     0.00000000    0.00000000    0.00000000
     The SCF correction term to forces
     atom    1 type  1   force =    -0.00000280   -0.00000291    0.00000338
     atom    2 type  1   force =     0.00000280    0.00000291   -0.00000338
     atom    3 type  1   force =     0.00000392   -0.00000097    0.00000338
     atom    4 type  1   force =    -0.00000392    0.00000097   -0.00000338
     atom    5 type  1   force =    -0.00000112    0.00000388    0.00000338
     atom    6 type  1   force =     0.00000112   -0.00000388   -0.00000338
     atom    7 type  2   force =    -0.00000000    0.00000000   -0.00000000

     Total force =     0.089500     Total SCF correction =     0.000013


     Computing stress (Cartesian axis) and pressure

          total   stress  (Ry/bohr**3)                   (kbar)     P=      524.42
   0.00396440   0.00000000  -0.00000000          583.18        0.00       -0.00
  -0.00000000   0.00396440   0.00000000           -0.00      583.18        0.00
  -0.00000000   0.00000000   0.00276594           -0.00        0.00      406.88

     Energy error            =      7.5E-02 Ry
     Gradient error          =      3.1E-02 Ry/Bohr
     Cell gradient error     =      9.3E+01 kbar

     number of scf cycles    =   5
     number of bfgs steps    =   4

     enthalpy           old  =     -93.1411689771 Ry
     enthalpy           new  =     -93.2159326470 Ry

     CASE: enthalpy          _new < enthalpy          _old

     new trust radius        =       0.5155811661 bohr
ibrav =      5
 celldm(1) =      7.36700429
 celldm(4) =      0.33170010
Input lattice vectors:
     0.50614268    -0.29222161     0.65198861
     0.00000000     0.58444323     0.65198861
    -0.50614268    -0.29222161     0.65198861
New lattice vectors in INITIAL alat:
     0.50614268    -0.29222161     0.65198861
     0.00000000     0.58444323     0.65198861
    -0.50614268    -0.29222161     0.65198861
New lattice vectors in NEW alat (for information only):
     0.57805705    -0.33374139     0.74462523
     0.00000000     0.66748278     0.74462523
    -0.57805705    -0.33374139     0.74462523
Discrepancy in bohr =     0.000000    0.000000    0.000000
     new conv_thr            =       0.0000000031 Ry

     new unit-cell volume =    344.62164 a.u.^3 (    51.06766 Ang^3 )
     density =      2.26742 g/cm^3

CELL_PARAMETERS (alat=  8.41373174)
   0.506142682  -0.292221614   0.651988610
   0.000000000   0.584443228   0.651988610
  -0.506142682  -0.292221614   0.651988610

ATOMIC_POSITIONS (crystal)
Li            1.0895981441        0.1335759497        0.5734523238
Li           -0.0895981441       -0.1335759497        1.4265476762
Li            0.5734523238        0.0895981441        1.1335759497
Li            0.4265476762       -0.0895981441        0.8664240503
Li            1.1335759497       -0.4265476762        1.0895981441
Li           -0.1335759497        0.4265476762        0.9104018559
Si            0.5000000000        0.5000000000        0.5000000000



     Writing config-only to output data dir ./output/LiSi.save/
     NEW-OLD atomic charge density approx. for the potential

     negative rho (up, down):  1.847E-07 0.000E+00
     extrapolated charge   19.55176, renormalised to   22.00000

     total cpu time spent up to now is       27.8 secs

     Self-consistent Calculation

     iteration #  1     ecut=    80.00 Ry     beta= 0.70
     Davidson diagonalization with overlap
     ethr =  1.00E-06,  avg # of iterations = 12.6

     total cpu time spent up to now is       29.0 secs

     total energy              =     -94.37383470 Ry
     estimated scf accuracy    <       0.10064677 Ry

     iteration #  2     ecut=    80.00 Ry     beta= 0.70
     Davidson diagonalization with overlap
     ethr =  4.57E-04,  avg # of iterations =  2.0

     total cpu time spent up to now is       29.4 secs

     total energy              =     -94.41389601 Ry
     estimated scf accuracy    <       0.03213425 Ry

[...]
     number of atomic types    =            2
     number of electrons       =        22.00
     number of Kohn-Sham states=           15
     kinetic-energy cutoff     =      80.0000  Ry
     charge density cutoff     =     320.0000  Ry
     scf convergence threshold =      1.3E-10
     mixing beta               =       0.7000
     number of iterations used =            8  plain     mixing
     press convergence thresh. =      1.0E+00
     Exchange-correlation= PBE
                           (   1   4   3   4   0   0   0)

     celldm(1)=   8.413732  celldm(2)=   0.000000  celldm(3)=   0.000000
     celldm(4)=   0.558893  celldm(5)=   0.000000  celldm(6)=   0.000000

     crystal axes: (cart. coord. in units of alat)
               a(1) = (   0.512560  -0.295926   0.687543 )  
               a(2) = (   0.000000   0.591853   0.687543 )  
               a(3) = (  -0.512560  -0.295926   0.687543 )  

     reciprocal axes: (cart. coord. in units 2 pi/alat)
               b(1) = (  0.975496 -0.563203  0.484818 )  
               b(2) = (  0.000000  1.126406  0.484818 )  
               b(3) = ( -0.975496 -0.563203  0.484818 )  


     PseudoPot. # 1 for Li read from file:
     ../pseudo/Li_ONCV_PBE_sr.upf
     MD5 check sum: 50ff420e78310ffa21704f3361e624a4
     Pseudo is Norm-conserving, Zval =  3.0
     Generated using ONCVPSP code by D. R. Hamann
     Using radial grid of 1944 points,  4 beta functions with: 
                l(1) =   0
                l(2) =   0
                l(3) =   1
                l(4) =   1

     PseudoPot. # 2 for Si read from file:
     ../pseudo/Si_ONCV_PBE_sr.upf
     MD5 check sum: e543d271109d17c80368dfa7c482276d
     Pseudo is Norm-conserving + core correction, Zval =  4.0
     Generated using ONCVPSP code by D. R. Hamann
     Using radial grid of 1510 points,  6 beta functions with: 
                l(1) =   0
                l(2) =   0
                l(3) =   1
                l(4) =   1
                l(5) =   2
                l(6) =   2

     atomic species   valence    mass     pseudopotential
        Li             3.00     6.94100     Li( 1.00)
        Si             4.00    28.08550     Si( 1.00)

      6 Sym. Ops., with inversion, found



   Cartesian axes

     site n.     atom                  positions (alat units)
         1           Li  tau(   1) = (   0.2782978  -0.4302494   1.2289912  )
         2           Li  tau(   2) = (  -0.7908575  -0.4575300   0.8336369  )
         3           Li  tau(   3) = (  -0.2791017  -0.4316417   1.2289912  )
         4           Li  tau(   4) = (  -0.2334580  -0.4561377   0.8336369  )
         5           Li  tau(   5) = (   0.0008039  -0.9136677   1.2289912  )
         6           Li  tau(   6) = (  -0.5133635   0.0258883   0.8336369  )
         7           Si  tau(   7) = (  -0.0000000  -0.0000000   1.0313140  )

     number of k points=    23  Marzari-Vanderbilt smearing, width (Ry)=  0.0200
                       cart. coord. in units 2pi/alat
        k(    1) = (   0.0000000   0.0000000   0.0000000), wk =   0.0160000
        k(    2) = (  -0.1950992  -0.1126406   0.0969637), wk =   0.0960000
        k(    3) = (  -0.3901985  -0.2252812   0.1939274), wk =   0.0960000
        k(    4) = (  -0.1950992   0.1126406   0.1939274), wk =   0.0960000
        k(    5) = (  -0.3901985  -0.0000000   0.2908910), wk =   0.0960000
        k(    6) = (   0.3901985   0.4505624  -0.0969637), wk =   0.0960000
        k(    7) = (   0.1950992   0.3379218   0.0000000), wk =   0.0960000
        k(    8) = (  -0.3901985   0.2252812   0.3878547), wk =   0.0960000
        k(    9) = (   0.3901985   0.6758436   0.0000000), wk =   0.0960000
        k(   10) = (   0.0000000   0.0000000   0.2908910), wk =   0.0320000
        k(   11) = (  -0.1950992  -0.1126406   0.3878547), wk =   0.0960000
        k(   12) = (   0.5852977   0.3379218   0.0000000), wk =   0.0960000
        k(   13) = (   0.3901985   0.2252812   0.0969637), wk =   0.0960000
        k(   14) = (  -0.1950992   0.1126406   0.4848184), wk =   0.0960000
        k(   15) = (   0.5852977   0.5632030   0.0969637), wk =   0.0960000
        k(   16) = (   0.3901985   0.4505624   0.1939274), wk =   0.0960000
        k(   17) = (   0.5852977  -0.3379218  -0.2908910), wk =   0.0960000
        k(   18) = (   0.0000000   0.0000000   0.5817821), wk =   0.0320000
        k(   19) = (   0.7803969   0.4505624   0.1939274), wk =   0.0960000
        k(   20) = (  -0.3901985  -0.0000000  -0.2908910), wk =   0.0960000
        k(   21) = (   0.3901985  -0.4505624   0.0969637), wk =   0.0960000
        k(   22) = (   0.5852977  -0.5632030  -0.0969637), wk =   0.0960000
        k(   23) = (   0.3901985  -0.4505624  -0.1939274), wk =   0.0960000

     Dense  grid:    36009 G-vectors     FFT dimensions: (  45,  45,  45)

     Estimated max dynamical RAM per process >      18.63 MB

     Estimated total dynamical RAM >     149.02 MB

     Initial potential from superposition of free atoms

     starting charge      21.9720, renormalised to      22.0000
     Starting wfcs are   16 randomized atomic wfcs

     total cpu time spent up to now is       78.1 secs

     Self-consistent Calculation

     iteration #  1     ecut=    80.00 Ry     beta= 0.70
     Davidson diagonalization with overlap
     c_bands:  1 eigenvalues not converged
     c_bands:  1 eigenvalues not converged
     c_bands:  1 eigenvalues not converged
     c_bands:  1 eigenvalues not converged
     c_bands:  1 eigenvalues not converged
     ethr =  1.00E-06,  avg # of iterations = 16.7

     total cpu time spent up to now is       79.4 secs

     total energy              =     -94.53481101 Ry
     estimated scf accuracy    <       0.03402046 Ry

     iteration #  2     ecut=    80.00 Ry     beta= 0.70
     Davidson diagonalization with overlap
     ethr =  1.55E-04,  avg # of iterations =  1.0
     Minimization algorithm failed to find Fermi energy: reverting to bisection
     Possible cause: smearing is larger than the electronic band-gap.

     total cpu time spent up to now is       79.7 secs

     total energy              =     -94.53602636 Ry
     estimated scf accuracy    <       0.00189604 Ry

     iteration #  3     ecut=    80.00 Ry     beta= 0.70
     Davidson diagonalization with overlap
     ethr =  8.62E-06,  avg # of iterations =  1.5

     total cpu time spent up to now is       80.0 secs

     total energy              =     -94.53611502 Ry
     estimated scf accuracy    <       0.00006510 Ry

     iteration #  4     ecut=    80.00 Ry     beta= 0.70
     Davidson diagonalization with overlap
     ethr =  2.96E-07,  avg # of iterations =  3.5
     Minimization algorithm failed to find Fermi energy: reverting to bisection
     Possible cause: smearing is larger than the electronic band-gap.

     total cpu time spent up to now is       80.4 secs

     total energy              =     -94.53612717 Ry
     estimated scf accuracy    <       0.00000439 Ry

     iteration #  5     ecut=    80.00 Ry     beta= 0.70
     Davidson diagonalization with overlap
     ethr =  2.00E-08,  avg # of iterations =  2.0

     total cpu time spent up to now is       80.8 secs

     total energy              =     -94.53612791 Ry
     estimated scf accuracy    <       0.00000004 Ry

     iteration #  6     ecut=    80.00 Ry     beta= 0.70
     Davidson diagonalization with overlap
     ethr =  1.64E-10,  avg # of iterations =  2.7
     Minimization algorithm failed to find Fermi energy: reverting to bisection
     Possible cause: smearing is larger than the electronic band-gap.

     total cpu time spent up to now is       81.2 secs

     total energy              =     -94.53612792 Ry
     estimated scf accuracy    <          2.1E-09 Ry

     iteration #  7     ecut=    80.00 Ry     beta= 0.70
     Davidson diagonalization with overlap
     ethr =  9.45E-12,  avg # of iterations =  2.3

     total cpu time spent up to now is       81.6 secs

     End of self-consistent calculation

          k = 0.0000 0.0000 0.0000 (  4511 PWs)   bands (ev):

   -39.2069 -38.6336 -38.6336 -38.4575 -38.4575 -38.3487  -1.0747   5.6491
     5.6491   6.3162   8.1515   9.2906   9.2906  10.0116  10.4333

          k =-0.1951-0.1126 0.0970 (  4508 PWs)   bands (ev):

   -39.1663 -38.7198 -38.6309 -38.4603 -38.4296 -38.3315  -1.0028   4.6636
     5.7082   5.9766   8.3730   9.3242   9.5362  10.1622  11.0881

          k =-0.3902-0.2253 0.1939 (  4496 PWs)   bands (ev):

   -39.0605 -38.8714 -38.6264 -38.4651 -38.4137 -38.3025  -0.8672   3.5687
     5.7359   5.8213   7.9538   9.3528   9.9114  10.6569  11.7533

          k =-0.1951 0.1126 0.1939 (  4490 PWs)   bands (ev):

   -39.1402 -38.7321 -38.6723 -38.4868 -38.3580 -38.3492  -0.9264   4.8131
     5.1803   5.6282   7.1892   9.5401  10.6800  11.0684  11.1999

          k =-0.3902-0.0000 0.2909 (  4508 PWs)   bands (ev):

   -39.0457 -38.8450 -38.6792 -38.5145 -38.3605 -38.2945  -0.7859   3.8104
     5.1033   5.3846   7.0689   9.4743  10.7876  11.2526  12.3315

          k = 0.3902 0.4506-0.0970 (  4493 PWs)   bands (ev):

   -39.0134 -38.8731 -38.6880 -38.5097 -38.3797 -38.2760  -0.7833   3.6184
     4.7418   5.6151   8.1263   9.4006   9.6090  11.4582  12.1418

          k = 0.1951 0.3379 0.0000 (  4492 PWs)   bands (ev):

   -39.1165 -38.7445 -38.6854 -38.4839 -38.4127 -38.2963  -0.9270   4.3580
     4.7887   5.9835   8.5703   9.2622   9.6190  11.0001  11.7200

          k =-0.3902 0.2253 0.3879 (  4509 PWs)   bands (ev):

   -38.9724 -38.8254 -38.7781 -38.5677 -38.3331 -38.2629  -0.6364   3.7817
     4.6785   5.0725   5.8358   9.2716  12.4188  12.8583  13.6371

          k = 0.3902 0.6758 0.0000 (  4518 PWs)   bands (ev):

   -38.9220 -38.8785 -38.7821 -38.5609 -38.3428 -38.2535  -0.6321   3.7420
     4.1648   5.1812   6.6388   9.3027  10.7861  13.2547  14.1747

          k = 0.0000 0.0000 0.2909 (  4499 PWs)   bands (ev):

   -39.1264 -38.7275 -38.7275 -38.4317 -38.3624 -38.3624  -0.8430   4.9934
     4.9934   5.3784   6.7142   9.8197  10.5573  10.5573  11.2808

          k =-0.1951-0.1126 0.3879 (  4520 PWs)   bands (ev):

   -39.0405 -38.8322 -38.7244 -38.4874 -38.3656 -38.2884  -0.6955   3.9727
     5.0020   5.1001   6.5022   9.9496  10.5682  11.1383  12.3102

          k = 0.5853 0.3379 0.0000 (  4497 PWs)   bands (ev):

   -38.9808 -38.8767 -38.7272 -38.5277 -38.3631 -38.2640  -0.6922   3.5995
     4.7937   5.2009   6.7360  10.6924  10.8292  11.4206  12.0099

          k = 0.3902 0.2253 0.0970 (  4487 PWs)   bands (ev):

   -39.0820 -38.7320 -38.7313 -38.5467 -38.3584 -38.2893  -0.8464   4.2271
     4.8431   5.3150   7.0660  10.7625  10.7845  11.4547  12.1796

          k =-0.1951 0.1126 0.4848 (  4520 PWs)   bands (ev):

   -38.9717 -38.8216 -38.7922 -38.5675 -38.3191 -38.2665  -0.5347   3.9492
     4.4833   4.7564   5.8641   9.9084  10.7280  12.4134  13.0144

          k = 0.5853 0.5632 0.0970 (  4503 PWs)   bands (ev):

   -38.9053 -38.8615 -38.7913 -38.6175 -38.3094 -38.2544  -0.5301   3.7655
     4.1962   4.7189   6.1862  10.2653  10.7511  12.9179  13.4790

          k = 0.3902 0.4506 0.1939 (  4511 PWs)   bands (ev):

   -38.9925 -38.8412 -38.6977 -38.6160 -38.3123 -38.2802  -0.6959   3.8655
     4.4320   4.9093   7.0440  10.3376  10.5510  11.4807  13.1751

          k = 0.5853-0.3379-0.2909 (  4519 PWs)   bands (ev):

   -38.9279 -38.8235 -38.7602 -38.6763 -38.2870 -38.2649  -0.5325   3.7529
     4.3959   4.6323   5.7576  10.4621  11.4964  12.5718  13.7524

          k = 0.0000 0.0000 0.5818 (  4516 PWs)   bands (ev):

   -38.9149 -38.8172 -38.8172 -38.6473 -38.2707 -38.2707  -0.3519   3.8175
     4.3238   4.3238   5.7631   9.1078  12.0489  12.0489  13.3678

          k = 0.7804 0.4506 0.1939 (  4496 PWs)   bands (ev):

   -38.8651 -38.8184 -38.8090 -38.7194 -38.2697 -38.2570  -0.3460   3.6845
     4.1047   4.4109   5.6988   9.7110  12.1365  12.4274  13.3106

          k =-0.3902-0.0000-0.2909 (  4508 PWs)   bands (ev):

   -39.0457 -38.8450 -38.6791 -38.5146 -38.3604 -38.2945  -0.7859   3.8101
     5.0988   5.3886   7.0726   9.4722  10.7894  11.2504  12.3238

          k = 0.3902-0.4506 0.0970 (  4493 PWs)   bands (ev):

   -39.0134 -38.8732 -38.6879 -38.5099 -38.3796 -38.2760  -0.7833   3.6194
     4.7358   5.6219   8.1278   9.3728   9.6323  11.4645  12.1371

          k = 0.5853-0.5632-0.0970 (  4503 PWs)   bands (ev):

   -38.9053 -38.8615 -38.7913 -38.6175 -38.3094 -38.2544  -0.5301   3.7659
     4.1941   4.7203   6.1869  10.2849  10.7268  12.9218  13.4658

          k = 0.3902-0.4506-0.1939 (  4511 PWs)   bands (ev):

   -38.9925 -38.8411 -38.6978 -38.6159 -38.3124 -38.2802  -0.6959   3.8641
     4.4345   4.9072   7.0470  10.3236  10.5618  11.4827  13.1639

     the Fermi energy is     8.7468 ev

!    total energy              =     -94.53612792 Ry
     estimated scf accuracy    <          6.7E-11 Ry
     smearing contrib. (-TS)   =       0.00050527 Ry
     internal energy E=F+TS    =     -94.53663319 Ry

     The total energy is F=E-TS. E is the sum of the following terms:
     one-electron contribution =     -34.26751343 Ry
     hartree contribution      =      16.89643317 Ry
     xc contribution           =     -24.37487337 Ry
     ewald contribution        =     -52.79067956 Ry

     convergence has been achieved in   7 iterations

     Forces acting on atoms (cartesian axes, Ry/au):

     atom    1 type  1   force =     0.00078291    0.00037165    0.00005429
     atom    2 type  1   force =    -0.00078291   -0.00037165   -0.00005429
     atom    3 type  1   force =    -0.00071332    0.00049220    0.00005429
     atom    4 type  1   force =     0.00071332   -0.00049220   -0.00005429
     atom    5 type  1   force =    -0.00006959   -0.00086385    0.00005429
     atom    6 type  1   force =     0.00006959    0.00086385   -0.00005429
     atom    7 type  2   force =     0.00000000   -0.00000000    0.00000000
     The non-local contrib.  to forces
     atom    1 type  1   force =     0.02343234    0.01271774    0.00249135
     atom    2 type  1   force =    -0.02343234   -0.01271774   -0.00249135
     atom    3 type  1   force =    -0.02273005    0.01393414    0.00249135
     atom    4 type  1   force =     0.02273005   -0.01393414   -0.00249135
     atom    5 type  1   force =    -0.00070229   -0.02665187    0.00249135
     atom    6 type  1   force =     0.00070229    0.02665187   -0.00249135
     atom    7 type  2   force =    -0.00000000   -0.00000000    0.00000000
     The ionic contribution  to forces
     atom    1 type  1   force =    -0.02661530   -0.01355748    0.07085615
     atom    2 type  1   force =     0.02661530    0.01355748   -0.07085615
     atom    3 type  1   force =     0.02504877   -0.01627079    0.07085615
     atom    4 type  1   force =    -0.02504877    0.01627079   -0.07085615
     atom    5 type  1   force =     0.00156653    0.02982827    0.07085615
     atom    6 type  1   force =    -0.00156653   -0.02982827   -0.07085615
     atom    7 type  2   force =    -0.00000000    0.00000000   -0.00000000
     The local contribution  to forces
     atom    1 type  1   force =     0.00396841    0.00121289   -0.07329353
     atom    2 type  1   force =    -0.00396841   -0.00121289    0.07329353
     atom    3 type  1   force =    -0.00303460    0.00283030   -0.07329353
     atom    4 type  1   force =     0.00303460   -0.00283030    0.07329353
     atom    5 type  1   force =    -0.00093381   -0.00404319   -0.07329353
     atom    6 type  1   force =     0.00093381    0.00404319    0.07329353
     atom    7 type  2   force =    -0.00000000    0.00000000    0.00000000
     The core correction contribution to forces
     atom    1 type  1   force =     0.00000000    0.00000000    0.00000000
     atom    2 type  1   force =     0.00000000    0.00000000    0.00000000
     atom    3 type  1   force =     0.00000000    0.00000000    0.00000000
     atom    4 type  1   force =     0.00000000    0.00000000    0.00000000
     atom    5 type  1   force =     0.00000000    0.00000000    0.00000000
     atom    6 type  1   force =     0.00000000    0.00000000    0.00000000
     atom    7 type  2   force =    -0.00000000    0.00000000    0.00000000
     The Hubbard contrib.    to forces
     atom    1 type  1   force =     0.00000000    0.00000000    0.00000000
     atom    2 type  1   force =     0.00000000    0.00000000    0.00000000
     atom    3 type  1   force =     0.00000000    0.00000000    0.00000000
     atom    4 type  1   force =     0.00000000    0.00000000    0.00000000
     atom    5 type  1   force =     0.00000000    0.00000000    0.00000000
     atom    6 type  1   force =     0.00000000    0.00000000    0.00000000
     atom    7 type  2   force =     0.00000000    0.00000000    0.00000000
     The SCF correction term to forces
     atom    1 type  1   force =    -0.00000253   -0.00000149    0.00000032
     atom    2 type  1   force =     0.00000253    0.00000149   -0.00000032
     atom    3 type  1   force =     0.00000256   -0.00000145    0.00000032
     atom    4 type  1   force =    -0.00000256    0.00000145   -0.00000032
     atom    5 type  1   force =    -0.00000003    0.00000294    0.00000032
     atom    6 type  1   force =     0.00000003   -0.00000294   -0.00000032
     atom    7 type  2   force =     0.00000000    0.00000000   -0.00000000

     Total force =     0.002127     Total SCF correction =     0.000007


     Computing stress (Cartesian axis) and pressure

          total   stress  (Ry/bohr**3)                   (kbar)     P=      502.17
   0.00342005  -0.00000000   0.00000000          503.11       -0.00        0.00
   0.00000000   0.00342005   0.00000000            0.00      503.11        0.00
   0.00000000   0.00000000   0.00340084            0.00        0.00      500.28


     Writing all to output data dir ./output/LiSi.save/

     init_run     :      1.23s CPU      1.40s WALL (       2 calls)
     electrons    :     49.84s CPU     53.52s WALL (      18 calls)
     update_pot   :      6.36s CPU      6.48s WALL (      16 calls)
     forces       :      4.26s CPU      4.42s WALL (      18 calls)
     stress       :     15.50s CPU     16.36s WALL (      18 calls)

     Called by init_run:
     wfcinit      :      0.26s CPU      0.27s WALL (       2 calls)
     potinit      :      0.35s CPU      0.44s WALL (       2 calls)
     hinit0       :      0.56s CPU      0.58s WALL (       2 calls)

     Called by electrons:
     c_bands      :     42.88s CPU     45.50s WALL (     123 calls)
     sum_band     :      5.79s CPU      6.08s WALL (     123 calls)
     v_of_rho     :      1.22s CPU      1.86s WALL (     136 calls)
     mix_rho      :      0.08s CPU      0.11s WALL (     123 calls)

     Called by c_bands:
     init_us_2    :      1.19s CPU      1.32s WALL (    6532 calls)
     init_us_2:cp :      1.18s CPU      1.31s WALL (    6532 calls)
     cegterg      :     40.63s CPU     41.93s WALL (    2829 calls)

     Called by *egterg:
     cdiaghg      :      2.77s CPU      2.86s WALL (   11141 calls)
     h_psi        :     33.51s CPU     34.58s WALL (   11670 calls)
     g_psi        :      0.17s CPU      0.18s WALL (    8795 calls)

     Called by h_psi:
     h_psi:calbec :      2.55s CPU      2.64s WALL (   11670 calls)
     vloc_psi     :     28.77s CPU     29.67s WALL (   11670 calls)
     add_vuspsi   :      2.06s CPU      2.11s WALL (   11670 calls)

     General routines
     calbec       :      3.28s CPU      3.40s WALL (   13740 calls)
     fft          :      1.19s CPU      2.02s WALL (    1813 calls)
     ffts         :      0.05s CPU      0.08s WALL (     123 calls)
     fftw         :     29.15s CPU     30.01s WALL (  288489 calls)

     Parallel routines

     PWSCF        :   1m17.49s CPU   1m22.77s WALL


   This run was terminated on:   4: 8:11  30Dec2024            

=------------------------------------------------------------------------------=
   JOB DONE.
=------------------------------------------------------------------------------=
