
     Program PWSCF v.7.2 starts on 30Dec2024 at  3:18: 6 

     This program is part of the open-source Quantum ESPRESSO suite
     for quantum simulation of materials; please cite
         "P. Giannozzi et al., J. Phys.:Condens. Matter 21 395502 (2009);
         "P. Giannozzi et al., J. Phys.:Condens. Matter 29 465901 (2017);
         "P. Giannozzi et al., J. Chem. Phys. 152 154105 (2020);
          URL http://www.quantum-espresso.org", 
     in publications or presentations arising from this work. More details at
     http://www.quantum-espresso.org/quote

     Parallel version (MPI & OpenMP), running on       8 processor cores
     Number of MPI processes:                 8
     Threads/MPI process:                     1

     MPI processes distributed on     1 nodes
     483318 MiB available memory on the printing compute node when the environment starts

     Waiting for input...
     Reading input from standard input

     Current dimensions of program PWSCF are:
     Max number of different atomic species (ntypx) = 10
     Max number of k-points (npk) =  40000
     Max angular momentum in pseudopotentials (lmaxx) =  4

     R & G space division:  proc/nbgrp/npool/nimage =       8
     Subspace diagonalization in iterative solution of the eigenvalue problem:
     a serial algorithm will be used


     Parallelization info
     --------------------
     sticks:   dense  smooth     PW     G-vecs:    dense   smooth      PW
     Min         277     277     83                 3733     3733     619
     Max         279     279     85                 3734     3734     620
     Sum        2221    2221    673                29865    29865    4955

     Using Slab Decomposition



     bravais-lattice index     =            4
     lattice parameter (alat)  =      10.0105  a.u.
     unit-cell volume          =     309.2360 (a.u.)^3
     number of atoms/cell      =            7
     number of atomic types    =            2
     number of electrons       =        27.00
     number of Kohn-Sham states=           18
     kinetic-energy cutoff     =      80.0000  Ry
     charge density cutoff     =     320.0000  Ry
     scf convergence threshold =      1.0E-08
     mixing beta               =       0.7000
     number of iterations used =            8  plain     mixing
     energy convergence thresh.=      1.0E-04
     force convergence thresh. =      1.0E-03
     press convergence thresh. =      1.0E+00
     Exchange-correlation= PBE
                           (   1   4   3   4   0   0   0)
     nstep                     =           50


     celldm(1)=  10.010464  celldm(2)=   0.000000  celldm(3)=   0.355956
     celldm(4)=   0.000000  celldm(5)=   0.000000  celldm(6)=   0.000000

     crystal axes: (cart. coord. in units of alat)
               a(1) = (   1.000000   0.000000   0.000000 )  
               a(2) = (  -0.500000   0.866025   0.000000 )  
               a(3) = (   0.000000   0.000000   0.355956 )  

     reciprocal axes: (cart. coord. in units 2 pi/alat)
               b(1) = (  1.000000  0.577350 -0.000000 )  
               b(2) = (  0.000000  1.154701  0.000000 )  
               b(3) = (  0.000000 -0.000000  2.809333 )  


     PseudoPot. # 1 for Li read from file:
     ../pseudo/Li_ONCV_PBE_sr.upf
     MD5 check sum: 50ff420e78310ffa21704f3361e624a4
     Pseudo is Norm-conserving, Zval =  3.0
     Generated using ONCVPSP code by D. R. Hamann
     Using radial grid of 1944 points,  4 beta functions with: 
                l(1) =   0
                l(2) =   0
                l(3) =   1
                l(4) =   1

     PseudoPot. # 2 for Si read from file:
     ../pseudo/Si_ONCV_PBE_sr.upf
     MD5 check sum: e543d271109d17c80368dfa7c482276d
     Pseudo is Norm-conserving + core correction, Zval =  4.0
     Generated using ONCVPSP code by D. R. Hamann
     Using radial grid of 1510 points,  6 beta functions with: 
                l(1) =   0
                l(2) =   0
                l(3) =   1
                l(4) =   1
                l(5) =   2
                l(6) =   2

     atomic species   valence    mass     pseudopotential
        Li             3.00     6.94100     Li( 1.00)
        Si             4.00    28.08550     Si( 1.00)

     12 Sym. Ops., with inversion, found



   Cartesian axes

     site n.     atom                  positions (alat units)
         1           Li  tau(   1) = (   0.0000000   0.0000000   0.0000000  )
         2           Si  tau(   2) = (  -0.2123090   0.6143939   0.1779782  )
         3           Si  tau(   3) = (   0.7123090   0.2516315   0.1779782  )
         4           Si  tau(   4) = (   0.3617648   0.1233320   0.1779782  )
         5           Si  tau(   5) = (   0.1382352   0.7426934   0.1779782  )
         6           Si  tau(   6) = (   0.0740737   0.3749635   0.1779782  )
         7           Si  tau(   7) = (   0.4259263   0.4910620   0.1779782  )

     number of k points=    24  Marzari-Vanderbilt smearing, width (Ry)=  0.0200
                       cart. coord. in units 2pi/alat
        k(    1) = (   0.0000000   0.0000000   0.0000000), wk =   0.0113636
        k(    2) = (   0.0000000   0.0000000   0.2553939), wk =   0.0227273
        k(    3) = (   0.0000000   0.0000000   0.5107878), wk =   0.0227273
        k(    4) = (   0.0000000   0.0000000   0.7661817), wk =   0.0227273
        k(    5) = (   0.0000000   0.0000000   1.0215756), wk =   0.0227273
        k(    6) = (   0.0000000   0.0000000   1.2769695), wk =   0.0227273
        k(    7) = (   0.0000000   0.2886751   0.0000000), wk =   0.0681818
        k(    8) = (   0.0000000   0.2886751   0.2553939), wk =   0.1363636
        k(    9) = (   0.0000000   0.2886751   0.5107878), wk =   0.1363636
        k(   10) = (   0.0000000   0.2886751   0.7661817), wk =   0.1363636
        k(   11) = (   0.0000000   0.2886751   1.0215756), wk =   0.1363636
        k(   12) = (   0.0000000   0.2886751   1.2769695), wk =   0.1363636
        k(   13) = (   0.0000000  -0.5773503   0.0000000), wk =   0.0340909
        k(   14) = (   0.0000000  -0.5773503   0.2553939), wk =   0.0681818
        k(   15) = (   0.0000000  -0.5773503   0.5107878), wk =   0.0681818
        k(   16) = (   0.0000000  -0.5773503   0.7661817), wk =   0.0681818
        k(   17) = (   0.0000000  -0.5773503   1.0215756), wk =   0.0681818
        k(   18) = (   0.0000000  -0.5773503   1.2769695), wk =   0.0681818
        k(   19) = (   0.2500000   0.4330127   0.0000000), wk =   0.0681818
        k(   20) = (   0.2500000   0.4330127   0.2553939), wk =   0.1363636
        k(   21) = (   0.2500000   0.4330127   0.5107878), wk =   0.1363636
        k(   22) = (   0.2500000   0.4330127   0.7661817), wk =   0.1363636
        k(   23) = (   0.2500000   0.4330127   1.0215756), wk =   0.1363636
        k(   24) = (   0.2500000   0.4330127   1.2769695), wk =   0.1363636

     Dense  grid:    29865 G-vectors     FFT dimensions: (  60,  60,  24)

     Estimated max dynamical RAM per process >      18.53 MB

     Estimated total dynamical RAM >     148.28 MB

     Initial potential from superposition of free atoms

     starting charge      26.9918, renormalised to      27.0000
     Starting wfcs are   26 randomized atomic wfcs

     total cpu time spent up to now is        1.2 secs

     Self-consistent Calculation

     iteration #  1     ecut=    80.00 Ry     beta= 0.70
     Davidson diagonalization with overlap
     ethr =  1.00E-02,  avg # of iterations =  6.2

     Threshold (ethr) on eigenvalues was too large:
     Diagonalizing with lowered threshold

     Davidson diagonalization with overlap
     ethr =  2.83E-04,  avg # of iterations =  4.6

     total cpu time spent up to now is        2.7 secs

     total energy              =     -62.23970786 Ry
     estimated scf accuracy    <       0.07934897 Ry

     iteration #  2     ecut=    80.00 Ry     beta= 0.70
     Davidson diagonalization with overlap
     ethr =  2.94E-04,  avg # of iterations =  2.2

     total cpu time spent up to now is        3.2 secs

     total energy              =     -62.23864275 Ry
     estimated scf accuracy    <       0.06573962 Ry

     iteration #  3     ecut=    80.00 Ry     beta= 0.70
     Davidson diagonalization with overlap
     ethr =  2.43E-04,  avg # of iterations =  2.0

     total cpu time spent up to now is        3.8 secs

     total energy              =     -62.25529844 Ry
     estimated scf accuracy    <       0.00660122 Ry

     iteration #  4     ecut=    80.00 Ry     beta= 0.70
     Davidson diagonalization with overlap
     ethr =  2.44E-05,  avg # of iterations =  3.9

     total cpu time spent up to now is        4.2 secs

     total energy              =     -62.25602449 Ry
     estimated scf accuracy    <       0.00020523 Ry

     iteration #  5     ecut=    80.00 Ry     beta= 0.70
     Davidson diagonalization with overlap
     ethr =  7.60E-07,  avg # of iterations =  6.0

     total cpu time spent up to now is        4.9 secs

     total energy              =     -62.25612512 Ry
     estimated scf accuracy    <       0.00001856 Ry

     iteration #  6     ecut=    80.00 Ry     beta= 0.70
     Davidson diagonalization with overlap
     ethr =  6.88E-08,  avg # of iterations =  2.8

     total cpu time spent up to now is        5.4 secs

     total energy              =     -62.25612944 Ry
     estimated scf accuracy    <       0.00000018 Ry

     iteration #  7     ecut=    80.00 Ry     beta= 0.70
     Davidson diagonalization with overlap
     ethr =  6.76E-10,  avg # of iterations =  5.0

     total cpu time spent up to now is        6.1 secs

     total energy              =     -62.25612967 Ry
     estimated scf accuracy    <       0.00000004 Ry

     iteration #  8     ecut=    80.00 Ry     beta= 0.70
     Davidson diagonalization with overlap
     ethr =  1.30E-10,  avg # of iterations =  2.1

     total cpu time spent up to now is        6.5 secs

     End of self-consistent calculation

          k = 0.0000 0.0000 0.0000 (  3701 PWs)   bands (ev):

   -24.8043   0.4873   5.8244   6.2127   6.2127   7.9331   7.9331  11.8202
    19.1722  19.8215  19.8215  20.1351  20.1351  20.2487  25.5083  26.2119
    26.2119  26.7989

          k = 0.0000 0.0000 0.2554 (  3712 PWs)   bands (ev):

   -24.7593   0.8141   6.1373   6.5253   6.5253   8.2524   8.2524  12.0755
    19.4597  20.1162  20.1162  20.3979  20.3979  20.5153  25.6183  26.3785
    26.3785  26.9526

          k = 0.0000 0.0000 0.5108 (  3730 PWs)   bands (ev):

   -24.6373   1.7887   7.0720   7.4587   7.4587   9.2035   9.2035  12.8380
    20.2956  20.9775  20.9775  21.1323  21.1323  21.2868  24.2196  25.6688
    26.6601  26.6602

          k = 0.0000 0.0000 0.7662 (  3742 PWs)   bands (ev):

   -24.4750   3.3934   8.6158   8.9995   8.9995  10.7644  10.7644  14.0919
    19.7683  21.4359  21.9168  21.9168  22.2497  22.2497  22.6151  24.4691
    25.8421  25.8421

          k = 0.0000 0.0000 1.0216 (  3778 PWs)   bands (ev):

   -24.3233   5.5962  10.7449  11.1213  11.1213  12.8843  12.8843  15.5430
    15.8654  20.1230  20.4066  20.4066  22.1774  22.1774  23.8016  24.3631
    25.6137  25.6146

          k = 0.0000 0.0000 1.2770 (  3772 PWs)   bands (ev):

   -24.2319   8.3062  11.8981  13.3838  13.7320  13.7320  15.3426  15.3426
    16.7761  17.1720  17.1720  17.6261  19.3760  19.3760  22.1788  26.3566
    26.5404  27.1313

          k = 0.0000 0.2887 0.0000 (  3717 PWs)   bands (ev):

   -24.8043   0.8117   3.8534   5.6351   7.1644   9.2116   9.2668  12.4147
    15.8121  16.6277  19.1335  20.2991  22.0698  23.1959  24.4622  24.8810
    26.5777  29.4148

          k = 0.0000 0.2887 0.2554 (  3715 PWs)   bands (ev):

   -24.7592   1.1384   4.1725   5.9524   7.4738   9.5183   9.5709  12.6980
    16.1118  16.9013  19.4333  20.5701  22.3024  23.4634  24.6706  25.0578
    26.5142  28.5842

          k = 0.0000 0.2887 0.5108 (  3734 PWs)   bands (ev):

   -24.6372   2.1127   5.1245   6.8989   8.3959  10.4262  10.4862  13.5455
    16.9955  17.7046  20.3248  21.3321  22.8894  24.1520  24.4787  24.8559
    25.4950  26.5481

          k = 0.0000 0.2887 0.7662 (  3735 PWs)   bands (ev):

   -24.4750   3.7167   6.6938   8.4580   9.9127  11.9104  12.0086  14.9428
    18.3984  18.9375  20.1236  21.7002  21.9930  22.7543  23.3812  24.8656
    25.4407  26.1367

          k = 0.0000 0.2887 1.0216 (  3739 PWs)   bands (ev):

   -24.3233   5.9180   8.8500  10.5964  11.9881  13.9456  14.0966  15.9475
    16.8016  18.6595  19.7841  20.2576  20.5638  21.5690  23.7782  23.9118
    24.2510  25.3567

          k = 0.0000 0.2887 1.2770 (  3762 PWs)   bands (ev):

   -24.2319   8.6191  11.4886  12.2378  13.1880  14.5343  15.0713  16.4167
    16.4925  16.9995  17.4772  19.1358  19.9697  20.2801  22.6883  23.2534
    24.3034  25.7529

          k = 0.0000-0.5774 0.0000 (  3714 PWs)   bands (ev):

   -24.8042   1.4319   2.5683   5.2950   7.2053  10.7755  11.3149  12.2668
    13.7186  15.5784  17.4427  20.7396  21.0066  22.6512  25.5911  28.9667
    29.0446  29.3184

          k = 0.0000-0.5774 0.2554 (  3722 PWs)   bands (ev):

   -24.7591   1.7591   2.8894   5.6141   7.5062  11.0719  11.6073  12.5758
    14.0241  15.8846  17.7064  21.0045  21.2586  22.9254  25.5962  28.2760
    28.4407  29.1732

          k = 0.0000-0.5774 0.5108 (  3734 PWs)   bands (ev):

   -24.6372   2.7345   3.8469   6.5657   8.4029  11.9620  12.4837  13.4968
    14.9239  16.7932  18.4795  21.7422  21.9403  23.7141  24.7657  25.0557
    26.9354  27.8724

          k = 0.0000-0.5774 0.7662 (  3748 PWs)   bands (ev):

   -24.4749   4.3404   5.4242   8.1325   9.8775  13.4480  13.9420  15.0067
    16.3579  18.2441  19.6436  20.8816  21.2995  22.4615  22.7762  24.5993
    25.4643  26.0954

          k = 0.0000-0.5774 1.0216 (  3748 PWs)   bands (ev):

   -24.3233   6.5427   7.5905  10.2787  11.8987  15.5115  15.9674  16.5254
    17.1750  17.3966  18.1924  20.0325  20.0813  20.3626  22.4853  24.4096
    25.8288  26.0709

          k = 0.0000-0.5774 1.2770 (  3750 PWs)   bands (ev):

   -24.2319   9.2271  10.2509  12.8687  12.9376  13.7827  14.4310  16.4990
    17.2929  18.3203  18.5472  19.5372  19.9705  21.6027  22.1547  22.2945
    23.8611  24.0521

          k = 0.2500 0.4330 0.0000 (  3704 PWs)   bands (ev):

   -24.8042   1.4114   2.6528   4.9500   8.3241   9.2777  10.9997  12.8456
    14.9677  15.8560  16.8628  18.2723  22.0858  25.0114  25.4052  27.3804
    28.6246  29.4561

          k = 0.2500 0.4330 0.2554 (  3710 PWs)   bands (ev):

   -24.7591   1.7378   2.9762   5.2629   8.6368   9.5719  11.2935  13.1528
    15.2621  16.1505  17.1552  18.5645  22.2707  25.1694  25.5236  27.5268
    28.2718  28.7017

          k = 0.2500 0.4330 0.5108 (  3734 PWs)   bands (ev):

   -24.6372   2.7110   3.9405   6.1958   9.5697  10.4497  12.1758  14.0679
    16.1328  17.0255  18.0126  19.4220  22.6867  24.8604  25.0424  25.5017
    27.0814  28.3201

          k = 0.2500 0.4330 0.7662 (  3744 PWs)   bands (ev):

   -24.4749   4.3134   5.5290   7.7310  11.1067  11.8972  13.6478  15.5661
    17.5259  18.4326  19.3325  20.5731  20.7991  21.8733  22.5176  24.2544
    26.6362  27.1895

          k = 0.2500 0.4330 1.0216 (  3748 PWs)   bands (ev):

   -24.3233   6.5115   7.7089   9.8363  13.2115  13.8854  15.6798  16.5516
    17.5679  17.7228  18.7914  19.5842  20.4905  21.0560  22.2055  23.3871
    24.2199  25.5050

          k = 0.2500 0.4330 1.2770 (  3741 PWs)   bands (ev):

   -24.2319   9.1969  10.3677  12.4118  12.8847  14.0296  15.6528  15.7765
    16.4709  18.2060  19.0430  19.3789  20.1061  21.7188  21.8840  23.4272
    23.6689  24.3490

     the Fermi energy is    22.3582 ev

!    total energy              =     -62.25612968 Ry
     estimated scf accuracy    <          9.3E-10 Ry
     smearing contrib. (-TS)   =       0.00019679 Ry
     internal energy E=F+TS    =     -62.25632647 Ry

     The total energy is F=E-TS. E is the sum of the following terms:
     one-electron contribution =      45.82945923 Ry
     hartree contribution      =       2.81443197 Ry
     xc contribution           =     -26.48265895 Ry
     ewald contribution        =     -84.41755873 Ry

     convergence has been achieved in   8 iterations

     Forces acting on atoms (cartesian axes, Ry/au):

     atom    1 type  1   force =     0.00000000    0.00000000    0.00000000
     atom    2 type  2   force =    -0.17331495    0.15786741   -0.00000000
     atom    3 type  2   force =     0.17331495   -0.15786741    0.00000000
     atom    4 type  2   force =    -0.22337466   -0.07116145   -0.00000000
     atom    5 type  2   force =     0.22337466    0.07116145    0.00000000
     atom    6 type  2   force =    -0.05005971   -0.22902885   -0.00000000
     atom    7 type  2   force =     0.05005971    0.22902885   -0.00000000
     The non-local contrib.  to forces
     atom    1 type  1   force =     0.00000000    0.00000000    0.00000000
     atom    2 type  2   force =    -0.11331707    0.10455761    0.00000000
     atom    3 type  2   force =     0.11331707   -0.10455761    0.00000000
     atom    4 type  2   force =    -0.14720808   -0.04585666    0.00000000
     atom    5 type  2   force =     0.14720808    0.04585666    0.00000000
     atom    6 type  2   force =    -0.03389101   -0.15041427   -0.00000000
     atom    7 type  2   force =     0.03389101    0.15041427   -0.00000000
     The ionic contribution  to forces
     atom    1 type  1   force =     0.00000000   -0.00000000   -0.00000000
     atom    2 type  2   force =    -0.72755189    0.60192042   -0.00000000
     atom    3 type  2   force =     0.72755189   -0.60192042    0.00000000
     atom    4 type  2   force =    -0.88505433   -0.32911821    0.00000000
     atom    5 type  2   force =     0.88505433    0.32911821    0.00000000
     atom    6 type  2   force =    -0.15750243   -0.93103863    0.00000000
     atom    7 type  2   force =     0.15750243    0.93103863    0.00000000
     The local contribution  to forces
     atom    1 type  1   force =    -0.00000000    0.00000000    0.00000000
     atom    2 type  2   force =     0.65773762   -0.53965726   -0.00000000
     atom    3 type  2   force =    -0.65773762    0.53965726   -0.00000000
     atom    4 type  2   force =     0.79622571    0.29978886   -0.00000000
     atom    5 type  2   force =    -0.79622571   -0.29978886   -0.00000000
     atom    6 type  2   force =     0.13848809    0.83944612   -0.00000000
     atom    7 type  2   force =    -0.13848809   -0.83944612   -0.00000000
     The core correction contribution to forces
     atom    1 type  1   force =     0.00000000    0.00000000    0.00000000
     atom    2 type  2   force =     0.00979568   -0.00893826    0.00000000
     atom    3 type  2   force =    -0.00979568    0.00893826    0.00000000
     atom    4 type  2   force =     0.01263860    0.00401418    0.00000000
     atom    5 type  2   force =    -0.01263860   -0.00401418   -0.00000000
     atom    6 type  2   force =     0.00284292    0.01295244   -0.00000000
     atom    7 type  2   force =    -0.00284292   -0.01295244   -0.00000000
     The Hubbard contrib.    to forces
     atom    1 type  1   force =     0.00000000    0.00000000    0.00000000
     atom    2 type  2   force =     0.00000000    0.00000000    0.00000000
     atom    3 type  2   force =     0.00000000    0.00000000    0.00000000
     atom    4 type  2   force =     0.00000000    0.00000000    0.00000000
     atom    5 type  2   force =     0.00000000    0.00000000    0.00000000
     atom    6 type  2   force =     0.00000000    0.00000000    0.00000000
     atom    7 type  2   force =     0.00000000    0.00000000    0.00000000
     The SCF correction term to forces
     atom    1 type  1   force =     0.00000000    0.00000000    0.00000000
     atom    2 type  2   force =     0.00002071   -0.00001510   -0.00000000
     atom    3 type  2   force =    -0.00002071    0.00001510   -0.00000000
     atom    4 type  2   force =     0.00002343    0.00001039    0.00000000
     atom    5 type  2   force =    -0.00002343   -0.00001039   -0.00000000
     atom    6 type  2   force =     0.00000272    0.00002549   -0.00000000
     atom    7 type  2   force =    -0.00000272   -0.00002549   -0.00000000

     Total force =     0.574248     Total SCF correction =     0.000063


     Computing stress (Cartesian axis) and pressure

          total   stress  (Ry/bohr**3)                   (kbar)     P=     4156.18
   0.02559241   0.00000000   0.00000000         3764.77        0.00        0.00
   0.00000000   0.02559241   0.00000000            0.00     3764.77        0.00
   0.00000000   0.00000000   0.03357468            0.00        0.00     4939.01


     BFGS Geometry Optimization
     Energy error            =      0.0E+00 Ry
     Gradient error          =      2.3E-01 Ry/Bohr
     Cell gradient error     =      4.4E+03 kbar

     number of scf cycles    =   1
     number of bfgs steps    =   0

     enthalpy           new  =     -61.2050577689 Ry

     new trust radius        =       0.5000000000 bohr
ibrav =      4
 celldm(1) =     11.05715065
 celldm(3) =      0.36807551
Input lattice vectors:
     1.10455922     0.00000000     0.00000000
    -0.55227961     0.95657635     0.00000000
     0.00000000     0.00000000     0.40656120
New lattice vectors in INITIAL alat:
     1.10455922     0.00000000     0.00000000
    -0.55227961     0.95657635     0.00000000
     0.00000000     0.00000000     0.40656120
New lattice vectors in NEW alat (for information only):
     1.00000000     0.00000000     0.00000000
    -0.50000000     0.86602540     0.00000000
     0.00000000     0.00000000     0.36807551
Discrepancy in bohr =     0.000000    0.000000    0.000000
     new conv_thr            =       0.0000000100 Ry

     new unit-cell volume =    430.92058 a.u.^3 (    63.85584 Ang^3 )
     density =      4.56259 g/cm^3

CELL_PARAMETERS (alat= 10.01046431)
   1.104559221   0.000000000   0.000000000
  -0.552279610   0.956576345   0.000000000
   0.000000000   0.000000000   0.406561197

ATOMIC_POSITIONS (crystal)
Li            0.0000000000        0.0000000000        0.0000000000
Si            0.1408646191        0.7128726627        0.5000000000
Si            0.8591353809        0.2871273373        0.5000000000
Si            0.4279919564        0.1408646191        0.5000000000
Si            0.5720080436        0.8591353809        0.5000000000
Si            0.2871273373        0.4279919564        0.5000000000
Si            0.7128726627        0.5720080436        0.5000000000



     Writing config-only to output data dir ./output/LiSi.save/
     NEW-OLD atomic charge density approx. for the potential
     extrapolated charge   34.62201, renormalised to   27.00000

     total cpu time spent up to now is        8.3 secs

     Self-consistent Calculation

     iteration #  1     ecut=    80.00 Ry     beta= 0.70
     Davidson diagonalization with overlap
     c_bands:  1 eigenvalues not converged
     c_bands:  2 eigenvalues not converged
     c_bands:  1 eigenvalues not converged
     ethr =  1.00E-06,  avg # of iterations = 15.5

     total cpu time spent up to now is       10.0 secs

     total energy              =     -64.11968960 Ry
     estimated scf accuracy    <       0.21172657 Ry

     iteration #  2     ecut=    80.00 Ry     beta= 0.70
     Davidson diagonalization with overlap
     ethr =  7.84E-04,  avg # of iterations =  3.8

     total cpu time spent up to now is       10.5 secs

     total energy              =     -64.24779525 Ry
     estimated scf accuracy    <       0.80107498 Ry

     iteration #  3     ecut=    80.00 Ry     beta= 0.70
     Davidson diagonalization with overlap
     ethr =  7.84E-04,  avg # of iterations =  2.1

     total cpu time spent up to now is       11.0 secs

     total energy              =     -64.32484919 Ry
     estimated scf accuracy    <       0.04481090 Ry

     iteration #  4     ecut=    80.00 Ry     beta= 0.70
     Davidson diagonalization with overlap
     ethr =  1.66E-04,  avg # of iterations =  2.6

     total cpu time spent up to now is       11.4 secs

     total energy              =     -64.32936642 Ry
     estimated scf accuracy    <       0.00472916 Ry

     iteration #  5     ecut=    80.00 Ry     beta= 0.70
     Davidson diagonalization with overlap
     ethr =  1.75E-05,  avg # of iterations =  3.8

     total cpu time spent up to now is       12.0 secs

     total energy              =     -64.33060262 Ry
     estimated scf accuracy    <       0.00011468 Ry

     iteration #  6     ecut=    80.00 Ry     beta= 0.70
     Davidson diagonalization with overlap
     ethr =  4.25E-07,  avg # of iterations =  5.6

     total cpu time spent up to now is       12.6 secs

     total energy              =     -64.33068183 Ry
     estimated scf accuracy    <       0.00013930 Ry

     iteration #  7     ecut=    80.00 Ry     beta= 0.70
     Davidson diagonalization with overlap
     ethr =  4.25E-07,  avg # of iterations =  2.0

     total cpu time spent up to now is       13.1 secs

     total energy              =     -64.33071054 Ry
     estimated scf accuracy    <       0.00000069 Ry

     iteration #  8     ecut=    80.00 Ry     beta= 0.70
     Davidson diagonalization with overlap
     ethr =  2.55E-09,  avg # of iterations =  4.7

     total cpu time spent up to now is       13.7 secs

     total energy              =     -64.33071059 Ry
     estimated scf accuracy    <       0.00000110 Ry

     iteration #  9     ecut=    80.00 Ry     beta= 0.70
     Davidson diagonalization with overlap
     ethr =  2.55E-09,  avg # of iterations =  2.1

     total cpu time spent up to now is       14.2 secs

     End of self-consistent calculation

          k = 0.0000 0.0000 0.0000 (  3701 PWs)   bands (ev):

   -30.4895  -2.0974   2.6419   2.7288   2.7288   3.8700   3.8700   7.3673
    13.4693  14.0127  14.0127  14.3935  14.3935  15.2295  18.7218  19.2244
    19.2244  20.0755

          k = 0.0000 0.0000 0.2236 (  3712 PWs)   bands (ev):

   -30.4735  -1.8438   2.8884   2.9752   2.9752   4.1205   4.1205   7.5748
    13.6846  14.2139  14.2139  14.6137  14.6137  15.4354  18.8192  19.3646
    19.3646  20.1950

          k = 0.0000 0.0000 0.4472 (  3730 PWs)   bands (ev):

   -30.4305  -1.0857   3.6251   3.7117   3.7117   4.8685   4.8685   8.1917
    14.2984  14.7638  14.7638  15.2445  15.2445  16.0038  17.0353  18.8627
    19.5766  19.5766

          k = 0.0000 0.0000 0.6708 (  3742 PWs)   bands (ev):

   -30.3738   0.1683   4.8430   4.9292   4.9292   6.1037   6.1037   9.1947
    13.2632  15.0271  15.2419  15.2419  16.0389  16.0389  17.0373  17.8625
    18.7724  18.7724

          k = 0.0000 0.0000 0.8944 (  3778 PWs)   bands (ev):

   -30.3215   1.9032   6.5233   6.6099   6.6099   7.8061   7.8061   9.8461
    10.5070  13.8645  13.8740  13.8740  15.0995  15.0995  17.7578  18.0256
    18.7205  18.7205

          k = 0.0000 0.0000 1.1180 (  3772 PWs)   bands (ev):

   -30.2899   4.0832   6.8131   8.6051   8.7027   8.7027   9.9272   9.9272
    11.2689  11.2979  11.2979  11.7754  12.5172  12.5172  16.8507  19.3374
    19.5103  20.2832

          k = 0.0000 0.2613 0.0000 (  3717 PWs)   bands (ev):

   -30.4895  -1.8119   0.7906   2.1557   3.3746   5.0878   5.3095   8.0553
    10.4325  11.4271  13.9559  14.4833  15.5667  17.2195  18.0697  18.1527
    19.6421  22.3086

          k = 0.0000 0.2613 0.2236 (  3715 PWs)   bands (ev):

   -30.4735  -1.5582   1.0407   2.4051   3.6188   5.3334   5.5480   8.2793
    10.6649  11.6425  14.1845  14.6871  15.7400  17.4303  18.1689  18.3101
    19.5829  21.1512

          k = 0.0000 0.2613 0.4472 (  3734 PWs)   bands (ev):

   -30.4306  -0.8000   1.7881   3.1505   4.3477   6.0666   6.2600   8.9462
    11.3504  12.2739  14.8536  15.2412  16.1638  17.1803  17.8473  18.1507
    18.7111  19.8352

          k = 0.0000 0.2613 0.6708 (  3735 PWs)   bands (ev):

   -30.3737   0.4541   3.0244   4.3827   5.5502   7.2762   7.4331  10.0312
    12.4336  13.2131  13.5751  15.2540  15.7543  16.0988  16.5701  17.9842
    18.7572  19.3534

          k = 0.0000 0.2613 0.8944 (  3739 PWs)   bands (ev):

   -30.3211   2.1893   4.7336   6.0851   7.2034   8.9351   9.0366  10.1072
    11.4362  12.4878  13.3424  14.0276  14.1308  14.8280  17.1695  17.3189
    17.6645  18.7617

          k = 0.0000 0.2613 1.1180 (  3762 PWs)   bands (ev):

   -30.2899   4.3712   6.8753   7.0908   8.2224   9.2212   9.5635  10.5754
    10.9405  11.2659  11.6092  13.1893  13.3601  13.7362  16.9096  17.1152
    17.6583  18.8859

          k = 0.0000-0.5227 0.0000 (  3714 PWs)   bands (ev):

   -30.4895  -1.2499  -0.3496   1.8499   3.3048   6.8745   7.1796   7.7466
     8.5445  10.5579  12.1672  14.8042  14.8887  16.4657  18.6073  21.8291
    21.8894  22.6617

          k = 0.0000-0.5227 0.2236 (  3722 PWs)   bands (ev):

   -30.4736  -0.9957  -0.0989   2.1003   3.5444   7.1088   7.4147   7.9893
     8.7812  10.7945  12.3729  15.0019  15.0823  16.6835  18.5882  20.9189
    21.3052  22.2884

          k = 0.0000-0.5227 0.4472 (  3734 PWs)   bands (ev):

   -30.4306  -0.2360   0.6504   2.8486   4.2595   7.8096   8.1160   8.7120
     9.4833  11.4950  12.9709  15.5320  15.5954  17.3024  17.6460  17.7830
    19.9081  20.5560

          k = 0.0000-0.5227 0.6708 (  3748 PWs)   bands (ev):

   -30.3739   1.0210   1.8896   4.0857   5.4386   8.9653   9.2689   9.8932
    10.6207  12.5719  13.8363  14.2520  14.6013  15.7898  16.1430  17.7196
    18.7234  19.3161

          k = 0.0000-0.5227 0.8944 (  3748 PWs)   bands (ev):

   -30.3212   2.7605   3.6034   5.7955   7.0582  10.4346  10.7023  10.8274
    11.3841  11.5643  12.1074  13.5447  13.7844  14.2510  16.0281  17.6420
    18.7722  19.1760

          k = 0.0000-0.5227 1.1180 (  3750 PWs)   bands (ev):

   -30.2898   4.9521   5.7543   7.6432   7.9472   8.4357   9.0455  10.4636
    11.5534  12.4438  12.5561  13.5354  13.6202  15.2462  16.2810  16.8159
    16.9791  17.4176

          k = 0.2263 0.3920 0.0000 (  3704 PWs)   bands (ev):

   -30.4894  -1.2829  -0.2199   1.4336   4.4400   5.1766   7.0185   8.2137
     9.8709  11.0915  11.3410  12.7014  15.6555  18.5361  18.6855  20.7309
    21.4294  22.3784

          k = 0.2263 0.3920 0.2236 (  3710 PWs)   bands (ev):

   -30.4735  -1.0292   0.0325   1.6798   4.6867   5.4123   7.2514   8.4547
    10.1010  11.3187  11.5691  12.9280  15.8011  18.6195  18.7451  20.7143
    20.9224  21.7315

          k = 0.2263 0.3920 0.4472 (  3734 PWs)   bands (ev):

   -30.4306  -0.2710   0.7868   2.4155   5.4237   6.1157   7.9475   9.1714
    10.7831  11.9896  12.2386  13.5898  16.1024  17.7289  17.9541  18.5699
    20.0793  21.3176

          k = 0.2263 0.3920 0.6708 (  3744 PWs)   bands (ev):

   -30.3738   0.9834   2.0346   3.6310   6.6401   7.2732   9.0943  10.3400
    11.8710  13.0296  13.2563  14.0635  14.4008  15.2519  15.7134  17.5310
    19.3848  19.9197

          k = 0.2263 0.3920 0.8944 (  3748 PWs)   bands (ev):

   -30.3212   2.7190   3.7609   5.3088   8.3112   8.8504  10.4769  10.7830
    11.5776  11.9421  12.6439  13.4590  14.3152  14.5132  15.7329  17.1141
    17.6057  18.2466

          k = 0.2263 0.3920 1.1180 (  3741 PWs)   bands (ev):

   -30.2897   4.9039   5.9328   7.3999   7.6097   8.5913   9.9722  10.4344
    10.7213  12.3291  12.7770  13.2035  13.9738  15.1334  16.3982  16.8097
    17.0512  17.5566

     the Fermi energy is    15.9607 ev

!    total energy              =     -64.33071082 Ry
     estimated scf accuracy    <          5.3E-09 Ry
     smearing contrib. (-TS)   =       0.00015306 Ry
     internal energy E=F+TS    =     -64.33086388 Ry

     The total energy is F=E-TS. E is the sum of the following terms:
     one-electron contribution =      32.90422961 Ry
     hartree contribution      =       2.98453711 Ry
     xc contribution           =     -24.45368876 Ry
     ewald contribution        =     -75.76594183 Ry

     convergence has been achieved in   9 iterations

     Forces acting on atoms (cartesian axes, Ry/au):

     atom    1 type  1   force =     0.00000000   -0.00000000   -0.00000000
     atom    2 type  2   force =    -0.04677595    0.04636345    0.00000000
     atom    3 type  2   force =     0.04677595   -0.04636345    0.00000000
     atom    4 type  2   force =    -0.06353990   -0.01732744    0.00000000
     atom    5 type  2   force =     0.06353990    0.01732744    0.00000000
     atom    6 type  2   force =    -0.01676395   -0.06369089    0.00000000
     atom    7 type  2   force =     0.01676395    0.06369089    0.00000000
     The non-local contrib.  to forces
     atom    1 type  1   force =     0.00000000    0.00000000   -0.00000000
     atom    2 type  2   force =    -0.02268362    0.02386918    0.00000000
     atom    3 type  2   force =     0.02268362   -0.02386918    0.00000000
     atom    4 type  2   force =    -0.03201313   -0.00771000    0.00000000
     atom    5 type  2   force =     0.03201313    0.00771000    0.00000000
     atom    6 type  2   force =    -0.00932951   -0.03157918   -0.00000000
     atom    7 type  2   force =     0.00932951    0.03157918   -0.00000000
     The ionic contribution  to forces
     atom    1 type  1   force =    -0.00000000   -0.00000000   -0.00000000
     atom    2 type  2   force =    -0.37632108    0.34093475    0.00000000
     atom    3 type  2   force =     0.37632108   -0.34093475    0.00000000
     atom    4 type  2   force =    -0.48341869   -0.15543624    0.00000000
     atom    5 type  2   force =     0.48341869    0.15543624    0.00000000
     atom    6 type  2   force =    -0.10709761   -0.49637099    0.00000000
     atom    7 type  2   force =     0.10709761    0.49637099    0.00000000
     The local contribution  to forces
     atom    1 type  1   force =     0.00000000   -0.00000000   -0.00000000
     atom    2 type  2   force =     0.34928204   -0.31533734   -0.00000000
     atom    3 type  2   force =    -0.34928204    0.31533734    0.00000000
     atom    4 type  2   force =     0.44773117    0.14481845    0.00000000
     atom    5 type  2   force =    -0.44773117   -0.14481845   -0.00000000
     atom    6 type  2   force =     0.09844913    0.46015579    0.00000000
     atom    7 type  2   force =    -0.09844913   -0.46015579    0.00000000
     The core correction contribution to forces
     atom    1 type  1   force =     0.00000000    0.00000000    0.00000000
     atom    2 type  2   force =     0.00290043   -0.00306968   -0.00000000
     atom    3 type  2   force =    -0.00290043    0.00306968   -0.00000000
     atom    4 type  2   force =     0.00410863    0.00097701   -0.00000000
     atom    5 type  2   force =    -0.00410863   -0.00097701   -0.00000000
     atom    6 type  2   force =     0.00120820    0.00404669   -0.00000000
     atom    7 type  2   force =    -0.00120820   -0.00404669   -0.00000000
     The Hubbard contrib.    to forces
     atom    1 type  1   force =     0.00000000    0.00000000    0.00000000
     atom    2 type  2   force =     0.00000000    0.00000000    0.00000000
     atom    3 type  2   force =     0.00000000    0.00000000    0.00000000
     atom    4 type  2   force =     0.00000000    0.00000000    0.00000000
     atom    5 type  2   force =     0.00000000    0.00000000    0.00000000
     atom    6 type  2   force =     0.00000000    0.00000000    0.00000000
     atom    7 type  2   force =     0.00000000    0.00000000    0.00000000
     The SCF correction term to forces
     atom    1 type  1   force =     0.00000000   -0.00000000    0.00000000
     atom    2 type  2   force =     0.00004627   -0.00003347   -0.00000000
     atom    3 type  2   force =    -0.00004627    0.00003347   -0.00000000
     atom    4 type  2   force =     0.00005211    0.00002333    0.00000000
     atom    5 type  2   force =    -0.00005211   -0.00002333   -0.00000000
     atom    6 type  2   force =     0.00000585    0.00005680   -0.00000000
     atom    7 type  2   force =    -0.00000585   -0.00005680   -0.00000000

     Total force =     0.161324     Total SCF correction =     0.000140


     Computing stress (Cartesian axis) and pressure

          total   stress  (Ry/bohr**3)                   (kbar)     P=     1284.95
   0.00869136  -0.00000000   0.00000000         1278.54       -0.00        0.00
  -0.00000000   0.00869136   0.00000000           -0.00     1278.54        0.00
   0.00000000   0.00000000   0.00882204            0.00        0.00     1297.77

     Energy error            =      1.7E+00 Ry
     Gradient error          =      6.4E-02 Ry/Bohr
     Cell gradient error     =      8.0E+02 kbar

     number of scf cycles    =   2
     number of bfgs steps    =   1

     enthalpy           old  =     -61.2050577689 Ry
     enthalpy           new  =     -62.8660415388 Ry

     CASE: enthalpy          _new < enthalpy          _old

     new trust radius        =       0.2543268006 bohr
ibrav =      4
 celldm(1) =     11.73449068
 celldm(3) =      0.34941691
Input lattice vectors:
     1.17222242    -0.00000000     0.00000000
    -0.58611121     1.01517439    -0.00000000
     0.00000000     0.00000000     0.40959433
New lattice vectors in INITIAL alat:
     1.17222242     0.00000000     0.00000000
    -0.58611121     1.01517439     0.00000000
     0.00000000     0.00000000     0.40959433
New lattice vectors in NEW alat (for information only):
     1.00000000     0.00000000     0.00000000
    -0.50000000     0.86602540     0.00000000
     0.00000000     0.00000000     0.34941691
Discrepancy in bohr =     0.000000    0.000000    0.000000
     new conv_thr            =       0.0000000064 Ry

     new unit-cell volume =    488.95318 a.u.^3 (    72.45539 Ang^3 )
     density =      4.02107 g/cm^3

CELL_PARAMETERS (alat= 10.01046431)
   1.172222419   0.000000000   0.000000000
  -0.586111209   1.015174394   0.000000000
   0.000000000   0.000000000   0.409594331

ATOMIC_POSITIONS (crystal)
Li           -0.0000000000       -0.0000000000       -0.0000000000
Si            0.1402186830        0.7156749208        0.5000000000
Si            0.8597813170        0.2843250792        0.5000000000
Si            0.4245437622        0.1402186830        0.5000000000
Si            0.5754562378        0.8597813170        0.5000000000
Si            0.2843250792        0.4245437622        0.5000000000
Si            0.7156749208        0.5754562378        0.5000000000



     Writing config-only to output data dir ./output/LiSi.save/
     NEW-OLD atomic charge density approx. for the potential
     extrapolated charge   30.20358, renormalised to   27.00000

     total cpu time spent up to now is       15.9 secs

     Self-consistent Calculation

     iteration #  1     ecut=    80.00 Ry     beta= 0.70
     Davidson diagonalization with overlap
     c_bands:  1 eigenvalues not converged
     c_bands:  1 eigenvalues not converged
     c_bands:  1 eigenvalues not converged
     ethr =  1.00E-06,  avg # of iterations = 14.9

     total cpu time spent up to now is       17.3 secs

     total energy              =     -64.67094615 Ry
     estimated scf accuracy    <       0.03977173 Ry

     iteration #  2     ecut=    80.00 Ry     beta= 0.70
     Davidson diagonalization with overlap
     ethr =  1.47E-04,  avg # of iterations =  3.2

     total cpu time spent up to now is       17.8 secs

     total energy              =     -64.68664565 Ry
     estimated scf accuracy    <       0.12411243 Ry

     iteration #  3     ecut=    80.00 Ry     beta= 0.70
     Davidson diagonalization with overlap
     ethr =  1.47E-04,  avg # of iterations =  2.2

     total cpu time spent up to now is       18.3 secs

     total energy              =     -64.70262423 Ry
     estimated scf accuracy    <       0.00294803 Ry

     iteration #  4     ecut=    80.00 Ry     beta= 0.70
     Davidson diagonalization with overlap
     ethr =  1.09E-05,  avg # of iterations =  3.5

     total cpu time spent up to now is       18.7 secs

     total energy              =     -64.70335965 Ry
     estimated scf accuracy    <       0.00011422 Ry

     iteration #  5     ecut=    80.00 Ry     beta= 0.70
     Davidson diagonalization with overlap
     ethr =  4.23E-07,  avg # of iterations =  3.8

     total cpu time spent up to now is       19.2 secs

     total energy              =     -64.70340723 Ry
     estimated scf accuracy    <       0.00000940 Ry

     iteration #  6     ecut=    80.00 Ry     beta= 0.70
     Davidson diagonalization with overlap
     ethr =  3.48E-08,  avg # of iterations =  3.2

     total cpu time spent up to now is       19.7 secs

     total energy              =     -64.70341035 Ry
     estimated scf accuracy    <       0.00000032 Ry

     iteration #  7     ecut=    80.00 Ry     beta= 0.70
     Davidson diagonalization with overlap
     ethr =  1.18E-09,  avg # of iterations =  3.7

     total cpu time spent up to now is       20.2 secs

     total energy              =     -64.70341040 Ry
     estimated scf accuracy    <       0.00000008 Ry

     iteration #  8     ecut=    80.00 Ry     beta= 0.70
     Davidson diagonalization with overlap
     ethr =  2.90E-10,  avg # of iterations =  2.5

     total cpu time spent up to now is       20.6 secs

     total energy              =     -64.70341042 Ry
     estimated scf accuracy    <       0.00000002 Ry

     iteration #  9     ecut=    80.00 Ry     beta= 0.70
     Davidson diagonalization with overlap
     ethr =  7.83E-11,  avg # of iterations =  2.1

     total cpu time spent up to now is       21.0 secs

     End of self-consistent calculation

          k = 0.0000 0.0000 0.0000 (  3701 PWs)   bands (ev):

   -32.5162  -2.8084   1.5150   1.5150   1.6090   2.2688   2.2688   5.8686
    10.9522  11.3986  11.3986  12.0639  12.0639  13.3230  15.8030  16.1589
    16.1589  17.1822

          k = 0.0000 0.0000 0.2219 (  3712 PWs)   bands (ev):

   -32.5020  -2.5573   1.7602   1.7602   1.8544   2.5168   2.5168   6.0821
    11.1697  11.6076  11.6076  12.2844  12.2844  13.5355  15.9615  16.3418
    16.3418  17.3554

          k = 0.0000 0.0000 0.4439 (  3730 PWs)   bands (ev):

   -32.4633  -1.8065   2.4930   2.4930   2.5875   3.2574   3.2574   6.7178
    11.7990  12.1994  12.1994  12.9215  12.9215  14.1497  15.9565  16.3185
    16.8020  16.8020

          k = 0.0000 0.0000 0.6658 (  3742 PWs)   bands (ev):

   -32.4120  -0.5644   3.7041   3.7041   3.7993   4.4797   4.4797   7.7552
    12.3440  12.6772  12.9283  12.9283  13.7898  13.7898  15.1990  16.1015
    16.7530  16.7530

          k = 0.0000 0.0000 0.8878 (  3778 PWs)   bands (ev):

   -32.3651   1.1554   5.3755   5.3755   5.4715   6.1620   6.1620   8.9879
     9.1299  12.3134  12.3134  12.4019  13.2803  13.2803  15.5344  16.2966
    16.2966  16.3189

          k = 0.0000 0.0000 1.1097 (  3772 PWs)   bands (ev):

   -32.3364   3.3250   5.9874   7.4666   7.4666   7.5590   8.2435   8.2435
     9.9390   9.9390  10.0577  10.4919  10.8414  10.8414  15.2414  16.9630
    17.7177  17.7914

          k = 0.0000 0.2463 0.0000 (  3717 PWs)   bands (ev):

   -32.5168  -2.5481  -0.1984   0.9154   1.9759   3.4614   3.8806   6.4860
     8.1741   9.3150  11.8237  11.9993  12.7681  14.6066  15.1104  15.4443
    16.8817  19.2134

          k = 0.0000 0.2463 0.2219 (  3715 PWs)   bands (ev):

   -32.5022  -2.2970   0.0499   1.1632   2.2195   3.7055   4.1201   6.7115
     8.4053   9.5341  12.0509  12.2106  12.9609  14.8204  15.2609  15.6326
    16.9780  19.2532

          k = 0.0000 0.2463 0.4439 (  3734 PWs)   bands (ev):

   -32.4634  -1.5463   0.7919   1.9035   2.9468   4.4342   4.8349   7.3835
     9.0891  10.1781  12.7145  12.8096  13.4924  15.3768  15.5224  15.8369
    16.3886  17.5356

          k = 0.0000 0.2463 0.6658 (  3735 PWs)   bands (ev):

   -32.4117  -0.3041   2.0191   3.1272   4.1468   5.6353   6.0127   8.4804
    10.1812  11.1800  12.5744  13.4122  13.6044  14.1759  14.4108  15.9550
    16.5695  17.1999

          k = 0.0000 0.2463 0.8878 (  3739 PWs)   bands (ev):

   -32.3641   1.4156   3.7161   4.8172   5.7977   7.2811   7.6244   9.2183
     9.9248  11.2958  11.4044  12.1585  12.3922  13.0457  15.2962  15.5140
    15.6731  16.4979

          k = 0.0000 0.2463 1.1097 (  3762 PWs)   bands (ev):

   -32.3361   3.5860   5.8520   6.2389   6.9408   7.8406   8.4381   9.1191
     9.5740   9.6782  10.1392  11.4793  11.6290  12.0749  14.9574  15.2991
    15.8798  16.7450

          k = 0.0000-0.4925 0.0000 (  3714 PWs)   bands (ev):

   -32.5168  -2.0270  -1.2502   0.6275   1.9030   5.4211   5.4973   5.8724
     6.6213   8.4973  10.0453  12.2922  12.3209  13.7890  15.7713  18.7985
    18.9186  19.8988

          k = 0.0000-0.4925 0.2219 (  3722 PWs)   bands (ev):

   -32.5025  -1.7754  -1.0016   0.8760   2.1434   5.6606   5.7319   6.1134
     6.8534   8.7325  10.2551  12.4984  12.5279  14.0116  15.8474  18.5893
    18.7933  19.8365

          k = 0.0000-0.4925 0.4439 (  3734 PWs)   bands (ev):

   -32.4636  -1.0233  -0.2583   1.6185   2.8612   6.3737   6.4334   6.8308
     7.5439   9.4306  10.8677  13.0806  13.1075  14.6557  15.6600  16.5269
    17.8188  18.7337

          k = 0.0000-0.4925 0.6658 (  3748 PWs)   bands (ev):

   -32.4121   0.2212   0.9712   2.8459   4.0453   7.5424   7.5908   8.0034
     8.6689  10.5454  11.7809  13.1497  13.3527  13.7500  13.9285  15.4504
    16.6354  17.2431

          k = 0.0000-0.4925 0.8878 (  3748 PWs)   bands (ev):

   -32.3643   1.9442   2.6721   4.5418   5.6738   9.1200   9.1385   9.4673
     9.8680  10.1378  10.3426  12.0495  12.0780  12.2188  14.1421  15.5778
    16.4722  17.1130

          k = 0.0000-0.4925 1.1097 (  3750 PWs)   bands (ev):

   -32.3358   4.1212   4.8155   6.6759   6.7533   7.4201   7.6972   9.1522
    10.0546  10.9159  11.0770  11.4433  11.6070  13.2971  14.7571  14.8657
    15.1498  15.4872

          k = 0.2133 0.3694 0.0000 (  3704 PWs)   bands (ev):

   -32.5165  -2.0641  -1.1015   0.2072   2.9455   3.6471   5.5775   6.2549
     7.9071   9.0007   9.2195  10.3804  13.0419  15.7186  15.8187  17.7534
    18.3888  19.4954

          k = 0.2133 0.3694 0.2219 (  3710 PWs)   bands (ev):

   -32.5022  -1.8129  -0.8514   0.4525   3.1909   3.8849   5.8114   6.4936
     8.1379   9.2289   9.4462  10.6093  13.2107  15.8693  15.9502  17.8589
    18.4242  19.2124

          k = 0.2133 0.3694 0.4439 (  3734 PWs)   bands (ev):

   -32.4635  -1.0621  -0.1037   1.1853   3.9235   4.5945   6.5100   7.2034
     8.8238   9.9007  10.1166  11.2843  13.6425  15.9412  16.0520  16.6070
    17.6917  18.9984

          k = 0.2133 0.3694 0.6658 (  3744 PWs)   bands (ev):

   -32.4120   0.1801   1.1332   2.3961   5.1321   5.7627   7.6602   8.3608
     9.9326  10.9539  11.1731  12.3074  12.9640  13.8415  13.9014  15.5603
    17.3047  17.8505

          k = 0.2133 0.3694 0.8878 (  3748 PWs)   bands (ev):

   -32.3643   1.8998   2.8451   4.0681   6.7916   7.3588   9.1824   9.6993
     9.9156  10.5439  11.1342  11.6583  12.1748  12.5666  13.7442  15.3378
    15.6875  16.1433

          k = 0.2133 0.3694 1.1097 (  3741 PWs)   bands (ev):

   -32.3356   4.0715   5.0053   6.1678   6.7078   7.5948   8.6642   8.8845
     9.2931  10.8401  11.1211  11.5154  11.8154  13.3104  14.8176  14.8607
    15.1855  15.6150

     the Fermi energy is    13.8119 ev

!    total energy              =     -64.70341043 Ry
     estimated scf accuracy    <          1.5E-10 Ry
     smearing contrib. (-TS)   =      -0.00001026 Ry
     internal energy E=F+TS    =     -64.70340017 Ry

     The total energy is F=E-TS. E is the sum of the following terms:
     one-electron contribution =      28.69362733 Ry
     hartree contribution      =       3.07672165 Ry
     xc contribution           =     -23.77199510 Ry
     ewald contribution        =     -72.70175405 Ry

     convergence has been achieved in   9 iterations

     Forces acting on atoms (cartesian axes, Ry/au):

     atom    1 type  1   force =     0.00000000    0.00000000   -0.00000000
     atom    2 type  2   force =    -0.00933512    0.01353666    0.00000000
     atom    3 type  2   force =     0.00933512   -0.01353666   -0.00000000
     atom    4 type  2   force =    -0.01639065   -0.00131612    0.00000000
     atom    5 type  2   force =     0.01639065    0.00131612    0.00000000
     atom    6 type  2   force =    -0.00705553   -0.01485278   -0.00000000
     atom    7 type  2   force =     0.00705553    0.01485278   -0.00000000
     The non-local contrib.  to forces
     atom    1 type  1   force =     0.00000000    0.00000000    0.00000000
     atom    2 type  2   force =     0.00621542   -0.00201736    0.00000000
     atom    3 type  2   force =    -0.00621542    0.00201736    0.00000000
     atom    4 type  2   force =     0.00485479    0.00437403   -0.00000000
     atom    5 type  2   force =    -0.00485479   -0.00437403    0.00000000
     atom    6 type  2   force =    -0.00136063    0.00639139   -0.00000000
     atom    7 type  2   force =     0.00136063   -0.00639139    0.00000000
     The ionic contribution  to forces
     atom    1 type  1   force =    -0.00000000   -0.00000000   -0.00000000
     atom    2 type  2   force =    -0.20351937    0.20403070   -0.00000000
     atom    3 type  2   force =     0.20351937   -0.20403070   -0.00000000
     atom    4 type  2   force =    -0.27845546   -0.07423759   -0.00000000
     atom    5 type  2   force =     0.27845546    0.07423759   -0.00000000
     atom    6 type  2   force =    -0.07493609   -0.27826830   -0.00000000
     atom    7 type  2   force =     0.07493609    0.27826830   -0.00000000
     The local contribution  to forces
     atom    1 type  1   force =    -0.00000000    0.00000000   -0.00000000
     atom    2 type  2   force =     0.18770607   -0.18780694   -0.00000000
     atom    3 type  2   force =    -0.18770607    0.18780694   -0.00000000
     atom    4 type  2   force =     0.25649862    0.06865475   -0.00000000
     atom    5 type  2   force =    -0.25649862   -0.06865475   -0.00000000
     atom    6 type  2   force =     0.06879255    0.25646169   -0.00000000
     atom    7 type  2   force =    -0.06879255   -0.25646169   -0.00000000
     The core correction contribution to forces
     atom    1 type  1   force =     0.00000000    0.00000000    0.00000000
     atom    2 type  2   force =     0.00027101   -0.00067554    0.00000000
     atom    3 type  2   force =    -0.00027101    0.00067554   -0.00000000
     atom    4 type  2   force =     0.00072054   -0.00010307   -0.00000000
     atom    5 type  2   force =    -0.00072054    0.00010307   -0.00000000
     atom    6 type  2   force =     0.00044953    0.00057247   -0.00000000
     atom    7 type  2   force =    -0.00044953   -0.00057247   -0.00000000
     The Hubbard contrib.    to forces
     atom    1 type  1   force =     0.00000000    0.00000000    0.00000000
     atom    2 type  2   force =     0.00000000    0.00000000    0.00000000
     atom    3 type  2   force =     0.00000000    0.00000000    0.00000000
     atom    4 type  2   force =     0.00000000    0.00000000    0.00000000
     atom    5 type  2   force =     0.00000000    0.00000000    0.00000000
     atom    6 type  2   force =     0.00000000    0.00000000    0.00000000
     atom    7 type  2   force =     0.00000000    0.00000000    0.00000000
     The SCF correction term to forces
     atom    1 type  1   force =    -0.00000000   -0.00000000    0.00000000
     atom    2 type  2   force =    -0.00000825    0.00000579   -0.00000000
     atom    3 type  2   force =     0.00000825   -0.00000579   -0.00000000
     atom    4 type  2   force =    -0.00000914   -0.00000425    0.00000000
     atom    5 type  2   force =     0.00000914    0.00000425   -0.00000000
     atom    6 type  2   force =    -0.00000089   -0.00001004    0.00000000
     atom    7 type  2   force =     0.00000089    0.00001004    0.00000000

     Total force =     0.040278     Total SCF correction =     0.000025


     Computing stress (Cartesian axis) and pressure

          total   stress  (Ry/bohr**3)                   (kbar)     P=      746.81
   0.00417226   0.00000000   0.00000000          613.76        0.00        0.00
   0.00000000   0.00417226   0.00000000            0.00      613.76        0.00
   0.00000000   0.00000000   0.00688566            0.00        0.00     1012.92

     Energy error            =      1.8E-01 Ry
     Gradient error          =      1.6E-02 Ry/Bohr
     Cell gradient error     =      5.1E+02 kbar

     number of scf cycles    =   3
     number of bfgs steps    =   2

     enthalpy           old  =     -62.8660415388 Ry
     enthalpy           new  =     -63.0414923284 Ry

     CASE: enthalpy          _new < enthalpy          _old

     new trust radius        =       0.2816851357 bohr
ibrav =      4
 celldm(1) =     11.77622303
 celldm(3) =      0.37035563
Input lattice vectors:
     1.17639129     0.00000000     0.00000000
    -0.58819565     1.01878474     0.00000000
    -0.00000000    -0.00000000     0.43568314
New lattice vectors in INITIAL alat:
     1.17639129     0.00000000     0.00000000
    -0.58819565     1.01878474     0.00000000
     0.00000000     0.00000000     0.43568314
New lattice vectors in NEW alat (for information only):
     1.00000000     0.00000000     0.00000000
    -0.50000000     0.86602540     0.00000000
     0.00000000     0.00000000     0.37035563
Discrepancy in bohr =     0.000000    0.000000    0.000000
     new conv_thr            =       0.0000000016 Ry

     new unit-cell volume =    523.80260 a.u.^3 (    77.61954 Ang^3 )
     density =      3.75354 g/cm^3

CELL_PARAMETERS (alat= 10.01046431)
   1.176391291   0.000000000   0.000000000
  -0.588195646   1.018784743   0.000000000
   0.000000000   0.000000000   0.435683139

ATOMIC_POSITIONS (crystal)
Li           -0.0000000000       -0.0000000000       -0.0000000000
Si            0.1405712987        0.7172759017        0.5000000000
Si            0.8594287013        0.2827240983        0.5000000000
Si            0.4232953970        0.1405712987        0.5000000000
Si            0.5767046030        0.8594287013        0.5000000000
Si            0.2827240983        0.4232953970        0.5000000000
Si            0.7172759017        0.5767046030        0.5000000000



     Writing config-only to output data dir ./output/LiSi.save/
     NEW-OLD atomic charge density approx. for the potential
     extrapolated charge   28.79580, renormalised to   27.00000

     total cpu time spent up to now is       22.7 secs

     Self-consistent Calculation

     iteration #  1     ecut=    80.00 Ry     beta= 0.70
     Davidson diagonalization with overlap
     c_bands:  1 eigenvalues not converged
     c_bands:  1 eigenvalues not converged
     ethr =  1.00E-06,  avg # of iterations = 13.0

     total cpu time spent up to now is       24.0 secs

     total energy              =     -64.86216488 Ry
     estimated scf accuracy    <       0.00866054 Ry

     iteration #  2     ecut=    80.00 Ry     beta= 0.70
     Davidson diagonalization with overlap
     ethr =  3.21E-05,  avg # of iterations =  2.8

     total cpu time spent up to now is       24.5 secs

     total energy              =     -64.86564323 Ry
     estimated scf accuracy    <       0.01482981 Ry

     iteration #  3     ecut=    80.00 Ry     beta= 0.70
     Davidson diagonalization with overlap
     ethr =  3.21E-05,  avg # of iterations =  2.1

     total cpu time spent up to now is       24.9 secs

     total energy              =     -64.86828502 Ry
     estimated scf accuracy    <       0.00021625 Ry

     iteration #  4     ecut=    80.00 Ry     beta= 0.70
     Davidson diagonalization with overlap
     ethr =  8.01E-07,  avg # of iterations =  3.7

     total cpu time spent up to now is       25.4 secs

     total energy              =     -64.86832978 Ry
     estimated scf accuracy    <       0.00001895 Ry

     iteration #  5     ecut=    80.00 Ry     beta= 0.70
     Davidson diagonalization with overlap
     ethr =  7.02E-08,  avg # of iterations =  2.7

     total cpu time spent up to now is       25.8 secs

     total energy              =     -64.86833334 Ry
     estimated scf accuracy    <       0.00000295 Ry

     iteration #  6     ecut=    80.00 Ry     beta= 0.70
     Davidson diagonalization with overlap
     ethr =  1.09E-08,  avg # of iterations =  3.4

     total cpu time spent up to now is       26.3 secs

     total energy              =     -64.86833403 Ry
     estimated scf accuracy    <       0.00000002 Ry

     iteration #  7     ecut=    80.00 Ry     beta= 0.70
     Davidson diagonalization with overlap
     ethr =  6.14E-11,  avg # of iterations =  5.7

     total cpu time spent up to now is       26.9 secs

     total energy              =     -64.86833406 Ry
     estimated scf accuracy    <       0.00000004 Ry

     iteration #  8     ecut=    80.00 Ry     beta= 0.70
     Davidson diagonalization with overlap
     ethr =  6.14E-11,  avg # of iterations =  2.4

     total cpu time spent up to now is       27.3 secs

     total energy              =     -64.86833407 Ry
     estimated scf accuracy    <          2.1E-09 Ry

     iteration #  9     ecut=    80.00 Ry     beta= 0.70
     Davidson diagonalization with overlap
     ethr =  7.82E-12,  avg # of iterations =  2.0

     total cpu time spent up to now is       27.7 secs

     End of self-consistent calculation

          k = 0.0000 0.0000 0.0000 (  3701 PWs)   bands (ev):

   -33.4904  -3.1620   1.1540   1.1540   1.2600   1.8312   1.8312   5.2757
    10.4530  10.9604  10.9604  11.6046  11.6046  12.8476  15.3008  15.6099
    15.6099  16.6432

          k = 0.0000 0.0000 0.2087 (  3712 PWs)   bands (ev):

   -33.4820  -2.9414   1.3696   1.3696   1.4757   2.0508   2.0508   5.4597
    10.6411  11.1393  11.1393  11.7952  11.7952  13.0265  15.4089  15.7501
    15.7501  16.7671

          k = 0.0000 0.0000 0.4173 (  3730 PWs)   bands (ev):

   -33.4593  -2.2818   2.0138   2.0138   2.1198   2.7073   2.7073   6.0054
    11.1789  11.6321  11.6321  12.3367  12.3367  13.4633  13.9115  15.5366
    16.0108  16.0108

          k = 0.0000 0.0000 0.6260 (  3742 PWs)   bands (ev):

   -33.4295  -1.1919   3.0767   3.0767   3.1823   3.7931   3.7931   6.8866
    10.4786  11.8607  12.1026  12.1026  12.9560  12.9560  14.4085  14.7256
    15.3516  15.3516

          k = 0.0000 0.0000 0.8346 (  3778 PWs)   bands (ev):

   -33.4027   0.3087   4.5343   4.5343   4.6379   5.2941   5.2941   7.4509
     8.0230  11.0281  11.0281  11.1462  11.8088  11.8088  14.3205  15.1885
    15.1885  15.2753

          k = 0.0000 0.0000 1.0433 (  3772 PWs)   bands (ev):

   -33.3853   2.1215   4.8705   6.2761   6.2761   6.3656   7.1845   7.1845
     8.8815   8.8815   9.0323   9.0667   9.4283   9.4283  14.2282  15.5199
    16.3992  16.5572

          k = 0.0000 0.2454 0.0000 (  3717 PWs)   bands (ev):

   -33.4906  -2.9004  -0.5571   0.5331   1.5496   3.0412   3.4858   5.9410
     7.7354   8.8639  11.3262  11.5466  12.2933  14.0755  14.6167  14.9370
    16.2707  18.6137

          k = 0.0000 0.2454 0.2087 (  3715 PWs)   bands (ev):

   -33.4820  -2.6796  -0.3386   0.7516   1.7642   3.2567   3.6960   6.1367
     7.9389   9.0546  11.5227  11.7266  12.4533  14.2567  14.7136  15.0716
    16.2660  17.6542

          k = 0.0000 0.2454 0.4173 (  3734 PWs)   bands (ev):

   -33.4599  -2.0199   0.3141   1.4044   2.4050   3.9001   4.3228   6.7177
     8.5402   9.6133  12.0925  12.2163  12.8634  13.9865  14.5249  14.8102
    15.5153  16.5763

          k = 0.0000 0.2454 0.6260 (  3735 PWs)   bands (ev):

   -33.4292  -0.9296   1.3924   2.4832   3.4619   4.9613   5.3526   7.6565
     9.4950  10.4471  10.7484  12.2823  12.7005  12.9682  13.3873  14.7019
    15.3412  15.9490

          k = 0.0000 0.2454 0.8346 (  3739 PWs)   bands (ev):

   -33.4010   0.5718   2.8760   3.9693   4.9115   6.4148   6.7479   7.6884
     8.8531   9.8430  10.4007  10.9987  11.1970  11.7228  13.8940  14.0725
    14.5391  15.3897

          k = 0.0000 0.2454 1.0433 (  3762 PWs)   bands (ev):

   -33.3851   2.3886   4.6704   5.1176   5.7895   6.6544   7.3191   7.9786
     8.3361   8.5276   9.0008  10.3140  10.4578  10.7826  13.6480  13.9274
    14.7119  15.5663

          k = 0.0000-0.4908 0.0000 (  3714 PWs)   bands (ev):

   -33.4904  -2.3718  -1.6162   0.2438   1.4611   4.9913   5.0424   5.4692
     6.2124   8.0330   9.4702  11.8360  11.8998  13.2652  15.0881  18.1527
    18.2739  19.3187

          k = 0.0000-0.4908 0.2087 (  3722 PWs)   bands (ev):

   -33.4823  -2.1505  -1.3975   0.4629   1.6726   5.2024   5.2465   5.6825
     6.4160   8.2397   9.6503  12.0104  12.0741  13.4589  15.0937  17.4035
    17.8165  18.8442

          k = 0.0000-0.4908 0.4173 (  3734 PWs)   bands (ev):

   -33.4599  -1.4890  -0.7443   1.1179   2.3039   5.8311   5.8548   6.3181
     7.0214   8.8512  10.1731  12.4833  12.5364  14.0119  14.3455  14.5505
    16.4807  17.0395

          k = 0.0000-0.4908 0.6260 (  3748 PWs)   bands (ev):

   -33.4300  -0.3954   0.3350   2.2004   3.3440   6.8485   6.8604   7.3584
     8.0060   9.7927  10.9227  11.3637  11.6777  12.7018  12.9892  14.4375
    15.2923  15.9226

          k = 0.0000-0.4908 0.8346 (  3748 PWs)   bands (ev):

   -33.4015   1.1114   1.8201   3.6932   4.7668   8.0585   8.2364   8.2430
     8.8227   8.8429   9.2955  10.6132  10.8796  11.2480  12.8801  14.4160
    14.9379  15.9936

          k = 0.0000-0.4908 1.0433 (  3750 PWs)   bands (ev):

   -33.3846   2.9437   3.6143   5.5306   5.6214   6.2983   6.4642   7.9458
     8.9722   9.6476   9.7496  10.5692  10.6275  12.0118  13.0878  13.6803
    13.8273  14.0888

          k = 0.2125 0.3681 0.0000 (  3704 PWs)   bands (ev):

   -33.4902  -2.4130  -1.4511  -0.2076   2.5346   3.2135   5.1244   5.8669
     7.4004   8.5962   8.7670   9.8855  12.4153  15.2262  15.3181  17.1931
    17.7500  18.8184

          k = 0.2125 0.3681 0.2087 (  3710 PWs)   bands (ev):

   -33.4819  -2.1921  -1.2310   0.0082   2.7513   3.4224   5.3283   6.0782
     7.6020   8.7974   8.9634  10.0852  12.5514  15.3141  15.3734  17.1833
    17.3719  18.2050

          k = 0.2125 0.3681 0.4173 (  3734 PWs)   bands (ev):

   -33.4598  -1.5320  -0.5732   0.6531   3.3987   4.0451   5.9353   6.7069
     8.1993   9.3886   9.5409  10.6699  12.8490  14.4846  14.7011  15.2864
    16.6249  17.6049

          k = 0.2125 0.3681 0.6260 (  3744 PWs)   bands (ev):

   -33.4296  -0.4409   0.5139   1.7181   4.4670   5.0679   6.9263   7.7347
     9.1511  10.2992  10.4208  11.1937  11.4235  12.2289  12.5444  14.3027
    15.8555  16.3618

          k = 0.2125 0.3681 0.8346 (  3748 PWs)   bands (ev):

   -33.4016   1.0621   2.0111   3.1831   5.9333   6.4522   8.0563   8.3335
     8.9982   9.1651   9.8208  10.5546  11.3112  11.4875  12.6374  13.9407
    14.3064  14.7029

          k = 0.2125 0.3681 1.0433 (  3741 PWs)   bands (ev):

   -33.3842   2.8862   3.8291   4.9606   5.5792   6.4704   7.5037   7.7769
     8.0321   9.5917   9.9540  10.3738  10.9902  11.9319  13.2623  13.4580
    14.1685  14.4273

     the Fermi energy is    12.8067 ev

!    total energy              =     -64.86833407 Ry
     estimated scf accuracy    <          5.7E-11 Ry
     smearing contrib. (-TS)   =       0.00040775 Ry
     internal energy E=F+TS    =     -64.86874182 Ry

     The total energy is F=E-TS. E is the sum of the following terms:
     one-electron contribution =      26.49103309 Ry
     hartree contribution      =       3.14183388 Ry
     xc contribution           =     -23.40770200 Ry
     ewald contribution        =     -71.09390678 Ry

     convergence has been achieved in   9 iterations

     Forces acting on atoms (cartesian axes, Ry/au):

     atom    1 type  1   force =     0.00000000    0.00000000    0.00000000
     atom    2 type  2   force =    -0.00634766    0.00745152   -0.00000000
     atom    3 type  2   force =     0.00634766   -0.00745152    0.00000000
     atom    4 type  2   force =    -0.00962704   -0.00177147   -0.00000000
     atom    5 type  2   force =     0.00962704    0.00177147   -0.00000000
     atom    6 type  2   force =    -0.00327938   -0.00922300    0.00000000
     atom    7 type  2   force =     0.00327938    0.00922300   -0.00000000
     The non-local contrib.  to forces
     atom    1 type  1   force =     0.00000000    0.00000000   -0.00000000
     atom    2 type  2   force =     0.01180222   -0.01209969    0.00000000
     atom    3 type  2   force =    -0.01180222    0.01209969    0.00000000
     atom    4 type  2   force =     0.01637975    0.00417118   -0.00000000
     atom    5 type  2   force =    -0.01637975   -0.00417118   -0.00000000
     atom    6 type  2   force =     0.00457753    0.01627087   -0.00000000
     atom    7 type  2   force =    -0.00457753   -0.01627087   -0.00000000
     The ionic contribution  to forces
     atom    1 type  1   force =    -0.00000000   -0.00000000   -0.00000000
     atom    2 type  2   force =    -0.15789152    0.16054354   -0.00000000
     atom    3 type  2   force =     0.15789152   -0.16054354   -0.00000000
     atom    4 type  2   force =    -0.21798054   -0.05646630   -0.00000000
     atom    5 type  2   force =     0.21798054    0.05646630   -0.00000000
     atom    6 type  2   force =    -0.06008902   -0.21700983   -0.00000000
     atom    7 type  2   force =     0.06008902    0.21700983   -0.00000000
     The local contribution  to forces
     atom    1 type  1   force =    -0.00000000    0.00000000    0.00000000
     atom    2 type  2   force =     0.13993155   -0.14105882   -0.00000000
     atom    3 type  2   force =    -0.13993155    0.14105882    0.00000000
     atom    4 type  2   force =     0.19212630    0.05065487   -0.00000000
     atom    5 type  2   force =    -0.19212630   -0.05065487   -0.00000000
     atom    6 type  2   force =     0.05219475    0.19171369   -0.00000000
     atom    7 type  2   force =    -0.05219475   -0.19171369   -0.00000000
     The core correction contribution to forces
     atom    1 type  1   force =     0.00000000    0.00000000    0.00000000
     atom    2 type  2   force =    -0.00018498    0.00006284    0.00000000
     atom    3 type  2   force =     0.00018498   -0.00006284    0.00000000
     atom    4 type  2   force =    -0.00014691   -0.00012878    0.00000000
     atom    5 type  2   force =     0.00014691    0.00012878    0.00000000
     atom    6 type  2   force =     0.00003807   -0.00019162    0.00000000
     atom    7 type  2   force =    -0.00003807    0.00019162    0.00000000
     The Hubbard contrib.    to forces
     atom    1 type  1   force =     0.00000000    0.00000000    0.00000000
     atom    2 type  2   force =     0.00000000    0.00000000    0.00000000
     atom    3 type  2   force =     0.00000000    0.00000000    0.00000000
     atom    4 type  2   force =     0.00000000    0.00000000    0.00000000
     atom    5 type  2   force =     0.00000000    0.00000000    0.00000000
     atom    6 type  2   force =     0.00000000    0.00000000    0.00000000
     atom    7 type  2   force =     0.00000000    0.00000000    0.00000000
     The SCF correction term to forces
     atom    1 type  1   force =    -0.00000000    0.00000000    0.00000000
     atom    2 type  2   force =    -0.00000493    0.00000366    0.00000000
     atom    3 type  2   force =     0.00000493   -0.00000366   -0.00000000
     atom    4 type  2   force =    -0.00000564   -0.00000244    0.00000000
     atom    5 type  2   force =     0.00000564    0.00000244    0.00000000
     atom    6 type  2   force =    -0.00000070   -0.00000610    0.00000000
     atom    7 type  2   force =     0.00000070    0.00000610   -0.00000000

     Total force =     0.023977     Total SCF correction =     0.000015


     Computing stress (Cartesian axis) and pressure

          total   stress  (Ry/bohr**3)                   (kbar)     P=      492.71
   0.00354121   0.00000000  -0.00000000          520.93        0.00       -0.00
  -0.00000000   0.00354121  -0.00000000           -0.00      520.93       -0.00
   0.00000000   0.00000000   0.00296562            0.00        0.00      436.26

     Energy error            =      4.6E-02 Ry
     Gradient error          =      9.6E-03 Ry/Bohr
     Cell gradient error     =      6.4E+01 kbar

     number of scf cycles    =   4
     number of bfgs steps    =   3

     enthalpy           old  =     -63.0414923284 Ry
     enthalpy           new  =     -63.0879652117 Ry

     CASE: enthalpy          _new < enthalpy          _old

     new trust radius        =       0.0318197063 bohr
ibrav =      4
 celldm(1) =     11.80691787
 celldm(3) =      0.36682495
Input lattice vectors:
     1.17945757    -0.00000000     0.00000000
    -0.58972878     1.02144022     0.00000000
    -0.00000000    -0.00000000     0.43265446
New lattice vectors in INITIAL alat:
     1.17945757     0.00000000     0.00000000
    -0.58972878     1.02144022     0.00000000
     0.00000000     0.00000000     0.43265446
New lattice vectors in NEW alat (for information only):
     1.00000000     0.00000000     0.00000000
    -0.50000000     0.86602540     0.00000000
     0.00000000     0.00000000     0.36682495
Discrepancy in bohr =     0.000000    0.000000    0.000000
     new conv_thr            =       0.0000000010 Ry

     new unit-cell volume =    522.87650 a.u.^3 (    77.48230 Ang^3 )
     density =      3.76019 g/cm^3

CELL_PARAMETERS (alat= 10.01046431)
   1.179457567   0.000000000   0.000000000
  -0.589728783   1.021440216   0.000000000
   0.000000000   0.000000000   0.432654461

ATOMIC_POSITIONS (crystal)
Li           -0.0000000000       -0.0000000000       -0.0000000000
Si            0.1403748561        0.7181650861        0.5000000000
Si            0.8596251439        0.2818349139        0.5000000000
Si            0.4222097701        0.1403748561        0.5000000000
Si            0.5777902299        0.8596251439        0.5000000000
Si            0.2818349139        0.4222097701        0.5000000000
Si            0.7181650861        0.5777902299        0.5000000000



     Writing config-only to output data dir ./output/LiSi.save/
     NEW-OLD atomic charge density approx. for the potential
     extrapolated charge   26.95219, renormalised to   27.00000

     total cpu time spent up to now is       29.3 secs

     Self-consistent Calculation

     iteration #  1     ecut=    80.00 Ry     beta= 0.70
     Davidson diagonalization with overlap
     ethr =  1.00E-06,  avg # of iterations =  7.3

     total cpu time spent up to now is       30.2 secs

     total energy              =     -64.86672832 Ry
     estimated scf accuracy    <       0.00034387 Ry

     iteration #  2     ecut=    80.00 Ry     beta= 0.70
     Davidson diagonalization with overlap
     ethr =  1.27E-06,  avg # of iterations =  2.7

     total cpu time spent up to now is       30.6 secs

     total energy              =     -64.86675187 Ry
     estimated scf accuracy    <       0.00048077 Ry

     iteration #  3     ecut=    80.00 Ry     beta= 0.70
     Davidson diagonalization with overlap
     ethr =  1.27E-06,  avg # of iterations =  2.0

     total cpu time spent up to now is       31.0 secs

     total energy              =     -64.86685652 Ry
     estimated scf accuracy    <       0.00000699 Ry

     iteration #  4     ecut=    80.00 Ry     beta= 0.70
     Davidson diagonalization with overlap
     ethr =  2.59E-08,  avg # of iterations =  2.8

     total cpu time spent up to now is       31.4 secs

     total energy              =     -64.86685781 Ry
     estimated scf accuracy    <       0.00000065 Ry

     iteration #  5     ecut=    80.00 Ry     beta= 0.70
     Davidson diagonalization with overlap
     ethr =  2.40E-09,  avg # of iterations =  2.7

     total cpu time spent up to now is       31.8 secs

     total energy              =     -64.86685797 Ry
     estimated scf accuracy    <          7.6E-09 Ry

     iteration #  6     ecut=    80.00 Ry     beta= 0.70
     Davidson diagonalization with overlap
     ethr =  2.83E-11,  avg # of iterations =  4.7

     total cpu time spent up to now is       32.4 secs

     total energy              =     -64.86685798 Ry
     estimated scf accuracy    <          3.5E-09 Ry

     iteration #  7     ecut=    80.00 Ry     beta= 0.70
     Davidson diagonalization with overlap
     ethr =  1.28E-11,  avg # of iterations =  2.0

     total cpu time spent up to now is       32.8 secs

     End of self-consistent calculation

          k = 0.0000 0.0000 0.0000 (  3701 PWs)   bands (ev):

   -33.4635  -3.1326   1.1609   1.1609   1.3091   1.7719   1.7719   5.2586
    10.3589  10.8926  10.8926  11.5604  11.5604  12.8826  15.2363  15.5077
    15.5077  16.5466

          k = 0.0000 0.0000 0.2101 (  3712 PWs)   bands (ev):

   -33.4546  -2.9085   1.3800   1.3800   1.5282   1.9947   1.9947   5.4461
    10.5509  11.0757  11.0757  11.7546  11.7546  13.0656  15.3534  15.6553
    15.6553  16.6802

          k = 0.0000 0.0000 0.4202 (  3730 PWs)   bands (ev):

   -33.4304  -2.2388   2.0343   2.0343   2.1827   2.6606   2.6606   6.0025
    11.1024  11.5835  11.5835  12.3078  12.3078  13.5386  14.1006  15.5282
    15.9582  15.9582

          k = 0.0000 0.0000 0.6304 (  3742 PWs)   bands (ev):

   -33.3986  -1.1316   3.1146   3.1146   3.2629   3.7618   3.7618   6.9023
    10.6631  11.8288  12.1040  12.1040  12.9594  12.9594  14.4811  14.8250
    15.4198  15.4198

          k = 0.0000 0.0000 0.8405 (  3778 PWs)   bands (ev):

   -33.3699   0.3948   4.5984   4.5984   4.7452   5.2842   5.2842   7.5998
     8.0654  11.1176  11.1176  11.2574  11.8685  11.8685  14.3246  15.1988
    15.1988  15.3578

          k = 0.0000 0.0000 1.0506 (  3772 PWs)   bands (ev):

   -33.3515   2.2550   4.9641   6.3888   6.3888   6.5237   7.2026   7.2026
     8.9419   8.9419   9.1271   9.1470   9.4662   9.4662  14.2503  15.5378
    16.5424  16.5787

          k = 0.0000 0.2448 0.0000 (  3717 PWs)   bands (ev):

   -33.4639  -2.8714  -0.5371   0.5205   1.5272   2.9991   3.4911   5.9159
     7.6702   8.8351  11.2812  11.4949  12.2217  13.9921  14.5295  14.8760
    16.2347  18.5156

          k = 0.0000 0.2448 0.2101 (  3715 PWs)   bands (ev):

   -33.4546  -2.6473  -0.3152   0.7424   1.7451   3.2178   3.7048   6.1149
     7.8769   9.0293  11.4813  11.6796  12.3860  14.1777  14.6369  15.0182
    16.2579  17.8135

          k = 0.0000 0.2448 0.4202 (  3734 PWs)   bands (ev):

   -33.4309  -1.9774   0.3477   1.4054   2.3958   3.8709   4.3422   6.7062
     8.4878   9.5984  12.0619  12.1887  12.8145  14.1732  14.5340  14.7408
    15.5075  16.6023

          k = 0.0000 0.2448 0.6304 (  3735 PWs)   bands (ev):

   -33.3983  -0.8698   1.4433   2.5012   3.4693   4.9481   5.3901   7.6632
     9.4600  10.4588  10.9207  12.3735  12.7262  13.0306  13.3688  14.7693
    15.3618  16.0183

          k = 0.0000 0.2448 0.8405 (  3739 PWs)   bands (ev):

   -33.3683   0.6574   2.9528   4.0124   4.9431   6.4245   6.8130   7.8361
     8.8854   9.9718  10.4343  11.0548  11.2364  11.7870  13.9696  14.1504
    14.5742  15.4072

          k = 0.0000 0.2448 1.0506 (  3762 PWs)   bands (ev):

   -33.3512   2.5214   4.7952   5.2114   5.8776   6.7284   7.3993   8.0275
     8.4521   8.5811   9.0389  10.3543  10.5092  10.8257  13.6986  14.0222
    14.7473  15.5834

          k = 0.0000-0.4895 0.0000 (  3714 PWs)   bands (ev):

   -33.4637  -2.3417  -1.5971   0.2301   1.4402   4.9354   5.0344   5.4394
     6.2099   7.9791   9.4122  11.7791  11.8654  13.1647  15.0123  18.0930
    18.2183  19.2962

          k = 0.0000-0.4895 0.2101 (  3722 PWs)   bands (ev):

   -33.4550  -2.1169  -1.3752   0.4526   1.6550   5.1501   5.2422   5.6557
     6.4165   8.1890   9.5958  11.9578  12.0439  13.3619  15.0338  17.4871
    17.8484  18.8834

          k = 0.0000-0.4895 0.4202 (  3734 PWs)   bands (ev):

   -33.4309  -1.4451  -0.7119   1.1176   2.2963   5.7898   5.8617   6.3003
     7.0306   8.8107  10.1292  12.4476  12.5229  13.9276  14.4205  14.7505
    16.5352  17.1691

          k = 0.0000-0.4895 0.6304 (  3748 PWs)   bands (ev):

   -33.3990  -0.3342   0.3844   2.2171   3.3534   6.8381   6.8753   7.3557
     8.0293   9.7794  10.8988  11.5340  11.8322  12.7612  12.9979  14.4565
    15.2997  15.9982

          k = 0.0000-0.4895 0.8405 (  3748 PWs)   bands (ev):

   -33.3687   1.1987   1.8949   3.7345   4.8015   8.1565   8.2509   8.3314
     8.8757   8.9509   9.3352  10.7093  10.9254  11.2452  12.9227  14.4771
    14.9904  16.0199

          k = 0.0000-0.4895 1.0506 (  3750 PWs)   bands (ev):

   -33.3507   3.0786   3.7358   5.6154   5.7185   6.3795   6.5424   8.0055
     9.0035   9.7578   9.8278  10.5942  10.6395  12.0469  13.1644  13.7401
    13.8957  14.1463

          k = 0.2120 0.3671 0.0000 (  3704 PWs)   bands (ev):

   -33.4634  -2.3844  -1.4249  -0.2279   2.5085   3.1901   5.1124   5.8376
     7.3513   8.5471   8.7529   9.8173  12.3297  15.1706  15.2610  17.0961
    17.6672  18.7889

          k = 0.2120 0.3671 0.2101 (  3710 PWs)   bands (ev):

   -33.4546  -2.1601  -1.2014  -0.0087   2.7286   3.4025   5.3199   6.0518
     7.5562   8.7515   8.9528  10.0206  12.4705  15.2719  15.3309  17.1165
    17.4220  18.2052

          k = 0.2120 0.3671 0.4202 (  3734 PWs)   bands (ev):

   -33.4309  -1.4897  -0.5333   0.6460   3.3857   4.0358   5.9382   6.6894
     8.1640   9.3522   9.5411  10.6169  12.7929  14.6600  14.8031  15.3327
    16.6384  17.6590

          k = 0.2120 0.3671 0.6304 (  3744 PWs)   bands (ev):

   -33.3987  -0.3813   0.5712   1.7276   4.4705   5.0766   6.9489   7.7314
     9.1358  10.2821  10.4443  11.3552  11.4416  12.3424  12.6055  14.3410
    15.9422  16.4360

          k = 0.2120 0.3671 0.8405 (  3748 PWs)   bands (ev):

   -33.3688   1.1475   2.0945   3.2170   5.9606   6.4884   8.1642   8.4262
     9.0858   9.2334   9.8837  10.5851  11.3235  11.5259  12.6619  14.0046
    14.3720  14.7514

          k = 0.2120 0.3671 1.0506 (  3741 PWs)   bands (ev):

   -33.3504   3.0189   3.9603   5.0380   5.6737   6.5607   7.5459   7.8438
     8.1200   9.6798  10.0010  10.4070  10.9980  11.9871  13.3344  13.5530
    14.2015  14.4803

     the Fermi energy is    12.8106 ev

!    total energy              =     -64.86685799 Ry
     estimated scf accuracy    <          3.3E-12 Ry
     smearing contrib. (-TS)   =       0.00048660 Ry
     internal energy E=F+TS    =     -64.86734459 Ry

     The total energy is F=E-TS. E is the sum of the following terms:
     one-electron contribution =      26.57303141 Ry
     hartree contribution      =       3.12925060 Ry
     xc contribution           =     -23.41341802 Ry
     ewald contribution        =     -71.15620857 Ry

     convergence has been achieved in   7 iterations

     Forces acting on atoms (cartesian axes, Ry/au):

     atom    1 type  1   force =     0.00000000    0.00000000    0.00000000
     atom    2 type  2   force =    -0.00182710    0.00377820    0.00000000
     atom    3 type  2   force =     0.00182710   -0.00377820    0.00000000
     atom    4 type  2   force =    -0.00418557    0.00030678    0.00000000
     atom    5 type  2   force =     0.00418557   -0.00030678    0.00000000
     atom    6 type  2   force =    -0.00235847   -0.00347141    0.00000000
     atom    7 type  2   force =     0.00235847    0.00347141   -0.00000000
     The non-local contrib.  to forces
     atom    1 type  1   force =     0.00000000    0.00000000    0.00000000
     atom    2 type  2   force =     0.01590298   -0.01528408    0.00000000
     atom    3 type  2   force =    -0.01590298    0.01528408    0.00000000
     atom    4 type  2   force =     0.02118789    0.00613034   -0.00000000
     atom    5 type  2   force =    -0.02118789   -0.00613034   -0.00000000
     atom    6 type  2   force =     0.00528491    0.02141442   -0.00000000
     atom    7 type  2   force =    -0.00528491   -0.02141442   -0.00000000
     The ionic contribution  to forces
     atom    1 type  1   force =    -0.00000000   -0.00000000    0.00000000
     atom    2 type  2   force =    -0.11497691    0.12743011   -0.00000000
     atom    3 type  2   force =     0.11497691   -0.12743011   -0.00000000
[...]

     atomic species   valence    mass     pseudopotential
        Li             3.00     6.94100     Li( 1.00)
        Si             4.00    28.08550     Si( 1.00)

     12 Sym. Ops., with inversion, found



   Cartesian axes

     site n.     atom                  positions (alat units)
         1           Li  tau(   1) = (   0.0000000   0.0000000  -0.0000000  )
         2           Si  tau(   2) = (  -0.2582888   0.7352513   0.2160165  )
         3           Si  tau(   3) = (   0.8483018   0.2866811   0.2160165  )
         4           Si  tau(   4) = (   0.4141352   0.1439409   0.2160165  )
         5           Si  tau(   5) = (   0.1758778   0.8779915   0.2160165  )
         6           Si  tau(   6) = (   0.0824111   0.4306221   0.2160165  )
         7           Si  tau(   7) = (   0.5076019   0.5913103   0.2160165  )

     number of k points=    24  Marzari-Vanderbilt smearing, width (Ry)=  0.0200
                       cart. coord. in units 2pi/alat
        k(    1) = (   0.0000000   0.0000000   0.0000000), wk =   0.0113636
        k(    2) = (   0.0000000   0.0000000   0.2104217), wk =   0.0227273
        k(    3) = (   0.0000000   0.0000000   0.4208433), wk =   0.0227273
        k(    4) = (   0.0000000   0.0000000   0.6312650), wk =   0.0227273
        k(    5) = (   0.0000000   0.0000000   0.8416867), wk =   0.0227273
        k(    6) = (   0.0000000   0.0000000   1.0521083), wk =   0.0227273
        k(    7) = (   0.0000000   0.2446346   0.0000000), wk =   0.0681818
        k(    8) = (   0.0000000   0.2446346   0.2104217), wk =   0.1363636
        k(    9) = (   0.0000000   0.2446346   0.4208433), wk =   0.1363636
        k(   10) = (   0.0000000   0.2446346   0.6312650), wk =   0.1363636
        k(   11) = (   0.0000000   0.2446346   0.8416867), wk =   0.1363636
        k(   12) = (   0.0000000   0.2446346   1.0521083), wk =   0.1363636
        k(   13) = (   0.0000000  -0.4892692   0.0000000), wk =   0.0340909
        k(   14) = (   0.0000000  -0.4892692   0.2104217), wk =   0.0681818
        k(   15) = (   0.0000000  -0.4892692   0.4208433), wk =   0.0681818
        k(   16) = (   0.0000000  -0.4892692   0.6312650), wk =   0.0681818
        k(   17) = (   0.0000000  -0.4892692   0.8416867), wk =   0.0681818
        k(   18) = (   0.0000000  -0.4892692   1.0521083), wk =   0.0681818
        k(   19) = (   0.2118598   0.3669519   0.0000000), wk =   0.0681818
        k(   20) = (   0.2118598   0.3669519   0.2104217), wk =   0.1363636
        k(   21) = (   0.2118598   0.3669519   0.4208433), wk =   0.1363636
        k(   22) = (   0.2118598   0.3669519   0.6312650), wk =   0.1363636
        k(   23) = (   0.2118598   0.3669519   0.8416867), wk =   0.1363636
        k(   24) = (   0.2118598   0.3669519   1.0521083), wk =   0.1363636

     Dense  grid:    50515 G-vectors     FFT dimensions: (  72,  72,  25)

     Estimated max dynamical RAM per process >      23.56 MB

     Estimated total dynamical RAM >     188.49 MB

     Initial potential from superposition of free atoms

     starting charge      26.9918, renormalised to      27.0000
     Starting wfcs are   26 randomized atomic wfcs

     total cpu time spent up to now is       49.0 secs

     Self-consistent Calculation

     iteration #  1     ecut=    80.00 Ry     beta= 0.70
     Davidson diagonalization with overlap
     c_bands:  1 eigenvalues not converged
     c_bands:  2 eigenvalues not converged
     c_bands:  2 eigenvalues not converged
     c_bands:  1 eigenvalues not converged
     c_bands:  1 eigenvalues not converged
     c_bands:  1 eigenvalues not converged
     c_bands:  3 eigenvalues not converged
     c_bands:  1 eigenvalues not converged
     c_bands:  3 eigenvalues not converged
     c_bands:  2 eigenvalues not converged
     c_bands:  1 eigenvalues not converged
     c_bands:  1 eigenvalues not converged
     c_bands:  2 eigenvalues not converged
     c_bands:  2 eigenvalues not converged
     c_bands:  1 eigenvalues not converged
     c_bands:  2 eigenvalues not converged
     c_bands:  4 eigenvalues not converged
     ethr =  1.00E-06,  avg # of iterations = 19.2

     total cpu time spent up to now is       51.9 secs

     total energy              =     -64.84656856 Ry
     estimated scf accuracy    <       0.07118546 Ry

     iteration #  2     ecut=    80.00 Ry     beta= 0.70
     Davidson diagonalization with overlap
     ethr =  2.64E-04,  avg # of iterations =  2.7

     total cpu time spent up to now is       52.6 secs

     total energy              =     -64.84825357 Ry
     estimated scf accuracy    <       0.10066533 Ry

     iteration #  3     ecut=    80.00 Ry     beta= 0.70
     Davidson diagonalization with overlap
     ethr =  2.64E-04,  avg # of iterations =  2.0

     total cpu time spent up to now is       53.3 secs

     total energy              =     -64.86903308 Ry
     estimated scf accuracy    <       0.00224624 Ry

     iteration #  4     ecut=    80.00 Ry     beta= 0.70
     Davidson diagonalization with overlap
     ethr =  8.32E-06,  avg # of iterations =  3.2

     total cpu time spent up to now is       54.0 secs

     total energy              =     -64.86923879 Ry
     estimated scf accuracy    <       0.00025196 Ry

     iteration #  5     ecut=    80.00 Ry     beta= 0.70
     Davidson diagonalization with overlap
     ethr =  9.33E-07,  avg # of iterations =  2.1

     total cpu time spent up to now is       54.6 secs

     total energy              =     -64.86927248 Ry
     estimated scf accuracy    <       0.00001687 Ry

     iteration #  6     ecut=    80.00 Ry     beta= 0.70
     Davidson diagonalization with overlap
     ethr =  6.25E-08,  avg # of iterations =  3.7

     total cpu time spent up to now is       55.4 secs

     total energy              =     -64.86927917 Ry
     estimated scf accuracy    <       0.00000087 Ry

     iteration #  7     ecut=    80.00 Ry     beta= 0.70
     Davidson diagonalization with overlap
     ethr =  3.22E-09,  avg # of iterations =  3.5

     total cpu time spent up to now is       56.1 secs

     total energy              =     -64.86927942 Ry
     estimated scf accuracy    <       0.00000001 Ry

     iteration #  8     ecut=    80.00 Ry     beta= 0.70
     Davidson diagonalization with overlap
     ethr =  4.09E-11,  avg # of iterations =  4.8

     total cpu time spent up to now is       57.0 secs

     total energy              =     -64.86927943 Ry
     estimated scf accuracy    <          1.1E-09 Ry

     iteration #  9     ecut=    80.00 Ry     beta= 0.70
     Davidson diagonalization with overlap
     ethr =  4.21E-12,  avg # of iterations =  2.3

     total cpu time spent up to now is       57.7 secs

     total energy              =     -64.86927943 Ry
     estimated scf accuracy    <          1.3E-10 Ry

     iteration # 10     ecut=    80.00 Ry     beta= 0.70
     Davidson diagonalization with overlap
     ethr =  4.74E-13,  avg # of iterations =  2.8

     total cpu time spent up to now is       58.3 secs

     End of self-consistent calculation

          k = 0.0000 0.0000 0.0000 (  6253 PWs)   bands (ev):

   -33.4330  -3.1147   1.1851   1.1851   1.3402   1.7361   1.7361   5.2329
    10.3139  10.8949  10.8949  11.5534  11.5534  12.9403  15.2234  15.4667
    15.4667  16.5109

          k = 0.0000 0.0000 0.2104 (  6295 PWs)   bands (ev):

   -33.4235  -2.8899   1.4048   1.4048   1.5601   1.9596   1.9596   5.4211
    10.5070  11.0789  11.0789  11.7483  11.7483  13.1237  15.3411  15.6160
    15.6160  16.6475

          k = 0.0000 0.0000 0.4208 (  6306 PWs)   bands (ev):

   -33.3982  -2.2182   2.0613   2.0613   2.2169   2.6275   2.6275   5.9796
    11.0629  11.5901  11.5901  12.3039  12.3039  13.5937  14.1575  15.5203
    15.9306  15.9306

          k = 0.0000 0.0000 0.6313 (  6336 PWs)   bands (ev):

   -33.3650  -1.1074   3.1452   3.1452   3.3010   3.7320   3.7320   6.8830
    10.7104  11.8069  12.1213  12.1213  12.9598  12.9598  14.5427  14.8326
    15.4419  15.4419

          k = 0.0000 0.0000 0.8417 (  6348 PWs)   bands (ev):

   -33.3343   0.4242   4.6343   4.6343   4.7892   5.2589   5.2589   7.6413
     8.0505  11.1568  11.1568  11.2947  11.8640  11.8640  14.2898  15.2169
    15.2169  15.3977

          k = 0.0000 0.0000 1.0521 (  6324 PWs)   bands (ev):

   -33.3159   2.2942   4.9938   6.4349   6.4349   6.5800   7.1833   7.1833
     8.9768   8.9768   9.1397   9.1641   9.4528   9.4528  14.2351  15.4975
    16.5973  16.5974

          k = 0.0000 0.2446 0.0000 (  6305 PWs)   bands (ev):

   -33.4330  -2.8530  -0.5186   0.5232   1.5124   2.9844   3.5073   5.8904
     7.6535   8.8442  11.2685  11.4954  12.2074  13.9592  14.5126  14.8719
    16.2331  18.4791

          k = 0.0000 0.2446 0.2104 (  6292 PWs)   bands (ev):

   -33.4235  -2.6282  -0.2961   0.7458   1.7310   3.2038   3.7217   6.0900
     7.8608   9.0391  11.4692  11.6815  12.3721  14.1460  14.6226  15.0136
    16.2630  17.8513

          k = 0.0000 0.2446 0.4208 (  6311 PWs)   bands (ev):

   -33.3982  -1.9562   0.3690   1.4110   2.3837   3.8588   4.3613   6.6833
     8.4739   9.6101  12.0517  12.1974  12.8016  14.2164  14.5432  14.7079
    15.5156  16.6194

          k = 0.0000 0.2446 0.6313 (  6323 PWs)   bands (ev):

   -33.3650  -0.8451   1.4683   2.5107   3.4605   4.9391   5.4130   7.6440
     9.4500  10.4736  10.9673  12.4050  12.7408  13.0521  13.3488  14.7856
    15.3565  16.0236

          k = 0.0000 0.2446 0.8417 (  6321 PWs)   bands (ev):

   -33.3342   0.6873   2.9833   4.0276   4.9393   6.4201   6.8419   7.8780
     8.8699  10.0130  10.4429  11.0753  11.2427  11.8014  13.9859  14.1539
    14.5879  15.4155

          k = 0.0000 0.2446 1.0521 (  6329 PWs)   bands (ev):

   -33.3159   2.5614   4.8364   5.2418   5.9036   6.7337   7.4270   8.0342
     8.4915   8.5939   9.0352  10.3566  10.5114  10.8397  13.6974  14.0539
    14.7387  15.5802

          k = 0.0000-0.4893 0.0000 (  6326 PWs)   bands (ev):

   -33.4330  -2.3204  -1.5829   0.2308   1.4251   4.9128   5.0383   5.4347
     6.2311   7.9638   9.3793  11.7685  11.8878  13.1184  14.9823  18.0924
    18.2114  19.3099

          k = 0.0000-0.4893 0.2104 (  6298 PWs)   bands (ev):

   -33.4235  -2.0949  -1.3603   0.4541   1.6406   5.1284   5.2468   5.6516
     6.4382   8.1744   9.5635  11.9482  12.0672  13.3164  15.0069  17.5158
    17.8648  18.8995

          k = 0.0000-0.4893 0.4208 (  6304 PWs)   bands (ev):

   -33.3982  -1.4209  -0.6950   1.1213   2.2839   5.7707   5.8687   6.2979
     7.0539   8.7982  10.0987  12.4422  12.5488  13.8851  14.4266  14.8073
    16.5596  17.1976

          k = 0.0000-0.4893 0.6313 (  6316 PWs)   bands (ev):

   -33.3650  -0.3062   0.4046   2.2244   3.3445   6.8235   6.8865   7.3563
     8.0550   9.7731  10.8706  11.5823  11.8722  12.7946  12.9986  14.4542
    15.2948  16.0117

          k = 0.0000-0.4893 0.8417 (  6326 PWs)   bands (ev):

   -33.3342   1.2322   1.9201   3.7474   4.7977   8.1819   8.2442   8.3634
     8.8864   8.9838   9.3621  10.7363  10.9213  11.2384  12.9223  14.5037
    14.9808  16.0306

          k = 0.0000-0.4893 1.0521 (  6338 PWs)   bands (ev):

   -33.3159   3.1228   3.7704   5.6384   5.7527   6.4042   6.5472   8.0211
     8.9982   9.7871   9.8439  10.6017  10.6517  12.0474  13.1712  13.7349
    13.9154  14.1673

          k = 0.2119 0.3670 0.0000 (  6325 PWs)   bands (ev):

   -33.4330  -2.3646  -1.4039  -0.2374   2.4953   3.1848   5.1145   5.8428
     7.3214   8.5493   8.7691   9.7875  12.2850  15.1730  15.2649  17.0607
    17.6453  18.7982

          k = 0.2119 0.3670 0.2104 (  6321 PWs)   bands (ev):

   -33.4235  -2.1396  -1.1797  -0.0176   2.7161   3.3980   5.3228   6.0575
     7.5270   8.7543   8.9696   9.9914  12.4269  15.2776  15.3377  17.0870
    17.4285  18.2167

          k = 0.2119 0.3670 0.4208 (  6297 PWs)   bands (ev):

   -33.3982  -1.4671  -0.5094   0.6390   3.3754   4.0337   5.9435   6.6967
     8.1368   9.3571   9.5598  10.5903  12.7544  14.7081  14.8377  15.3567
    16.6408  17.6598

          k = 0.2119 0.3670 0.6313 (  6304 PWs)   bands (ev):

   -33.3650  -0.3550   0.5989   1.7237   4.4637   5.0785   6.9584   7.7413
     9.1131  10.2911  10.4664  11.3922  11.4380  12.3757  12.6053  14.3522
    15.9541  16.4407

          k = 0.2119 0.3670 0.8417 (  6331 PWs)   bands (ev):

   -33.3342   1.1792   2.1277   3.2177   5.9591   6.4966   8.1927   8.4575
     9.1070   9.2695   9.8820  10.5798  11.3399  11.5429  12.6525  14.0154
    14.3819  14.7544

          k = 0.2119 0.3670 1.0521 (  6326 PWs)   bands (ev):

   -33.3159   3.0609   4.0045   5.0471   5.7060   6.5933   7.5464   7.8523
     8.1406   9.7020  10.0061  10.4174  11.0080  11.9882  13.3364  13.5827
    14.2101  14.4984

     the Fermi energy is    12.8073 ev

!    total energy              =     -64.86927943 Ry
     estimated scf accuracy    <          4.4E-12 Ry
     smearing contrib. (-TS)   =       0.00056062 Ry
     internal energy E=F+TS    =     -64.86984005 Ry

     The total energy is F=E-TS. E is the sum of the following terms:
     one-electron contribution =      26.59537450 Ry
     hartree contribution      =       3.12888119 Ry
     xc contribution           =     -23.41563700 Ry
     ewald contribution        =     -71.17845874 Ry

     convergence has been achieved in  10 iterations

     Forces acting on atoms (cartesian axes, Ry/au):

     atom    1 type  1   force =     0.00000000    0.00000000    0.00000000
     atom    2 type  2   force =     0.00047367    0.00002347    0.00000000
     atom    3 type  2   force =    -0.00047367   -0.00002347    0.00000000
     atom    4 type  2   force =     0.00021651    0.00042195    0.00000000
     atom    5 type  2   force =    -0.00021651   -0.00042195    0.00000000
     atom    6 type  2   force =    -0.00025716    0.00039847    0.00000000
     atom    7 type  2   force =     0.00025716   -0.00039847    0.00000000
     The non-local contrib.  to forces
     atom    1 type  1   force =     0.00000000   -0.00000000    0.00000000
     atom    2 type  2   force =     0.01817524   -0.01933255    0.00000000
     atom    3 type  2   force =    -0.01817524    0.01933255    0.00000000
     atom    4 type  2   force =     0.02583010    0.00607395    0.00000000
     atom    5 type  2   force =    -0.02583010   -0.00607395    0.00000000
     atom    6 type  2   force =     0.00765486    0.02540650    0.00000000
     atom    7 type  2   force =    -0.00765486   -0.02540650    0.00000000
     The ionic contribution  to forces
     atom    1 type  1   force =    -0.00000000   -0.00000000   -0.00000000
     atom    2 type  2   force =    -0.08397592    0.09621712    0.00000000
     atom    3 type  2   force =     0.08397592   -0.09621712   -0.00000000
     atom    4 type  2   force =    -0.12531443   -0.02461672   -0.00000000
     atom    5 type  2   force =     0.12531443    0.02461672   -0.00000000
     atom    6 type  2   force =    -0.04133851   -0.12083384    0.00000000
     atom    7 type  2   force =     0.04133851    0.12083384   -0.00000000
     The local contribution  to forces
     atom    1 type  1   force =     0.00000000    0.00000000    0.00000000
     atom    2 type  2   force =     0.06705301   -0.07758435   -0.00000000
     atom    3 type  2   force =    -0.06705301    0.07758435   -0.00000000
     atom    4 type  2   force =     0.10071652    0.01927743   -0.00000000
     atom    5 type  2   force =    -0.10071652   -0.01927743   -0.00000000
     atom    6 type  2   force =     0.03366351    0.09686178   -0.00000000
     atom    7 type  2   force =    -0.03366351   -0.09686178   -0.00000000
     The core correction contribution to forces
     atom    1 type  1   force =     0.00000000    0.00000000    0.00000000
     atom    2 type  2   force =    -0.00078006    0.00072416   -0.00000000
     atom    3 type  2   force =     0.00078006   -0.00072416   -0.00000000
     atom    4 type  2   force =    -0.00101717   -0.00031347   -0.00000000
     atom    5 type  2   force =     0.00101717    0.00031347   -0.00000000
     atom    6 type  2   force =    -0.00023711   -0.00103763   -0.00000000
     atom    7 type  2   force =     0.00023711    0.00103763   -0.00000000
     The Hubbard contrib.    to forces
     atom    1 type  1   force =     0.00000000    0.00000000    0.00000000
     atom    2 type  2   force =     0.00000000    0.00000000    0.00000000
     atom    3 type  2   force =     0.00000000    0.00000000    0.00000000
     atom    4 type  2   force =     0.00000000    0.00000000    0.00000000
     atom    5 type  2   force =     0.00000000    0.00000000    0.00000000
     atom    6 type  2   force =     0.00000000    0.00000000    0.00000000
     atom    7 type  2   force =     0.00000000    0.00000000    0.00000000
     The SCF correction term to forces
     atom    1 type  1   force =    -0.00000000    0.00000000   -0.00000000
     atom    2 type  2   force =     0.00000139   -0.00000090    0.00000000
     atom    3 type  2   force =    -0.00000139    0.00000090   -0.00000000
     atom    4 type  2   force =     0.00000147    0.00000076    0.00000000
     atom    5 type  2   force =    -0.00000147   -0.00000076    0.00000000
     atom    6 type  2   force =     0.00000008    0.00000166    0.00000000
     atom    7 type  2   force =    -0.00000008   -0.00000166    0.00000000

     Total force =     0.001162     Total SCF correction =     0.000004


     Computing stress (Cartesian axis) and pressure

          total   stress  (Ry/bohr**3)                   (kbar)     P=      506.74
   0.00344041   0.00000000   0.00000000          506.10        0.00        0.00
   0.00000000   0.00344041   0.00000000            0.00      506.10        0.00
   0.00000000   0.00000000   0.00345339            0.00        0.00      508.01


     Writing all to output data dir ./output/LiSi.save/

     init_run     :      1.74s CPU      1.99s WALL (       2 calls)
     electrons    :     40.25s CPU     43.36s WALL (       9 calls)
     update_pot   :      2.30s CPU      2.35s WALL (       7 calls)
     forces       :      2.08s CPU      2.16s WALL (       9 calls)
     stress       :      9.73s CPU     10.12s WALL (       9 calls)

     Called by init_run:
     wfcinit      :      0.51s CPU      0.51s WALL (       2 calls)
     potinit      :      0.38s CPU      0.46s WALL (       2 calls)
     hinit0       :      0.80s CPU      0.88s WALL (       2 calls)

     Called by electrons:
     c_bands      :     35.67s CPU     37.53s WALL (      73 calls)
     sum_band     :      3.83s CPU      4.12s WALL (      73 calls)
     v_of_rho     :      0.77s CPU      1.66s WALL (      79 calls)
     mix_rho      :      0.07s CPU      0.12s WALL (      73 calls)

     Called by c_bands:
     init_us_2    :      0.72s CPU      0.79s WALL (    3984 calls)
     init_us_2:cp :      0.71s CPU      0.79s WALL (    3984 calls)
     cegterg      :     33.09s CPU     34.06s WALL (    1752 calls)

     Called by *egterg:
     cdiaghg      :      2.99s CPU      3.09s WALL (    8408 calls)
     h_psi        :     26.66s CPU     27.43s WALL (    8696 calls)
     g_psi        :      0.13s CPU      0.13s WALL (    6896 calls)

     Called by h_psi:
     h_psi:calbec :      2.84s CPU      2.92s WALL (    8696 calls)
     vloc_psi     :     21.26s CPU     21.89s WALL (    8696 calls)
     add_vuspsi   :      2.46s CPU      2.52s WALL (    8696 calls)

     General routines
     calbec       :      3.38s CPU      3.47s WALL (    9776 calls)
     fft          :      1.36s CPU      2.49s WALL (    1016 calls)
     ffts         :      0.09s CPU      0.17s WALL (      73 calls)
     fftw         :     21.27s CPU     21.90s WALL (  236380 calls)

     Parallel routines

     PWSCF        :     56.40s CPU   1m 0.70s WALL


   This run was terminated on:   3:19: 6  30Dec2024            

=------------------------------------------------------------------------------=
   JOB DONE.
=------------------------------------------------------------------------------=
