
     Program PWSCF v.7.2 starts on 30Dec2024 at  3:42:25 

     This program is part of the open-source Quantum ESPRESSO suite
     for quantum simulation of materials; please cite
         "P. Giannozzi et al., J. Phys.:Condens. Matter 21 395502 (2009);
         "P. Giannozzi et al., J. Phys.:Condens. Matter 29 465901 (2017);
         "P. Giannozzi et al., J. Chem. Phys. 152 154105 (2020);
          URL http://www.quantum-espresso.org", 
     in publications or presentations arising from this work. More details at
     http://www.quantum-espresso.org/quote

     Parallel version (MPI & OpenMP), running on       8 processor cores
     Number of MPI processes:                 8
     Threads/MPI process:                     1

     MPI processes distributed on     1 nodes
     478941 MiB available memory on the printing compute node when the environment starts

     Waiting for input...
     Reading input from standard input

     Current dimensions of program PWSCF are:
     Max number of different atomic species (ntypx) = 10
     Max number of k-points (npk) =  40000
     Max angular momentum in pseudopotentials (lmaxx) =  4

     R & G space division:  proc/nbgrp/npool/nimage =       8
     Subspace diagonalization in iterative solution of the eigenvalue problem:
     a serial algorithm will be used


     Parallelization info
     --------------------
     sticks:   dense  smooth     PW     G-vecs:    dense   smooth      PW
     Min         424     424    116                15638    15638    2256
     Max         425     425    117                15640    15640    2259
     Sum        3393    3393    929               125111   125111   18053

     Using Slab Decomposition



     bravais-lattice index     =            3
     lattice parameter (alat)  =      13.7242  a.u.
     unit-cell volume          =    1292.5027 (a.u.)^3
     number of atoms/cell      =            7
     number of atomic types    =            2
     number of electrons       =        27.00
     number of Kohn-Sham states=           18
     kinetic-energy cutoff     =      80.0000  Ry
     charge density cutoff     =     320.0000  Ry
     scf convergence threshold =      1.0E-08
     mixing beta               =       0.7000
     number of iterations used =            8  plain     mixing
     energy convergence thresh.=      1.0E-04
     force convergence thresh. =      1.0E-03
     press convergence thresh. =      1.0E+00
     Exchange-correlation= PBE
                           (   1   4   3   4   0   0   0)
     nstep                     =           50


     celldm(1)=  13.724204  celldm(2)=   0.000000  celldm(3)=   0.000000
     celldm(4)=   0.000000  celldm(5)=   0.000000  celldm(6)=   0.000000

     crystal axes: (cart. coord. in units of alat)
               a(1) = (   0.500000   0.500000   0.500000 )  
               a(2) = (  -0.500000   0.500000   0.500000 )  
               a(3) = (  -0.500000  -0.500000   0.500000 )  

     reciprocal axes: (cart. coord. in units 2 pi/alat)
               b(1) = (  1.000000  0.000000  1.000000 )  
               b(2) = ( -1.000000  1.000000  0.000000 )  
               b(3) = (  0.000000 -1.000000  1.000000 )  


     PseudoPot. # 1 for Si read from file:
     ../pseudo/Si_ONCV_PBE_sr.upf
     MD5 check sum: e543d271109d17c80368dfa7c482276d
     Pseudo is Norm-conserving + core correction, Zval =  4.0
     Generated using ONCVPSP code by D. R. Hamann
     Using radial grid of 1510 points,  6 beta functions with: 
                l(1) =   0
                l(2) =   0
                l(3) =   1
                l(4) =   1
                l(5) =   2
                l(6) =   2

     PseudoPot. # 2 for Li read from file:
     ../pseudo/Li_ONCV_PBE_sr.upf
     MD5 check sum: 50ff420e78310ffa21704f3361e624a4
     Pseudo is Norm-conserving, Zval =  3.0
     Generated using ONCVPSP code by D. R. Hamann
     Using radial grid of 1944 points,  4 beta functions with: 
                l(1) =   0
                l(2) =   0
                l(3) =   1
                l(4) =   1

     atomic species   valence    mass     pseudopotential
        Si             4.00    28.08550     Si( 1.00)
        Li             3.00     6.94100     Li( 1.00)

     48 Sym. Ops., with inversion, found



   Cartesian axes

     site n.     atom                  positions (alat units)
         1           Si  tau(   1) = (   0.0000000   0.0000000   0.3414995  )
         2           Si  tau(   2) = (   0.0000000   0.0000000   0.6585005  )
         3           Si  tau(   3) = (   0.3414995   0.0000000   0.0000000  )
         4           Si  tau(   4) = (   0.6585005   0.0000000   0.0000000  )
         5           Si  tau(   5) = (   0.0000000   0.3414995   0.0000000  )
         6           Si  tau(   6) = (   0.0000000   0.6585005   0.0000000  )
         7           Li  tau(   7) = (   0.0000000   0.0000000   0.0000000  )

     number of k points=     8  Marzari-Vanderbilt smearing, width (Ry)=  0.0200
                       cart. coord. in units 2pi/alat
        k(    1) = (   0.0000000   0.0000000   0.0000000), wk =   0.0312500
        k(    2) = (   0.0000000  -0.2500000   0.2500000), wk =   0.3750000
        k(    3) = (   0.0000000   0.5000000  -0.5000000), wk =   0.1875000
        k(    4) = (  -0.2500000   0.7500000  -0.5000000), wk =   0.7500000
        k(    5) = (   0.0000000   0.0000000   0.5000000), wk =   0.1875000
        k(    6) = (   0.0000000   0.7500000  -0.2500000), wk =   0.3750000
        k(    7) = (   0.5000000  -0.5000000   0.5000000), wk =   0.0625000
        k(    8) = (   0.0000000   0.0000000  -1.0000000), wk =   0.0312500

     Dense  grid:   125111 G-vectors     FFT dimensions: (  72,  72,  72)

     Estimated max dynamical RAM per process >      32.19 MB

     Estimated total dynamical RAM >     257.51 MB

     Initial potential from superposition of free atoms

     starting charge      26.9918, renormalised to      27.0000
     Starting wfcs are   26 randomized atomic wfcs

     total cpu time spent up to now is        2.1 secs

     Self-consistent Calculation

     iteration #  1     ecut=    80.00 Ry     beta= 0.70
     Davidson diagonalization with overlap
     ethr =  1.00E-02,  avg # of iterations =  2.1

     Threshold (ethr) on eigenvalues was too large:
     Diagonalizing with lowered threshold

     Davidson diagonalization with overlap
     ethr =  7.20E-04,  avg # of iterations =  2.9

     total cpu time spent up to now is        3.4 secs

     total energy              =     -64.47115274 Ry
     estimated scf accuracy    <       0.21186310 Ry

     iteration #  2     ecut=    80.00 Ry     beta= 0.70
     Davidson diagonalization with overlap
     ethr =  7.85E-04,  avg # of iterations =  2.0

     total cpu time spent up to now is        4.1 secs

     total energy              =     -64.50543021 Ry
     estimated scf accuracy    <       0.04997224 Ry

     iteration #  3     ecut=    80.00 Ry     beta= 0.70
     Davidson diagonalization with overlap
     ethr =  1.85E-04,  avg # of iterations =  2.0

     total cpu time spent up to now is        4.8 secs

     total energy              =     -64.51822788 Ry
     estimated scf accuracy    <       0.00186513 Ry

     iteration #  4     ecut=    80.00 Ry     beta= 0.70
     Davidson diagonalization with overlap
     ethr =  6.91E-06,  avg # of iterations =  3.8

     total cpu time spent up to now is        5.5 secs

     total energy              =     -64.51855337 Ry
     estimated scf accuracy    <       0.00011925 Ry

     iteration #  5     ecut=    80.00 Ry     beta= 0.70
     Davidson diagonalization with overlap
     ethr =  4.42E-07,  avg # of iterations =  4.1

     total cpu time spent up to now is        6.2 secs

     total energy              =     -64.51861430 Ry
     estimated scf accuracy    <       0.00003177 Ry

     iteration #  6     ecut=    80.00 Ry     beta= 0.70
     Davidson diagonalization with overlap
     ethr =  1.18E-07,  avg # of iterations =  4.8

     total cpu time spent up to now is        6.9 secs

     total energy              =     -64.51862389 Ry
     estimated scf accuracy    <       0.00000128 Ry

     iteration #  7     ecut=    80.00 Ry     beta= 0.70
     Davidson diagonalization with overlap
     ethr =  4.75E-09,  avg # of iterations =  4.5

     total cpu time spent up to now is        7.6 secs

     total energy              =     -64.51862435 Ry
     estimated scf accuracy    <       0.00000005 Ry

     iteration #  8     ecut=    80.00 Ry     beta= 0.70
     Davidson diagonalization with overlap
     ethr =  1.93E-10,  avg # of iterations =  4.5

     total cpu time spent up to now is        8.3 secs

     End of self-consistent calculation

          k = 0.0000 0.0000 0.0000 ( 15587 PWs)   bands (ev):

   -42.4247  -6.7018  -4.7634  -4.7634  -2.3699  -2.3699  -2.3699  -0.5979
     0.9825   0.9825   0.9825   2.2946   2.2946   2.2946   3.3270   3.3270
     3.7734   3.7734

          k = 0.0000-0.2500 0.2500 ( 15602 PWs)   bands (ev):

   -42.4247  -6.4588  -5.0517  -4.9410  -2.8986  -2.4600  -1.8307   0.0233
     0.5362   0.9826   1.3946   1.7781   2.4227   2.8517   3.2886   3.4448
     3.8351   3.9536

          k = 0.0000 0.5000-0.5000 ( 15628 PWs)   bands (ev):

   -42.4247  -5.9111  -5.6716  -5.0843  -3.2259  -2.5426  -1.0754   0.2736
     0.4391   0.6005   1.3255   2.1838   2.4565   2.7615   2.9940   3.6836
     4.3528   5.0179

          k =-0.2500 0.7500-0.5000 ( 15615 PWs)   bands (ev):

   -42.4247  -6.0213  -5.3927  -5.2252  -3.5015  -1.9608  -1.5515   0.4766
     0.5712   0.9637   1.0117   1.9693   2.2495   2.3574   3.4332   4.0040
     4.0168   4.9430

          k = 0.0000 0.0000 0.5000 ( 15628 PWs)   bands (ev):

   -42.4247  -6.2338  -5.1976  -5.1036  -2.5908  -2.5908  -2.4469   0.3766
     0.7050   0.7050   1.0911   2.4405   2.7415   3.0595   3.3934   3.9379
     3.9379   4.4232

          k = 0.0000 0.7500-0.2500 ( 15654 PWs)   bands (ev):

   -42.4247  -5.7479  -5.5843  -5.2713  -2.9547  -2.7045  -2.1441  -0.2280
     0.7628   1.3594   1.4271   2.4758   2.8353   3.4295   3.5254   3.7946
     4.0180   4.5845

          k = 0.5000-0.5000 0.5000 ( 15572 PWs)   bands (ev):

   -42.4247  -5.5487  -5.5487  -5.5487  -4.0436  -1.0563  -1.0563   0.6605
     0.6605   0.6605   1.3609   1.3609   1.3609   2.7108   2.7108   2.7108
     5.1670   5.6246

          k = 0.0000 0.0000-1.0000 ( 15756 PWs)   bands (ev):

   -42.4247  -5.5423  -5.5423  -5.3544  -2.8396  -2.8396  -2.8396  -0.3937
     1.3342   1.3342   1.3342   3.3707   3.3707   3.3707   3.4267   3.4267
     4.5549   4.5549

     the Fermi energy is     2.8307 ev

!    total energy              =     -64.51862438 Ry
     estimated scf accuracy    <          1.1E-09 Ry
     smearing contrib. (-TS)   =       0.00284941 Ry
     internal energy E=F+TS    =     -64.52147379 Ry

     The total energy is F=E-TS. E is the sum of the following terms:
     one-electron contribution =      -2.90519552 Ry
     hartree contribution      =       8.22188340 Ry
     xc contribution           =     -20.58820486 Ry
     ewald contribution        =     -49.24995681 Ry

     convergence has been achieved in   8 iterations

     Forces acting on atoms (cartesian axes, Ry/au):

     atom    1 type  1   force =     0.00000000    0.00000000    0.00658615
     atom    2 type  1   force =    -0.00000000    0.00000000   -0.00658615
     atom    3 type  1   force =     0.00658615   -0.00000000    0.00000000
     atom    4 type  1   force =    -0.00658615    0.00000000    0.00000000
     atom    5 type  1   force =    -0.00000000    0.00658615   -0.00000000
     atom    6 type  1   force =     0.00000000   -0.00658615    0.00000000
     atom    7 type  2   force =     0.00000000   -0.00000000    0.00000000
     The non-local contrib.  to forces
     atom    1 type  1   force =     0.00000000   -0.00000000    0.03365968
     atom    2 type  1   force =     0.00000000   -0.00000000   -0.03365968
     atom    3 type  1   force =     0.03365968    0.00000000   -0.00000000
     atom    4 type  1   force =    -0.03365968    0.00000000    0.00000000
     atom    5 type  1   force =     0.00000000    0.03365968    0.00000000
     atom    6 type  1   force =     0.00000000   -0.03365968    0.00000000
     atom    7 type  2   force =     0.00000000    0.00000000    0.00000000
     The ionic contribution  to forces
     atom    1 type  1   force =     0.00000000    0.00000000   -0.01924191
     atom    2 type  1   force =     0.00000000   -0.00000000    0.01924191
     atom    3 type  1   force =    -0.01924191    0.00000000    0.00000000
     atom    4 type  1   force =     0.01924191   -0.00000000   -0.00000000
     atom    5 type  1   force =     0.00000000   -0.01924191    0.00000000
     atom    6 type  1   force =     0.00000000    0.01924191   -0.00000000
     atom    7 type  2   force =    -0.00000000   -0.00000000   -0.00000000
     The local contribution  to forces
     atom    1 type  1   force =     0.00000000    0.00000000   -0.00830824
     atom    2 type  1   force =    -0.00000000   -0.00000000    0.00830824
     atom    3 type  1   force =    -0.00830824   -0.00000000   -0.00000000
     atom    4 type  1   force =     0.00830824    0.00000000    0.00000000
     atom    5 type  1   force =     0.00000000   -0.00830824    0.00000000
     atom    6 type  1   force =    -0.00000000    0.00830824   -0.00000000
     atom    7 type  2   force =     0.00000000    0.00000000    0.00000000
     The core correction contribution to forces
     atom    1 type  1   force =    -0.00000000    0.00000000    0.00049176
     atom    2 type  1   force =     0.00000000   -0.00000000   -0.00049176
     atom    3 type  1   force =     0.00049176   -0.00000000    0.00000000
     atom    4 type  1   force =    -0.00049176    0.00000000   -0.00000000
     atom    5 type  1   force =    -0.00000000    0.00049176    0.00000000
     atom    6 type  1   force =     0.00000000   -0.00049176   -0.00000000
     atom    7 type  2   force =     0.00000000    0.00000000    0.00000000
     The Hubbard contrib.    to forces
     atom    1 type  1   force =     0.00000000    0.00000000    0.00000000
     atom    2 type  1   force =     0.00000000    0.00000000    0.00000000
     atom    3 type  1   force =     0.00000000    0.00000000    0.00000000
     atom    4 type  1   force =     0.00000000    0.00000000    0.00000000
     atom    5 type  1   force =     0.00000000    0.00000000    0.00000000
     atom    6 type  1   force =     0.00000000    0.00000000    0.00000000
     atom    7 type  2   force =     0.00000000    0.00000000    0.00000000
     The SCF correction term to forces
     atom    1 type  1   force =    -0.00000000   -0.00000000   -0.00001514
     atom    2 type  1   force =     0.00000000    0.00000000    0.00001514
     atom    3 type  1   force =    -0.00001514    0.00000000   -0.00000000
     atom    4 type  1   force =     0.00001514   -0.00000000    0.00000000
     atom    5 type  1   force =     0.00000000   -0.00001514   -0.00000000
     atom    6 type  1   force =    -0.00000000    0.00001514    0.00000000
     atom    7 type  2   force =    -0.00000000    0.00000000   -0.00000000

     Total force =     0.016133     Total SCF correction =     0.000037


     Computing stress (Cartesian axis) and pressure

          total   stress  (Ry/bohr**3)                   (kbar)     P=      -52.37
  -0.00035601   0.00000000  -0.00000000          -52.37        0.00       -0.00
   0.00000000  -0.00035601   0.00000000            0.00      -52.37        0.00
  -0.00000000   0.00000000  -0.00035601           -0.00        0.00      -52.37


     BFGS Geometry Optimization
     Energy error            =      0.0E+00 Ry
     Gradient error          =      6.6E-03 Ry/Bohr
     Cell gradient error     =      5.5E+02 kbar

     number of scf cycles    =   1
     number of bfgs steps    =   0

     enthalpy           new  =     -60.1254969909 Ry

     new trust radius        =       0.5000000000 bohr
ibrav =      3
 celldm(1) =     12.76984532
Input lattice vectors:
     0.46523083     0.46523083     0.46523083
    -0.46523083     0.46523083     0.46523083
    -0.46523083    -0.46523083     0.46523083
New lattice vectors in INITIAL alat:
     0.46523083     0.46523083     0.46523083
    -0.46523083     0.46523083     0.46523083
    -0.46523083    -0.46523083     0.46523083
New lattice vectors in NEW alat (for information only):
     0.50000000     0.50000000     0.50000000
    -0.50000000     0.50000000     0.50000000
    -0.50000000    -0.50000000     0.50000000
Discrepancy in bohr =     0.000000    0.000000    0.000000
     new conv_thr            =       0.0000000100 Ry

     new unit-cell volume =   1041.18263 a.u.^3 (   154.28735 Ang^3 )
     density =      1.88835 g/cm^3

CELL_PARAMETERS (alat= 13.72420357)
   0.465230833   0.465230833   0.465230833
  -0.465230833   0.465230833   0.465230833
  -0.465230833  -0.465230833   0.465230833

ATOMIC_POSITIONS (crystal)
Si            0.3418549886       -0.0000000000        0.3418549886
Si            0.6581450114       -0.0000000000        0.6581450114
Si            0.3418549886       -0.3418549886        0.0000000000
Si            0.6581450114       -0.6581450114        0.0000000000
Si           -0.0000000000        0.3418549886       -0.3418549886
Si           -0.0000000000        0.6581450114       -0.6581450114
Li            0.0000000000       -0.0000000000        0.0000000000



     Writing config-only to output data dir ./output/SiLi.save/
     NEW-OLD atomic charge density approx. for the potential
     extrapolated charge   20.48474, renormalised to   27.00000

     total cpu time spent up to now is       13.1 secs

     Self-consistent Calculation

     iteration #  1     ecut=    80.00 Ry     beta= 0.70
     Davidson diagonalization with overlap
     c_bands:  1 eigenvalues not converged
     ethr =  1.00E-06,  avg # of iterations = 13.2

     total cpu time spent up to now is       15.1 secs

     total energy              =     -64.09124948 Ry
     estimated scf accuracy    <       0.34436521 Ry

     iteration #  2     ecut=    80.00 Ry     beta= 0.70
     Davidson diagonalization with overlap
     ethr =  1.28E-03,  avg # of iterations =  3.8

     total cpu time spent up to now is       15.8 secs

     total energy              =     -64.54390890 Ry
     estimated scf accuracy    <       0.69174158 Ry

     iteration #  3     ecut=    80.00 Ry     beta= 0.70
     Davidson diagonalization with overlap
     ethr =  1.28E-03,  avg # of iterations =  2.0

     total cpu time spent up to now is       16.3 secs

     total energy              =     -64.56405674 Ry
     estimated scf accuracy    <       0.11172166 Ry

     iteration #  4     ecut=    80.00 Ry     beta= 0.70
     Davidson diagonalization with overlap
     ethr =  4.14E-04,  avg # of iterations =  2.0

     total cpu time spent up to now is       16.9 secs

     total energy              =     -64.55882455 Ry
     estimated scf accuracy    <       0.02529121 Ry

     iteration #  5     ecut=    80.00 Ry     beta= 0.70
     Davidson diagonalization with overlap
     ethr =  9.37E-05,  avg # of iterations =  2.8

     total cpu time spent up to now is       17.5 secs

     total energy              =     -64.56548005 Ry
     estimated scf accuracy    <       0.00003752 Ry

     iteration #  6     ecut=    80.00 Ry     beta= 0.70
     Davidson diagonalization with overlap
     ethr =  1.39E-07,  avg # of iterations =  8.1

     total cpu time spent up to now is       18.6 secs

     total energy              =     -64.56589175 Ry
     estimated scf accuracy    <       0.00019629 Ry

     iteration #  7     ecut=    80.00 Ry     beta= 0.70
     Davidson diagonalization with overlap
     ethr =  1.39E-07,  avg # of iterations =  2.1

     total cpu time spent up to now is       19.2 secs

     total energy              =     -64.56588615 Ry
     estimated scf accuracy    <       0.00003939 Ry

     iteration #  8     ecut=    80.00 Ry     beta= 0.70
     Davidson diagonalization with overlap
     ethr =  1.39E-07,  avg # of iterations =  2.1

     total cpu time spent up to now is       19.8 secs

     total energy              =     -64.56589794 Ry
     estimated scf accuracy    <       0.00001413 Ry

     iteration #  9     ecut=    80.00 Ry     beta= 0.70
     Davidson diagonalization with overlap
     ethr =  5.23E-08,  avg # of iterations =  1.0

     total cpu time spent up to now is       20.3 secs

     total energy              =     -64.56589835 Ry
     estimated scf accuracy    <       0.00000281 Ry

     iteration # 10     ecut=    80.00 Ry     beta= 0.70
     Davidson diagonalization with overlap
     ethr =  1.04E-08,  avg # of iterations =  1.6

     total cpu time spent up to now is       20.8 secs

     total energy              =     -64.56589789 Ry
     estimated scf accuracy    <       0.00000128 Ry

     iteration # 11     ecut=    80.00 Ry     beta= 0.70
     Davidson diagonalization with overlap
     ethr =  4.74E-09,  avg # of iterations =  2.1

     total cpu time spent up to now is       21.4 secs

     total energy              =     -64.56589826 Ry
     estimated scf accuracy    <       0.00000002 Ry

     iteration # 12     ecut=    80.00 Ry     beta= 0.70
     Davidson diagonalization with overlap
     ethr =  6.59E-11,  avg # of iterations =  4.2

     total cpu time spent up to now is       22.1 secs

     End of self-consistent calculation

          k = 0.0000 0.0000 0.0000 ( 15587 PWs)   bands (ev):

   -40.6581  -6.0792  -3.4118  -3.4118  -0.7747  -0.7747  -0.7747   0.5451
     1.9912   1.9912   1.9912   3.4804   3.4804   3.4804   5.5317   5.5317
     5.8046   5.8046

          k = 0.0000-0.2687 0.2687 ( 15602 PWs)   bands (ev):

   -40.6581  -5.7731  -3.8549  -3.6545  -1.5208  -0.9461  -0.0762   1.2354
     1.4431   2.1178   2.5433   3.5085   4.2594   4.2965   4.7059   5.1230
     5.8128   6.0448

          k =-0.0000 0.5374-0.5374 ( 15628 PWs)   bands (ev):

   -40.6581  -5.0733  -4.7301  -3.8441  -1.9057  -1.0932   1.1280   1.1739
     1.5684   1.8068   2.6471   3.8798   4.2356   4.4405   4.5477   5.4871
     6.5991   6.9364

          k =-0.2687 0.8061-0.5374 ( 15615 PWs)   bands (ev):

   -40.6581  -5.2104  -4.3512  -4.0647  -2.2570  -0.3501   0.1880   1.6248
     1.7481   2.1516   2.6211   3.6033   3.8360   3.9125   5.1326   5.8188
     5.8561   6.9800

          k = 0.0000 0.0000 0.5374 ( 15628 PWs)   bands (ev):

   -40.6581  -5.4850  -4.0752  -3.8508  -1.2194  -1.2194  -0.9589   1.5186
     1.8076   1.8076   3.0045   3.8936   4.0554   4.8458   5.6448   5.8137
     5.8137   6.4358

          k =-0.0000 0.8061-0.2687 ( 15654 PWs)   bands (ev):

   -40.6581  -4.8525  -4.6083  -4.0821  -1.5975  -1.4278  -0.7197   0.8339
     1.9337   2.8377   3.0930   4.1908   4.9503   5.1684   5.1937   5.5973
     5.9591   6.6669

          k = 0.5374-0.5374 0.5374 ( 15572 PWs)   bands (ev):

   -40.6581  -4.5621  -4.5621  -4.5621  -2.9436   1.2411   1.2411   1.8596
     1.8596   1.8596   2.6853   2.6853   2.6853   4.0810   4.0810   4.0810
     7.0617   8.0328

          k =-0.0000 0.0000-1.0747 ( 15756 PWs)   bands (ev):

   -40.6581  -4.5603  -4.5603  -4.1308  -1.6656  -1.6656  -1.6656   0.8378
     2.8735   2.8735   2.8735   4.9251   4.9251   4.9251   5.6260   5.6260
     6.7235   6.7235

     the Fermi energy is     4.4452 ev

!    total energy              =     -64.56589827 Ry
     estimated scf accuracy    <          3.8E-09 Ry
     smearing contrib. (-TS)   =       0.00313436 Ry
     internal energy E=F+TS    =     -64.56903262 Ry

     The total energy is F=E-TS. E is the sum of the following terms:
     one-electron contribution =       2.03033561 Ry
     hartree contribution      =       7.45819213 Ry
     xc contribution           =     -21.12773848 Ry
     ewald contribution        =     -52.92982188 Ry

     convergence has been achieved in  12 iterations

     Forces acting on atoms (cartesian axes, Ry/au):

     atom    1 type  1   force =     0.00000000   -0.00000000   -0.07169734
     atom    2 type  1   force =     0.00000000    0.00000000    0.07169734
     atom    3 type  1   force =    -0.07169734    0.00000000   -0.00000000
     atom    4 type  1   force =     0.07169734   -0.00000000   -0.00000000
     atom    5 type  1   force =    -0.00000000   -0.07169734   -0.00000000
     atom    6 type  1   force =    -0.00000000    0.07169734   -0.00000000
     atom    7 type  2   force =    -0.00000000    0.00000000   -0.00000000
     The non-local contrib.  to forces
     atom    1 type  1   force =     0.00000000   -0.00000000   -0.05122782
     atom    2 type  1   force =     0.00000000   -0.00000000    0.05122782
     atom    3 type  1   force =    -0.05122782   -0.00000000   -0.00000000
     atom    4 type  1   force =     0.05122782    0.00000000   -0.00000000
     atom    5 type  1   force =     0.00000000   -0.05122782    0.00000000
     atom    6 type  1   force =     0.00000000    0.05122782   -0.00000000
     atom    7 type  2   force =    -0.00000000    0.00000000   -0.00000000
     The ionic contribution  to forces
     atom    1 type  1   force =    -0.00000000   -0.00000000   -0.03984996
     atom    2 type  1   force =    -0.00000000   -0.00000000    0.03984996
     atom    3 type  1   force =    -0.03984996    0.00000000    0.00000000
     atom    4 type  1   force =     0.03984996    0.00000000    0.00000000
     atom    5 type  1   force =    -0.00000000   -0.03984996   -0.00000000
     atom    6 type  1   force =     0.00000000    0.03984996   -0.00000000
     atom    7 type  2   force =    -0.00000000   -0.00000000   -0.00000000
     The local contribution  to forces
     atom    1 type  1   force =     0.00000000    0.00000000    0.01273277
     atom    2 type  1   force =     0.00000000    0.00000000   -0.01273277
     atom    3 type  1   force =     0.01273277    0.00000000    0.00000000
     atom    4 type  1   force =    -0.01273277   -0.00000000   -0.00000000
     atom    5 type  1   force =    -0.00000000    0.01273277    0.00000000
     atom    6 type  1   force =     0.00000000   -0.01273277    0.00000000
     atom    7 type  2   force =     0.00000000    0.00000000    0.00000000
     The core correction contribution to forces
     atom    1 type  1   force =     0.00000000    0.00000000    0.00661646
     atom    2 type  1   force =    -0.00000000   -0.00000000   -0.00661646
     atom    3 type  1   force =     0.00661646   -0.00000000   -0.00000000
     atom    4 type  1   force =    -0.00661646   -0.00000000    0.00000000
     atom    5 type  1   force =     0.00000000    0.00661646    0.00000000
     atom    6 type  1   force =    -0.00000000   -0.00661646   -0.00000000
     atom    7 type  2   force =     0.00000000    0.00000000    0.00000000
     The Hubbard contrib.    to forces
     atom    1 type  1   force =     0.00000000    0.00000000    0.00000000
     atom    2 type  1   force =     0.00000000    0.00000000    0.00000000
     atom    3 type  1   force =     0.00000000    0.00000000    0.00000000
     atom    4 type  1   force =     0.00000000    0.00000000    0.00000000
     atom    5 type  1   force =     0.00000000    0.00000000    0.00000000
     atom    6 type  1   force =     0.00000000    0.00000000    0.00000000
     atom    7 type  2   force =     0.00000000    0.00000000    0.00000000
     The SCF correction term to forces
     atom    1 type  1   force =    -0.00000000    0.00000000    0.00003121
     atom    2 type  1   force =    -0.00000000   -0.00000000   -0.00003121
     atom    3 type  1   force =     0.00003121    0.00000000   -0.00000000
     atom    4 type  1   force =    -0.00003121    0.00000000   -0.00000000
     atom    5 type  1   force =    -0.00000000    0.00003121   -0.00000000
     atom    6 type  1   force =    -0.00000000   -0.00003121   -0.00000000
     atom    7 type  2   force =     0.00000000    0.00000000   -0.00000000

     Total force =     0.175622     Total SCF correction =     0.000076


     Computing stress (Cartesian axis) and pressure

          total   stress  (Ry/bohr**3)                   (kbar)     P=        8.77
   0.00005963  -0.00000000   0.00000000            8.77       -0.00        0.00
  -0.00000000   0.00005963  -0.00000000           -0.00        8.77       -0.00
   0.00000000  -0.00000000   0.00005963            0.00       -0.00        8.77

     Energy error            =      9.0E-01 Ry
     Gradient error          =      7.2E-02 Ry/Bohr
     Cell gradient error     =      4.9E+02 kbar

     number of scf cycles    =   2
     number of bfgs steps    =   1

     enthalpy           old  =     -60.1254969909 Ry
     enthalpy           new  =     -61.0269904253 Ry

     CASE: enthalpy          _new < enthalpy          _old

     new trust radius        =       0.7234533069 bohr
ibrav =      3
 celldm(1) =     11.33830795
Input lattice vectors:
     0.41307708     0.41307708     0.41307708
    -0.41307708     0.41307708     0.41307708
    -0.41307708    -0.41307708     0.41307708
New lattice vectors in INITIAL alat:
     0.41307708     0.41307708     0.41307708
    -0.41307708     0.41307708     0.41307708
    -0.41307708    -0.41307708     0.41307708
New lattice vectors in NEW alat (for information only):
     0.50000000     0.50000000     0.50000000
    -0.50000000     0.50000000     0.50000000
    -0.50000000    -0.50000000     0.50000000
Discrepancy in bohr =     0.000000    0.000000    0.000000
     new conv_thr            =       0.0000000072 Ry

     new unit-cell volume =    728.81072 a.u.^3 (   107.99861 Ang^3 )
     density =      2.69770 g/cm^3

CELL_PARAMETERS (alat= 13.72420357)
   0.413077083   0.413077083   0.413077083
  -0.413077083   0.413077083   0.413077083
  -0.413077083  -0.413077083   0.413077083

ATOMIC_POSITIONS (crystal)
Si            0.3336916201        0.0000000000        0.3336916201
Si            0.6663083799       -0.0000000000        0.6663083799
Si            0.3336916201       -0.3336916201        0.0000000000
Si            0.6663083799       -0.6663083799        0.0000000000
Si            0.0000000000        0.3336916201       -0.3336916201
Si            0.0000000000        0.6663083799       -0.6663083799
Li           -0.0000000000        0.0000000000       -0.0000000000



     Writing config-only to output data dir ./output/SiLi.save/
     NEW-OLD atomic charge density approx. for the potential
     extrapolated charge   15.43120, renormalised to   27.00000

     total cpu time spent up to now is       26.9 secs

     Self-consistent Calculation

     iteration #  1     ecut=    80.00 Ry     beta= 0.70
     Davidson diagonalization with overlap
     c_bands:  2 eigenvalues not converged
     c_bands:  1 eigenvalues not converged
     c_bands:  2 eigenvalues not converged
     ethr =  1.00E-06,  avg # of iterations = 17.5

     total cpu time spent up to now is       29.4 secs

     total energy              =     -62.44747421 Ry
     estimated scf accuracy    <       1.37214451 Ry

     iteration #  2     ecut=    80.00 Ry     beta= 0.70
     Davidson diagonalization with overlap
     ethr =  5.08E-03,  avg # of iterations =  4.5

     total cpu time spent up to now is       30.2 secs

     total energy              =     -64.43445132 Ry
     estimated scf accuracy    <       3.94968472 Ry

     iteration #  3     ecut=    80.00 Ry     beta= 0.70
     Davidson diagonalization with overlap
     ethr =  5.08E-03,  avg # of iterations =  2.0

     total cpu time spent up to now is       30.7 secs

     total energy              =     -64.39322876 Ry
     estimated scf accuracy    <       0.84675878 Ry

     iteration #  4     ecut=    80.00 Ry     beta= 0.70
     Davidson diagonalization with overlap
     ethr =  3.14E-03,  avg # of iterations =  2.0

     total cpu time spent up to now is       31.2 secs

     total energy              =     -64.36793806 Ry
     estimated scf accuracy    <       0.15211209 Ry

     iteration #  5     ecut=    80.00 Ry     beta= 0.70
     Davidson diagonalization with overlap
     ethr =  5.63E-04,  avg # of iterations =  3.1

     total cpu time spent up to now is       31.8 secs

     total energy              =     -64.42421398 Ry
     estimated scf accuracy    <       0.01271446 Ry

     iteration #  6     ecut=    80.00 Ry     beta= 0.70
     Davidson diagonalization with overlap
     ethr =  4.71E-05,  avg # of iterations =  3.8

     total cpu time spent up to now is       32.4 secs

     total energy              =     -64.42622518 Ry
     estimated scf accuracy    <       0.00088946 Ry

     iteration #  7     ecut=    80.00 Ry     beta= 0.70
     Davidson diagonalization with overlap
     ethr =  3.29E-06,  avg # of iterations =  5.8

     total cpu time spent up to now is       33.2 secs

     total energy              =     -64.42658612 Ry
     estimated scf accuracy    <       0.00044706 Ry

     iteration #  8     ecut=    80.00 Ry     beta= 0.70
     Davidson diagonalization with overlap
     ethr =  1.66E-06,  avg # of iterations =  3.4

     total cpu time spent up to now is       33.8 secs

     total energy              =     -64.42672331 Ry
     estimated scf accuracy    <       0.00009339 Ry

     iteration #  9     ecut=    80.00 Ry     beta= 0.70
     Davidson diagonalization with overlap
     ethr =  3.46E-07,  avg # of iterations =  2.0

     total cpu time spent up to now is       34.4 secs

     total energy              =     -64.42674513 Ry
     estimated scf accuracy    <       0.00000083 Ry

     iteration # 10     ecut=    80.00 Ry     beta= 0.70
     Davidson diagonalization with overlap
     ethr =  3.09E-09,  avg # of iterations =  4.6

     total cpu time spent up to now is       35.1 secs

     total energy              =     -64.42674576 Ry
     estimated scf accuracy    <       0.00000011 Ry

     iteration # 11     ecut=    80.00 Ry     beta= 0.70
     Davidson diagonalization with overlap
     ethr =  3.95E-10,  avg # of iterations =  2.8

     total cpu time spent up to now is       35.7 secs

     total energy              =     -64.42674577 Ry
     estimated scf accuracy    <       0.00000001 Ry

     iteration # 12     ecut=    80.00 Ry     beta= 0.70
     Davidson diagonalization with overlap
     ethr =  4.65E-11,  avg # of iterations =  3.9

     total cpu time spent up to now is       36.4 secs

     End of self-consistent calculation

          k = 0.0000 0.0000 0.0000 ( 15587 PWs)   bands (ev):

   -38.1463  -4.5073   0.2136   0.2136   1.9148   1.9148   1.9148   3.1326
     4.5431   4.5431   4.5431   5.7025   5.7025   5.7025  10.3466  10.3466
    10.3855  10.3855

          k =-0.0000-0.3026 0.3026 ( 15602 PWs)   bands (ev):

   -38.1463  -4.0684  -0.8728  -0.3626   1.1020   1.5393   2.9102   3.6053
     3.7481   4.8480   5.4102   6.9141   7.4398   7.5546   7.9550   8.8129
    10.7549  11.1072

          k = 0.0000 0.6052-0.6052 ( 15628 PWs)   bands (ev):

   -38.1463  -2.9732  -2.5565  -0.7176   0.7863   1.2553   3.1565   4.0406
     4.1502   5.5578   5.6683   7.3403   8.1644   8.6447   8.7341   8.8438
    10.6270  10.7285

          k =-0.3026 0.9078-0.6052 ( 15615 PWs)   bands (ev):

   -38.1463  -3.2216  -1.7546  -1.3817   0.1654   2.3854   2.9474   4.0321
     4.4453   4.9250   6.4603   6.8995   7.4720   8.0383   8.9624   9.5455
    10.1464  10.8324

          k = 0.0000-0.0000 0.6052 ( 15628 PWs)   bands (ev):

   -38.1463  -3.6377  -1.1035  -0.8654   0.9503   0.9503   2.1538   3.9172
     4.4457   4.4457   6.5130   7.0110   7.4943   9.2915   9.2948   9.2948
    10.6972  11.1886

          k =-0.0000 0.9078-0.3026 ( 15654 PWs)   bands (ev):

   -38.1463  -2.5732  -2.2340  -1.2829   0.5820   1.0785   1.7259   3.2705
     4.5985   5.9524   6.9314   8.2441   8.3372   9.1524   9.2223   9.7020
    10.5662  10.6015

          k = 0.6052-0.6052 0.6052 ( 15572 PWs)   bands (ev):

   -38.1463  -2.1451  -2.1451  -2.1451  -1.0378   4.3252   4.3252   4.3252
     5.7015   5.7015   5.7015   5.9469   5.9469   7.3435   7.3435   7.3435
    10.3104  12.8339

          k =-0.0000 0.0000-1.2104 ( 15756 PWs)   bands (ev):

   -38.1463  -1.8997  -1.8997  -1.3806   0.1886   0.1886   0.1886   3.9832
     6.4667   6.4667   6.4667   7.8744   7.8744   7.8744  10.5424  10.5424
    13.2532  13.2532

     the Fermi energy is     8.2107 ev

!    total energy              =     -64.42674578 Ry
     estimated scf accuracy    <          6.2E-09 Ry
     smearing contrib. (-TS)   =      -0.00159244 Ry
     internal energy E=F+TS    =     -64.42515334 Ry

     The total energy is F=E-TS. E is the sum of the following terms:
     one-electron contribution =      10.60847074 Ry
     hartree contribution      =       6.68405834 Ry
     xc contribution           =     -22.21821972 Ry
     ewald contribution        =     -59.49946269 Ry

     convergence has been achieved in  12 iterations

     Forces acting on atoms (cartesian axes, Ry/au):

     atom    1 type  1   force =    -0.00000000    0.00000000   -0.14003531
     atom    2 type  1   force =    -0.00000000    0.00000000    0.14003531
     atom    3 type  1   force =    -0.14003531    0.00000000   -0.00000000
     atom    4 type  1   force =     0.14003531    0.00000000    0.00000000
     atom    5 type  1   force =     0.00000000   -0.14003531    0.00000000
     atom    6 type  1   force =     0.00000000    0.14003531   -0.00000000
     atom    7 type  2   force =    -0.00000000    0.00000000    0.00000000
     The non-local contrib.  to forces
     atom    1 type  1   force =    -0.00000000    0.00000000   -0.14847869
     atom    2 type  1   force =    -0.00000000    0.00000000    0.14847869
     atom    3 type  1   force =    -0.14847869   -0.00000000    0.00000000
     atom    4 type  1   force =     0.14847869    0.00000000   -0.00000000
     atom    5 type  1   force =    -0.00000000   -0.14847869   -0.00000000
     atom    6 type  1   force =     0.00000000    0.14847869   -0.00000000
     atom    7 type  2   force =    -0.00000000    0.00000000    0.00000000
     The ionic contribution  to forces
     atom    1 type  1   force =    -0.00000000   -0.00000000    0.45557468
     atom    2 type  1   force =    -0.00000000   -0.00000000   -0.45557468
     atom    3 type  1   force =     0.45557468    0.00000000    0.00000000
     atom    4 type  1   force =    -0.45557468    0.00000000    0.00000000
     atom    5 type  1   force =     0.00000000    0.45557468   -0.00000000
     atom    6 type  1   force =    -0.00000000   -0.45557468    0.00000000
     atom    7 type  2   force =    -0.00000000   -0.00000000   -0.00000000
     The local contribution  to forces
     atom    1 type  1   force =     0.00000000   -0.00000000   -0.45930543
     atom    2 type  1   force =    -0.00000000    0.00000000    0.45930543
     atom    3 type  1   force =    -0.45930543    0.00000000    0.00000000
     atom    4 type  1   force =     0.45930543   -0.00000000   -0.00000000
     atom    5 type  1   force =     0.00000000   -0.45930543   -0.00000000
     atom    6 type  1   force =    -0.00000000    0.45930543    0.00000000
     atom    7 type  2   force =     0.00000000    0.00000000    0.00000000
     The core correction contribution to forces
     atom    1 type  1   force =    -0.00000000    0.00000000    0.01221972
     atom    2 type  1   force =     0.00000000    0.00000000   -0.01221972
     atom    3 type  1   force =     0.01221972   -0.00000000    0.00000000
     atom    4 type  1   force =    -0.01221972   -0.00000000   -0.00000000
     atom    5 type  1   force =    -0.00000000    0.01221972    0.00000000
     atom    6 type  1   force =     0.00000000   -0.01221972   -0.00000000
     atom    7 type  2   force =     0.00000000    0.00000000    0.00000000
     The Hubbard contrib.    to forces
     atom    1 type  1   force =     0.00000000    0.00000000    0.00000000
     atom    2 type  1   force =     0.00000000    0.00000000    0.00000000
     atom    3 type  1   force =     0.00000000    0.00000000    0.00000000
     atom    4 type  1   force =     0.00000000    0.00000000    0.00000000
     atom    5 type  1   force =     0.00000000    0.00000000    0.00000000
     atom    6 type  1   force =     0.00000000    0.00000000    0.00000000
     atom    7 type  2   force =     0.00000000    0.00000000    0.00000000
     The SCF correction term to forces
     atom    1 type  1   force =     0.00000000    0.00000000   -0.00004559
     atom    2 type  1   force =    -0.00000000   -0.00000000    0.00004559
     atom    3 type  1   force =    -0.00004559   -0.00000000    0.00000000
     atom    4 type  1   force =     0.00004559   -0.00000000    0.00000000
     atom    5 type  1   force =    -0.00000000   -0.00004559    0.00000000
     atom    6 type  1   force =    -0.00000000    0.00004559   -0.00000000
     atom    7 type  2   force =    -0.00000000    0.00000000   -0.00000000

     Total force =     0.343015     Total SCF correction =     0.000112


     Computing stress (Cartesian axis) and pressure

          total   stress  (Ry/bohr**3)                   (kbar)     P=      233.25
   0.00158558   0.00000000  -0.00000000          233.25        0.00       -0.00
   0.00000000   0.00158558   0.00000000            0.00      233.25        0.00
  -0.00000000   0.00000000   0.00158558           -0.00        0.00      233.25

     Energy error            =      9.2E-01 Ry
     Gradient error          =      1.4E-01 Ry/Bohr
     Cell gradient error     =      2.7E+02 kbar

     number of scf cycles    =   3
     number of bfgs steps    =   2

     enthalpy           old  =     -61.0269904253 Ry
     enthalpy           new  =     -61.9495684974 Ry

     CASE: enthalpy          _new < enthalpy          _old

     new trust radius        =       0.6648629730 bohr
ibrav =      3
 celldm(1) =      9.94212277
Input lattice vectors:
     0.36221128     0.36221128     0.36221128
    -0.36221128     0.36221128     0.36221128
    -0.36221128    -0.36221128     0.36221128
New lattice vectors in INITIAL alat:
     0.36221128     0.36221128     0.36221128
    -0.36221128     0.36221128     0.36221128
    -0.36221128    -0.36221128     0.36221128
New lattice vectors in NEW alat (for information only):
     0.50000000     0.50000000     0.50000000
    -0.50000000     0.50000000     0.50000000
    -0.50000000    -0.50000000     0.50000000
Discrepancy in bohr =     0.000000    0.000000    0.000000
     new conv_thr            =       0.0000000100 Ry

     new unit-cell volume =    491.36857 a.u.^3 (    72.81331 Ang^3 )
     density =      4.00130 g/cm^3

CELL_PARAMETERS (alat= 13.72420357)
   0.362211283   0.362211283   0.362211283
  -0.362211283   0.362211283   0.362211283
  -0.362211283  -0.362211283   0.362211283

ATOMIC_POSITIONS (crystal)
Si            0.3153827308        0.0000000000        0.3153827308
Si            0.6846172692       -0.0000000000        0.6846172692
Si            0.3153827308       -0.3153827308       -0.0000000000
Si            0.6846172692       -0.6846172692       -0.0000000000
Si            0.0000000000        0.3153827308       -0.3153827308
Si            0.0000000000        0.6846172692       -0.6846172692
Li           -0.0000000000        0.0000000000       -0.0000000000



     Writing config-only to output data dir ./output/SiLi.save/
     NEW-OLD atomic charge density approx. for the potential

     negative rho (up, down):  1.143E-02 0.000E+00
     extrapolated charge   13.95687, renormalised to   27.00000

     total cpu time spent up to now is       41.0 secs

     Self-consistent Calculation

     iteration #  1     ecut=    80.00 Ry     beta= 0.70
     Davidson diagonalization with overlap
     c_bands:  1 eigenvalues not converged
     c_bands:  3 eigenvalues not converged
     c_bands:  1 eigenvalues not converged
     c_bands:  1 eigenvalues not converged
     ethr =  1.00E-06,  avg # of iterations = 17.5

     total cpu time spent up to now is       43.5 secs

     total energy              =     -59.50447022 Ry
     estimated scf accuracy    <       2.34731023 Ry

     iteration #  2     ecut=    80.00 Ry     beta= 0.70
     Davidson diagonalization with overlap
     ethr =  8.69E-03,  avg # of iterations =  4.8

     total cpu time spent up to now is       44.2 secs

     total energy              =     -64.02519695 Ry
     estimated scf accuracy    <      10.01456383 Ry

     iteration #  3     ecut=    80.00 Ry     beta= 0.70
     Davidson diagonalization with overlap
     ethr =  8.69E-03,  avg # of iterations =  2.0

     total cpu time spent up to now is       44.7 secs

     total energy              =     -63.45698884 Ry
     estimated scf accuracy    <       2.71105910 Ry

     iteration #  4     ecut=    80.00 Ry     beta= 0.70
     Davidson diagonalization with overlap
     ethr =  8.69E-03,  avg # of iterations =  2.0

     total cpu time spent up to now is       45.2 secs

     total energy              =     -63.50808866 Ry
     estimated scf accuracy    <       0.33533034 Ry

     iteration #  5     ecut=    80.00 Ry     beta= 0.70
     Davidson diagonalization with overlap
     ethr =  1.24E-03,  avg # of iterations =  3.2

     total cpu time spent up to now is       45.9 secs

     total energy              =     -63.64786906 Ry
     estimated scf accuracy    <       0.05667079 Ry

     iteration #  6     ecut=    80.00 Ry     beta= 0.70
     Davidson diagonalization with overlap
     ethr =  2.10E-04,  avg # of iterations =  3.2

     total cpu time spent up to now is       46.4 secs

     total energy              =     -63.65037369 Ry
     estimated scf accuracy    <       0.00615972 Ry

     iteration #  7     ecut=    80.00 Ry     beta= 0.70
     Davidson diagonalization with overlap
     ethr =  2.28E-05,  avg # of iterations =  3.6

     total cpu time spent up to now is       47.0 secs

     total energy              =     -63.65294565 Ry
     estimated scf accuracy    <       0.00239490 Ry

     iteration #  8     ecut=    80.00 Ry     beta= 0.70
     Davidson diagonalization with overlap
     ethr =  8.87E-06,  avg # of iterations =  2.8

     total cpu time spent up to now is       47.5 secs

     total energy              =     -63.65340074 Ry
     estimated scf accuracy    <       0.00000885 Ry

     iteration #  9     ecut=    80.00 Ry     beta= 0.70
     Davidson diagonalization with overlap
     ethr =  3.28E-08,  avg # of iterations =  7.2

     total cpu time spent up to now is       48.4 secs

     total energy              =     -63.65341905 Ry
     estimated scf accuracy    <       0.00000730 Ry

     iteration # 10     ecut=    80.00 Ry     beta= 0.70
     Davidson diagonalization with overlap
     ethr =  2.70E-08,  avg # of iterations =  2.0

     total cpu time spent up to now is       48.9 secs

     total energy              =     -63.65342102 Ry
     estimated scf accuracy    <       0.00000015 Ry

     iteration # 11     ecut=    80.00 Ry     beta= 0.70
     Davidson diagonalization with overlap
     ethr =  5.55E-10,  avg # of iterations =  3.2

     total cpu time spent up to now is       49.5 secs

     total energy              =     -63.65342103 Ry
     estimated scf accuracy    <       0.00000009 Ry

     iteration # 12     ecut=    80.00 Ry     beta= 0.70
     Davidson diagonalization with overlap
     ethr =  3.49E-10,  avg # of iterations =  1.8

     total cpu time spent up to now is       50.0 secs

     total energy              =     -63.65342103 Ry
     estimated scf accuracy    <       0.00000002 Ry

     iteration # 13     ecut=    80.00 Ry     beta= 0.70
     Davidson diagonalization with overlap
     ethr =  6.00E-11,  avg # of iterations =  2.1

     total cpu time spent up to now is       50.5 secs

     End of self-consistent calculation

          k = 0.0000 0.0000 0.0000 ( 15587 PWs)   bands (ev):

   -36.9190  -1.9686   5.1066   5.1066   5.1066   6.4369   6.4369   7.6488
     8.7722   8.7722   8.7722   8.8303   8.8303   8.8303  17.2113  17.2113
    17.6989  17.6989

          k =-0.0000-0.3451 0.3451 ( 15602 PWs)   bands (ev):

   -36.9188  -1.3932   3.0713   4.3460   4.4668   5.5657   6.9619   7.0736
     7.8120   9.1543  10.3438  10.4792  11.8469  12.8572  13.7223  15.1383
    17.6415  17.7784

          k = 0.0000 0.6902-0.6902 ( 15628 PWs)   bands (ev):

   -36.9187   0.1006   0.5821   3.8758   4.0312   5.2546   6.3476   7.7533
     7.9240  10.5142  11.4329  13.1424  13.2140  13.7900  15.3107  15.8610
    16.2144  16.3103

          k =-0.3451 1.0353-0.6902 ( 15615 PWs)   bands (ev):

   -36.9187  -0.2587   1.9116   2.1225   3.8663   6.2808   6.6243   7.6786
     9.0528   9.1036  11.6150  12.2156  12.8808  14.4071  15.0389  15.3841
    16.3675  16.4839

          k = 0.0000-0.0000 0.6902 ( 15628 PWs)   bands (ev):

   -36.9187  -0.8169   3.3616   3.6042   3.6042   3.7642   7.1129   8.2904
     8.3783   8.3783   9.8899  12.7268  13.6246  14.0320  14.0320  16.9770
    17.3234  17.3234

          k = 0.0000 1.0353-0.3451 ( 15654 PWs)   bands (ev):

   -36.9187   0.7239   1.0843   3.0370   3.0962   4.8104   5.4363   7.9873
     8.3700  10.8435  11.8085  12.4450  13.8622  15.2359  15.7232  15.9624
    17.1441  17.8649

          k = 0.6902-0.6902 0.6902 ( 15572 PWs)   bands (ev):

   -36.9186   1.3034   1.3034   1.3034   1.8958   7.8649   7.8649   7.8649
    10.6731  10.6731  10.6731  12.5356  12.5356  12.5356  12.8267  12.8267
    14.8998  19.0490

          k =-0.0000 0.0000-1.3804 ( 15756 PWs)   bands (ev):

   -36.9187   2.5489   2.5489   2.5691   2.5691   2.5691   2.6265  10.1294
    11.4974  11.4974  11.4974  11.9965  11.9965  11.9965  18.2415  18.2415
    19.8158  19.8158

     the Fermi energy is    13.9147 ev

!    total energy              =     -63.65342103 Ry
     estimated scf accuracy    <          2.3E-09 Ry
     smearing contrib. (-TS)   =      -0.00189751 Ry
     internal energy E=F+TS    =     -63.65152353 Ry

     The total energy is F=E-TS. E is the sum of the following terms:
     one-electron contribution =      19.41520894 Ry
     hartree contribution      =       7.34947105 Ry
     xc contribution           =     -23.99859486 Ry
     ewald contribution        =     -66.41760866 Ry

     convergence has been achieved in  13 iterations

     Forces acting on atoms (cartesian axes, Ry/au):

     atom    1 type  1   force =     0.00000000   -0.00000000    0.09465022
     atom    2 type  1   force =    -0.00000000    0.00000000   -0.09465022
     atom    3 type  1   force =     0.09465022   -0.00000000   -0.00000000
     atom    4 type  1   force =    -0.09465022    0.00000000    0.00000000
     atom    5 type  1   force =     0.00000000    0.09465022    0.00000000
     atom    6 type  1   force =    -0.00000000   -0.09465022   -0.00000000
     atom    7 type  2   force =     0.00000000    0.00000000   -0.00000000
     The non-local contrib.  to forces
     atom    1 type  1   force =    -0.00000000    0.00000000   -0.02661326
     atom    2 type  1   force =     0.00000000   -0.00000000    0.02661326
     atom    3 type  1   force =    -0.02661326   -0.00000000    0.00000000
     atom    4 type  1   force =     0.02661326   -0.00000000   -0.00000000
     atom    5 type  1   force =    -0.00000000   -0.02661326    0.00000000
     atom    6 type  1   force =    -0.00000000    0.02661326    0.00000000
     atom    7 type  2   force =    -0.00000000    0.00000000   -0.00000000
     The ionic contribution  to forces
     atom    1 type  1   force =    -0.00000000   -0.00000000    2.03858564
     atom    2 type  1   force =     0.00000000   -0.00000000   -2.03858564
     atom    3 type  1   force =     2.03858564   -0.00000000    0.00000000
     atom    4 type  1   force =    -2.03858564    0.00000000    0.00000000
     atom    5 type  1   force =    -0.00000000    2.03858564   -0.00000000
     atom    6 type  1   force =     0.00000000   -2.03858564   -0.00000000
     atom    7 type  2   force =    -0.00000000   -0.00000000   -0.00000000
     The local contribution  to forces
     atom    1 type  1   force =    -0.00000000   -0.00000000   -1.91670110
     atom    2 type  1   force =     0.00000000    0.00000000    1.91670110
     atom    3 type  1   force =    -1.91670110    0.00000000    0.00000000
     atom    4 type  1   force =     1.91670110    0.00000000    0.00000000
     atom    5 type  1   force =     0.00000000   -1.91670110   -0.00000000
     atom    6 type  1   force =    -0.00000000    1.91670110    0.00000000
     atom    7 type  2   force =    -0.00000000   -0.00000000    0.00000000
     The core correction contribution to forces
     atom    1 type  1   force =     0.00000000    0.00000000   -0.00058981
     atom    2 type  1   force =    -0.00000000   -0.00000000    0.00058981
     atom    3 type  1   force =    -0.00058981    0.00000000    0.00000000
     atom    4 type  1   force =     0.00058981   -0.00000000   -0.00000000
     atom    5 type  1   force =     0.00000000   -0.00058981    0.00000000
     atom    6 type  1   force =    -0.00000000    0.00058981   -0.00000000
     atom    7 type  2   force =     0.00000000    0.00000000    0.00000000
     The Hubbard contrib.    to forces
     atom    1 type  1   force =     0.00000000    0.00000000    0.00000000
     atom    2 type  1   force =     0.00000000    0.00000000    0.00000000
     atom    3 type  1   force =     0.00000000    0.00000000    0.00000000
     atom    4 type  1   force =     0.00000000    0.00000000    0.00000000
     atom    5 type  1   force =     0.00000000    0.00000000    0.00000000
     atom    6 type  1   force =     0.00000000    0.00000000    0.00000000
     atom    7 type  2   force =     0.00000000    0.00000000    0.00000000
     The SCF correction term to forces
     atom    1 type  1   force =     0.00000000   -0.00000000   -0.00003125
     atom    2 type  1   force =    -0.00000000    0.00000000    0.00003125
     atom    3 type  1   force =    -0.00003125    0.00000000   -0.00000000
     atom    4 type  1   force =     0.00003125    0.00000000   -0.00000000
     atom    5 type  1   force =    -0.00000000   -0.00003125   -0.00000000
     atom    6 type  1   force =     0.00000000    0.00003125    0.00000000
     atom    7 type  2   force =    -0.00000000    0.00000000   -0.00000000

     Total force =     0.231845     Total SCF correction =     0.000077


     Computing stress (Cartesian axis) and pressure

          total   stress  (Ry/bohr**3)                   (kbar)     P=     1063.53
   0.00722975  -0.00000000   0.00000000         1063.53       -0.00        0.00
  -0.00000000   0.00722975  -0.00000000           -0.00     1063.53       -0.00
   0.00000000  -0.00000000   0.00722975            0.00       -0.00     1063.53

     Energy error            =      3.4E-02 Ry
     Gradient error          =      9.5E-02 Ry/Bohr
     Cell gradient error     =      5.6E+02 kbar

     number of scf cycles    =   4
     number of bfgs steps    =   3

     enthalpy           old  =     -61.9495684974 Ry
     enthalpy           new  =     -61.9832932225 Ry

     CASE: enthalpy          _new < enthalpy          _old

     new trust radius        =       0.3739876031 bohr
ibrav =      3
 celldm(1) =     10.78081505
Input lattice vectors:
     0.39276651     0.39276651     0.39276651
    -0.39276651     0.39276651     0.39276651
    -0.39276651    -0.39276651     0.39276651
New lattice vectors in INITIAL alat:
     0.39276651     0.39276651     0.39276651
    -0.39276651     0.39276651     0.39276651
    -0.39276651    -0.39276651     0.39276651
New lattice vectors in NEW alat (for information only):
     0.50000000     0.50000000     0.50000000
    -0.50000000     0.50000000     0.50000000
    -0.50000000    -0.50000000     0.50000000
Discrepancy in bohr =     0.000000    0.000000    0.000000
     new conv_thr            =       0.0000000095 Ry

     new unit-cell volume =    626.50536 a.u.^3 (    92.83852 Ang^3 )
     density =      3.13823 g/cm^3

CELL_PARAMETERS (alat= 13.72420357)
   0.392766509   0.392766509   0.392766509
  -0.392766509   0.392766509   0.392766509
  -0.392766509  -0.392766509   0.392766509

ATOMIC_POSITIONS (crystal)
Si            0.3237366436        0.0000000000        0.3237366436
Si            0.6762633564       -0.0000000000        0.6762633564
Si            0.3237366436       -0.3237366436       -0.0000000000
Si            0.6762633564       -0.6762633564       -0.0000000000
Si            0.0000000000        0.3237366436       -0.3237366436
Si            0.0000000000        0.6762633564       -0.6762633564
Li           -0.0000000000        0.0000000000       -0.0000000000



     Writing config-only to output data dir ./output/SiLi.save/
     NEW-OLD atomic charge density approx. for the potential
     extrapolated charge   32.82211, renormalised to   27.00000

     total cpu time spent up to now is       54.9 secs

     Self-consistent Calculation

     iteration #  1     ecut=    80.00 Ry     beta= 0.70
     Davidson diagonalization with overlap
     ethr =  1.00E-06,  avg # of iterations = 16.0

     total cpu time spent up to now is       56.8 secs

     total energy              =     -63.56845277 Ry
     estimated scf accuracy    <       0.55086152 Ry

     iteration #  2     ecut=    80.00 Ry     beta= 0.70
     Davidson diagonalization with overlap
     ethr =  2.04E-03,  avg # of iterations =  3.4

     total cpu time spent up to now is       57.5 secs

     total energy              =     -64.17263559 Ry
     estimated scf accuracy    <       1.96823827 Ry

     iteration #  3     ecut=    80.00 Ry     beta= 0.70
     Davidson diagonalization with overlap
     ethr =  2.04E-03,  avg # of iterations =  2.0

     total cpu time spent up to now is       58.0 secs

     total energy              =     -64.31492090 Ry
     estimated scf accuracy    <       0.24487793 Ry

     iteration #  4     ecut=    80.00 Ry     beta= 0.70
     Davidson diagonalization with overlap
     ethr =  9.07E-04,  avg # of iterations =  1.1

     total cpu time spent up to now is       58.4 secs

     total energy              =     -64.28798061 Ry
     estimated scf accuracy    <       0.15632816 Ry

     iteration #  5     ecut=    80.00 Ry     beta= 0.70
     Davidson diagonalization with overlap
     ethr =  5.79E-04,  avg # of iterations =  1.4

     total cpu time spent up to now is       58.9 secs

     total energy              =     -64.26774497 Ry
     estimated scf accuracy    <       0.06815183 Ry

     iteration #  6     ecut=    80.00 Ry     beta= 0.70
     Davidson diagonalization with overlap
     ethr =  2.52E-04,  avg # of iterations =  2.4

     total cpu time spent up to now is       59.4 secs

     total energy              =     -64.27943299 Ry
     estimated scf accuracy    <       0.00366639 Ry

     iteration #  7     ecut=    80.00 Ry     beta= 0.70
     Davidson diagonalization with overlap
     ethr =  1.36E-05,  avg # of iterations =  4.4

     total cpu time spent up to now is       60.0 secs

     total energy              =     -64.28092085 Ry
     estimated scf accuracy    <       0.00034048 Ry

     iteration #  8     ecut=    80.00 Ry     beta= 0.70
     Davidson diagonalization with overlap
     ethr =  1.26E-06,  avg # of iterations =  4.1

     total cpu time spent up to now is       60.6 secs

     total energy              =     -64.28093726 Ry
     estimated scf accuracy    <       0.00033599 Ry

     iteration #  9     ecut=    80.00 Ry     beta= 0.70
     Davidson diagonalization with overlap
     ethr =  1.24E-06,  avg # of iterations =  1.0

     total cpu time spent up to now is       61.0 secs

     total energy              =     -64.28085714 Ry
     estimated scf accuracy    <       0.00022029 Ry

     iteration # 10     ecut=    80.00 Ry     beta= 0.70
     Davidson diagonalization with overlap
     ethr =  8.16E-07,  avg # of iterations =  2.0

     total cpu time spent up to now is       61.5 secs

     total energy              =     -64.28087923 Ry
     estimated scf accuracy    <       0.00002004 Ry

     iteration # 11     ecut=    80.00 Ry     beta= 0.70
     Davidson diagonalization with overlap
     ethr =  7.42E-08,  avg # of iterations =  3.0

     total cpu time spent up to now is       62.0 secs

     total energy              =     -64.28088045 Ry
     estimated scf accuracy    <       0.00000331 Ry

     iteration # 12     ecut=    80.00 Ry     beta= 0.70
     Davidson diagonalization with overlap
     ethr =  1.22E-08,  avg # of iterations =  3.6

     total cpu time spent up to now is       62.6 secs

     total energy              =     -64.28088255 Ry
     estimated scf accuracy    <       0.00000271 Ry

     iteration # 13     ecut=    80.00 Ry     beta= 0.70
     Davidson diagonalization with overlap
     ethr =  1.01E-08,  avg # of iterations =  1.4

     total cpu time spent up to now is       63.1 secs

     total energy              =     -64.28088248 Ry
     estimated scf accuracy    <       0.00000059 Ry

     iteration # 14     ecut=    80.00 Ry     beta= 0.70
     Davidson diagonalization with overlap
     ethr =  2.20E-09,  avg # of iterations =  2.5

     total cpu time spent up to now is       63.6 secs

     total energy              =     -64.28088260 Ry
     estimated scf accuracy    <       0.00000002 Ry

     iteration # 15     ecut=    80.00 Ry     beta= 0.70
     Davidson diagonalization with overlap
     ethr =  5.59E-11,  avg # of iterations =  4.0

     total cpu time spent up to now is       64.2 secs

     End of self-consistent calculation

          k = 0.0000 0.0000 0.0000 ( 15587 PWs)   bands (ev):

   -37.6753  -3.5995   2.5264   2.5264   2.9189   2.9189   2.9189   4.5811
     6.1459   6.1459   6.1459   6.6970   6.6970   6.6970  12.7981  12.7981
    13.0132  13.0132

          k =-0.0000-0.3183 0.3183 ( 15602 PWs)   bands (ev):

   -37.6753  -3.1026   0.6794   1.4813   2.4586   2.5665   4.2427   4.8264
     5.0654   6.3525   7.2118   8.0732   9.0403   9.6244   9.6705  11.0010
    13.1752  13.3006

          k = 0.0000 0.6365-0.6365 ( 15628 PWs)   bands (ev):

   -37.6752  -1.7869  -1.4567   1.0318   2.1226   2.3109   4.3052   5.2737
     5.3371   7.3153   7.7381   9.4422  10.2238  10.2290  11.0905  11.3277
    12.5201  12.6333

          k =-0.3183 0.9548-0.6365 ( 15615 PWs)   bands (ev):

   -37.6752  -2.1261  -0.3147  -0.1149   1.4383   3.6797   4.1863   5.2121
     6.0301   6.3971   8.3311   8.8477   9.4075  10.3007  11.0808  11.6182
    12.5512  12.9421

          k = 0.0000-0.0000 0.6365 ( 15628 PWs)   bands (ev):

   -37.6753  -2.6077   0.6442   0.7630   1.7939   1.7939   3.9842   5.2246
     5.8621   5.8621   7.6117   9.0224   9.7235  10.9288  10.9288  12.0200
    13.7881  13.7881

          k = 0.0000 0.9548-0.3183 ( 15654 PWs)   bands (ev):

   -37.6752  -1.2800  -1.0253   0.2693   1.3808   2.3725   2.9639   4.8512
     5.9492   7.6060   8.7902   9.5990  10.8663  10.9010  11.4775  12.0758
    12.7138  13.2972

          k = 0.6365-0.6365 0.6365 ( 15572 PWs)   bands (ev):

   -37.6752  -0.8127  -0.8127  -0.8127  -0.2173   5.4785   5.4785   5.4785
     7.3942   7.3942   7.3942   8.3882   8.3882   9.2936   9.2936   9.2936
    11.7865  15.2900

          k =-0.0000 0.0000-1.2730 ( 15756 PWs)   bands (ev):

   -37.6752  -0.1938  -0.1938  -0.0787   0.9447   0.9447   0.9447   6.0824
     8.3848   8.3848   8.3848   9.2040   9.2040   9.2040  13.3426  13.3426
    15.3327  15.3327

     the Fermi energy is    10.3068 ev

!    total energy              =     -64.28088260 Ry
     estimated scf accuracy    <          2.0E-09 Ry
     smearing contrib. (-TS)   =      -0.00260220 Ry
     internal energy E=F+TS    =     -64.27828040 Ry

     The total energy is F=E-TS. E is the sum of the following terms:
     one-electron contribution =      13.61222893 Ry
     hartree contribution      =       6.95820430 Ry
     xc contribution           =     -22.81281688 Ry
     ewald contribution        =     -62.03589675 Ry

     convergence has been achieved in  15 iterations

     Forces acting on atoms (cartesian axes, Ry/au):

     atom    1 type  1   force =     0.00000000    0.00000000   -0.04566080
     atom    2 type  1   force =     0.00000000   -0.00000000    0.04566080
     atom    3 type  1   force =    -0.04566080   -0.00000000    0.00000000
     atom    4 type  1   force =     0.04566080   -0.00000000    0.00000000
     atom    5 type  1   force =    -0.00000000   -0.04566080    0.00000000
     atom    6 type  1   force =     0.00000000    0.04566080   -0.00000000
     atom    7 type  2   force =    -0.00000000    0.00000000    0.00000000
     The non-local contrib.  to forces
     atom    1 type  1   force =    -0.00000000    0.00000000   -0.09303684
     atom    2 type  1   force =     0.00000000   -0.00000000    0.09303684
     atom    3 type  1   force =    -0.09303684   -0.00000000   -0.00000000
     atom    4 type  1   force =     0.09303684    0.00000000    0.00000000
     atom    5 type  1   force =    -0.00000000   -0.09303684   -0.00000000
     atom    6 type  1   force =     0.00000000    0.09303684    0.00000000
     atom    7 type  2   force =    -0.00000000    0.00000000    0.00000000
     The ionic contribution  to forces
     atom    1 type  1   force =    -0.00000000   -0.00000000    1.17315748
     atom    2 type  1   force =    -0.00000000   -0.00000000   -1.17315748
     atom    3 type  1   force =     1.17315748   -0.00000000    0.00000000
     atom    4 type  1   force =    -1.17315748   -0.00000000    0.00000000
     atom    5 type  1   force =     0.00000000    1.17315748   -0.00000000
     atom    6 type  1   force =    -0.00000000   -1.17315748   -0.00000000
     atom    7 type  2   force =    -0.00000000   -0.00000000   -0.00000000
     The local contribution  to forces
     atom    1 type  1   force =     0.00000000    0.00000000   -1.13255339
     atom    2 type  1   force =    -0.00000000   -0.00000000    1.13255339
     atom    3 type  1   force =    -1.13255339    0.00000000    0.00000000
     atom    4 type  1   force =     1.13255339    0.00000000   -0.00000000
     atom    5 type  1   force =     0.00000000   -1.13255339    0.00000000
     atom    6 type  1   force =    -0.00000000    1.13255339   -0.00000000
     atom    7 type  2   force =     0.00000000    0.00000000    0.00000000
     The core correction contribution to forces
     atom    1 type  1   force =     0.00000000    0.00000000    0.00679933
     atom    2 type  1   force =     0.00000000   -0.00000000   -0.00679933
     atom    3 type  1   force =     0.00679933   -0.00000000   -0.00000000
     atom    4 type  1   force =    -0.00679933    0.00000000    0.00000000
     atom    5 type  1   force =    -0.00000000    0.00679933    0.00000000
     atom    6 type  1   force =     0.00000000   -0.00679933    0.00000000
     atom    7 type  2   force =     0.00000000    0.00000000    0.00000000
     The Hubbard contrib.    to forces
     atom    1 type  1   force =     0.00000000    0.00000000    0.00000000
     atom    2 type  1   force =     0.00000000    0.00000000    0.00000000
     atom    3 type  1   force =     0.00000000    0.00000000    0.00000000
     atom    4 type  1   force =     0.00000000    0.00000000    0.00000000
     atom    5 type  1   force =     0.00000000    0.00000000    0.00000000
     atom    6 type  1   force =     0.00000000    0.00000000    0.00000000
     atom    7 type  2   force =     0.00000000    0.00000000    0.00000000
     The SCF correction term to forces
     atom    1 type  1   force =     0.00000000    0.00000000   -0.00002739
     atom    2 type  1   force =    -0.00000000   -0.00000000    0.00002739
     atom    3 type  1   force =    -0.00002739    0.00000000    0.00000000
     atom    4 type  1   force =     0.00002739   -0.00000000   -0.00000000
     atom    5 type  1   force =     0.00000000   -0.00002739    0.00000000
     atom    6 type  1   force =    -0.00000000    0.00002739   -0.00000000
     atom    7 type  2   force =     0.00000000   -0.00000000    0.00000000

     Total force =     0.111846     Total SCF correction =     0.000067


     Computing stress (Cartesian axis) and pressure

          total   stress  (Ry/bohr**3)                   (kbar)     P=      403.71
   0.00274433   0.00000000  -0.00000000          403.71        0.00       -0.00
   0.00000000   0.00274433   0.00000000            0.00      403.71        0.00
  -0.00000000   0.00000000   0.00274433           -0.00        0.00      403.71

     Energy error            =      1.7E-01 Ry
     Gradient error          =      4.6E-02 Ry/Bohr
     Cell gradient error     =      9.6E+01 kbar

     number of scf cycles    =   5
     number of bfgs steps    =   4

     enthalpy           old  =     -61.9832932225 Ry
     enthalpy           new  =     -62.1514341566 Ry

     CASE: enthalpy          _new < enthalpy          _old

     new trust radius        =       0.0672129628 bohr
ibrav =      3
 celldm(1) =     10.63606716
Input lattice vectors:
     0.38749306     0.38749306     0.38749306
    -0.38749306     0.38749306     0.38749306
    -0.38749306    -0.38749306     0.38749306
New lattice vectors in INITIAL alat:
     0.38749306     0.38749306     0.38749306
    -0.38749306     0.38749306     0.38749306
    -0.38749306    -0.38749306     0.38749306
New lattice vectors in NEW alat (for information only):
     0.50000000     0.50000000     0.50000000
    -0.50000000     0.50000000     0.50000000
    -0.50000000    -0.50000000     0.50000000
Discrepancy in bohr =     0.000000    0.000000    0.000000
     new conv_thr            =       0.0000000046 Ry

     new unit-cell volume =    601.60747 a.u.^3 (    89.14903 Ang^3 )
     density =      3.26810 g/cm^3

CELL_PARAMETERS (alat= 13.72420357)
   0.387493056   0.387493056   0.387493056
  -0.387493056   0.387493056   0.387493056
  -0.387493056  -0.387493056   0.387493056

ATOMIC_POSITIONS (crystal)
Si            0.3212188197        0.0000000000        0.3212188197
Si            0.6787811803       -0.0000000000        0.6787811803
Si            0.3212188197       -0.3212188197       -0.0000000000
Si            0.6787811803       -0.6787811803       -0.0000000000
Si            0.0000000000        0.3212188197       -0.3212188197
Si            0.0000000000        0.6787811803       -0.6787811803
Li           -0.0000000000        0.0000000000       -0.0000000000



     Writing config-only to output data dir ./output/SiLi.save/
     NEW-OLD atomic charge density approx. for the potential
     extrapolated charge   25.88293, renormalised to   27.00000

     total cpu time spent up to now is       68.6 secs

     Self-consistent Calculation

     iteration #  1     ecut=    80.00 Ry     beta= 0.70
     Davidson diagonalization with overlap
     ethr =  1.00E-06,  avg # of iterations =  9.9

     total cpu time spent up to now is       70.0 secs

     total energy              =     -64.18267428 Ry
     estimated scf accuracy    <       0.02157476 Ry

     iteration #  2     ecut=    80.00 Ry     beta= 0.70
     Davidson diagonalization with overlap
     ethr =  7.99E-05,  avg # of iterations =  4.2

     total cpu time spent up to now is       70.7 secs

     total energy              =     -64.20889851 Ry
     estimated scf accuracy    <       0.07012623 Ry

     iteration #  3     ecut=    80.00 Ry     beta= 0.70
     Davidson diagonalization with overlap
     ethr =  7.99E-05,  avg # of iterations =  2.0

     total cpu time spent up to now is       71.2 secs

     total energy              =     -64.21234691 Ry
     estimated scf accuracy    <       0.01106672 Ry

     iteration #  4     ecut=    80.00 Ry     beta= 0.70
     Davidson diagonalization with overlap
     ethr =  4.10E-05,  avg # of iterations =  1.4

     total cpu time spent up to now is       71.6 secs

     total energy              =     -64.21051780 Ry
     estimated scf accuracy    <       0.00490258 Ry

     iteration #  5     ecut=    80.00 Ry     beta= 0.70
     Davidson diagonalization with overlap
     ethr =  1.82E-05,  avg # of iterations =  3.0

     total cpu time spent up to now is       72.2 secs

     total energy              =     -64.21152697 Ry
     estimated scf accuracy    <       0.00008196 Ry

     iteration #  6     ecut=    80.00 Ry     beta= 0.70
     Davidson diagonalization with overlap
     ethr =  3.04E-07,  avg # of iterations =  5.0

     total cpu time spent up to now is       72.9 secs

     total energy              =     -64.21163395 Ry
     estimated scf accuracy    <       0.00001283 Ry

     iteration #  7     ecut=    80.00 Ry     beta= 0.70
     Davidson diagonalization with overlap
     ethr =  4.75E-08,  avg # of iterations =  2.4

     total cpu time spent up to now is       73.3 secs

     total energy              =     -64.21162453 Ry
     estimated scf accuracy    <       0.00002136 Ry

     iteration #  8     ecut=    80.00 Ry     beta= 0.70
     Davidson diagonalization with overlap
     ethr =  4.75E-08,  avg # of iterations =  2.1

     total cpu time spent up to now is       73.9 secs

     total energy              =     -64.21162816 Ry
     estimated scf accuracy    <       0.00000140 Ry

     iteration #  9     ecut=    80.00 Ry     beta= 0.70
     Davidson diagonalization with overlap
     ethr =  5.19E-09,  avg # of iterations =  2.0

     total cpu time spent up to now is       74.4 secs

     total energy              =     -64.21162822 Ry
     estimated scf accuracy    <       0.00000108 Ry

     iteration # 10     ecut=    80.00 Ry     beta= 0.70
     Davidson diagonalization with overlap
     ethr =  4.00E-09,  avg # of iterations =  1.0

     total cpu time spent up to now is       74.8 secs

     total energy              =     -64.21162805 Ry
     estimated scf accuracy    <       0.00000050 Ry

     iteration # 11     ecut=    80.00 Ry     beta= 0.70
     Davidson diagonalization with overlap
     ethr =  1.84E-09,  avg # of iterations =  2.2

     total cpu time spent up to now is       75.3 secs

     total energy              =     -64.21162811 Ry
     estimated scf accuracy    <       0.00000003 Ry

     iteration # 12     ecut=    80.00 Ry     beta= 0.70
     Davidson diagonalization with overlap
     ethr =  1.19E-10,  avg # of iterations =  4.1

     total cpu time spent up to now is       75.9 secs

     total energy              =     -64.21162812 Ry
     estimated scf accuracy    <       0.00000003 Ry

     iteration # 13     ecut=    80.00 Ry     beta= 0.70
     Davidson diagonalization with overlap
     ethr =  9.83E-11,  avg # of iterations =  2.0

     total cpu time spent up to now is       76.4 secs

     End of self-consistent calculation

          k = 0.0000 0.0000 0.0000 ( 15587 PWs)   bands (ev):

   -37.6013  -3.3430   3.1850   3.1850   3.2062   3.2062   3.2062   5.0259
     6.6010   6.6010   6.6010   6.9887   6.9887   6.9887  13.4930  13.4930
    13.7658  13.7659

          k =-0.0000-0.3226 0.3226 ( 15602 PWs)   bands (ev):

   -37.6013  -2.8323   1.0707   1.9621   2.7228   3.0304   4.6548   5.1676
     5.4626   6.7805   7.7296   8.4095   9.4755  10.1666  10.2646  11.6444
    13.9245  14.0071

          k = 0.0000 0.6452-0.6452 ( 15628 PWs)   bands (ev):

   -37.6012  -1.4687  -1.1512   1.5001   2.3730   2.7687   4.6294   5.6242
     5.7188   7.7936   8.3513  10.0496  10.6233  10.8121  11.7596  12.1190
    13.0572  13.1845

          k =-0.3226 0.9678-0.6452 ( 15615 PWs)   bands (ev):

   -37.6012  -1.8265   0.0645   0.2222   1.8080   4.0658   4.5484   5.5649
     6.5013   6.8112   8.8463   9.3991   9.9538  10.9543  11.7033  12.2155
    13.1989  13.5726

          k = 0.0000-0.0000 0.6452 ( 15628 PWs)   bands (ev):

   -37.6012  -2.3227   1.0556   1.2841   2.0378   2.0378   4.5089   5.6479
     6.2572   6.2572   7.9332   9.6002  10.3653  11.3999  11.3999  12.8141
    14.3789  14.3791

          k =-0.0000 0.9678-0.3226 ( 15654 PWs)   bands (ev):

   -37.6012  -0.9377  -0.7018   0.7108   1.6127   2.7349   3.3357   5.3444
     6.3242   8.0880   9.2877   9.9955  11.3412  11.6666  12.0957  12.6958
    13.3902  14.0806

          k = 0.6452-0.6452 0.6452 ( 15572 PWs)   bands (ev):

   -37.6012  -0.4571  -0.4571  -0.4571   0.0481   5.8160   5.8160   5.8160
     7.8914   7.8914   7.8914   9.0905   9.0905   9.8419   9.8419   9.8419
    12.2277  15.8811

          k =-0.0000 0.0000-1.2903 ( 15756 PWs)   bands (ev):

   -37.6012   0.2834   0.2834   0.2952   1.1651   1.1651   1.1651   6.7220
     8.9056   8.9056   8.9056   9.5948   9.5948   9.5948  14.1481  14.1481
    15.9658  15.9658

     the Fermi energy is    10.9114 ev

!    total energy              =     -64.21162813 Ry
     estimated scf accuracy    <          2.2E-10 Ry
     smearing contrib. (-TS)   =      -0.00170465 Ry
     internal energy E=F+TS    =     -64.20992348 Ry

     The total energy is F=E-TS. E is the sum of the following terms:
     one-electron contribution =      14.37418669 Ry
     hartree contribution      =       7.08497686 Ry
     xc contribution           =     -22.99651823 Ry
     ewald contribution        =     -62.67256880 Ry

     convergence has been achieved in  13 iterations

     Forces acting on atoms (cartesian axes, Ry/au):

     atom    1 type  1   force =    -0.00000000    0.00000000   -0.01361614
     atom    2 type  1   force =    -0.00000000    0.00000000    0.01361614
     atom    3 type  1   force =    -0.01361614    0.00000000   -0.00000000
     atom    4 type  1   force =     0.01361614   -0.00000000    0.00000000
     atom    5 type  1   force =     0.00000000   -0.01361614   -0.00000000
     atom    6 type  1   force =    -0.00000000    0.01361614    0.00000000
     atom    7 type  2   force =    -0.00000000    0.00000000    0.00000000
     The non-local contrib.  to forces
     atom    1 type  1   force =    -0.00000000   -0.00000000   -0.07244523
     atom    2 type  1   force =    -0.00000000    0.00000000    0.07244523
     atom    3 type  1   force =    -0.07244523   -0.00000000    0.00000000
     atom    4 type  1   force =     0.07244523    0.00000000    0.00000000
     atom    5 type  1   force =    -0.00000000   -0.07244523    0.00000000
     atom    6 type  1   force =     0.00000000    0.07244523    0.00000000
     atom    7 type  2   force =     0.00000000    0.00000000   -0.00000000
     The ionic contribution  to forces
     atom    1 type  1   force =    -0.00000000   -0.00000000    1.37855293
     atom    2 type  1   force =    -0.00000000   -0.00000000   -1.37855293
     atom    3 type  1   force =     1.37855293   -0.00000000   -0.00000000
     atom    4 type  1   force =    -1.37855293    0.00000000   -0.00000000
     atom    5 type  1   force =     0.00000000    1.37855293   -0.00000000
     atom    6 type  1   force =    -0.00000000   -1.37855293   -0.00000000
     atom    7 type  2   force =    -0.00000000   -0.00000000   -0.00000000
     The local contribution  to forces
     atom    1 type  1   force =    -0.00000000    0.00000000   -1.32458468
     atom    2 type  1   force =     0.00000000    0.00000000    1.32458468
     atom    3 type  1   force =    -1.32458468    0.00000000    0.00000000
     atom    4 type  1   force =     1.32458468   -0.00000000   -0.00000000
     atom    5 type  1   force =    -0.00000000   -1.32458468    0.00000000
     atom    6 type  1   force =     0.00000000    1.32458468   -0.00000000
     atom    7 type  2   force =    -0.00000000    0.00000000    0.00000000
     The core correction contribution to forces
     atom    1 type  1   force =     0.00000000    0.00000000    0.00486399
     atom    2 type  1   force =     0.00000000    0.00000000   -0.00486399
     atom    3 type  1   force =     0.00486399   -0.00000000   -0.00000000
     atom    4 type  1   force =    -0.00486399    0.00000000    0.00000000
[...]


     Computing stress (Cartesian axis) and pressure

          total   stress  (Ry/bohr**3)                   (kbar)     P=      499.92
   0.00339837   0.00000000  -0.00000000          499.92        0.00       -0.00
   0.00000000   0.00339837   0.00000000            0.00      499.92        0.00
  -0.00000000   0.00000000   0.00339837           -0.00        0.00      499.92

     Energy error            =      1.9E-05 Ry
     Gradient error          =      8.5E-05 Ry/Bohr
     Cell gradient error     =      8.2E-02 kbar
ibrav =      3
 celldm(1) =     10.59332257
Input lattice vectors:
     0.38593579     0.38593579     0.38593579
    -0.38593579     0.38593579     0.38593579
    -0.38593579    -0.38593579     0.38593579
New lattice vectors in INITIAL alat:
     0.38593579     0.38593579     0.38593579
    -0.38593579     0.38593579     0.38593579
    -0.38593579    -0.38593579     0.38593579
New lattice vectors in NEW alat (for information only):
     0.50000000     0.50000000     0.50000000
    -0.50000000     0.50000000     0.50000000
    -0.50000000    -0.50000000     0.50000000
Discrepancy in bohr =     0.000000    0.000000    0.000000

     bfgs converged in   8 scf cycles and   7 bfgs steps
     (criteria: energy <  1.0E-04 Ry, force <  1.0E-03 Ry/Bohr, cell <  1.0E+00 kbar)

     End of BFGS Geometry Optimization

     Final enthalpy           =     -62.1677976333 Ry

     File ./output/SiLi.bfgs deleted, as requested
Begin final coordinates
     new unit-cell volume =    594.38329 a.u.^3 (    88.07852 Ang^3 )
     density =      3.30782 g/cm^3

CELL_PARAMETERS (alat= 13.72420357)
   0.385935785   0.385935785   0.385935785
  -0.385935785   0.385935785   0.385935785
  -0.385935785  -0.385935785   0.385935785

ATOMIC_POSITIONS (crystal)
Si            0.3203544427       -0.0000000000        0.3203544427
Si            0.6796455573       -0.0000000000        0.6796455573
Si            0.3203544427       -0.3203544427        0.0000000000
Si            0.6796455573       -0.6796455573        0.0000000000
Si           -0.0000000000        0.3203544427       -0.3203544427
Si           -0.0000000000        0.6796455573       -0.6796455573
Li           -0.0000000000        0.0000000000       -0.0000000000
End final coordinates



     Writing config-only to output data dir ./output/SiLi.save/

     Final scf calculation at the relaxed structure.
     The G-vectors are recalculated for the final unit cell
     Results may differ from those at the preceding step.

     Parallelization info
     --------------------
     sticks:   dense  smooth     PW     G-vecs:    dense   smooth      PW
     Min         252     252     71                 7169     7169    1085
     Max         253     253     72                 7171     7171    1087
     Sum        2017    2017    571                57359    57359    8685

     Using Slab Decomposition



     bravais-lattice index     =            3
     lattice parameter (alat)  =      13.7242  a.u.
     unit-cell volume          =     594.3833 (a.u.)^3
     number of atoms/cell      =            7
     number of atomic types    =            2
     number of electrons       =        27.00
     number of Kohn-Sham states=           18
     kinetic-energy cutoff     =      80.0000  Ry
     charge density cutoff     =     320.0000  Ry
     scf convergence threshold =      1.8E-10
     mixing beta               =       0.7000
     number of iterations used =            8  plain     mixing
     press convergence thresh. =      1.0E+00
     Exchange-correlation= PBE
                           (   1   4   3   4   0   0   0)

     celldm(1)=  13.724204  celldm(2)=   0.000000  celldm(3)=   0.000000
     celldm(4)=   0.000000  celldm(5)=   0.000000  celldm(6)=   0.000000

     crystal axes: (cart. coord. in units of alat)
               a(1) = (   0.385936   0.385936   0.385936 )  
               a(2) = (  -0.385936   0.385936   0.385936 )  
               a(3) = (  -0.385936  -0.385936   0.385936 )  

     reciprocal axes: (cart. coord. in units 2 pi/alat)
               b(1) = (  1.295552 -0.000000  1.295552 )  
               b(2) = ( -1.295552  1.295552 -0.000000 )  
               b(3) = (  0.000000 -1.295552  1.295552 )  


     PseudoPot. # 1 for Si read from file:
     ../pseudo/Si_ONCV_PBE_sr.upf
     MD5 check sum: e543d271109d17c80368dfa7c482276d
     Pseudo is Norm-conserving + core correction, Zval =  4.0
     Generated using ONCVPSP code by D. R. Hamann
     Using radial grid of 1510 points,  6 beta functions with: 
                l(1) =   0
                l(2) =   0
                l(3) =   1
                l(4) =   1
                l(5) =   2
                l(6) =   2

     PseudoPot. # 2 for Li read from file:
     ../pseudo/Li_ONCV_PBE_sr.upf
     MD5 check sum: 50ff420e78310ffa21704f3361e624a4
     Pseudo is Norm-conserving, Zval =  3.0
     Generated using ONCVPSP code by D. R. Hamann
     Using radial grid of 1944 points,  4 beta functions with: 
                l(1) =   0
                l(2) =   0
                l(3) =   1
                l(4) =   1

     atomic species   valence    mass     pseudopotential
        Si             4.00    28.08550     Si( 1.00)
        Li             3.00     6.94100     Li( 1.00)

     48 Sym. Ops., with inversion, found



   Cartesian axes

     site n.     atom                  positions (alat units)
         1           Si  tau(   1) = (   0.0000000  -0.0000000   0.2472725  )
         2           Si  tau(   2) = (   0.0000000  -0.0000000   0.5245991  )
         3           Si  tau(   3) = (   0.2472725   0.0000000   0.0000000  )
         4           Si  tau(   4) = (   0.5245991   0.0000000   0.0000000  )
         5           Si  tau(   5) = (   0.0000000   0.2472725  -0.0000000  )
         6           Si  tau(   6) = (   0.0000000   0.5245991  -0.0000000  )
         7           Li  tau(   7) = (  -0.0000000   0.0000000  -0.0000000  )

     number of k points=     8  Marzari-Vanderbilt smearing, width (Ry)=  0.0200
                       cart. coord. in units 2pi/alat
        k(    1) = (   0.0000000   0.0000000   0.0000000), wk =   0.0312500
        k(    2) = (   0.0000000  -0.3238881   0.3238881), wk =   0.3750000
        k(    3) = (  -0.0000000   0.6477762  -0.6477762), wk =   0.1875000
        k(    4) = (  -0.3238881   0.9716642  -0.6477762), wk =   0.7500000
        k(    5) = (   0.0000000  -0.0000000   0.6477762), wk =   0.1875000
        k(    6) = (  -0.0000000   0.9716642  -0.3238881), wk =   0.3750000
        k(    7) = (   0.6477762  -0.6477762   0.6477762), wk =   0.0625000
        k(    8) = (  -0.0000000   0.0000000  -1.2955523), wk =   0.0312500

     Dense  grid:    57359 G-vectors     FFT dimensions: (  54,  54,  54)

     Estimated max dynamical RAM per process >      21.21 MB

     Estimated total dynamical RAM >     169.69 MB

     Initial potential from superposition of free atoms

     starting charge      26.9918, renormalised to      27.0000
     Starting wfcs are   26 randomized atomic wfcs

     total cpu time spent up to now is      101.9 secs

     Self-consistent Calculation

     iteration #  1     ecut=    80.00 Ry     beta= 0.70
     Davidson diagonalization with overlap
     c_bands:  1 eigenvalues not converged
     c_bands:  2 eigenvalues not converged
     c_bands:  3 eigenvalues not converged
     c_bands:  1 eigenvalues not converged
     c_bands:  2 eigenvalues not converged
     c_bands:  1 eigenvalues not converged
     c_bands:  2 eigenvalues not converged
     ethr =  1.00E-06,  avg # of iterations = 20.0

     total cpu time spent up to now is      103.0 secs

     total energy              =     -63.97422917 Ry
     estimated scf accuracy    <       0.58958859 Ry

     iteration #  2     ecut=    80.00 Ry     beta= 0.70
     Davidson diagonalization with overlap
     ethr =  2.18E-03,  avg # of iterations =  2.4

     total cpu time spent up to now is      103.3 secs

     total energy              =     -64.12462243 Ry
     estimated scf accuracy    <       0.31197268 Ry

     iteration #  3     ecut=    80.00 Ry     beta= 0.70
     Davidson diagonalization with overlap
     ethr =  1.16E-03,  avg # of iterations =  2.0

     total cpu time spent up to now is      103.6 secs

     total energy              =     -64.18638653 Ry
     estimated scf accuracy    <       0.00159310 Ry

     iteration #  4     ecut=    80.00 Ry     beta= 0.70
     Davidson diagonalization with overlap
     ethr =  5.90E-06,  avg # of iterations =  7.2

     total cpu time spent up to now is      104.0 secs

     total energy              =     -64.18767929 Ry
     estimated scf accuracy    <       0.00097791 Ry

     iteration #  5     ecut=    80.00 Ry     beta= 0.70
     Davidson diagonalization with overlap
     ethr =  3.62E-06,  avg # of iterations =  2.0

     total cpu time spent up to now is      104.2 secs

     total energy              =     -64.18792381 Ry
     estimated scf accuracy    <       0.00001596 Ry

     iteration #  6     ecut=    80.00 Ry     beta= 0.70
     Davidson diagonalization with overlap
     ethr =  5.91E-08,  avg # of iterations =  5.2

     total cpu time spent up to now is      104.6 secs

     total energy              =     -64.18792800 Ry
     estimated scf accuracy    <       0.00000192 Ry

     iteration #  7     ecut=    80.00 Ry     beta= 0.70
     Davidson diagonalization with overlap
     ethr =  7.12E-09,  avg # of iterations =  3.0

     total cpu time spent up to now is      104.9 secs

     total energy              =     -64.18792880 Ry
     estimated scf accuracy    <       0.00000060 Ry

     iteration #  8     ecut=    80.00 Ry     beta= 0.70
     Davidson diagonalization with overlap
     ethr =  2.21E-09,  avg # of iterations =  2.0

     total cpu time spent up to now is      105.1 secs

     total energy              =     -64.18792893 Ry
     estimated scf accuracy    <          2.3E-10 Ry

     iteration #  9     ecut=    80.00 Ry     beta= 0.70
     Davidson diagonalization with overlap
     ethr =  8.58E-13,  avg # of iterations =  8.0

     total cpu time spent up to now is      105.7 secs

     total energy              =     -64.18792894 Ry
     estimated scf accuracy    <          4.7E-09 Ry

     iteration # 10     ecut=    80.00 Ry     beta= 0.70
     Davidson diagonalization with overlap
     ethr =  8.58E-13,  avg # of iterations =  3.9

     total cpu time spent up to now is      106.0 secs

     total energy              =     -64.18792894 Ry
     estimated scf accuracy    <          2.5E-10 Ry

     iteration # 11     ecut=    80.00 Ry     beta= 0.70
     Davidson diagonalization with overlap
     ethr =  8.58E-13,  avg # of iterations =  2.4

     total cpu time spent up to now is      106.2 secs

     End of self-consistent calculation

          k = 0.0000 0.0000 0.0000 (  7107 PWs)   bands (ev):

   -37.5946  -3.2641   3.2848   3.2848   3.2848   3.3936   3.3936   5.1622
     6.7447   6.7447   6.7447   7.0732   7.0732   7.0732  13.7038  13.7038
    13.9939  13.9940

          k = 0.0000-0.3239 0.3239 (  7169 PWs)   bands (ev):

   -37.5946  -2.7495   1.1858   2.1046   2.7953   3.1754   4.7819   5.2717
     5.5832   6.9101   7.8932   8.5061   9.6084  10.3190  10.4599  11.8407
    14.1523  14.2189

          k =-0.0000 0.6478-0.6478 (  7166 PWs)   bands (ev):

   -37.5945  -1.3712  -1.0598   1.6409   2.4418   2.9101   4.7285   5.7309
     5.8340   7.9380   8.5381  10.2398  10.7370  10.9912  11.9618  12.3674
    13.2216  13.2839

          k =-0.3239 0.9717-0.6478 (  7196 PWs)   bands (ev):

   -37.5945  -1.7351   0.1796   0.3210   1.9168   4.1826   4.6571   5.6705
     6.6477   6.9367   8.9996   9.5701  10.1161  11.1521  11.8948  12.3985
    13.3963  13.5576

          k = 0.0000-0.0000 0.6478 (  7227 PWs)   bands (ev):

   -37.5946  -2.2357   1.1774   1.4492   2.1062   2.1062   4.6670   5.7833
     6.3764   6.3764   8.0264   9.7752  10.5670  11.5410  11.5410  13.0600
    14.5391  14.5741

          k =-0.0000 0.9717-0.3239 (  7190 PWs)   bands (ev):

   -37.5945  -0.8330  -0.6057   0.8461   1.6780   2.8419   3.4497   5.4995
     6.4363   8.2357   9.4384  10.1101  11.4823  11.9022  12.2817  12.8775
    13.6032  14.3245

          k = 0.6478-0.6478 0.6478 (  7200 PWs)   bands (ev):

   -37.5945  -0.3487  -0.3487  -0.3487   0.1241   5.9149   5.9149   5.9149
     8.0432   8.0432   8.0432   9.3028   9.3028  10.0137  10.0137  10.0137
    12.3584  16.0516

          k =-0.0000 0.0000-1.2956 (  7256 PWs)   bands (ev):

   -37.5945   0.4047   0.4352   0.4352   1.2275   1.2275   1.2275   6.9245
     9.0637   9.0637   9.0637   9.7083   9.7083   9.7083  13.9528  14.3963
    14.3963  15.7309

     the Fermi energy is    11.1003 ev

!    total energy              =     -64.18792894 Ry
     estimated scf accuracy    <          6.0E-12 Ry
     smearing contrib. (-TS)   =      -0.00149633 Ry
     internal energy E=F+TS    =     -64.18643261 Ry

     The total energy is F=E-TS. E is the sum of the following terms:
     one-electron contribution =      14.57851542 Ry
     hartree contribution      =       7.13583066 Ry
     xc contribution           =     -23.05332049 Ry
     ewald contribution        =     -62.84745819 Ry

     convergence has been achieved in  11 iterations

     Forces acting on atoms (cartesian axes, Ry/au):

     atom    1 type  1   force =    -0.00000000    0.00000000   -0.00007615
     atom    2 type  1   force =     0.00000000   -0.00000000    0.00007615
     atom    3 type  1   force =    -0.00007615    0.00000000    0.00000000
     atom    4 type  1   force =     0.00007615    0.00000000   -0.00000000
     atom    5 type  1   force =     0.00000000   -0.00007615    0.00000000
     atom    6 type  1   force =     0.00000000    0.00007615   -0.00000000
     atom    7 type  2   force =    -0.00000000   -0.00000000   -0.00000000
     The non-local contrib.  to forces
     atom    1 type  1   force =    -0.00000000    0.00000000   -0.06366613
     atom    2 type  1   force =     0.00000000   -0.00000000    0.06366613
     atom    3 type  1   force =    -0.06366613   -0.00000000    0.00000000
     atom    4 type  1   force =     0.06366613   -0.00000000   -0.00000000
     atom    5 type  1   force =    -0.00000000   -0.06366613   -0.00000000
     atom    6 type  1   force =     0.00000000    0.06366613    0.00000000
     atom    7 type  2   force =    -0.00000000    0.00000000   -0.00000000
     The ionic contribution  to forces
     atom    1 type  1   force =     0.00000000    0.00000000    1.44969211
     atom    2 type  1   force =     0.00000000    0.00000000   -1.44969211
     atom    3 type  1   force =     1.44969211   -0.00000000   -0.00000000
     atom    4 type  1   force =    -1.44969211    0.00000000    0.00000000
     atom    5 type  1   force =    -0.00000000    1.44969211   -0.00000000
     atom    6 type  1   force =     0.00000000   -1.44969211   -0.00000000
     atom    7 type  2   force =    -0.00000000   -0.00000000   -0.00000000
     The local contribution  to forces
     atom    1 type  1   force =    -0.00000000    0.00000000   -1.39020534
     atom    2 type  1   force =    -0.00000000   -0.00000000    1.39020534
     atom    3 type  1   force =    -1.39020534    0.00000000   -0.00000000
     atom    4 type  1   force =     1.39020534    0.00000000   -0.00000000
     atom    5 type  1   force =    -0.00000000   -1.39020534    0.00000000
     atom    6 type  1   force =     0.00000000    1.39020534   -0.00000000
     atom    7 type  2   force =    -0.00000000    0.00000000    0.00000000
     The core correction contribution to forces
     atom    1 type  1   force =     0.00000000   -0.00000000    0.00410169
     atom    2 type  1   force =    -0.00000000   -0.00000000   -0.00410169
     atom    3 type  1   force =     0.00410169   -0.00000000   -0.00000000
     atom    4 type  1   force =    -0.00410169   -0.00000000    0.00000000
     atom    5 type  1   force =     0.00000000    0.00410169    0.00000000
     atom    6 type  1   force =    -0.00000000   -0.00410169   -0.00000000
     atom    7 type  2   force =     0.00000000    0.00000000    0.00000000
     The Hubbard contrib.    to forces
     atom    1 type  1   force =     0.00000000    0.00000000    0.00000000
     atom    2 type  1   force =     0.00000000    0.00000000    0.00000000
     atom    3 type  1   force =     0.00000000    0.00000000    0.00000000
     atom    4 type  1   force =     0.00000000    0.00000000    0.00000000
     atom    5 type  1   force =     0.00000000    0.00000000    0.00000000
     atom    6 type  1   force =     0.00000000    0.00000000    0.00000000
     atom    7 type  2   force =     0.00000000    0.00000000    0.00000000
     The SCF correction term to forces
     atom    1 type  1   force =    -0.00000000    0.00000000    0.00000151
     atom    2 type  1   force =     0.00000000   -0.00000000   -0.00000151
     atom    3 type  1   force =     0.00000151   -0.00000000   -0.00000000
     atom    4 type  1   force =    -0.00000151   -0.00000000    0.00000000
     atom    5 type  1   force =     0.00000000    0.00000151    0.00000000
     atom    6 type  1   force =    -0.00000000   -0.00000151   -0.00000000
     atom    7 type  2   force =    -0.00000000   -0.00000000    0.00000000

     Total force =     0.000187     Total SCF correction =     0.000004


     Computing stress (Cartesian axis) and pressure

          total   stress  (Ry/bohr**3)                   (kbar)     P=      499.91
   0.00339830   0.00000000  -0.00000000          499.91        0.00       -0.00
   0.00000000   0.00339830   0.00000000            0.00      499.91        0.00
  -0.00000000   0.00000000   0.00339830           -0.00        0.00      499.91


     Writing all to output data dir ./output/SiLi.save/

     init_run     :      2.33s CPU      2.73s WALL (       2 calls)
     electrons    :     62.02s CPU     68.61s WALL (       9 calls)
     update_pot   :      8.83s CPU      8.93s WALL (       7 calls)
     forces       :      5.95s CPU      6.04s WALL (       9 calls)
     stress       :     19.87s CPU     21.11s WALL (       9 calls)

     Called by init_run:
     wfcinit      :      0.39s CPU      0.51s WALL (       2 calls)
     potinit      :      0.86s CPU      1.01s WALL (       2 calls)
     hinit0       :      0.90s CPU      0.97s WALL (       2 calls)

     Called by electrons:
     c_bands      :     53.26s CPU     58.18s WALL (     108 calls)
     sum_band     :      6.07s CPU      6.98s WALL (     108 calls)
     v_of_rho     :      2.64s CPU      3.31s WALL (     115 calls)
     mix_rho      :      0.22s CPU      0.29s WALL (     108 calls)

     Called by c_bands:
     init_us_2    :      1.19s CPU      1.31s WALL (    1888 calls)
     init_us_2:cp :      1.19s CPU      1.30s WALL (    1888 calls)
     cegterg      :     48.83s CPU     53.30s WALL (     864 calls)

     Called by *egterg:
     cdiaghg      :      1.42s CPU      1.46s WALL (    4041 calls)
     h_psi        :     42.00s CPU     46.44s WALL (    4129 calls)
     g_psi        :      0.21s CPU      0.22s WALL (    3249 calls)

     Called by h_psi:
     h_psi:calbec :      4.37s CPU      4.56s WALL (    4129 calls)
     vloc_psi     :     33.53s CPU     37.69s WALL (    4129 calls)
     add_vuspsi   :      3.98s CPU      4.05s WALL (    4129 calls)

     General routines
     calbec       :      4.97s CPU      5.18s WALL (    4489 calls)
     fft          :      1.68s CPU      2.46s WALL (    1375 calls)
     ffts         :      0.07s CPU      0.14s WALL (     108 calls)
     fftw         :     33.77s CPU     38.03s WALL (  116820 calls)

     Parallel routines

     PWSCF        :   1m39.21s CPU   1m47.81s WALL


   This run was terminated on:   3:44:13  30Dec2024            

=------------------------------------------------------------------------------=
   JOB DONE.
=------------------------------------------------------------------------------=
