
     Program PWSCF v.7.2 starts on 30Dec2024 at  4:18:39 

     This program is part of the open-source Quantum ESPRESSO suite
     for quantum simulation of materials; please cite
         "P. Giannozzi et al., J. Phys.:Condens. Matter 21 395502 (2009);
         "P. Giannozzi et al., J. Phys.:Condens. Matter 29 465901 (2017);
         "P. Giannozzi et al., J. Chem. Phys. 152 154105 (2020);
          URL http://www.quantum-espresso.org", 
     in publications or presentations arising from this work. More details at
     http://www.quantum-espresso.org/quote

     Parallel version (MPI & OpenMP), running on       8 processor cores
     Number of MPI processes:                 8
     Threads/MPI process:                     1

     MPI processes distributed on     1 nodes
     488951 MiB available memory on the printing compute node when the environment starts

     Waiting for input...
     Reading input from standard input

     Current dimensions of program PWSCF are:
     Max number of different atomic species (ntypx) = 10
     Max number of k-points (npk) =  40000
     Max angular momentum in pseudopotentials (lmaxx) =  4

     R & G space division:  proc/nbgrp/npool/nimage =       8
     Subspace diagonalization in iterative solution of the eigenvalue problem:
     a serial algorithm will be used


     Parallelization info
     --------------------
     sticks:   dense  smooth     PW     G-vecs:    dense   smooth      PW
     Min         123     123     36                10311    10311    1596
     Max         124     124     37                10322    10322    1603
     Sum         989     989    293                82529    82529   12783

     Using Slab Decomposition



     bravais-lattice index     =            6
     lattice parameter (alat)  =       6.2443  a.u.
     unit-cell volume          =     854.9047 (a.u.)^3
     number of atoms/cell      =           14
     number of atomic types    =            2
     number of electrons       =        54.00
     number of Kohn-Sham states=           32
     kinetic-energy cutoff     =      80.0000  Ry
     charge density cutoff     =     320.0000  Ry
     scf convergence threshold =      1.0E-08
     mixing beta               =       0.7000
     number of iterations used =            8  plain     mixing
     energy convergence thresh.=      1.0E-04
     force convergence thresh. =      1.0E-03
     press convergence thresh. =      1.0E+00
     Exchange-correlation= PBE
                           (   1   4   3   4   0   0   0)
     nstep                     =           50


     celldm(1)=   6.244267  celldm(2)=   0.000000  celldm(3)=   3.511344
     celldm(4)=   0.000000  celldm(5)=   0.000000  celldm(6)=   0.000000

     crystal axes: (cart. coord. in units of alat)
               a(1) = (   1.000000   0.000000   0.000000 )  
               a(2) = (   0.000000   1.000000   0.000000 )  
               a(3) = (   0.000000   0.000000   3.511344 )  

     reciprocal axes: (cart. coord. in units 2 pi/alat)
               b(1) = (  1.000000  0.000000  0.000000 )  
               b(2) = (  0.000000  1.000000  0.000000 )  
               b(3) = (  0.000000  0.000000  0.284791 )  


     PseudoPot. # 1 for Si read from file:
     ../pseudo/Si_ONCV_PBE_sr.upf
     MD5 check sum: e543d271109d17c80368dfa7c482276d
     Pseudo is Norm-conserving + core correction, Zval =  4.0
     Generated using ONCVPSP code by D. R. Hamann
     Using radial grid of 1510 points,  6 beta functions with: 
                l(1) =   0
                l(2) =   0
                l(3) =   1
                l(4) =   1
                l(5) =   2
                l(6) =   2

     PseudoPot. # 2 for Li read from file:
     ../pseudo/Li_ONCV_PBE_sr.upf
     MD5 check sum: 50ff420e78310ffa21704f3361e624a4
     Pseudo is Norm-conserving, Zval =  3.0
     Generated using ONCVPSP code by D. R. Hamann
     Using radial grid of 1944 points,  4 beta functions with: 
                l(1) =   0
                l(2) =   0
                l(3) =   1
                l(4) =   1

     atomic species   valence    mass     pseudopotential
        Si             4.00    28.08550     Si( 1.00)
        Li             3.00     6.94100     Li( 1.00)

     16 Sym. Ops., with inversion, found ( 8 have fractional translation)



   Cartesian axes

     site n.     atom                  positions (alat units)
         1           Si  tau(   1) = (   0.0000000   0.0000000   0.7118863  )
         2           Si  tau(   2) = (   0.5000000   0.5000000   0.7118863  )
         3           Si  tau(   3) = (   0.5000000   0.5000000   2.7994575  )
         4           Si  tau(   4) = (   0.0000000   0.0000000   2.7994575  )
         5           Si  tau(   5) = (   0.0000000   0.0000000   0.0000000  )
         6           Si  tau(   6) = (   0.5000000   0.5000000   0.0000000  )
         7           Si  tau(   7) = (   0.0000000   0.0000000   1.7556719  )
         8           Si  tau(   8) = (   0.5000000   0.5000000   1.7556719  )
         9           Si  tau(   9) = (   0.0000000   0.5000000   1.2299500  )
        10           Si  tau(  10) = (   0.5000000   0.0000000   2.2813938  )
        11           Si  tau(  11) = (   0.0000000   0.5000000   2.2493914  )
        12           Si  tau(  12) = (   0.5000000   0.0000000   1.2619524  )
        13           Li  tau(  13) = (   0.0000000   0.5000000   3.1644968  )
        14           Li  tau(  14) = (   0.5000000   0.0000000   0.3468470  )

     number of k points=    30  Marzari-Vanderbilt smearing, width (Ry)=  0.0200
                       cart. coord. in units 2pi/alat
        k(    1) = (   0.0000000   0.0000000   0.0000000), wk =   0.0123457
        k(    2) = (   0.0000000   0.0000000  -0.1423956), wk =   0.0123457
        k(    3) = (   0.0000000   0.1111111   0.0000000), wk =   0.0493827
        k(    4) = (   0.0000000   0.1111111  -0.1423956), wk =   0.0493827
        k(    5) = (   0.0000000   0.2222222   0.0000000), wk =   0.0493827
        k(    6) = (   0.0000000   0.2222222  -0.1423956), wk =   0.0493827
        k(    7) = (   0.0000000   0.3333333   0.0000000), wk =   0.0493827
        k(    8) = (   0.0000000   0.3333333  -0.1423956), wk =   0.0493827
        k(    9) = (   0.0000000   0.4444444   0.0000000), wk =   0.0493827
        k(   10) = (   0.0000000   0.4444444  -0.1423956), wk =   0.0493827
        k(   11) = (   0.1111111   0.1111111   0.0000000), wk =   0.0493827
        k(   12) = (   0.1111111   0.1111111  -0.1423956), wk =   0.0493827
        k(   13) = (   0.1111111   0.2222222   0.0000000), wk =   0.0987654
        k(   14) = (   0.1111111   0.2222222  -0.1423956), wk =   0.0987654
        k(   15) = (   0.1111111   0.3333333   0.0000000), wk =   0.0987654
        k(   16) = (   0.1111111   0.3333333  -0.1423956), wk =   0.0987654
        k(   17) = (   0.1111111   0.4444444   0.0000000), wk =   0.0987654
        k(   18) = (   0.1111111   0.4444444  -0.1423956), wk =   0.0987654
        k(   19) = (   0.2222222   0.2222222   0.0000000), wk =   0.0493827
        k(   20) = (   0.2222222   0.2222222  -0.1423956), wk =   0.0493827
        k(   21) = (   0.2222222   0.3333333   0.0000000), wk =   0.0987654
        k(   22) = (   0.2222222   0.3333333  -0.1423956), wk =   0.0987654
        k(   23) = (   0.2222222   0.4444444   0.0000000), wk =   0.0987654
        k(   24) = (   0.2222222   0.4444444  -0.1423956), wk =   0.0987654
        k(   25) = (   0.3333333   0.3333333   0.0000000), wk =   0.0493827
        k(   26) = (   0.3333333   0.3333333  -0.1423956), wk =   0.0493827
        k(   27) = (   0.3333333   0.4444444   0.0000000), wk =   0.0987654
        k(   28) = (   0.3333333   0.4444444  -0.1423956), wk =   0.0987654
        k(   29) = (   0.4444444   0.4444444   0.0000000), wk =   0.0493827
        k(   30) = (   0.4444444   0.4444444  -0.1423956), wk =   0.0493827

     Dense  grid:    82529 G-vectors     FFT dimensions: (  36,  36, 125)

     Estimated max dynamical RAM per process >      44.45 MB

     Estimated total dynamical RAM >     355.62 MB

     Initial potential from superposition of free atoms

     starting charge      53.9835, renormalised to      54.0000
     Starting wfcs are   52 randomized atomic wfcs

     total cpu time spent up to now is        3.4 secs

     Self-consistent Calculation

     iteration #  1     ecut=    80.00 Ry     beta= 0.70
     Davidson diagonalization with overlap
     ethr =  1.00E-02,  avg # of iterations =  5.1

     total cpu time spent up to now is        7.1 secs

     total energy              =    -126.57410013 Ry
     estimated scf accuracy    <       2.62838890 Ry

     iteration #  2     ecut=    80.00 Ry     beta= 0.70
     Davidson diagonalization with overlap
     ethr =  4.87E-03,  avg # of iterations = 11.6

     total cpu time spent up to now is       13.8 secs

     total energy              =    -114.10986321 Ry
     estimated scf accuracy    <     317.32301366 Ry

     iteration #  3     ecut=    80.00 Ry     beta= 0.70
     Davidson diagonalization with overlap
     ethr =  4.87E-03,  avg # of iterations =  8.2

     total cpu time spent up to now is       19.6 secs

     total energy              =    -128.52082563 Ry
     estimated scf accuracy    <       1.03105727 Ry

     iteration #  4     ecut=    80.00 Ry     beta= 0.70
     Davidson diagonalization with overlap
     ethr =  1.91E-03,  avg # of iterations =  3.1

     total cpu time spent up to now is       22.6 secs

     total energy              =    -128.70070662 Ry
     estimated scf accuracy    <       0.00838886 Ry

     iteration #  5     ecut=    80.00 Ry     beta= 0.70
     Davidson diagonalization with overlap
     c_bands:  1 eigenvalues not converged
     c_bands:  1 eigenvalues not converged
     ethr =  1.55E-05,  avg # of iterations = 12.3

     total cpu time spent up to now is       28.3 secs

     total energy              =    -128.70577304 Ry
     estimated scf accuracy    <       0.01547075 Ry

     iteration #  6     ecut=    80.00 Ry     beta= 0.70
     Davidson diagonalization with overlap
     ethr =  1.55E-05,  avg # of iterations =  2.1

     total cpu time spent up to now is       31.2 secs

     total energy              =    -128.70676406 Ry
     estimated scf accuracy    <       0.00094142 Ry

     iteration #  7     ecut=    80.00 Ry     beta= 0.70
     Davidson diagonalization with overlap
     c_bands:  1 eigenvalues not converged
     ethr =  1.74E-06,  avg # of iterations =  6.1

     total cpu time spent up to now is       34.7 secs

     total energy              =    -128.70694904 Ry
     estimated scf accuracy    <       0.00005575 Ry

     iteration #  8     ecut=    80.00 Ry     beta= 0.70
     Davidson diagonalization with overlap
     ethr =  1.03E-07,  avg # of iterations =  3.8

     total cpu time spent up to now is       37.8 secs

     total energy              =    -128.70696017 Ry
     estimated scf accuracy    <       0.00001479 Ry

     iteration #  9     ecut=    80.00 Ry     beta= 0.70
     Davidson diagonalization with overlap
     ethr =  2.74E-08,  avg # of iterations =  2.6

     total cpu time spent up to now is       40.3 secs

     total energy              =    -128.70696092 Ry
     estimated scf accuracy    <       0.00000256 Ry

     iteration # 10     ecut=    80.00 Ry     beta= 0.70
     Davidson diagonalization with overlap
     ethr =  4.74E-09,  avg # of iterations =  4.0

     total cpu time spent up to now is       43.5 secs

     total energy              =    -128.70696135 Ry
     estimated scf accuracy    <       0.00000022 Ry

     iteration # 11     ecut=    80.00 Ry     beta= 0.70
     Davidson diagonalization with overlap
     ethr =  4.09E-10,  avg # of iterations =  3.6

     total cpu time spent up to now is       46.7 secs

     End of self-consistent calculation

          k = 0.0000 0.0000 0.0000 ( 10271 PWs)   bands (ev):

   -30.1314 -30.1159  -2.4065  -0.9098   0.7081   2.7852   3.3795   7.9924
     8.1914   9.1873   9.1873  10.5187  10.5187  11.2565  11.2565  11.6233
    11.6273  12.5424  13.2338  13.4874  13.4874  13.6831  13.9929  13.9929
    14.1637  14.8962  14.9551  15.0404  17.2724  18.0350  18.3888  18.6161

          k = 0.0000 0.0000-0.1424 ( 10334 PWs)   bands (ev):

   -30.1314 -30.1159  -2.4034  -0.9444   0.9450   2.0194   4.4281   6.2634
     9.2029   9.2029  10.3401  10.3401  10.4209  11.6519  11.6675  11.9463
    12.0136  12.0136  12.1810  12.1810  12.3486  13.5937  13.6897  14.3821
    14.6643  15.4697  15.4697  16.5137  16.5137  17.7234  17.7335  18.1487

          k = 0.0000 0.1111 0.0000 ( 10307 PWs)   bands (ev):

   -30.1301 -30.1155  -2.2438  -0.7496   0.8566   2.9265   3.5242   7.5464
     8.1429   8.2710   8.9210   9.3342   9.8605  10.6659  11.4032  11.6655
    12.0092  12.3644  13.2296  13.4725  13.6335  14.1360  14.3907  14.7477
    14.8482  15.1882  15.5112  15.7129  17.3002  17.8108  18.4014  18.4992

          k = 0.0000 0.1111-0.1424 ( 10304 PWs)   bands (ev):

   -30.1301 -30.1155  -2.2406  -0.7852   1.0999   2.1531   4.5839   6.3782
     7.5588   8.7812   9.3498  10.4618  10.4873  10.5682  10.6910  11.8768
    12.0884  12.1601  12.3272  12.9119  13.5035  14.0608  14.1309  14.7541
    15.1743  15.6000  15.6146  16.4423  16.6376  18.0353  18.6194  18.6547

          k = 0.0000 0.2222 0.0000 ( 10346 PWs)   bands (ev):

   -30.1266 -30.1147  -1.7568  -0.2699   1.3003   3.3485   3.9508   5.3435
     6.7530   7.6897   8.6018   8.8031   9.7752   9.9086  10.4605  11.1075
    11.8425  12.2294  13.3737  14.0706  14.5570  14.7326  14.7682  15.0362
    15.3907  15.7800  16.4097  16.7656  17.1345  17.7142  17.7824  18.2773

          k = 0.0000 0.2222-0.1424 ( 10334 PWs)   bands (ev):

   -30.1266 -30.1147  -1.7534  -0.3086   1.5628   2.5523   5.0489   5.3517
     6.4885   6.8597   8.4042   8.8597   9.7907  10.9289  10.9803  11.7061
    12.0730  12.4601  12.5981  12.7644  12.8213  14.0233  15.5367  15.6097
    16.0350  16.4546  16.7817  16.8530  17.6013  17.8724  17.9502  18.0308

          k = 0.0000 0.3333 0.0000 ( 10310 PWs)   bands (ev):

   -30.1221 -30.1144  -0.9488   0.5253   2.0311   3.3311   4.0256   4.6298
     4.8113   6.0214   7.9565   8.6889   9.3462   9.4943  10.5109  11.8428
    12.4566  12.5490  12.5698  14.0275  14.4951  14.7823  14.8340  15.1773
    15.5907  15.6922  15.8934  16.0568  16.7939  17.8013  18.1368  18.4177

          k = 0.0000 0.3333-0.1424 ( 10314 PWs)   bands (ev):

   -30.1221 -30.1144  -0.9449   0.4815   2.3252   3.1631   3.3966   4.6758
     5.7972   6.5389   6.6422   7.8727   9.9204  10.5263  10.9459  11.6643
    11.6729  12.9622  13.0764  13.3194  13.4839  14.5162  14.6258  15.1457
    15.6236  16.0526  16.7836  17.2442  17.4254  17.6551  17.7916  17.8059

          k = 0.0000 0.4444 0.0000 ( 10300 PWs)   bands (ev):

   -30.1180 -30.1153   0.1749   1.5949   1.6396   2.8808   3.2226   4.3217
     5.0344   5.6437   6.5921   7.1809  10.2858  10.3517  11.3517  11.5421
    11.5603  12.8166  12.9237  13.5451  14.2516  14.3970  14.8246  15.2296
    15.5964  15.8474  16.0340  16.5450  16.7258  17.2359  17.3289  17.8564

          k = 0.0000 0.4444-0.1424 ( 10320 PWs)   bands (ev):

   -30.1180 -30.1153   0.1793   1.5658   1.6233   2.9376   3.4287   4.0504
     4.9482   5.4225   6.9160   8.2078   8.6223   9.6462  11.5573  12.5617
    12.6767  12.9022  13.2924  13.7148  13.9456  14.1128  14.3900  14.4372
    15.6358  15.8724  15.9468  16.0607  16.5201  16.7570  17.8035  18.0158

          k = 0.1111 0.1111 0.0000 ( 10315 PWs)   bands (ev):

   -30.1288 -30.1151  -2.0813  -0.5895   1.0049   3.0680   3.6691   7.6841
     7.7003   8.2925   8.3701   8.9034   9.2565   9.6623  10.3228  12.1419
    12.1985  12.2121  13.1146  13.6926  13.7262  14.6915  14.8994  14.9593
    15.4169  15.5700  16.1424  16.5485  17.1951  17.5049  17.7392  17.9006

          k = 0.1111 0.1111-0.1424 ( 10280 PWs)   bands (ev):

   -30.1288 -30.1151  -2.0780  -0.6261   1.2548   2.2869   4.7395   6.4969
     7.7053   7.7071   8.7071   9.1657  10.3821  10.5707  10.6970  10.7163
    11.4854  12.3169  13.6176  13.7281  13.8389  14.0801  14.2846  14.8602
    15.5742  15.8025  15.9183  16.8399  17.1222  17.1234  18.0374  18.2578

          k = 0.1111 0.2222 0.0000 ( 10337 PWs)   bands (ev):

   -30.1254 -30.1143  -1.5949  -0.1103   1.4478   3.4905   4.0968   5.4953
     6.8967   7.7565   8.2040   8.7447   8.8763   9.5362   9.7218  10.5457
    11.0457  12.6543  13.0502  13.9894  14.4575  14.7883  14.9751  15.8090
    15.8167  15.9105  16.4914  16.5447  17.0690  17.1815  17.7786  17.9883

          k = 0.1111 0.2222-0.1424 ( 10308 PWs)   bands (ev):

   -30.1254 -30.1143  -1.5913  -0.1502   1.7174   2.6865   5.2039   5.5043
     6.6360   6.9738   8.1027   8.6160   8.8098   9.4715  10.9697  11.1398
    11.6273  12.0540  12.5805  12.8142  14.2503  14.5978  15.1183  15.5955
    15.6184  16.2204  16.6867  16.7738  17.2974  17.7757  18.0915  18.1247

          k = 0.1111 0.3333 0.0000 ( 10297 PWs)   bands (ev):

   -30.1211 -30.1138  -0.7877   0.6843   2.1773   3.4871   4.1705   4.7790
     4.9596   6.1383   8.0636   8.7962   8.9133   9.4718   9.5077  10.2680
    11.4679  12.6062  12.9932  13.0058  13.7588  14.2883  14.3614  15.1153
    15.3140  16.1439  16.3840  16.4755  17.2884  17.6134  18.3719  18.5523

          k = 0.1111 0.3333-0.1424 ( 10308 PWs)   bands (ev):

   -30.1211 -30.1138  -0.7837   0.6390   2.4797   3.3042   3.5458   4.8242
     5.9510   6.6747   6.7788   7.9158   8.9180   9.7858  10.5539  10.8467
    11.8067  12.1937  12.2601  12.5396  13.7309  14.1805  14.7671  15.2638
    15.7708  16.0955  16.0994  16.4383  16.5789  17.4923  18.7009  19.0616

          k = 0.1111 0.4444 0.0000 ( 10317 PWs)   bands (ev):

   -30.1172 -30.1146   0.3347   1.7536   1.7970   3.0349   3.3680   4.4626
     5.1762   5.7894   6.7047   7.3017   9.9043  10.3080  10.3568  10.9998
    11.5101  11.7982  11.8094  12.5307  12.7594  13.6481  14.5321  15.2124
    15.6915  15.9515  16.2472  16.7778  17.1207  17.1661  18.1275  18.5444

          k = 0.1111 0.4444-0.1424 ( 10322 PWs)   bands (ev):

   -30.1172 -30.1146   0.3393   1.7228   1.7806   3.0928   3.5808   4.1917
     5.0841   5.5455   7.0647   8.3418   8.6859   9.6062  10.0608  11.2324
    11.3310  12.4974  12.7285  12.9870  13.0332  13.6172  14.6049  14.8178
    14.8869  14.9992  16.4603  16.9046  17.2746  17.7639  17.9022  17.9218

          k = 0.2222 0.2222 0.0000 ( 10333 PWs)   bands (ev):

   -30.1223 -30.1132  -1.1101   0.3676   1.8881   3.9147   4.5287   5.9299
     5.9601   7.1332   7.5958   7.8787   8.5335   9.1831   9.2780  10.3818
    10.6316  11.1527  11.7449  12.7657  13.9545  14.5797  14.8423  15.3971
    15.9501  16.2747  16.3739  16.9991  17.4509  17.5272  17.6211  18.1147

          k = 0.2222 0.2222-0.1424 ( 10328 PWs)   bands (ev):

   -30.1223 -30.1132  -1.1062   0.3240   2.1795   3.0866   5.6658   5.9568
     5.9610   6.9207   7.1270   7.6191   8.5819   8.9336   9.0180  10.6057
    11.5133  12.2461  12.2977  12.5026  12.7973  13.6511  13.9864  14.9473
    15.9242  16.1274  17.0261  17.2850  17.7341  18.1968  18.2276  19.0009

          k = 0.2222 0.3333 0.0000 ( 10332 PWs)   bands (ev):

   -30.1184 -30.1124  -0.3056   1.1599   2.6132   3.9530   4.6013   5.2224
     5.3995   6.3553   6.8487   8.1246   8.2120   9.1016   9.3501   9.7723
    10.2499  11.0365  11.4663  11.7250  12.2787  13.2776  13.7663  14.1868
    15.2855  15.6856  16.7528  16.9162  17.3051  17.4953  18.0168  19.1256

          k = 0.2222 0.3333-0.1424 ( 10342 PWs)   bands (ev):

   -30.1184 -30.1124  -0.3011   1.1099   2.9412   3.7195   3.9964   5.2574
     6.4039   6.6565   7.1324   7.1957   7.8274   8.2575   9.5621  10.6504
    10.6933  10.8195  11.5854  11.9768  12.2663  13.1843  13.4237  14.5559
    14.5961  14.9417  16.4640  17.2895  17.3648  18.6612  18.9042  18.9988

          k = 0.2222 0.4444 0.0000 ( 10333 PWs)   bands (ev):

   -30.1149 -30.1128   0.8130   2.2286   2.2678   3.4926   3.8016   4.8730
     5.5940   6.2183   7.0134   7.6505   7.8003   9.0743   9.1521  10.0448
    10.4977  10.9949  11.1746  11.4581  11.9679  11.9684  13.1331  13.6156
    13.9510  14.5932  17.3470  17.5252  17.9701  17.9747  18.4910  19.0542

          k = 0.2222 0.4444-0.1424 ( 10338 PWs)   bands (ev):

   -30.1149 -30.1128   0.8182   2.1919   2.2516   3.5554   4.0344   4.6070
     5.4866   5.8929   7.4975   7.8031   8.5971   8.6939   9.2284   9.5652
     9.6834  10.5497  11.2623  11.4468  12.2415  12.2643  13.8886  14.1762
    14.6395  15.1500  15.2826  15.7828  17.1360  17.6755  19.5493  19.9271

          k = 0.3333 0.3333 0.0000 ( 10354 PWs)   bands (ev):

   -30.1150 -30.1112   0.4944   1.9486   3.3285   4.7071   4.7328   5.2999
     5.9145   5.9418   6.4263   6.6344   7.6632   8.7943   9.1740   9.4634
     9.6112  10.1117  10.5375  10.8465  10.9945  11.6593  13.4673  13.6350
    14.3202  14.8670  15.1544  16.2077  17.3394  18.0718  18.9148  19.5418

          k = 0.3333 0.3333-0.1424 ( 10400 PWs)   bands (ev):

   -30.1150 -30.1112   0.4995   1.8900   3.7026   4.3776   4.7363   4.7644
     5.6880   6.3697   7.1431   7.3535   7.8089   7.8123   8.1769   8.9298
     9.9270  10.2901  11.1141  11.3419  11.6684  11.9467  12.0266  13.6512
    14.2369  14.4885  15.5398  17.0694  17.3821  17.6381  17.9784  19.7738

          k = 0.3333 0.4444 0.0000 ( 10360 PWs)   bands (ev):

   -30.1122 -30.1109   1.6064   3.0157   3.0475   4.2334   4.5139   5.4147
     5.9235   6.2488   6.9313   7.2064   7.2365   7.3131   8.1926   8.5519
     9.1111   9.9924  10.5400  10.8282  10.9899  11.4268  12.5679  13.0756
    13.2698  13.4820  16.0238  16.4217  17.0939  17.3610  18.8829  19.2107

          k = 0.3333 0.4444-0.1424 ( 10366 PWs)   bands (ev):

   -30.1122 -30.1109   1.6126   2.9655   3.0334   4.3091   4.7765   5.2588
     5.7347   6.2855   6.3246   7.1864   7.2610   7.9955   8.6416   8.9547
     8.9728   9.7320   9.9221  10.5668  10.8969  11.0677  12.4725  13.6464
    14.3241  14.5691  14.5785  15.6687  17.0483  17.4184  18.2597  19.4415

          k = 0.4444 0.4444 0.0000 ( 10362 PWs)   bands (ev):

   -30.1103 -30.1098   2.7080   4.0870   4.1171   4.1267   5.0963   5.2990
     5.6110   5.8171   6.0016   6.8703   6.9786   7.1262   7.8253   8.5641
     8.7587   8.8591   9.4769   9.8894  10.5953  10.6205  12.7802  12.8876
    13.2052  14.3201  14.6292  15.7707  15.9430  16.2552  19.8406  19.8685

          k = 0.4444 0.4444-0.1424 ( 10390 PWs)   bands (ev):

   -30.1103 -30.1098   2.7165   4.0204   4.1174   4.1206   5.0641   5.4216
     5.7210   5.9646   6.0033   6.7340   6.8800   7.1884   7.2035   8.3516
     9.0274   9.4809   9.6224  10.4236  10.7095  10.7488  11.0803  12.1667
    13.8666  14.0976  15.3705  16.5516  16.5992  17.3875  17.6142  17.8798

     the Fermi energy is    16.4168 ev

!    total energy              =    -128.70696139 Ry
     estimated scf accuracy    <          7.5E-09 Ry
     smearing contrib. (-TS)   =       0.00003766 Ry
     internal energy E=F+TS    =    -128.70699906 Ry

     The total energy is F=E-TS. E is the sum of the following terms:
     one-electron contribution =      64.25915174 Ry
     hartree contribution      =       7.23896526 Ry
     xc contribution           =     -48.65931906 Ry
     ewald contribution        =    -151.54579700 Ry

     convergence has been achieved in  11 iterations

     Forces acting on atoms (cartesian axes, Ry/au):

     atom    1 type  1   force =     0.00000000    0.00000000    0.03409506
     atom    2 type  1   force =     0.00000000    0.00000000    0.03409506
     atom    3 type  1   force =     0.00000000    0.00000000   -0.03409506
     atom    4 type  1   force =     0.00000000    0.00000000   -0.03409506
     atom    5 type  1   force =     0.00000000    0.00000000    0.00000000
     atom    6 type  1   force =     0.00000000    0.00000000    0.00000000
     atom    7 type  1   force =     0.00000000    0.00000000    0.00000000
     atom    8 type  1   force =     0.00000000    0.00000000   -0.00000000
     atom    9 type  1   force =     0.00000000    0.00000000   -0.00993600
     atom   10 type  1   force =     0.00000000    0.00000000    0.00993600
     atom   11 type  1   force =     0.00000000    0.00000000    0.04059305
     atom   12 type  1   force =     0.00000000    0.00000000   -0.04059305
     atom   13 type  2   force =     0.00000000    0.00000000   -0.01073039
     atom   14 type  2   force =     0.00000000    0.00000000    0.01073039
     The non-local contrib.  to forces
     atom    1 type  1   force =     0.00000000    0.00000000    0.11276190
     atom    2 type  1   force =     0.00000000    0.00000000    0.11276190
     atom    3 type  1   force =     0.00000000    0.00000000   -0.11276190
     atom    4 type  1   force =     0.00000000    0.00000000   -0.11276190
     atom    5 type  1   force =     0.00000000    0.00000000    0.00000000
     atom    6 type  1   force =     0.00000000    0.00000000   -0.00000000
     atom    7 type  1   force =     0.00000000    0.00000000    0.00000000
     atom    8 type  1   force =     0.00000000    0.00000000    0.00000000
     atom    9 type  1   force =     0.00000000    0.00000000   -0.00025184
     atom   10 type  1   force =     0.00000000    0.00000000    0.00025184
     atom   11 type  1   force =     0.00000000    0.00000000    0.03919997
     atom   12 type  1   force =     0.00000000    0.00000000   -0.03919997
     atom   13 type  2   force =     0.00000000    0.00000000    0.00711940
     atom   14 type  2   force =     0.00000000    0.00000000   -0.00711940
     The ionic contribution  to forces
     atom    1 type  1   force =    -0.00000000    0.00000000    0.07544768
     atom    2 type  1   force =     0.00000000    0.00000000    0.07544768
     atom    3 type  1   force =     0.00000000    0.00000000   -0.07544768
     atom    4 type  1   force =    -0.00000000   -0.00000000   -0.07544768
     atom    5 type  1   force =     0.00000000    0.00000000   -0.00000000
     atom    6 type  1   force =     0.00000000    0.00000000   -0.00000000
     atom    7 type  1   force =    -0.00000000   -0.00000000    0.00000000
     atom    8 type  1   force =     0.00000000    0.00000000    0.00000000
     atom    9 type  1   force =    -0.00000000   -0.00000000   -0.29986012
     atom   10 type  1   force =     0.00000000   -0.00000000    0.29986012
     atom   11 type  1   force =    -0.00000000   -0.00000000    0.40351318
     atom   12 type  1   force =     0.00000000    0.00000000   -0.40351318
     atom   13 type  2   force =     0.00000000    0.00000000   -0.06500599
     atom   14 type  2   force =     0.00000000    0.00000000    0.06500599
     The local contribution  to forces
     atom    1 type  1   force =    -0.00000000    0.00000000   -0.14942028
     atom    2 type  1   force =     0.00000000   -0.00000000   -0.14942028
     atom    3 type  1   force =    -0.00000000    0.00000000    0.14942028
     atom    4 type  1   force =     0.00000000    0.00000000    0.14942028
     atom    5 type  1   force =    -0.00000000   -0.00000000   -0.00000000
     atom    6 type  1   force =     0.00000000   -0.00000000    0.00000000
     atom    7 type  1   force =     0.00000000    0.00000000   -0.00000000
     atom    8 type  1   force =     0.00000000   -0.00000000   -0.00000000
     atom    9 type  1   force =    -0.00000000    0.00000000    0.29000879
     atom   10 type  1   force =     0.00000000   -0.00000000   -0.29000879
     atom   11 type  1   force =    -0.00000000    0.00000000   -0.39743776
     atom   12 type  1   force =    -0.00000000   -0.00000000    0.39743776
     atom   13 type  2   force =     0.00000000    0.00000000    0.04722202
     atom   14 type  2   force =     0.00000000    0.00000000   -0.04722202
     The core correction contribution to forces
     atom    1 type  1   force =     0.00000000   -0.00000000   -0.00480293
     atom    2 type  1   force =    -0.00000000   -0.00000000   -0.00480293
     atom    3 type  1   force =    -0.00000000   -0.00000000    0.00480293
     atom    4 type  1   force =    -0.00000000    0.00000000    0.00480293
     atom    5 type  1   force =    -0.00000000   -0.00000000    0.00000000
     atom    6 type  1   force =    -0.00000000   -0.00000000    0.00000000
     atom    7 type  1   force =     0.00000000    0.00000000   -0.00000000
     atom    8 type  1   force =    -0.00000000   -0.00000000   -0.00000000
     atom    9 type  1   force =     0.00000000   -0.00000000    0.00013476
     atom   10 type  1   force =     0.00000000    0.00000000   -0.00013476
     atom   11 type  1   force =     0.00000000   -0.00000000   -0.00465571
     atom   12 type  1   force =    -0.00000000    0.00000000    0.00465571
     atom   13 type  2   force =     0.00000000    0.00000000    0.00000000
     atom   14 type  2   force =     0.00000000    0.00000000    0.00000000
     The Hubbard contrib.    to forces
     atom    1 type  1   force =     0.00000000    0.00000000    0.00000000
     atom    2 type  1   force =     0.00000000    0.00000000    0.00000000
     atom    3 type  1   force =     0.00000000    0.00000000    0.00000000
     atom    4 type  1   force =     0.00000000    0.00000000    0.00000000
     atom    5 type  1   force =     0.00000000    0.00000000    0.00000000
     atom    6 type  1   force =     0.00000000    0.00000000    0.00000000
     atom    7 type  1   force =     0.00000000    0.00000000    0.00000000
     atom    8 type  1   force =     0.00000000    0.00000000    0.00000000
     atom    9 type  1   force =     0.00000000    0.00000000    0.00000000
     atom   10 type  1   force =     0.00000000    0.00000000    0.00000000
     atom   11 type  1   force =     0.00000000    0.00000000    0.00000000
     atom   12 type  1   force =     0.00000000    0.00000000    0.00000000
     atom   13 type  2   force =     0.00000000    0.00000000    0.00000000
     atom   14 type  2   force =     0.00000000    0.00000000    0.00000000
     The SCF correction term to forces
     atom    1 type  1   force =     0.00000000   -0.00000000    0.00010869
     atom    2 type  1   force =    -0.00000000    0.00000000    0.00010869
     atom    3 type  1   force =     0.00000000   -0.00000000   -0.00010869
     atom    4 type  1   force =    -0.00000000    0.00000000   -0.00010869
     atom    5 type  1   force =    -0.00000000   -0.00000000   -0.00000000
     atom    6 type  1   force =     0.00000000    0.00000000   -0.00000000
     atom    7 type  1   force =     0.00000000   -0.00000000    0.00000000
     atom    8 type  1   force =    -0.00000000   -0.00000000   -0.00000000
     atom    9 type  1   force =    -0.00000000   -0.00000000    0.00003241
     atom   10 type  1   force =    -0.00000000    0.00000000   -0.00003241
     atom   11 type  1   force =     0.00000000   -0.00000000   -0.00002664
     atom   12 type  1   force =    -0.00000000    0.00000000    0.00002664
     atom   13 type  2   force =     0.00000000    0.00000000   -0.00006583
     atom   14 type  2   force =    -0.00000000    0.00000000    0.00006583

     Total force =     0.091505     Total SCF correction =     0.000244


     Computing stress (Cartesian axis) and pressure

          total   stress  (Ry/bohr**3)                   (kbar)     P=     1016.32
   0.00688327   0.00000000   0.00000000         1012.56        0.00        0.00
   0.00000000   0.00688327   0.00000000            0.00     1012.56        0.00
   0.00000000   0.00000000   0.00695988            0.00        0.00     1023.83


     BFGS Geometry Optimization
     Energy error            =      0.0E+00 Ry
     Gradient error          =      4.1E-02 Ry/Bohr
     Cell gradient error     =      5.2E+02 kbar

     number of scf cycles    =   1
     number of bfgs steps    =   0

     enthalpy           new  =    -125.8011994203 Ry

     new trust radius        =       0.5000000000 bohr
ibrav =      6
 celldm(1) =      6.76668320
 celldm(3) =      3.51730454
Input lattice vectors:
     1.08366338     0.00000000     0.00000000
     0.00000000     1.08366338     0.00000000
     0.00000000     0.00000000     3.81157412
New lattice vectors in INITIAL alat:
     1.08366338     0.00000000     0.00000000
     0.00000000     1.08366338     0.00000000
     0.00000000     0.00000000     3.81157412
New lattice vectors in NEW alat (for information only):
     1.00000000     0.00000000     0.00000000
     0.00000000     1.00000000     0.00000000
     0.00000000     0.00000000     3.51730454
Discrepancy in bohr =     0.000000    0.000000    0.000000
     new conv_thr            =       0.0000000100 Ry

     new unit-cell volume =   1089.77667 a.u.^3 (   161.48824 Ang^3 )
     density =      3.60829 g/cm^3

CELL_PARAMETERS (alat=  6.24426675)
   1.083663378   0.000000000   0.000000000
   0.000000000   1.083663378   0.000000000
   0.000000000   0.000000000   3.811574115

ATOMIC_POSITIONS (crystal)
Si            0.0000000000        0.0000000000        0.2042325227
Si            0.5000000000        0.5000000000        0.2042325227
Si            0.5000000000        0.5000000000        0.7957674773
Si            0.0000000000        0.0000000000        0.7957674773
Si            0.0000000000        0.0000000000        0.0000000000
Si            0.5000000000        0.5000000000        0.0000000000
Si            0.0000000000        0.0000000000        0.5000000000
Si            0.5000000000        0.5000000000        0.5000000000
Si            0.0000000000        0.5000000000        0.3498437567
Si            0.5000000000        0.0000000000        0.6501562433
Si            0.0000000000        0.5000000000        0.6423851651
Si            0.5000000000        0.0000000000        0.3576148349
Li            0.0000000000        0.5000000000        0.9007509586
Li            0.5000000000        0.0000000000        0.0992490414



     Writing config-only to output data dir ./output/SiLi.save/
     NEW-OLD atomic charge density approx. for the potential
     extrapolated charge   65.63469, renormalised to   54.00000

     total cpu time spent up to now is       58.5 secs

     Self-consistent Calculation

     iteration #  1     ecut=    80.00 Ry     beta= 0.70
     Davidson diagonalization with overlap
     c_bands:  1 eigenvalues not converged
     c_bands:  3 eigenvalues not converged
     c_bands:  1 eigenvalues not converged
     c_bands:  1 eigenvalues not converged
     c_bands:  1 eigenvalues not converged
     c_bands:  1 eigenvalues not converged
     c_bands:  1 eigenvalues not converged
     c_bands:  1 eigenvalues not converged
     c_bands:  1 eigenvalues not converged
     c_bands:  2 eigenvalues not converged
     c_bands:  1 eigenvalues not converged
     ethr =  1.00E-06,  avg # of iterations = 17.2

     total cpu time spent up to now is       70.7 secs

     total energy              =    -129.41345295 Ry
     estimated scf accuracy    <       0.16208433 Ry

     iteration #  2     ecut=    80.00 Ry     beta= 0.70
     Davidson diagonalization with overlap
     ethr =  3.00E-04,  avg # of iterations =  6.8

     total cpu time spent up to now is       75.3 secs

     total energy              =    -129.05379126 Ry
     estimated scf accuracy    <      11.05263660 Ry

     iteration #  3     ecut=    80.00 Ry     beta= 0.70
     Davidson diagonalization with overlap
     ethr =  3.00E-04,  avg # of iterations =  7.4

     total cpu time spent up to now is       79.6 secs

     total energy              =    -129.57742123 Ry
     estimated scf accuracy    <       1.29694928 Ry

     iteration #  4     ecut=    80.00 Ry     beta= 0.70
     Davidson diagonalization with overlap
     ethr =  3.00E-04,  avg # of iterations =  3.9

     total cpu time spent up to now is       82.9 secs

     total energy              =    -129.66846152 Ry
     estimated scf accuracy    <       0.05102352 Ry

     iteration #  5     ecut=    80.00 Ry     beta= 0.70
     Davidson diagonalization with overlap
     ethr =  9.45E-05,  avg # of iterations =  2.0

     total cpu time spent up to now is       85.5 secs

     total energy              =    -129.66351986 Ry
     estimated scf accuracy    <       0.03200246 Ry

     iteration #  6     ecut=    80.00 Ry     beta= 0.70
     Davidson diagonalization with overlap
     ethr =  5.93E-05,  avg # of iterations =  1.3

     total cpu time spent up to now is       87.9 secs

     total energy              =    -129.65863895 Ry
     estimated scf accuracy    <       0.01582763 Ry

     iteration #  7     ecut=    80.00 Ry     beta= 0.70
     Davidson diagonalization with overlap
     ethr =  2.93E-05,  avg # of iterations =  4.3

     total cpu time spent up to now is       90.8 secs

     total energy              =    -129.66027413 Ry
     estimated scf accuracy    <       0.00042255 Ry

     iteration #  8     ecut=    80.00 Ry     beta= 0.70
     Davidson diagonalization with overlap
     ethr =  7.82E-07,  avg # of iterations =  6.4

     total cpu time spent up to now is       95.1 secs

     total energy              =    -129.66055453 Ry
     estimated scf accuracy    <       0.00028757 Ry

     iteration #  9     ecut=    80.00 Ry     beta= 0.70
     Davidson diagonalization with overlap
     ethr =  5.33E-07,  avg # of iterations =  1.5

     total cpu time spent up to now is       97.5 secs

     total energy              =    -129.66055608 Ry
     estimated scf accuracy    <       0.00006868 Ry

     iteration # 10     ecut=    80.00 Ry     beta= 0.70
     Davidson diagonalization with overlap
     ethr =  1.27E-07,  avg # of iterations =  3.5

     total cpu time spent up to now is      100.4 secs

     total energy              =    -129.66056513 Ry
     estimated scf accuracy    <       0.00000108 Ry

     iteration # 11     ecut=    80.00 Ry     beta= 0.70
     Davidson diagonalization with overlap
     ethr =  2.00E-09,  avg # of iterations =  5.1

     total cpu time spent up to now is      104.2 secs

     total energy              =    -129.66056582 Ry
     estimated scf accuracy    <       0.00000083 Ry

     iteration # 12     ecut=    80.00 Ry     beta= 0.70
     Davidson diagonalization with overlap
     ethr =  1.54E-09,  avg # of iterations =  1.1

     total cpu time spent up to now is      106.6 secs

     total energy              =    -129.66056581 Ry
     estimated scf accuracy    <       0.00000021 Ry

     iteration # 13     ecut=    80.00 Ry     beta= 0.70
     Davidson diagonalization with overlap
     ethr =  3.92E-10,  avg # of iterations =  3.2

     total cpu time spent up to now is      109.4 secs

     End of self-consistent calculation

          k = 0.0000 0.0000 0.0000 ( 10271 PWs)   bands (ev):

   -33.3573 -33.3521  -3.6916  -2.5376  -1.1899   0.5096   1.1852   4.9690
     5.6384   6.4960   6.4960   7.5307   7.5307   8.1024   8.2903   8.2903
     8.3084   8.9709   9.0194   9.6258  10.0718  10.0718  10.7073  10.7073
    10.8785  11.1406  11.2582  11.3038  11.9479  13.7022  14.1907  14.1907

          k = 0.0000 0.0000-0.1312 ( 10334 PWs)   bands (ev):

   -33.3574 -33.3522  -3.6869  -2.5778  -0.9356  -0.1523   2.0308   3.7056
     6.5117   6.5117   7.3446   7.3965   7.3965   8.2507   8.3456   8.4166
     8.6875   8.8937   8.8937   9.0672   9.0672   9.6290  10.0052  10.0893
    11.1150  11.7637  11.7637  12.9368  12.9492  12.9492  13.4584  13.9306

          k = 0.0000 0.1025 0.0000 ( 10307 PWs)   bands (ev):

   -33.3569 -33.3520  -3.5523  -2.3998  -1.0606   0.6368   1.3135   4.9482
     5.1009   5.7272   6.0150   6.6253   6.7497   7.6598   8.4035   8.4187
     8.5484   9.0064   9.5838   9.8857  10.1995  10.3650  10.8322  11.0372
    11.1149  11.3957  11.7138  11.8935  12.8790  13.4888  13.8253  14.3797

          k = 0.0000 0.1025-0.1312 ( 10304 PWs)   bands (ev):

   -33.3569 -33.3520  -3.5475  -2.4409  -0.8012  -0.0313   2.1666   3.8189
     4.9633   5.8677   6.6410   7.3916   7.4436   7.4792   7.5256   8.4643
     8.7937   9.0219   9.1949   9.4294  10.0069  10.3362  10.3881  10.4750
    11.4812  11.7799  11.8903  12.2640  13.0564  13.7774  14.1720  14.3295

          k = 0.0000 0.2051 0.0000 ( 10346 PWs)   bands (ev):

   -33.3557 -33.3518  -3.1349  -1.9871  -0.6737   1.0176   1.6948   3.0037
     4.0898   4.9445   5.5062   6.0991   6.7723   7.0133   7.3659   8.0471
     8.8030   8.8470   9.7795  10.5815  10.7379  11.0282  11.2001  11.2421
    11.7508  11.8442  12.5085  12.8404  12.8417  13.5054  13.8744  14.0173

          k = 0.0000 0.2051-0.1312 ( 10334 PWs)   bands (ev):

   -33.3558 -33.3518  -3.1298  -2.0310  -0.3988   0.3305   2.5723   3.0148
     3.9473   4.1794   5.5422   5.7953   7.0290   7.8435   7.9130   8.5325
     8.8452   9.1371   9.2331   9.4056   9.5768   9.9244  11.4978  11.6206
    12.2650  12.7796  12.8725  13.2201  13.5558  13.5797  13.9410  13.9969

          k = 0.0000 0.3076 0.0000 ( 10310 PWs)   bands (ev):

   -33.3542 -33.3516  -2.4413  -1.3016  -0.0337   1.2529   1.6449   2.3224
     2.3761   3.4020   5.1039   5.7946   6.1670   6.6876   7.6602   8.6919
     9.4061   9.4396   9.4690   9.6438  10.8294  11.1571  11.2066  11.7479
    11.7868  12.0691  12.1434  12.2264  13.1068  13.1210  13.2584  14.0082

          k = 0.0000 0.3076-0.1312 ( 10314 PWs)   bands (ev):

   -33.3542 -33.3516  -2.4357  -1.3503   0.2672   0.9199   1.2797   2.2788
     3.2360   3.8854   4.0827   4.9301   6.8616   7.6758   7.8611   8.4675
     8.5577   9.5324   9.6554  10.0387  10.2056  10.5154  11.1787  11.5252
    11.8772  12.0254  12.9039  13.0753  13.0931  13.2633  13.5248  13.6127

          k = 0.0000 0.4101 0.0000 ( 10300 PWs)   bands (ev):

   -33.3528 -33.3520  -1.4748  -0.3491  -0.2392   0.7570   0.9839   1.9921
     2.5337   3.1777   3.8101   4.4413   7.0807   7.4252   8.2468   8.3759
     8.5661   9.5781   9.7469  10.2925  10.4413  10.7984  11.4174  11.5725
    11.5920  12.1348  12.3383  12.5352  12.6914  12.9025  13.1478  13.3333

          k = 0.0000 0.4101-0.1312 ( 10320 PWs)   bands (ev):

   -33.3529 -33.3520  -1.4685  -0.4041  -0.2323   0.7875   1.2201   1.7438
     2.4528   2.8758   4.2029   5.3762   5.6818   6.6670   8.5815   9.2660
     9.4512   9.7561  10.0498  10.4080  10.5782  10.6420  10.9527  11.0439
    11.4488  11.5856  11.7357  12.2425  12.3423  12.6383  13.3871  13.6589

          k = 0.1025 0.1025 0.0000 ( 10315 PWs)   bands (ev):

   -33.3565 -33.3519  -3.4130  -2.2621  -0.9315   0.7638   1.4417   5.0507
     5.0996   5.2326   5.8323   6.0461   6.2483   6.4642   7.4774   8.6621
     8.8817   9.0278   9.7976  10.1458  10.2262  11.0001  11.2288  11.2307
    11.2902  11.6032  12.4366  12.7780  13.1102  13.2522  13.4782  13.8551

          k = 0.1025 0.1025-0.1312 ( 10280 PWs)   bands (ev):

   -33.3564 -33.3519  -3.4082  -2.3042  -0.6668   0.0893   2.3023   3.9331
     5.0858   5.1038   5.7828   6.1927   7.2729   7.3559   7.6065   7.7260
     8.3813   8.9806  10.1838  10.2430  10.5044  10.5235  10.6271  10.7221
    11.4684  11.9443  12.0770  12.4639  13.2374  13.2696  14.1372  14.3155

          k = 0.1025 0.2051 0.0000 ( 10337 PWs)   bands (ev):

   -33.3554 -33.3516  -2.9960  -1.8497  -0.5456   1.1443   1.8229   3.1361
     4.2182   4.9677   5.5274   5.6357   6.1802   6.5197   6.7277   7.4815
     7.8571   9.2795   9.7363  10.5978  11.0774  11.1633  11.3444  11.7299
    11.8457  11.9520  12.3932  12.5156  12.9946  13.4140  13.4746  13.7345

          k = 0.1025 0.2051-0.1312 ( 10308 PWs)   bands (ev):

   -33.3553 -33.3516  -2.9908  -1.8947  -0.2648   0.4502   2.7077   3.1487
     4.0666   4.2892   5.4580   5.6954   5.7063   6.6197   7.8509   7.9954
     8.4807   8.6919   9.2735   9.5349  10.6208  10.9152  11.3988  11.5144
    11.9900  12.4660  12.6733  12.7841  13.0781  13.6856  13.8934  13.9660

          k = 0.1025 0.3076 0.0000 ( 10297 PWs)   bands (ev):

   -33.3539 -33.3514  -2.3029  -1.1648   0.0925   1.3880   1.7712   2.4506
     2.5073   3.4953   5.1976   5.8801   6.1641   6.2930   6.7440   7.2175
     8.2965   9.4363   9.6733   9.6949  10.0529  10.7632  10.8860  11.2615
    11.5143  12.1741  12.3932  12.6400  13.0992  13.5125  14.1143  14.3118

          k = 0.1025 0.3076-0.1312 ( 10308 PWs)   bands (ev):

   -33.3539 -33.3514  -2.2972  -1.2148   0.4007   1.0388   1.4139   2.4055
     3.3711   4.0070   4.1762   5.0009   6.1562   6.9613   7.2106   7.7519
     8.5755   8.9305   9.0556   9.5234   9.9395  10.6592  11.2537  11.5572
    11.7981  12.2291  12.3003  12.4253  12.4647  13.3935  14.1465  14.4689

          k = 0.1025 0.4101 0.0000 ( 10317 PWs)   bands (ev):

   -33.3526 -33.3517  -1.3372  -0.2129  -0.1028   0.8880   1.1099   2.1079
     2.6570   3.3046   3.9152   4.5506   7.0781   7.1972   7.4647   7.9599
     8.2530   8.3110   8.6602   9.2345   9.3816  10.2420  10.8119  11.6274
    11.8772  12.1550  12.3897  13.1207  13.2053  13.2793  13.6107  13.7075

          k = 0.1025 0.4101-0.1312 ( 10322 PWs)   bands (ev):

   -33.3526 -33.3517  -1.3307  -0.2699  -0.0955   0.9202   1.3515   1.8603
     2.5764   2.9763   4.3366   5.5075   5.7652   6.7046   7.0980   8.0632
     8.2546   9.0866   9.4807   9.6390   9.7463  10.1495  10.9730  11.1642
    11.2010  11.5301  12.2702  12.4688  13.1611  13.3812  13.6167  13.9287

          k = 0.2051 0.2051 0.0000 ( 10333 PWs)   bands (ev):

   -33.3543 -33.3513  -2.5799  -1.4383  -0.1629   1.5231   2.2041   3.4950
     3.5615   4.4926   4.7324   4.8686   6.0390   6.0607   6.5468   7.1646
     7.3481   8.0257   8.5299   9.4758  10.5091  11.1380  11.2114  11.5790
    11.7761  12.3706  12.4468  13.1945  13.2962  13.3596  13.4383  14.2441

          k = 0.2051 0.2051-0.1312 ( 10328 PWs)   bands (ev):

   -33.3543 -33.3513  -2.5743  -1.4867   0.1362   0.8077   3.1120   3.5355
     3.5634   4.2004   4.5875   4.7258   5.7203   5.7969   6.2973   7.5357
     8.3216   9.0546   9.0918   9.2397   9.2968   9.7648  10.4600  11.3128
    12.1117  12.3232  13.2224  13.2846  13.4043  14.0931  14.1011  14.2689

          k = 0.2051 0.3076 0.0000 ( 10332 PWs)   bands (ev):

   -33.3530 -33.3510  -1.8885  -0.7550   0.4688   1.7922   2.1479   2.8322
     2.8986   3.6870   4.2707   5.2361   5.4131   6.2328   6.6297   6.6882
     7.1293   7.7942   8.2420   8.5434   8.9382   9.8810  10.2695  10.4204
    11.4599  11.8887  12.5883  13.1064  13.1483  13.5017  13.8887  14.8981

          k = 0.2051 0.3076-0.1312 ( 10342 PWs)   bands (ev):

   -33.3530 -33.3510  -1.8823  -0.8095   0.8000   1.3917   1.8165   2.7729
     3.7737   4.1777   4.3310   4.4157   5.1548   5.4769   6.6131   7.3646
     7.6707   7.7949   8.4073   8.6074   9.0795   9.6473   9.8487  10.7855
    10.9040  11.2523  12.5022  13.2081  13.5514  14.0552  14.5794  14.8081

          k = 0.2051 0.4101 0.0000 ( 10333 PWs)   bands (ev):

   -33.3518 -33.3511  -0.9252   0.1950   0.3057   1.2754   1.4876   2.4406
     3.0220   3.6796   4.2104   4.8545   5.1742   6.2235   6.3551   7.1755
     7.4019   7.5375   8.0300   8.4103   8.6908   8.7042   9.2712  10.1224
    10.3140  11.0313  13.1626  13.5609  13.6007  13.8532  14.6178  14.6580

          k = 0.2051 0.4101-0.1312 ( 10338 PWs)   bands (ev):

   -33.3518 -33.3511  -0.9179   0.1312   0.3143   1.3152   1.7441   2.2009
     2.9448   3.2539   4.7356   5.1556   5.8779   5.9622   6.2685   6.3764
     6.7362   7.3695   8.0614   8.2989   8.9183   9.0713  10.3140  10.6145
    10.7835  11.3239  11.3634  11.8171  13.2560  13.7693  14.8511  15.6167

          k = 0.3076 0.3076 0.0000 ( 10354 PWs)   bands (ev):

   -33.3518 -33.3506  -1.2000  -0.0745   1.0860   2.4262   2.4896   2.7663
     3.4291   3.4582   3.6873   3.7840   5.2069   6.0980   6.1115   6.3033
     6.8804   7.1109   7.2488   7.6087   7.8555   8.4244   9.9579  10.1689
    10.7269  10.8283  11.1033  12.6892  13.1549  13.7672  14.4351  15.6706

          k = 0.3076 0.3076-0.1312 ( 10400 PWs)   bands (ev):

   -33.3519 -33.3506  -1.1928  -0.1375   1.4608   1.9631   2.4692   2.5033
     3.1227   3.6722   4.4457   4.6617   4.7237   5.3108   5.5836   6.1062
     6.8703   7.1299   8.0176   8.0624   8.2255   8.7268   8.8172  10.1315
    10.5424  10.6313  11.5831  12.8707  13.5721  13.5970  13.6570  15.8709

          k = 0.3076 0.4101 0.0000 ( 10360 PWs)   bands (ev):

   -33.3509 -33.3505  -0.2408   0.8717   0.9834   1.8917   2.1172   2.8815
     3.4752   3.6050   4.2735   4.4427   4.6361   4.6494   5.4653   5.7041
     6.1141   6.9729   7.4986   7.7538   7.9743   8.2198   8.7930   9.5580
     9.7524   9.8554  11.8065  12.7301  13.0459  13.2109  14.5981  15.0894

          k = 0.3076 0.4101-0.1312 ( 10366 PWs)   bands (ev):

   -33.3509 -33.3505  -0.2320   0.7934   0.9952   1.9553   2.3894   2.7275
     3.3716   3.5507   3.6145   4.6320   4.6763   5.3758   5.7164   5.8801
     6.1692   6.5840   6.9840   7.5863   7.6602   7.9202   8.9825  10.1111
    10.6111  10.7710  10.7748  11.8270  12.9937  13.1551  14.1463  15.1813

          k = 0.4101 0.4101 0.0000 ( 10362 PWs)   bands (ev):

   -33.3503 -33.3501   0.7116   1.8110   1.8865   1.9560   2.6054   2.8926
     3.1454   3.2199   3.2368   4.1695   4.3419   4.7244   5.1741   5.5761
     5.7771   5.8570   6.6801   6.9190   7.4630   7.5669   9.3082   9.5155
     9.6642  10.3288  10.5488  11.5727  12.4145  12.6562  15.3681  15.3765

          k = 0.4101 0.4101-0.1312 ( 10390 PWs)   bands (ev):

   -33.3503 -33.3501   0.7236   1.6965   1.9306   1.9560   2.5793   3.0759
     3.1503   3.2816   3.3490   4.1284   4.1802   4.3944   4.7872   5.5677
     6.2856   6.3299   6.7748   7.3752   7.5380   7.6340   7.7100   8.7089
    10.1702  10.3825  11.5573  12.3932  12.8442  13.1603  13.1670  13.8611

     the Fermi energy is    12.4721 ev

!    total energy              =    -129.66056583 Ry
     estimated scf accuracy    <          7.6E-09 Ry
     smearing contrib. (-TS)   =      -0.00182749 Ry
     internal energy E=F+TS    =    -129.65873833 Ry

     The total energy is F=E-TS. E is the sum of the following terms:
     one-electron contribution =      48.79322713 Ry
     hartree contribution      =       7.46677130 Ry
     xc contribution           =     -46.12434893 Ry
     ewald contribution        =    -139.79438784 Ry

     convergence has been achieved in  13 iterations

     Forces acting on atoms (cartesian axes, Ry/au):

     atom    1 type  1   force =     0.00000000    0.00000000    0.01534625
     atom    2 type  1   force =     0.00000000    0.00000000    0.01534625
     atom    3 type  1   force =     0.00000000    0.00000000   -0.01534625
     atom    4 type  1   force =     0.00000000    0.00000000   -0.01534625
     atom    5 type  1   force =     0.00000000    0.00000000    0.00000000
     atom    6 type  1   force =     0.00000000    0.00000000   -0.00000000
     atom    7 type  1   force =     0.00000000    0.00000000    0.00000000
     atom    8 type  1   force =     0.00000000    0.00000000   -0.00000000
     atom    9 type  1   force =     0.00000000    0.00000000   -0.00408384
     atom   10 type  1   force =     0.00000000    0.00000000    0.00408384
     atom   11 type  1   force =     0.00000000    0.00000000   -0.00206067
     atom   12 type  1   force =     0.00000000    0.00000000    0.00206067
     atom   13 type  2   force =     0.00000000    0.00000000   -0.01314811
     atom   14 type  2   force =     0.00000000    0.00000000    0.01314811
     The non-local contrib.  to forces
     atom    1 type  1   force =     0.00000000    0.00000000    0.08208888
     atom    2 type  1   force =     0.00000000    0.00000000    0.08208888
     atom    3 type  1   force =     0.00000000    0.00000000   -0.08208888
     atom    4 type  1   force =     0.00000000    0.00000000   -0.08208888
     atom    5 type  1   force =     0.00000000    0.00000000    0.00000000
     atom    6 type  1   force =     0.00000000    0.00000000    0.00000000
     atom    7 type  1   force =     0.00000000    0.00000000    0.00000000
     atom    8 type  1   force =     0.00000000    0.00000000    0.00000000
     atom    9 type  1   force =     0.00000000    0.00000000   -0.00008953
     atom   10 type  1   force =     0.00000000    0.00000000    0.00008953
     atom   11 type  1   force =     0.00000000    0.00000000   -0.00690181
     atom   12 type  1   force =     0.00000000    0.00000000    0.00690181
     atom   13 type  2   force =     0.00000000    0.00000000   -0.00190560
     atom   14 type  2   force =     0.00000000    0.00000000    0.00190560
     The ionic contribution  to forces
     atom    1 type  1   force =    -0.00000000   -0.00000000   -0.08693409
     atom    2 type  1   force =     0.00000000    0.00000000   -0.08693409
     atom    3 type  1   force =     0.00000000    0.00000000    0.08693409
     atom    4 type  1   force =    -0.00000000   -0.00000000    0.08693409
     atom    5 type  1   force =    -0.00000000   -0.00000000   -0.00000000
     atom    6 type  1   force =    -0.00000000    0.00000000   -0.00000000
     atom    7 type  1   force =    -0.00000000   -0.00000000    0.00000000
     atom    8 type  1   force =    -0.00000000   -0.00000000    0.00000000
     atom    9 type  1   force =    -0.00000000    0.00000000   -0.16977914
     atom   10 type  1   force =     0.00000000   -0.00000000    0.16977914
     atom   11 type  1   force =    -0.00000000   -0.00000000    0.22676518
     atom   12 type  1   force =     0.00000000   -0.00000000   -0.22676518
     atom   13 type  2   force =    -0.00000000   -0.00000000   -0.00548253
     atom   14 type  2   force =     0.00000000   -0.00000000    0.00548253
     The local contribution  to forces
     atom    1 type  1   force =    -0.00000000    0.00000000    0.02422944
     atom    2 type  1   force =     0.00000000   -0.00000000    0.02422944
     atom    3 type  1   force =    -0.00000000    0.00000000   -0.02422944
     atom    4 type  1   force =    -0.00000000    0.00000000   -0.02422944
     atom    5 type  1   force =    -0.00000000    0.00000000   -0.00000000
     atom    6 type  1   force =    -0.00000000   -0.00000000    0.00000000
     atom    7 type  1   force =     0.00000000   -0.00000000   -0.00000000
     atom    8 type  1   force =    -0.00000000   -0.00000000   -0.00000000
     atom    9 type  1   force =     0.00000000   -0.00000000    0.16599212
     atom   10 type  1   force =    -0.00000000   -0.00000000   -0.16599212
     atom   11 type  1   force =     0.00000000    0.00000000   -0.22118258
     atom   12 type  1   force =    -0.00000000   -0.00000000    0.22118258
     atom   13 type  2   force =    -0.00000000    0.00000000   -0.00569405
     atom   14 type  2   force =     0.00000000    0.00000000    0.00569405
     The core correction contribution to forces
     atom    1 type  1   force =     0.00000000    0.00000000   -0.00413229
     atom    2 type  1   force =    -0.00000000   -0.00000000   -0.00413229
     atom    3 type  1   force =    -0.00000000   -0.00000000    0.00413229
     atom    4 type  1   force =     0.00000000    0.00000000    0.00413229
     atom    5 type  1   force =    -0.00000000    0.00000000    0.00000000
     atom    6 type  1   force =    -0.00000000   -0.00000000    0.00000000
     atom    7 type  1   force =     0.00000000   -0.00000000   -0.00000000
     atom    8 type  1   force =    -0.00000000   -0.00000000   -0.00000000
     atom    9 type  1   force =    -0.00000000   -0.00000000   -0.00024006
     atom   10 type  1   force =    -0.00000000    0.00000000    0.00024006
     atom   11 type  1   force =     0.00000000    0.00000000   -0.00070807
     atom   12 type  1   force =    -0.00000000   -0.00000000    0.00070807
     atom   13 type  2   force =     0.00000000    0.00000000    0.00000000
     atom   14 type  2   force =     0.00000000    0.00000000    0.00000000
     The Hubbard contrib.    to forces
     atom    1 type  1   force =     0.00000000    0.00000000    0.00000000
     atom    2 type  1   force =     0.00000000    0.00000000    0.00000000
     atom    3 type  1   force =     0.00000000    0.00000000    0.00000000
     atom    4 type  1   force =     0.00000000    0.00000000    0.00000000
     atom    5 type  1   force =     0.00000000    0.00000000    0.00000000
     atom    6 type  1   force =     0.00000000    0.00000000    0.00000000
     atom    7 type  1   force =     0.00000000    0.00000000    0.00000000
     atom    8 type  1   force =     0.00000000    0.00000000    0.00000000
     atom    9 type  1   force =     0.00000000    0.00000000    0.00000000
     atom   10 type  1   force =     0.00000000    0.00000000    0.00000000
     atom   11 type  1   force =     0.00000000    0.00000000    0.00000000
     atom   12 type  1   force =     0.00000000    0.00000000    0.00000000
     atom   13 type  2   force =     0.00000000    0.00000000    0.00000000
     atom   14 type  2   force =     0.00000000    0.00000000    0.00000000
     The SCF correction term to forces
     atom    1 type  1   force =    -0.00000000    0.00000000    0.00009431
     atom    2 type  1   force =     0.00000000   -0.00000000    0.00009431
     atom    3 type  1   force =     0.00000000   -0.00000000   -0.00009431
     atom    4 type  1   force =    -0.00000000    0.00000000   -0.00009431
     atom    5 type  1   force =     0.00000000   -0.00000000   -0.00000000
     atom    6 type  1   force =     0.00000000   -0.00000000    0.00000000
     atom    7 type  1   force =     0.00000000   -0.00000000   -0.00000000
     atom    8 type  1   force =    -0.00000000    0.00000000   -0.00000000
     atom    9 type  1   force =    -0.00000000   -0.00000000    0.00003277
     atom   10 type  1   force =     0.00000000   -0.00000000   -0.00003277
     atom   11 type  1   force =    -0.00000000   -0.00000000   -0.00003339
     atom   12 type  1   force =     0.00000000   -0.00000000    0.00003339
     atom   13 type  2   force =    -0.00000000   -0.00000000   -0.00006593
     atom   14 type  2   force =    -0.00000000   -0.00000000    0.00006593

     Total force =     0.036464     Total SCF correction =     0.000221


     Computing stress (Cartesian axis) and pressure

          total   stress  (Ry/bohr**3)                   (kbar)     P=      297.76
   0.00196610   0.00000000   0.00000000          289.22        0.00        0.00
   0.00000000   0.00196610   0.00000000            0.00      289.22        0.00
   0.00000000   0.00000000   0.00214023            0.00        0.00      314.84

     Energy error            =      1.6E-01 Ry
     Gradient error          =      1.5E-02 Ry/Bohr
     Cell gradient error     =      2.1E+02 kbar

     number of scf cycles    =   2
     number of bfgs steps    =   1

     enthalpy           old  =    -125.8011994203 Ry
     enthalpy           new  =    -125.9564902191 Ry

     CASE: enthalpy          _new < enthalpy          _old

     new trust radius        =       0.1682188876 bohr
ibrav =      6
 celldm(1) =      6.59427740
 celldm(3) =      3.52943120
Input lattice vectors:
     1.05605312     0.00000000     0.00000000
     0.00000000     1.05605312     0.00000000
     0.00000000     0.00000000     3.72726685
New lattice vectors in INITIAL alat:
     1.05605312     0.00000000     0.00000000
     0.00000000     1.05605312     0.00000000
     0.00000000     0.00000000     3.72726685
New lattice vectors in NEW alat (for information only):
     1.00000000     0.00000000     0.00000000
     0.00000000     1.00000000     0.00000000
     0.00000000     0.00000000     3.52943120
Discrepancy in bohr =     0.000000    0.000000    0.000000
     new conv_thr            =       0.0000000015 Ry

     new unit-cell volume =   1012.06023 a.u.^3 (   149.97185 Ang^3 )
     density =      3.88537 g/cm^3

CELL_PARAMETERS (alat=  6.24426675)
   1.056053124   0.000000000   0.000000000
   0.000000000   1.056053124   0.000000000
   0.000000000   0.000000000   3.727266847

ATOMIC_POSITIONS (crystal)
Si            0.0000000000        0.0000000000        0.2047807649
Si            0.5000000000        0.5000000000        0.2047807649
Si            0.5000000000        0.5000000000        0.7952192351
Si            0.0000000000        0.0000000000        0.7952192351
Si            0.0000000000        0.0000000000        0.0000000000
Si            0.5000000000        0.5000000000       -0.0000000000
Si            0.0000000000        0.0000000000        0.5000000000
Si            0.5000000000        0.5000000000        0.5000000000
Si            0.0000000000        0.5000000000        0.3496972274
Si            0.5000000000        0.0000000000        0.6503027726
Si            0.0000000000        0.5000000000        0.6423447707
Si            0.5000000000        0.0000000000        0.3576552293
Li            0.0000000000        0.5000000000        0.9002948372
Li            0.5000000000        0.0000000000        0.0997051628



     Writing config-only to output data dir ./output/SiLi.save/
     NEW-OLD atomic charge density approx. for the potential
     extrapolated charge   49.85459, renormalised to   54.00000

     total cpu time spent up to now is      121.1 secs

     Self-consistent Calculation

     iteration #  1     ecut=    80.00 Ry     beta= 0.70
     Davidson diagonalization with overlap
     c_bands:  1 eigenvalues not converged
     c_bands:  1 eigenvalues not converged
     ethr =  1.00E-06,  avg # of iterations = 13.1

     total cpu time spent up to now is      130.1 secs

     total energy              =    -129.42455998 Ry
     estimated scf accuracy    <       0.03048753 Ry

     iteration #  2     ecut=    80.00 Ry     beta= 0.70
     Davidson diagonalization with overlap
     ethr =  5.65E-05,  avg # of iterations =  9.1

     total cpu time spent up to now is      135.2 secs

     total energy              =    -129.28254471 Ry
     estimated scf accuracy    <       3.96799881 Ry

     iteration #  3     ecut=    80.00 Ry     beta= 0.70
     Davidson diagonalization with overlap
     ethr =  5.65E-05,  avg # of iterations =  7.9

     total cpu time spent up to now is      139.8 secs

     total energy              =    -129.46401230 Ry
     estimated scf accuracy    <       0.01748852 Ry

     iteration #  4     ecut=    80.00 Ry     beta= 0.70
     Davidson diagonalization with overlap
     ethr =  3.24E-05,  avg # of iterations =  2.5

     total cpu time spent up to now is      142.6 secs

     total energy              =    -129.46518975 Ry
     estimated scf accuracy    <       0.00890384 Ry

     iteration #  5     ecut=    80.00 Ry     beta= 0.70
     Davidson diagonalization with overlap
     ethr =  1.65E-05,  avg # of iterations =  1.1

     total cpu time spent up to now is      144.9 secs

     total energy              =    -129.46473926 Ry
     estimated scf accuracy    <       0.00384073 Ry

     iteration #  6     ecut=    80.00 Ry     beta= 0.70
     Davidson diagonalization with overlap
     ethr =  7.11E-06,  avg # of iterations =  2.0

     total cpu time spent up to now is      147.4 secs

     total energy              =    -129.46464383 Ry
     estimated scf accuracy    <       0.00121289 Ry

     iteration #  7     ecut=    80.00 Ry     beta= 0.70
     Davidson diagonalization with overlap
     ethr =  2.25E-06,  avg # of iterations =  4.6

     total cpu time spent up to now is      150.3 secs

     total energy              =    -129.46476453 Ry
     estimated scf accuracy    <       0.00003468 Ry

     iteration #  8     ecut=    80.00 Ry     beta= 0.70
     Davidson diagonalization with overlap
     ethr =  6.42E-08,  avg # of iterations =  5.3

     total cpu time spent up to now is      154.0 secs

     total energy              =    -129.46478723 Ry
     estimated scf accuracy    <       0.00002514 Ry

     iteration #  9     ecut=    80.00 Ry     beta= 0.70
     Davidson diagonalization with overlap
     ethr =  4.66E-08,  avg # of iterations =  1.1

     total cpu time spent up to now is      156.4 secs

     total energy              =    -129.46478673 Ry
     estimated scf accuracy    <       0.00000610 Ry

     iteration # 10     ecut=    80.00 Ry     beta= 0.70
     Davidson diagonalization with overlap
     ethr =  1.13E-08,  avg # of iterations =  3.3

     total cpu time spent up to now is      159.4 secs

     total energy              =    -129.46478769 Ry
     estimated scf accuracy    <       0.00000063 Ry

     iteration # 11     ecut=    80.00 Ry     beta= 0.70
     Davidson diagonalization with overlap
     ethr =  1.17E-09,  avg # of iterations =  3.2

     total cpu time spent up to now is      162.0 secs

     total energy              =    -129.46478772 Ry
     estimated scf accuracy    <       0.00000024 Ry

     iteration # 12     ecut=    80.00 Ry     beta= 0.70
     Davidson diagonalization with overlap
     ethr =  4.51E-10,  avg # of iterations =  2.6

     total cpu time spent up to now is      164.5 secs

     End of self-consistent calculation

          k = 0.0000 0.0000 0.0000 ( 10271 PWs)   bands (ev):

   -32.3815 -32.3744  -3.3488  -2.1419  -0.6735   1.1260   1.8063   5.7908
     6.3526   7.2654   7.2654   8.3390   8.3390   9.1725   9.1725   9.1910
     9.3423  10.0969  10.2706  10.8185  11.0229  11.0229  11.6850  11.6850
    11.7888  12.2375  12.2752  12.3114  13.4741  14.9815  15.4211  15.4211

          k = 0.0000 0.0000-0.1341 ( 10334 PWs)   bands (ev):

   -32.3815 -32.3745  -3.3447  -2.1770  -0.4453   0.4726   2.6746   4.4347
     7.2809   7.2809   8.1684   8.2086   8.2086   9.2812   9.3750   9.5963
     9.6627   9.7730   9.7730   9.9925   9.9925  10.8225  11.0309  11.4968
    12.0167  12.8170  12.8170  13.9916  13.9916  14.2773  14.6699  15.2321

          k = 0.0000 0.1052 0.0000 ( 10307 PWs)   bands (ev):

   -32.3809 -32.3743  -3.2022  -1.9971  -0.5373   1.2581   1.9405   5.7016
     5.9291   6.4419   6.8137   7.4004   7.6978   8.4739   9.3068   9.4557
     9.4760  10.1123  10.5487  10.9987  11.1563  11.5586  11.8158  12.1041
    12.2094  12.4469  12.8080  12.9568  14.1317  14.8399  15.0059  15.5414

          k = 0.0000 0.1052-0.1341 ( 10304 PWs)   bands (ev):

   -32.3809 -32.3743  -3.1981  -2.0330  -0.3042   0.5985   2.8170   4.5505
     5.7150   6.6861   7.4159   8.2796   8.3056   8.3435   8.4409   9.5075
     9.7142   9.9071  10.1260  10.4617  11.0759  11.4419  11.4516  11.7658
    12.5272  12.9121  12.9494  13.4238  14.1044  15.0413  15.4729  15.5318

          k = 0.0000 0.2104 0.0000 ( 10346 PWs)   bands (ev):

   -32.3793 -32.3739  -2.7633  -1.5633  -0.1301   1.6533   2.3388   3.6762
     4.8116   5.7740   6.3522   6.8492   7.6626   7.8055   8.3026   8.8786
     9.7087   9.8847  10.8169  11.5556  11.9010  12.0902  12.2013  12.3079
    12.7719  12.9587  13.8505  13.8956  14.0101  14.9068  14.9773  15.0863

          k = 0.0000 0.2104-0.1341 ( 10334 PWs)   bands (ev):

   -32.3793 -32.3739  -2.7588  -1.6019   0.1182   0.9750   3.2424   3.6860
     4.6655   4.9322   6.3536   6.7166   7.8209   8.6863   8.7482   9.4412
     9.9094  10.0712  10.2089  10.3085  10.5253  11.0907  12.7164  12.7928
    13.3408  13.9290  13.9891  14.2857  14.7785  14.8443  15.0175  15.0987

          k = 0.0000 0.3156 0.0000 ( 10310 PWs)   bands (ev):

   -32.3772 -32.3737  -2.0342  -0.8432   0.5431   1.8433   2.3001   2.9907
     3.0227   4.1665   5.9083   6.6505   7.0424   7.4711   8.4811   9.5524
    10.3142  10.3244  10.3748  10.9285  11.9710  12.1355  12.2079  12.7772
    12.9552  13.1157  13.1459  13.2496  14.2069  14.5765  14.5773  15.2970

          k = 0.0000 0.3156-0.1341 ( 10314 PWs)   bands (ev):

   -32.3772 -32.3737  -2.0292  -0.8861   0.8169   1.5804   1.8776   2.9263
     3.9359   4.6214   4.8545   5.7717   7.7249   8.4965   8.7820   9.3352
     9.4222  10.5912  10.5933  10.9713  11.1825  11.6933  12.1575  12.5492
    13.0484  13.0666  14.0112  14.4204  14.4543  14.5736  14.6239  14.7083

          k = 0.0000 0.4209 0.0000 ( 10300 PWs)   bands (ev):

   -32.3753 -32.3741  -1.0188   0.1565   0.2787   1.3400   1.5906   2.6708
     3.2278   3.8826   4.5874   5.2356   7.9927   8.2326   9.1931   9.2251
     9.4275  10.4809  10.6595  11.2654  11.6093  11.7559  12.4429  12.6774
    12.7549  13.1785  13.3871  13.7304  13.9734  13.9789  14.4462  14.5535

          k = 0.0000 0.4209-0.1341 ( 10320 PWs)   bands (ev):

   -32.3753 -32.3741  -1.0132   0.1082   0.2847   1.3599   1.8156   2.4297
     3.1338   3.6327   4.9497   6.1719   6.5206   7.5369   9.4426  10.1669
    10.3571  10.6693  10.9621  11.4061  11.5386  11.6312  11.9246  12.0568
    12.7329  12.7357  13.1167  13.2787  13.4126  13.8343  14.7115  14.9501

          k = 0.1052 0.1052 0.0000 ( 10315 PWs)   bands (ev):

   -32.3803 -32.3741  -3.0558  -1.8523  -0.4014   1.3901   2.0747   5.8123
     5.8592   6.0669   6.5460   6.8385   7.0715   7.4520   8.2826   9.6711
     9.8719   9.9357  10.7847  11.2139  11.2850  12.0615  12.2297  12.3516
    12.4957  12.7029  13.5279  13.8598  14.3862  14.4171  14.5902  15.1224

          k = 0.1052 0.1052-0.1341 ( 10280 PWs)   bands (ev):

   -32.3803 -32.3741  -3.0515  -1.8892  -0.1631   0.7242   2.9592   4.6679
     5.8411   5.8633   6.6277   7.0107   8.2030   8.3397   8.4336   8.5130
     9.2987   9.9190  11.2576  11.3203  11.4576  11.5453  11.6464  11.9477
    12.6968  13.0046  13.2120  13.8394  14.2429  14.4179  15.2569  15.4087

          k = 0.1052 0.2104 0.0000 ( 10337 PWs)   bands (ev):

   -32.3787 -32.3737  -2.6173  -1.4190   0.0049   1.7851   2.4731   3.8152
     4.9464   5.8177   6.3087   6.4873   6.9297   7.3672   7.5781   8.3765
     8.7727  10.2327  10.7150  11.6265  12.0636  12.2562  12.3464  12.8259
    12.9770  13.0826  13.6177  13.7011  14.1873  14.5289  14.7423  14.9555

          k = 0.1052 0.2104-0.1341 ( 10308 PWs)   bands (ev):

   -32.3787 -32.3737  -2.6126  -1.4585   0.2590   1.1000   3.3842   3.8262
     4.7962   5.0458   6.2293   6.5261   6.6401   7.4048   8.7319   8.8436
     9.4230   9.6369  10.2077  10.5014  11.6974  11.9681  12.4902  12.6898
    13.0635  13.5601  13.8739  13.9604  14.3211  14.8929  15.0592  15.2008

          k = 0.1052 0.3156 0.0000 ( 10297 PWs)   bands (ev):

   -32.3767 -32.3734  -1.8888  -0.6994   0.6766   1.9852   2.4322   3.1259
     3.1601   4.2713   6.0084   6.7534   6.9624   7.1723   7.5212   8.0413
     9.2197  10.3543  10.6079  10.6596  11.1306  11.7521  11.9108  12.4276
    12.5803  13.2630  13.5493  13.7039  14.3552  14.6916  15.3712  15.5255

          k = 0.1052 0.3156-0.1341 ( 10308 PWs)   bands (ev):

   -32.3767 -32.3734  -1.8837  -0.7435   0.9572   1.7062   2.0174   3.0611
     4.0774   4.7502   4.9642   5.8369   6.9653   7.7511   8.1408   8.6553
     9.4507   9.8502  10.0081  10.3751  11.0419  11.6530  12.3117  12.6294
    12.9308  13.3885  13.3959  13.5666  13.6152  14.5814  15.5162  15.7689

          k = 0.1052 0.4209 0.0000 ( 10317 PWs)   bands (ev):

   -32.3749 -32.3737  -0.8742   0.2997   0.4220   1.4799   1.7225   2.7959
     3.3567   4.0169   4.6961   5.3520   7.9116   8.1002   8.2703   8.8154
     9.1740   9.2876   9.5389  10.1961  10.3182  11.2528  11.8677  12.6915
    12.9624  13.3050  13.4898  14.1668  14.3253  14.3814  14.9814  15.0138

          k = 0.1052 0.4209-0.1341 ( 10322 PWs)   bands (ev):

   -32.3749 -32.3737  -0.8685   0.2495   0.4283   1.5000   1.9541   2.5546
     3.2626   3.7413   5.0891   6.3071   6.6037   7.5911   7.9213   8.9596
     9.1358  10.0454  10.3733  10.5792  10.6988  11.1424  12.0025  12.2236
    12.2800  12.5305  13.6062  13.6071  14.3470  14.6886  14.8074  15.1043

          k = 0.2104 0.2104 0.0000 ( 10333 PWs)   bands (ev):

   -32.3773 -32.3731  -2.1798  -0.9866   0.4085   2.1790   2.8726   4.1952
     4.2605   5.2211   5.5099   5.7925   6.7523   6.9066   7.3025   8.1416
     8.2526   8.9061   9.4572  10.4380  11.4729  12.1308  12.2791  12.6539
    12.9650  13.5169  13.5191  14.4226  14.4293  14.5305  14.6321  15.2915

          k = 0.2104 0.2104-0.1341 ( 10328 PWs)   bands (ev):

   -32.3773 -32.3731  -2.1749  -1.0293   0.6802   1.4734   3.8079   4.2287
     4.2619   4.9854   5.3229   5.5162   6.5653   6.7394   7.0070   8.4266
     9.1831   9.9616  10.1315  10.1495  10.1846  10.8877  11.4543  12.3898
    13.2032  13.4610  14.3568  14.4912  14.6480  15.2824  15.3054  15.6680

          k = 0.2104 0.3156 0.0000 ( 10332 PWs)   bands (ev):

   -32.3754 -32.3727  -1.4532  -0.2688   1.0747   2.4095   2.8260   3.5283
     3.5698   4.4924   5.0143   6.0496   6.1982   7.0542   7.4169   7.5684
     7.9889   8.7069   9.1463   9.4679   9.8626  10.8819  11.3722  11.3799
    12.5400  12.9807  13.7679  14.2472  14.2789  14.6171  15.1177  16.1208

          k = 0.2104 0.3156-0.1341 ( 10342 PWs)   bands (ev):

   -32.3754 -32.3727  -1.4477  -0.3169   1.3771   2.0792   2.4372   3.4550
     4.4983   4.8974   5.1829   5.1989   5.9195   6.2458   7.4432   8.2968
     8.5590   8.6570   9.3142   9.5508   9.9400  10.6506  10.8603  11.8488
    11.9894  12.3317  13.5965  14.3947  14.6417  15.4621  15.7749  16.0120

          k = 0.2104 0.4209 0.0000 ( 10333 PWs)   bands (ev):

   -32.3738 -32.3729  -0.4414   0.7284   0.8509   1.8957   2.1163   3.1583
     3.7384   4.4151   5.0004   5.6874   5.9370   7.0041   7.1641   7.9893
     8.2833   8.4895   8.9003   9.2894   9.5945   9.6419  10.3597  11.1380
    11.3366  12.0772  14.3330  14.7348  14.7901  15.0198  15.7423  15.9099

          k = 0.2104 0.4209-0.1341 ( 10338 PWs)   bands (ev):

   -32.3738 -32.3729  -0.4349   0.6723   0.8583   1.9178   2.3678   2.9202
     3.6469   4.0445   5.5035   5.9318   6.6606   6.7737   7.1585   7.1808
     7.5895   8.2471   8.9504   9.2202   9.8535   9.9829  11.3268  11.6347
    11.8614  12.4263  12.4387  12.9405  14.3840  14.9177  16.8346  16.9791

          k = 0.3156 0.3156 0.0000 ( 10354 PWs)   bands (ev):

   -32.3738 -32.3721  -0.7298   0.4461   1.7287   3.0784   3.1406   3.4704
     4.1099   4.1889   4.4243   4.6567   5.8667   6.8977   7.0495   7.1535
     7.6553   7.9375   8.1786   8.5017   8.7263   9.3532  10.9942  11.1126
    11.7761  12.0143  12.1716  13.7045  14.3155  14.9695  15.6869  16.7817

          k = 0.3156 0.3156-0.1341 ( 10400 PWs)   bands (ev):

   -32.3739 -32.3721  -0.7234   0.3906   2.0719   2.6811   3.1142   3.1587
     3.8604   4.4017   5.1954   5.4515   5.6222   5.9740   6.3730   6.9046
     7.7402   7.9995   8.8758   9.0848   9.1183   9.6503   9.7115  11.1312
    11.6101  11.7088  12.7012  14.0084  14.6591  14.8098  14.8456  16.9834

          k = 0.3156 0.4209 0.0000 ( 10360 PWs)   bands (ev):

   -32.3725 -32.3719   0.2774   1.4396   1.5623   2.5668   2.7673   3.6475
     4.1827   4.3469   5.0619   5.2275   5.3898   5.3905   6.2402   6.4629
     6.9502   7.8395   8.3481   8.6377   8.8357   9.1025   9.8546  10.6481
    10.6918  10.8368  12.9776  13.8175  14.2293  14.3256  15.7886  16.2241

          k = 0.3156 0.4209-0.1341 ( 10366 PWs)   bands (ev):

   -32.3725 -32.3719   0.2852   1.3711   1.5725   2.5986   3.0489   3.4889
     4.0567   4.3643   4.3823   5.3647   5.3964   6.1136   6.5425   6.7015
     6.9825   7.4683   7.8239   8.4421   8.5527   8.8248   9.9651  11.1295
    11.6928  11.7830  11.8562  12.8820  14.1506  14.3632  15.2889  16.3738

          k = 0.4209 0.4209 0.0000 ( 10362 PWs)   bands (ev):

   -32.3716 -32.3714   1.2773   2.4262   2.5137   2.5822   3.3561   3.5489
     3.8477   3.9267   4.0825   4.9389   5.0746   5.3606   5.9227   6.4916
     6.6001   6.6743   7.4673   7.7512   8.3365   8.4424  10.3873  10.4416
    10.5827  11.4997  11.6127  12.7381  13.4235  13.6911  16.5939  16.6299

          k = 0.4209 0.4209-0.1341 ( 10390 PWs)   bands (ev):

   -32.3716 -32.3714   1.2879   2.3283   2.5506   2.5820   3.2923   3.7575
     3.8461   4.0792   4.0990   4.8905   5.0543   5.0725   5.4236   6.3455
     7.0772   7.2102   7.5952   8.2304   8.4822   8.5391   8.5768   9.6819
    11.2311  11.4488  12.5974  13.5124  13.9300  14.3217  14.4159  14.9738

     the Fermi energy is    13.6151 ev

!    total energy              =    -129.46478774 Ry
     estimated scf accuracy    <          1.1E-09 Ry
     smearing contrib. (-TS)   =      -0.00162428 Ry
     internal energy E=F+TS    =    -129.46316346 Ry

     The total energy is F=E-TS. E is the sum of the following terms:
     one-electron contribution =      53.31470457 Ry
     hartree contribution      =       7.35934209 Ry
     xc contribution           =     -46.85824328 Ry
     ewald contribution        =    -143.27896684 Ry

     convergence has been achieved in  12 iterations

     Forces acting on atoms (cartesian axes, Ry/au):

     atom    1 type  1   force =     0.00000000    0.00000000    0.01431733
     atom    2 type  1   force =     0.00000000    0.00000000    0.01431733
     atom    3 type  1   force =     0.00000000    0.00000000   -0.01431733
     atom    4 type  1   force =     0.00000000    0.00000000   -0.01431733
     atom    5 type  1   force =     0.00000000    0.00000000    0.00000000
     atom    6 type  1   force =     0.00000000    0.00000000    0.00000000
     atom    7 type  1   force =     0.00000000    0.00000000    0.00000000
     atom    8 type  1   force =     0.00000000    0.00000000    0.00000000
     atom    9 type  1   force =     0.00000000    0.00000000   -0.00006704
     atom   10 type  1   force =     0.00000000    0.00000000    0.00006704
     atom   11 type  1   force =     0.00000000    0.00000000    0.00252456
     atom   12 type  1   force =     0.00000000    0.00000000   -0.00252456
     atom   13 type  2   force =     0.00000000    0.00000000   -0.01203897
     atom   14 type  2   force =     0.00000000    0.00000000    0.01203897
     The non-local contrib.  to forces
     atom    1 type  1   force =     0.00000000    0.00000000    0.08638077
     atom    2 type  1   force =     0.00000000    0.00000000    0.08638077
     atom    3 type  1   force =     0.00000000    0.00000000   -0.08638077
     atom    4 type  1   force =     0.00000000    0.00000000   -0.08638077
     atom    5 type  1   force =     0.00000000    0.00000000    0.00000000
     atom    6 type  1   force =     0.00000000    0.00000000   -0.00000000
     atom    7 type  1   force =     0.00000000    0.00000000   -0.00000000
     atom    8 type  1   force =     0.00000000    0.00000000    0.00000000
     atom    9 type  1   force =     0.00000000    0.00000000    0.00632744
     atom   10 type  1   force =     0.00000000    0.00000000   -0.00632744
     atom   11 type  1   force =     0.00000000    0.00000000   -0.00154432
     atom   12 type  1   force =     0.00000000    0.00000000    0.00154432
     atom   13 type  2   force =     0.00000000    0.00000000    0.00134027
     atom   14 type  2   force =     0.00000000    0.00000000   -0.00134027
     The ionic contribution  to forces
     atom    1 type  1   force =    -0.00000000   -0.00000000   -0.15701599
     atom    2 type  1   force =    -0.00000000   -0.00000000   -0.15701599
     atom    3 type  1   force =    -0.00000000   -0.00000000    0.15701599
     atom    4 type  1   force =    -0.00000000   -0.00000000    0.15701599
     atom    5 type  1   force =    -0.00000000   -0.00000000    0.00000000
     atom    6 type  1   force =    -0.00000000   -0.00000000    0.00000000
     atom    7 type  1   force =    -0.00000000   -0.00000000   -0.00000000
     atom    8 type  1   force =    -0.00000000   -0.00000000   -0.00000000
     atom    9 type  1   force =    -0.00000000   -0.00000000   -0.17659171
     atom   10 type  1   force =    -0.00000000   -0.00000000    0.17659171
     atom   11 type  1   force =    -0.00000000   -0.00000000    0.23954482
     atom   12 type  1   force =    -0.00000000   -0.00000000   -0.23954482
     atom   13 type  2   force =    -0.00000000   -0.00000000    0.02367640
     atom   14 type  2   force =    -0.00000000   -0.00000000   -0.02367640
     The local contribution  to forces
     atom    1 type  1   force =    -0.00000000   -0.00000000    0.08880885
     atom    2 type  1   force =    -0.00000000   -0.00000000    0.08880885
     atom    3 type  1   force =    -0.00000000   -0.00000000   -0.08880885
[...]
     4.7772   5.1429   6.4983   7.0832   7.8951   8.7386   8.8950   9.5207
    10.0427  10.2088  10.4958  10.6051  10.9023  11.3260  13.0539  13.1379
    13.5008  14.0932  14.2046  14.6401  15.0003  15.1980  15.2375  15.3088

          k = 0.0000 0.3186 0.0000 ( 12048 PWs)   bands (ev):

   -32.1280 -32.1252  -2.1045  -0.8921   0.6654   1.8451   2.4011   3.0468
     3.1396   4.3944   6.0733   6.8742   7.0992   7.6877   8.5715   9.6605
    10.3877  10.5999  10.7287  11.1676  12.1713  12.2846  12.4318  13.0171
    13.0992  13.2648  13.4062  13.4614  14.5779  14.9286  14.9548  15.6287

          k = 0.0000 0.3186-0.1337 ( 12052 PWs)   bands (ev):

   -32.1280 -32.1252  -2.1014  -0.9189   0.8557   1.7769   1.9127   2.9736
     3.9450   4.7266   5.1606   6.0373   7.7919   8.5812   9.0678   9.4262
     9.5802  10.7218  10.7636  11.1722  11.5692  11.9383  12.3029  12.7156
    13.2786  13.3663  14.1738  14.7020  14.7294  14.9553  14.9944  15.0005

          k = 0.0000 0.4248 0.0000 ( 12030 PWs)   bands (ev):

   -32.1263 -32.1253  -1.0702   0.1290   0.2499   1.4017   1.6722   2.8652
     3.3539   4.0321   4.7374   5.4227   8.0547   8.4529   9.2777   9.4852
     9.5329  10.6074  10.7825  11.6088  11.8248  11.9307  12.8397  12.8666
    12.9561  13.4007  13.5043  14.0974  14.2376  14.3281  14.7161  14.7561

          k = 0.0000 0.4248-0.1337 ( 12060 PWs)   bands (ev):

   -32.1263 -32.1253  -1.0668   0.0991   0.2536   1.3907   1.8591   2.6716
     3.2305   3.9203   4.9722   6.2327   6.7658   7.8202   9.5424  10.2482
    10.5312  10.7887  11.0738  11.5441  11.7420  11.7630  12.1451  12.4552
    12.9574  13.0415  13.4140  13.5035  13.8021  14.0890  15.0112  15.1299

          k = 0.1062 0.1062 0.0000 ( 12049 PWs)   bands (ev):

   -32.1310 -32.1260  -3.1452  -1.9210  -0.3123   1.4776   2.1973   5.8824
     5.9202   6.1164   6.7471   6.9242   7.1540   7.8851   8.4695   9.8610
    10.1797  10.2121  11.0233  11.4001  11.4505  12.1860  12.2851  12.5616
    12.8692  13.0617  13.8428  14.0374  14.5958  14.6428  14.8038  15.4404

          k = 0.1062 0.1062-0.1337 ( 12036 PWs)   bands (ev):

   -32.1310 -32.1260  -3.1425  -1.9442  -0.1471   0.9332   2.9454   4.8953
     5.8989   5.9237   6.8049   7.1101   8.4851   8.5766   8.5944   8.6178
     9.6131  10.0730  11.4143  11.4875  11.5871  11.6865  12.0418  12.3041
    12.9232  13.3412  13.6218  14.2824  14.4247  14.6170  15.3727  15.4950

          k = 0.1062 0.2124 0.0000 ( 12048 PWs)   bands (ev):

   -32.1295 -32.1254  -2.6984  -1.4792   0.1080   1.8807   2.6071   3.8470
     5.0012   6.1079   6.3989   6.5396   7.1392   7.4630   7.7855   8.6489
     9.0127  10.4471  10.9898  11.7626  12.2845  12.3377  12.5468  12.9824
    13.1933  13.3062  13.8154  14.0462  14.4739  14.8704  14.9980  15.2543

          k = 0.1062 0.2124-0.1337 ( 12052 PWs)   bands (ev):

   -32.1295 -32.1254  -2.6955  -1.5040   0.2843   1.3209   3.3791   3.8545
     4.9130   5.2631   6.3032   6.6693   7.0155   7.5061   8.8565   8.9725
     9.7336   9.7600  10.3522  10.8097  11.8802  12.1182  12.6708  12.9667
    13.3755  13.7994  14.2207  14.2246  14.6196  15.1905  15.3136  15.5991

          k = 0.1062 0.3186 0.0000 ( 12057 PWs)   bands (ev):

   -32.1275 -32.1249  -1.9564  -0.7456   0.8039   1.9896   2.5361   3.1870
     3.2777   4.5125   6.1777   6.9880   7.0364   7.2304   7.7470   8.1423
     9.4921  10.6306  10.7168  10.8024  11.3617  11.8932  12.1843  12.6541
    12.9175  13.2920  13.7696  13.8866  14.7994  14.9765  15.5859  15.8269

          k = 0.1062 0.3186-0.1337 ( 12056 PWs)   bands (ev):

   -32.1275 -32.1249  -1.9531  -0.7731   0.9991   1.9136   2.0485   3.1135
     4.0889   4.8600   5.2797   6.1092   7.0412   7.8134   8.2697   8.9611
     9.5232  10.0310  10.3365  10.5061  11.2217  11.8452  12.4801  12.7998
    13.1336  13.6114  13.7537  13.7691  14.0059  14.9099  16.0102  16.0489

          k = 0.1062 0.4248 0.0000 ( 12048 PWs)   bands (ev):

   -32.1259 -32.1249  -0.9230   0.2748   0.3959   1.5467   1.8077   2.9975
     3.4855   4.1704   4.8507   5.5456   7.9950   8.1572   8.5010   8.9865
     9.3039   9.4071   9.7379  10.4203  10.5124  11.5908  12.1151  12.9801
    13.2063  13.5147  13.7085  14.3542  14.5027  14.5280  15.3230  15.3599

          k = 0.1062 0.4248-0.1337 ( 12060 PWs)   bands (ev):

   -32.1259 -32.1249  -0.9194   0.2438   0.3997   1.5342   2.0011   2.8026
     3.3618   4.0357   5.1141   6.3704   6.8538   7.8634   8.0330   9.1021
     9.2470  10.2054  10.4677  10.7660  10.9454  11.3667  12.2041  12.4134
    12.6367  12.7265  13.7834  13.9027  14.6091  14.9564  15.0041  15.4578

          k = 0.2124 0.2124 0.0000 ( 12057 PWs)   bands (ev):

   -32.1280 -32.1247  -2.2528  -1.0385   0.5260   2.2826   3.0171   4.2443
     4.2961   5.2849   5.5748   6.2106   6.8899   6.9598   7.4816   8.3128
     8.5676   9.1085   9.6575  10.5774  11.6137  12.3971  12.6114  12.7417
    13.0738  13.6531  13.7225  14.6985  14.7281  14.7802  14.9283  15.6297

          k = 0.2124 0.2124-0.1337 ( 12038 PWs)   bands (ev):

   -32.1280 -32.1247  -2.2497  -1.0651   0.7147   1.7065   3.8115   4.2634
     4.2977   5.1507   5.4988   5.6556   6.9002   6.9897   7.0788   8.7045
     9.2384  10.0411  10.2599  10.2806  10.5042  11.0809  11.6425  12.6950
    13.4391  13.8767  14.5595  14.7285  14.9100  15.5165  15.5351  16.0215

          k = 0.2124 0.3186 0.0000 ( 12045 PWs)   bands (ev):

   -32.1262 -32.1241  -1.5127  -0.3067   1.2176   2.4219   2.9385   3.6051
     3.6896   4.7519   5.0957   6.1359   6.3720   7.2978   7.6190   7.6334
     8.1799   8.8369   9.3306   9.7107   9.9884  11.1996  11.5166  11.6177
    12.7828  13.1580  13.9758  14.3781  14.4834  14.8779  15.3660  16.3532

          k = 0.2124 0.3186-0.1337 ( 12028 PWs)   bands (ev):

   -32.1262 -32.1241  -1.5092  -0.3366   1.4279   2.3149   2.4606   3.5269
     4.5187   4.9509   5.3179   5.5336   6.0975   6.4046   7.6343   8.3977
     8.7536   8.8418   9.5803   9.6979  10.0245  10.7923  11.0566  12.0256
    12.3688  12.6441  13.7192  14.5908  14.8423  15.7634  16.0327  16.3067

          k = 0.2124 0.4248 0.0000 ( 12031 PWs)   bands (ev):

   -32.1248 -32.1240  -0.4821   0.7112   0.8330   1.9805   2.2108   3.3849
     3.8746   4.5819   5.1698   5.9056   5.9948   7.0901   7.2380   8.1600
     8.5154   8.5908   9.0623   9.5487   9.6999   9.8997  10.5950  11.3880
    11.5680  12.3461  14.4267  14.9379  14.9555  15.1912  15.9625  16.1363

          k = 0.2124 0.4248-0.1337 ( 12042 PWs)   bands (ev):

   -32.1248 -32.1240  -0.4781   0.6768   0.8375   1.9626   2.4259   3.1877
     3.7544   4.3620   5.5352   5.9945   6.7052   7.0310   7.2442   7.3133
     7.8874   8.3797   9.1119   9.5213  10.0367  10.1932  11.5479  11.7764
    12.0370  12.5797  12.6825  13.1164  14.6465  15.2607  16.5040  17.0188

          k = 0.3186 0.3186 0.0000 ( 12023 PWs)   bands (ev):

   -32.1247 -32.1233  -0.7759   0.4219   1.8997   3.1108   3.1635   3.5948
     4.1572   4.3656   4.4761   5.0569   5.9367   6.9674   7.2043   7.4474
     7.8387   8.0756   8.2933   8.6616   8.8980   9.6049  11.2381  11.3506
    12.0293  12.1106  12.3832  13.9767  14.3791  15.1483  15.9179  17.0365

          k = 0.3186 0.3186-0.1337 ( 12028 PWs)   bands (ev):

   -32.1247 -32.1233  -0.7719   0.3878   2.1384   2.9480   3.1312   3.1871
     4.0138   4.4490   5.2225   5.7602   5.8583   6.0255   6.6418   6.9957
     7.9754   8.1202   8.9622   9.2019   9.4134   9.8231   9.9220  11.3382
    11.9049  11.9053  12.8673  14.0811  14.8392  15.0682  15.1470  17.2116

          k = 0.3186 0.4248 0.0000 ( 12006 PWs)   bands (ev):

   -32.1234 -32.1229   0.2500   1.4355   1.5584   2.6976   2.8674   3.8987
     4.2559   4.4933   5.2530   5.3062   5.4444   5.5643   6.4662   6.5465
     7.0965   8.0463   8.5207   8.8533   9.0730   9.2125  10.0750  10.7905
    10.9088  11.0540  13.1430  14.0863  14.4040  14.5275  15.9868  16.3292

          k = 0.3186 0.4248-0.1337 ( 12040 PWs)   bands (ev):

   -32.1234 -32.1229   0.2548   1.3941   1.5644   2.6661   3.1274   3.7914
     4.1059   4.4753   4.7256   5.4197   5.4472   6.1450   6.6856   6.8335
     7.2767   7.5493   8.0732   8.7066   8.7200   9.0899  10.0834  11.2822
    11.8701  11.9904  12.1187  12.9759  14.3999  14.5784  15.4461  16.5353

          k = 0.4248 0.4248 0.0000 ( 12018 PWs)   bands (ev):

   -32.1225 -32.1223   1.2687   2.4408   2.5373   2.5936   3.5878   3.6038
     3.8909   3.9883   4.4725   5.0177   5.2259   5.4113   6.1394   6.6371
     6.8225   6.8827   7.6273   7.9274   8.4819   8.6560  10.5221  10.6490
    10.8086  11.5866  11.8164  12.9056  13.6810  13.9527  16.6319  17.0749

          k = 0.4248 0.4248-0.1337 ( 12036 PWs)   bands (ev):

   -32.1225 -32.1223   1.2751   2.3839   2.5584   2.5930   3.4395   3.8141
     3.8902   4.1639   4.4335   5.1367   5.1856   5.2815   5.4502   6.5163
     7.2904   7.3029   7.8415   8.3885   8.6424   8.6476   8.8600   9.7989
    11.5132  11.7423  12.6836  13.5676  14.0903  14.5412  14.6304  15.1132

     the Fermi energy is    13.8634 ev

!    total energy              =    -129.41996497 Ry
     estimated scf accuracy    <          1.7E-11 Ry
     smearing contrib. (-TS)   =      -0.00141529 Ry
     internal energy E=F+TS    =    -129.41854968 Ry

     The total energy is F=E-TS. E is the sum of the following terms:
     one-electron contribution =      53.73176273 Ry
     hartree contribution      =       7.58344668 Ry
     xc contribution           =     -47.04773221 Ry
     ewald contribution        =    -143.68602687 Ry

     convergence has been achieved in  13 iterations

     Forces acting on atoms (cartesian axes, Ry/au):

     atom    1 type  1   force =     0.00000000    0.00000000   -0.00000745
     atom    2 type  1   force =     0.00000000    0.00000000   -0.00000745
     atom    3 type  1   force =     0.00000000    0.00000000    0.00000745
     atom    4 type  1   force =     0.00000000    0.00000000    0.00000745
     atom    5 type  1   force =     0.00000000    0.00000000    0.00000000
     atom    6 type  1   force =     0.00000000    0.00000000    0.00000000
     atom    7 type  1   force =     0.00000000    0.00000000    0.00000000
     atom    8 type  1   force =     0.00000000    0.00000000    0.00000000
     atom    9 type  1   force =     0.00000000    0.00000000    0.00006415
     atom   10 type  1   force =     0.00000000    0.00000000   -0.00006415
     atom   11 type  1   force =     0.00000000    0.00000000    0.00022228
     atom   12 type  1   force =     0.00000000    0.00000000   -0.00022228
     atom   13 type  2   force =     0.00000000    0.00000000    0.00026205
     atom   14 type  2   force =     0.00000000    0.00000000   -0.00026205
     The non-local contrib.  to forces
     atom    1 type  1   force =     0.00000000    0.00000000    0.07347925
     atom    2 type  1   force =     0.00000000    0.00000000    0.07347925
     atom    3 type  1   force =     0.00000000    0.00000000   -0.07347925
     atom    4 type  1   force =     0.00000000    0.00000000   -0.07347925
     atom    5 type  1   force =     0.00000000    0.00000000    0.00000000
     atom    6 type  1   force =     0.00000000    0.00000000   -0.00000000
     atom    7 type  1   force =     0.00000000    0.00000000    0.00000000
     atom    8 type  1   force =     0.00000000    0.00000000   -0.00000000
     atom    9 type  1   force =     0.00000000    0.00000000    0.00774658
     atom   10 type  1   force =     0.00000000    0.00000000   -0.00774658
     atom   11 type  1   force =     0.00000000    0.00000000   -0.00360414
     atom   12 type  1   force =     0.00000000    0.00000000    0.00360414
     atom   13 type  2   force =     0.00000000    0.00000000    0.00447045
     atom   14 type  2   force =     0.00000000    0.00000000   -0.00447045
     The ionic contribution  to forces
     atom    1 type  1   force =    -0.00000000   -0.00000000   -0.78847660
     atom    2 type  1   force =     0.00000000    0.00000000   -0.78847660
     atom    3 type  1   force =     0.00000000    0.00000000    0.78847660
     atom    4 type  1   force =    -0.00000000   -0.00000000    0.78847660
     atom    5 type  1   force =    -0.00000000   -0.00000000    0.00000000
     atom    6 type  1   force =     0.00000000    0.00000000    0.00000000
     atom    7 type  1   force =    -0.00000000   -0.00000000   -0.00000000
     atom    8 type  1   force =     0.00000000    0.00000000   -0.00000000
     atom    9 type  1   force =    -0.00000000    0.00000000   -0.47863836
     atom   10 type  1   force =    -0.00000000   -0.00000000    0.47863836
     atom   11 type  1   force =    -0.00000000    0.00000000    0.48068556
     atom   12 type  1   force =     0.00000000   -0.00000000   -0.48068556
     atom   13 type  2   force =    -0.00000000    0.00000000    0.33350675
     atom   14 type  2   force =     0.00000000   -0.00000000   -0.33350675
     The local contribution  to forces
     atom    1 type  1   force =     0.00000000   -0.00000000    0.71739879
     atom    2 type  1   force =     0.00000000   -0.00000000    0.71739879
     atom    3 type  1   force =    -0.00000000    0.00000000   -0.71739879
     atom    4 type  1   force =    -0.00000000    0.00000000   -0.71739879
     atom    5 type  1   force =    -0.00000000   -0.00000000    0.00000000
     atom    6 type  1   force =    -0.00000000   -0.00000000   -0.00000000
     atom    7 type  1   force =     0.00000000    0.00000000    0.00000000
     atom    8 type  1   force =    -0.00000000   -0.00000000    0.00000000
     atom    9 type  1   force =     0.00000000   -0.00000000    0.47162274
     atom   10 type  1   force =     0.00000000   -0.00000000   -0.47162274
     atom   11 type  1   force =     0.00000000   -0.00000000   -0.47607116
     atom   12 type  1   force =    -0.00000000   -0.00000000    0.47607116
     atom   13 type  2   force =    -0.00000000    0.00000000   -0.33771223
     atom   14 type  2   force =     0.00000000   -0.00000000    0.33771223
     The core correction contribution to forces
     atom    1 type  1   force =     0.00000000   -0.00000000   -0.00241365
     atom    2 type  1   force =    -0.00000000   -0.00000000   -0.00241365
     atom    3 type  1   force =    -0.00000000   -0.00000000    0.00241365
     atom    4 type  1   force =    -0.00000000   -0.00000000    0.00241365
     atom    5 type  1   force =    -0.00000000   -0.00000000   -0.00000000
     atom    6 type  1   force =    -0.00000000   -0.00000000   -0.00000000
     atom    7 type  1   force =     0.00000000    0.00000000    0.00000000
     atom    8 type  1   force =    -0.00000000   -0.00000000    0.00000000
     atom    9 type  1   force =     0.00000000   -0.00000000   -0.00066807
     atom   10 type  1   force =    -0.00000000   -0.00000000    0.00066807
     atom   11 type  1   force =    -0.00000000   -0.00000000   -0.00078669
     atom   12 type  1   force =    -0.00000000    0.00000000    0.00078669
     atom   13 type  2   force =     0.00000000    0.00000000    0.00000000
     atom   14 type  2   force =     0.00000000    0.00000000    0.00000000
     The Hubbard contrib.    to forces
     atom    1 type  1   force =     0.00000000    0.00000000    0.00000000
     atom    2 type  1   force =     0.00000000    0.00000000    0.00000000
     atom    3 type  1   force =     0.00000000    0.00000000    0.00000000
     atom    4 type  1   force =     0.00000000    0.00000000    0.00000000
     atom    5 type  1   force =     0.00000000    0.00000000    0.00000000
     atom    6 type  1   force =     0.00000000    0.00000000    0.00000000
     atom    7 type  1   force =     0.00000000    0.00000000    0.00000000
     atom    8 type  1   force =     0.00000000    0.00000000    0.00000000
     atom    9 type  1   force =     0.00000000    0.00000000    0.00000000
     atom   10 type  1   force =     0.00000000    0.00000000    0.00000000
     atom   11 type  1   force =     0.00000000    0.00000000    0.00000000
     atom   12 type  1   force =     0.00000000    0.00000000    0.00000000
     atom   13 type  2   force =     0.00000000    0.00000000    0.00000000
     atom   14 type  2   force =     0.00000000    0.00000000    0.00000000
     The SCF correction term to forces
     atom    1 type  1   force =     0.00000000   -0.00000000    0.00000476
     atom    2 type  1   force =    -0.00000000    0.00000000    0.00000476
     atom    3 type  1   force =     0.00000000   -0.00000000   -0.00000476
     atom    4 type  1   force =     0.00000000    0.00000000   -0.00000476
     atom    5 type  1   force =    -0.00000000    0.00000000   -0.00000000
     atom    6 type  1   force =     0.00000000   -0.00000000   -0.00000000
     atom    7 type  1   force =    -0.00000000   -0.00000000    0.00000000
     atom    8 type  1   force =    -0.00000000   -0.00000000    0.00000000
     atom    9 type  1   force =    -0.00000000    0.00000000    0.00000126
     atom   10 type  1   force =    -0.00000000    0.00000000   -0.00000126
     atom   11 type  1   force =     0.00000000   -0.00000000   -0.00000129
     atom   12 type  1   force =     0.00000000    0.00000000    0.00000129
     atom   13 type  2   force =    -0.00000000    0.00000000   -0.00000292
     atom   14 type  2   force =     0.00000000    0.00000000    0.00000292

     Total force =     0.000495     Total SCF correction =     0.000011


     Computing stress (Cartesian axis) and pressure

          total   stress  (Ry/bohr**3)                   (kbar)     P=      500.03
   0.00339956   0.00000000   0.00000000          500.09        0.00        0.00
   0.00000000   0.00339956   0.00000000            0.00      500.09        0.00
   0.00000000   0.00000000   0.00339824            0.00        0.00      499.90


     Writing all to output data dir ./output/SiLi.save/

     init_run     :      4.55s CPU      6.25s WALL (       2 calls)
     electrons    :    431.01s CPU    476.07s WALL (      12 calls)
     update_pot   :      9.00s CPU      9.10s WALL (      10 calls)
     forces       :     13.59s CPU     13.82s WALL (      12 calls)
     stress       :    110.16s CPU    112.42s WALL (      12 calls)

     Called by init_run:
     wfcinit      :      2.83s CPU      3.97s WALL (       2 calls)
     potinit      :      0.85s CPU      1.10s WALL (       2 calls)
     hinit0       :      0.69s CPU      0.90s WALL (       2 calls)

     Called by electrons:
     c_bands      :    395.37s CPU    433.99s WALL (     134 calls)
     sum_band     :     33.45s CPU     38.90s WALL (     134 calls)
     v_of_rho     :      2.04s CPU      2.96s WALL (     144 calls)
     mix_rho      :      0.27s CPU      0.36s WALL (     134 calls)

     Called by c_bands:
     init_us_2    :      9.11s CPU      9.98s WALL (    8820 calls)
     init_us_2:cp :      9.08s CPU      9.97s WALL (    8820 calls)
     cegterg      :    363.57s CPU    399.80s WALL (    4020 calls)

     Called by *egterg:
     cdiaghg      :     28.39s CPU     28.97s WALL (   22485 calls)
     h_psi        :    276.24s CPU    312.02s WALL (   22905 calls)
     g_psi        :      1.28s CPU      1.31s WALL (   18825 calls)

     Called by h_psi:
     h_psi:calbec :     56.46s CPU     58.63s WALL (   22905 calls)
     vloc_psi     :    168.88s CPU    201.73s WALL (   22905 calls)
     add_vuspsi   :     49.54s CPU     50.28s WALL (   22905 calls)

     General routines
     calbec       :     65.10s CPU     67.41s WALL (   24705 calls)
     fft          :      1.56s CPU      2.76s WALL (    1740 calls)
     ffts         :      0.07s CPU      0.11s WALL (     134 calls)
     fftw         :    173.25s CPU    206.85s WALL (  915542 calls)

     Parallel routines

     PWSCF        :   9m28.76s CPU  10m18.73s WALL


   This run was terminated on:   4:28:58  30Dec2024            

=------------------------------------------------------------------------------=
   JOB DONE.
=------------------------------------------------------------------------------=
