
     Program PWSCF v.7.2 starts on 30Dec2024 at  3:42:19 

     This program is part of the open-source Quantum ESPRESSO suite
     for quantum simulation of materials; please cite
         "P. Giannozzi et al., J. Phys.:Condens. Matter 21 395502 (2009);
         "P. Giannozzi et al., J. Phys.:Condens. Matter 29 465901 (2017);
         "P. Giannozzi et al., J. Chem. Phys. 152 154105 (2020);
          URL http://www.quantum-espresso.org", 
     in publications or presentations arising from this work. More details at
     http://www.quantum-espresso.org/quote

     Parallel version (MPI & OpenMP), running on       8 processor cores
     Number of MPI processes:                 8
     Threads/MPI process:                     1

     MPI processes distributed on     1 nodes
     482012 MiB available memory on the printing compute node when the environment starts

     Waiting for input...
     Reading input from standard input

     Current dimensions of program PWSCF are:
     Max number of different atomic species (ntypx) = 10
     Max number of k-points (npk) =  40000
     Max angular momentum in pseudopotentials (lmaxx) =  4

     R & G space division:  proc/nbgrp/npool/nimage =       8
     Subspace diagonalization in iterative solution of the eigenvalue problem:
     a serial algorithm will be used


     Parallelization info
     --------------------
     sticks:   dense  smooth     PW     G-vecs:    dense   smooth      PW
     Min         280     280     79                 8385     8385    1291
     Max         281     281     80                 8388     8388    1295
     Sum        2247    2247    639                67095    67095   10347

     Using Slab Decomposition



     bravais-lattice index     =            5
     lattice parameter (alat)  =      10.4472  a.u.
     unit-cell volume          =     694.2575 (a.u.)^3
     number of atoms/cell      =            7
     number of atomic types    =            2
     number of electrons       =        22.00
     number of Kohn-Sham states=           15
     kinetic-energy cutoff     =      80.0000  Ry
     charge density cutoff     =     320.0000  Ry
     scf convergence threshold =      1.0E-08
     mixing beta               =       0.7000
     number of iterations used =            8  plain     mixing
     energy convergence thresh.=      1.0E-04
     force convergence thresh. =      1.0E-03
     press convergence thresh. =      1.0E+00
     Exchange-correlation= PBE
                           (   1   4   3   4   0   0   0)
     nstep                     =           50


     celldm(1)=  10.447201  celldm(2)=   0.000000  celldm(3)=   0.000000
     celldm(4)=   0.587069  celldm(5)=   0.000000  celldm(6)=   0.000000

     crystal axes: (cart. coord. in units of alat)
               a(1) = (   0.454385  -0.262339   0.851301 )  
               a(2) = (   0.000000   0.524678   0.851301 )  
               a(3) = (  -0.454385  -0.262339   0.851301 )  

     reciprocal axes: (cart. coord. in units 2 pi/alat)
               b(1) = (  1.100389 -0.635310  0.391558 )  
               b(2) = (  0.000000  1.270620  0.391558 )  
               b(3) = ( -1.100389 -0.635310  0.391558 )  


     PseudoPot. # 1 for Si read from file:
     ../pseudo/Si_ONCV_PBE_sr.upf
     MD5 check sum: e543d271109d17c80368dfa7c482276d
     Pseudo is Norm-conserving + core correction, Zval =  4.0
     Generated using ONCVPSP code by D. R. Hamann
     Using radial grid of 1510 points,  6 beta functions with: 
                l(1) =   0
                l(2) =   0
                l(3) =   1
                l(4) =   1
                l(5) =   2
                l(6) =   2

     PseudoPot. # 2 for Li read from file:
     ../pseudo/Li_ONCV_PBE_sr.upf
     MD5 check sum: 50ff420e78310ffa21704f3361e624a4
     Pseudo is Norm-conserving, Zval =  3.0
     Generated using ONCVPSP code by D. R. Hamann
     Using radial grid of 1944 points,  4 beta functions with: 
                l(1) =   0
                l(2) =   0
                l(3) =   1
                l(4) =   1

     atomic species   valence    mass     pseudopotential
        Si             4.00    28.08550     Si( 1.00)
        Li             3.00     6.94100     Li( 1.00)

      6 Sym. Ops., with inversion, found



   Cartesian axes

     site n.     atom                  positions (alat units)
         1           Si  tau(   1) = (   0.0000000   0.0000000   0.0000000  )
         2           Li  tau(   2) = (   0.1532885  -0.2666115   1.9183584  )
         3           Li  tau(   3) = (  -0.6076730  -0.5204057   0.6355436  )
         4           Li  tau(   4) = (  -0.3001365  -0.5209597   1.9183584  )
         5           Li  tau(   5) = (  -0.1542481  -0.2660575   0.6355436  )
         6           Li  tau(   6) = (   0.1468480  -0.7864631   1.9183584  )
         7           Li  tau(   7) = (  -0.6012326  -0.0005541   0.6355436  )

     number of k points=    40  Marzari-Vanderbilt smearing, width (Ry)=  0.0200
                       cart. coord. in units 2pi/alat
        k(    1) = (   0.0000000   0.0000000   0.0000000), wk =   0.0092593
        k(    2) = (  -0.1833982  -0.1058850   0.0652596), wk =   0.0555556
        k(    3) = (  -0.3667965  -0.2117700   0.1305192), wk =   0.0555556
        k(    4) = (   0.5501947   0.3176551  -0.1957788), wk =   0.0277778
        k(    5) = (  -0.1833982   0.1058850   0.1305192), wk =   0.0555556
        k(    6) = (  -0.3667965   0.0000000   0.1957788), wk =   0.0555556
        k(    7) = (   0.5501947   0.5294251  -0.1305192), wk =   0.0555556
        k(    8) = (   0.3667965   0.4235401  -0.0652596), wk =   0.0555556
        k(    9) = (   0.1833982   0.3176551   0.0000000), wk =   0.0555556
        k(   10) = (  -0.3667965   0.2117700   0.2610385), wk =   0.0555556
        k(   11) = (   0.5501947   0.7411952  -0.0652596), wk =   0.0555556
        k(   12) = (   0.3667965   0.6353101   0.0000000), wk =   0.0555556
        k(   13) = (   0.5501947  -0.3176551  -0.3915577), wk =   0.0277778
        k(   14) = (   0.0000000   0.0000000   0.1957788), wk =   0.0185185
        k(   15) = (  -0.1833982  -0.1058850   0.2610385), wk =   0.0555556
        k(   16) = (   0.7335930   0.4235401  -0.0652596), wk =   0.0555556
        k(   17) = (   0.5501947   0.3176551   0.0000000), wk =   0.0555556
        k(   18) = (   0.3667965   0.2117700   0.0652596), wk =   0.0555556
        k(   19) = (  -0.1833982   0.1058850   0.3262981), wk =   0.0555556
        k(   20) = (   0.7335930   0.6353101   0.0000000), wk =   0.0555556
        k(   21) = (   0.5501947   0.5294251   0.0652596), wk =   0.0555556
        k(   22) = (   0.3667965   0.4235401   0.1305192), wk =   0.0555556
        k(   23) = (   0.7335930  -0.4235401  -0.3262981), wk =   0.0555556
        k(   24) = (   0.5501947  -0.5294251  -0.2610385), wk =   0.0555556
        k(   25) = (   0.3667965  -0.6353101  -0.1957788), wk =   0.0555556
        k(   26) = (   0.5501947  -0.3176551  -0.1957788), wk =   0.0555556
        k(   27) = (   0.0000000   0.0000000   0.3915577), wk =   0.0185185
        k(   28) = (   0.9169912   0.5294251   0.0652596), wk =   0.0555556
        k(   29) = (   0.7335930   0.4235401   0.1305192), wk =   0.0555556
        k(   30) = (   0.9169912  -0.5294251  -0.2610385), wk =   0.0555556
        k(   31) = (   0.7335930  -0.6353101  -0.1957788), wk =   0.0555556
        k(   32) = (   0.0000000   0.0000000  -0.5873365), wk =   0.0092593
        k(   33) = (  -0.3667965   0.0000000  -0.1957788), wk =   0.0555556
        k(   34) = (   0.5501947  -0.5294251   0.1305192), wk =   0.0555556
        k(   35) = (   0.3667965  -0.4235401   0.0652596), wk =   0.0555556
        k(   36) = (   0.5501947  -0.7411952   0.0652596), wk =   0.0555556
        k(   37) = (   0.7335930  -0.6353101  -0.0000000), wk =   0.0555556
        k(   38) = (   0.5501947  -0.5294251  -0.0652596), wk =   0.0555556
        k(   39) = (   0.3667965  -0.4235401  -0.1305192), wk =   0.0555556
        k(   40) = (   0.5501947   0.5294251   0.2610385), wk =   0.0555556

     Dense  grid:    67095 G-vectors     FFT dimensions: (  60,  60,  60)

     Estimated max dynamical RAM per process >      29.12 MB

     Estimated total dynamical RAM >     232.93 MB

     Initial potential from superposition of free atoms

     starting charge      21.9720, renormalised to      22.0000
     Starting wfcs are   16 randomized atomic wfcs

     total cpu time spent up to now is        3.4 secs

     Self-consistent Calculation

     iteration #  1     ecut=    80.00 Ry     beta= 0.70
     Davidson diagonalization with overlap
     ethr =  1.00E-02,  avg # of iterations =  5.5

     total cpu time spent up to now is        5.4 secs

     total energy              =     -94.49607468 Ry
     estimated scf accuracy    <       0.48457374 Ry

     iteration #  2     ecut=    80.00 Ry     beta= 0.70
     Davidson diagonalization with overlap
     ethr =  2.20E-03,  avg # of iterations =  2.6

     total cpu time spent up to now is        6.8 secs

     total energy              =     -94.60516711 Ry
     estimated scf accuracy    <       0.58802068 Ry

     iteration #  3     ecut=    80.00 Ry     beta= 0.70
     Davidson diagonalization with overlap
     ethr =  2.20E-03,  avg # of iterations =  2.0

     total cpu time spent up to now is        8.0 secs

     total energy              =     -94.71171633 Ry
     estimated scf accuracy    <       0.00231154 Ry

     iteration #  4     ecut=    80.00 Ry     beta= 0.70
     Davidson diagonalization with overlap
     ethr =  1.05E-05,  avg # of iterations =  5.8

     total cpu time spent up to now is        9.7 secs

     total energy              =     -94.71235222 Ry
     estimated scf accuracy    <       0.00050407 Ry

     iteration #  5     ecut=    80.00 Ry     beta= 0.70
     Davidson diagonalization with overlap
     ethr =  2.29E-06,  avg # of iterations =  2.2

     total cpu time spent up to now is       10.9 secs

     total energy              =     -94.71241855 Ry
     estimated scf accuracy    <       0.00001541 Ry

     iteration #  6     ecut=    80.00 Ry     beta= 0.70
     Davidson diagonalization with overlap
     ethr =  7.00E-08,  avg # of iterations =  2.0

     total cpu time spent up to now is       12.1 secs

     total energy              =     -94.71242049 Ry
     estimated scf accuracy    <       0.00000048 Ry

     iteration #  7     ecut=    80.00 Ry     beta= 0.70
     Davidson diagonalization with overlap
     ethr =  2.18E-09,  avg # of iterations =  2.7

     total cpu time spent up to now is       13.5 secs

     total energy              =     -94.71242061 Ry
     estimated scf accuracy    <       0.00000004 Ry

     iteration #  8     ecut=    80.00 Ry     beta= 0.70
     Davidson diagonalization with overlap
     ethr =  1.62E-10,  avg # of iterations =  2.5

     total cpu time spent up to now is       14.7 secs

     End of self-consistent calculation

          k = 0.0000 0.0000 0.0000 (  8395 PWs)   bands (ev):

   -42.9991 -42.9591 -42.9518 -42.9518 -42.9497 -42.9497  -4.7826   1.1511
     1.7539   1.7539   1.8142   3.3406   4.7064   4.7064   5.4889

          k =-0.1834-0.1059 0.0653 (  8416 PWs)   bands (ev):

   -42.9958 -42.9582 -42.9550 -42.9530 -42.9502 -42.9492  -4.7310   0.6778
     1.5233   1.6941   1.9906   3.8786   3.9784   4.8763   6.1043

          k =-0.3668-0.2118 0.1305 (  8395 PWs)   bands (ev):

   -42.9869 -42.9634 -42.9553 -42.9541 -42.9520 -42.9497  -4.6193   0.0324
     1.1940   1.6074   2.2111   3.3769   4.1857   5.7952   5.9310

          k = 0.5502 0.3177-0.1958 (  8382 PWs)   bands (ev):

   -42.9767 -42.9730 -42.9539 -42.9538 -42.9526 -42.9514  -4.5582  -0.2337
     1.0636   1.5731   2.2379   3.4650   3.8266   6.1698   6.4865

          k =-0.1834 0.1059 0.1305 (  8397 PWs)   bands (ev):

   -42.9949 -42.9590 -42.9544 -42.9531 -42.9512 -42.9488  -4.7220   0.6087
     1.3680   1.6463   2.2687   3.4635   4.4592   4.6663   6.2044

          k =-0.3668 0.0000 0.1958 (  8385 PWs)   bands (ev):

   -42.9881 -42.9599 -42.9575 -42.9539 -42.9537 -42.9483  -4.6345   0.2080
     1.0641   1.4064   2.5823   3.0586   4.3321   5.6761   6.6258

          k = 0.5502 0.5294-0.1305 (  8384 PWs)   bands (ev):

   -42.9778 -42.9689 -42.9568 -42.9549 -42.9539 -42.9491  -4.5497  -0.0935
     0.9736   1.0627   2.7198   2.9554   4.4870   6.0899   6.3936

          k = 0.3668 0.4235-0.0653 (  8383 PWs)   bands (ev):

   -42.9808 -42.9660 -42.9579 -42.9529 -42.9524 -42.9513  -4.5605  -0.0490
     0.9778   1.1388   2.6279   3.1156   4.3510   5.6103   6.2400

          k = 0.1834 0.3177 0.0000 (  8403 PWs)   bands (ev):

   -42.9905 -42.9578 -42.9571 -42.9550 -42.9507 -42.9504  -4.6541   0.3026
     1.2174   1.5010   2.2391   3.3752   4.5319   4.8420   5.9826

          k =-0.3668 0.2118 0.2610 (  8368 PWs)   bands (ev):

   -42.9840 -42.9591 -42.9583 -42.9571 -42.9550 -42.9478  -4.5912   0.0845
     0.9136   1.4826   2.2337   2.7633   4.9066   5.8573   6.5196

          k = 0.5502 0.7412-0.0653 (  8381 PWs)   bands (ev):

   -42.9760 -42.9633 -42.9623 -42.9569 -42.9552 -42.9477  -4.5307  -0.0033
     0.8213   0.9716   2.2386   3.0035   5.0440   6.0203   6.8428

          k = 0.3668 0.6353 0.0000 (  8394 PWs)   bands (ev):

   -42.9724 -42.9668 -42.9644 -42.9552 -42.9538 -42.9489  -4.5151   0.2108
     0.3179   0.9786   2.4714   3.4500   4.6288   5.4725   6.9595

          k = 0.5502-0.3177-0.3916 (  8368 PWs)   bands (ev):

   -42.9722 -42.9679 -42.9600 -42.9576 -42.9562 -42.9475  -4.5200  -0.1041
     0.7555   1.4356   1.9368   2.5465   5.2656   6.6922   7.1725

          k = 0.0000 0.0000 0.1958 (  8377 PWs)   bands (ev):

   -42.9964 -42.9618 -42.9518 -42.9518 -42.9498 -42.9498  -4.7556   0.5281
     1.7573   1.7573   2.5011   3.1491   4.7446   4.7446   5.4412

          k =-0.1834-0.1059 0.2610 (  8386 PWs)   bands (ev):

   -42.9916 -42.9624 -42.9562 -42.9520 -42.9512 -42.9481  -4.6932   0.2848
     1.1545   1.6626   2.8578   3.6340   3.8054   5.4148   6.0350

          k = 0.7336 0.4235-0.0653 (  8390 PWs)   bands (ev):

   -42.9820 -42.9654 -42.9599 -42.9549 -42.9513 -42.9479  -4.5885  -0.0053
     0.7341   1.4632   2.8612   3.1520   4.4243   5.8672   6.4148

          k = 0.5502 0.3177 0.0000 (  8369 PWs)   bands (ev):

   -42.9771 -42.9697 -42.9569 -42.9568 -42.9509 -42.9501  -4.5489  -0.1436
     0.8140   1.3879   2.5516   3.5222   3.6441   6.0521   6.7024

          k = 0.3668 0.2118 0.0653 (  8395 PWs)   bands (ev):

   -42.9876 -42.9597 -42.9567 -42.9549 -42.9531 -42.9494  -4.6206   0.1442
     1.1300   1.4713   2.3527   3.1198   4.1287   5.5278   6.4433

          k =-0.1834 0.1059 0.3263 (  8383 PWs)   bands (ev):

   -42.9892 -42.9647 -42.9551 -42.9534 -42.9509 -42.9481  -4.6742   0.1333
     1.1558   1.6553   2.8637   3.2302   4.3470   5.1385   6.4507

          k = 0.7336 0.6353 0.0000 (  8385 PWs)   bands (ev):

   -42.9818 -42.9645 -42.9600 -42.9569 -42.9508 -42.9475  -4.5938   0.0674
     0.6839   1.3749   2.6209   3.4350   4.4748   5.9451   6.4085

          k = 0.5502 0.5294 0.0653 (  8385 PWs)   bands (ev):

   -42.9724 -42.9689 -42.9612 -42.9598 -42.9504 -42.9487  -4.5293   0.0276
     0.5197   1.0765   2.4384   3.8811   4.0693   5.8007   6.7974

          k = 0.3668 0.4235 0.1305 (  8375 PWs)   bands (ev):

   -42.9801 -42.9619 -42.9604 -42.9572 -42.9523 -42.9494  -4.5512   0.0325
     0.7449   1.1872   2.5549   2.9927   4.3441   6.0666   6.5361

          k = 0.7336-0.4235-0.3263 (  8379 PWs)   bands (ev):

   -42.9770 -42.9657 -42.9615 -42.9585 -42.9511 -42.9476  -4.5593   0.0195
     0.5383   1.5082   2.3083   2.9610   5.1117   6.1619   6.6668

          k = 0.5502-0.5294-0.2610 (  8390 PWs)   bands (ev):

   -42.9704 -42.9663 -42.9638 -42.9617 -42.9511 -42.9480  -4.5195   0.0725
     0.5414   0.8843   2.4450   3.4058   4.5224   6.1471   6.7975

          k = 0.3668-0.6353-0.1958 (  8378 PWs)   bands (ev):

   -42.9719 -42.9687 -42.9604 -42.9596 -42.9508 -42.9500  -4.5151   0.1551
     0.4220   0.8990   2.5853   3.3815   4.4018   6.1275   6.4037

          k = 0.5502-0.3177-0.1958 (  8375 PWs)   bands (ev):

   -42.9753 -42.9635 -42.9630 -42.9591 -42.9521 -42.9483  -4.5298  -0.0495
     0.6069   1.3996   2.2256   2.9126   4.5387   6.4533   6.9582

          k = 0.0000 0.0000 0.3916 (  8425 PWs)   bands (ev):

   -42.9891 -42.9691 -42.9516 -42.9516 -42.9500 -42.9500  -4.6989  -0.0757
     1.7646   1.7646   2.6371   3.5251   4.8218   4.8218   5.1060

          k = 0.9170 0.5294 0.0653 (  8427 PWs)   bands (ev):

   -42.9835 -42.9704 -42.9563 -42.9537 -42.9495 -42.9480  -4.6437  -0.0968
     0.9907   1.6719   3.2325   3.5293   3.9134   5.5920   6.2955

          k = 0.7336 0.4235 0.1305 (  8400 PWs)   bands (ev):

   -42.9742 -42.9688 -42.9639 -42.9572 -42.9491 -42.9482  -4.5580   0.1409
     0.2528   1.4817   2.5680   3.5458   4.4365   5.9812   6.6977

          k = 0.9170-0.5294-0.2610 (  8417 PWs)   bands (ev):

   -42.9803 -42.9736 -42.9553 -42.9548 -42.9491 -42.9483  -4.6336  -0.1650
     1.0098   1.6746   3.0195   3.4567   4.2540   5.4840   6.5620

          k = 0.7336-0.6353-0.1958 (  8400 PWs)   bands (ev):

   -42.9734 -42.9727 -42.9595 -42.9590 -42.9485 -42.9483  -4.5726   0.0300
     0.4863   1.3020   2.7979   3.7597   4.2464   5.9125   6.5722

          k = 0.0000 0.0000-0.5873 (  8450 PWs)   bands (ev):

   -42.9794 -42.9789 -42.9515 -42.9515 -42.9501 -42.9501  -4.6689  -0.2991
     1.7685   1.7685   2.5438   3.7294   4.8609   4.8609   5.2651

          k =-0.3668 0.0000-0.1958 (  8385 PWs)   bands (ev):

   -42.9881 -42.9599 -42.9576 -42.9538 -42.9537 -42.9483  -4.6344   0.2074
     1.1504   1.3274   2.2546   3.6501   4.6118   5.3524   5.3912

          k = 0.5502-0.5294 0.1305 (  8384 PWs)   bands (ev):

   -42.9777 -42.9690 -42.9567 -42.9552 -42.9536 -42.9491  -4.5496  -0.0756
     0.8071   1.2418   2.3261   3.8897   4.0302   5.5184   6.4233

          k = 0.3668-0.4235 0.0653 (  8383 PWs)   bands (ev):

   -42.9808 -42.9660 -42.9580 -42.9533 -42.9519 -42.9514  -4.5605  -0.0256
     0.7818   1.3452   2.5907   3.1866   4.2441   5.2887   6.9082

          k = 0.5502-0.7412 0.0653 (  8381 PWs)   bands (ev):

   -42.9759 -42.9637 -42.9620 -42.9571 -42.9551 -42.9477  -4.5306   0.0141
     0.8389   0.8954   2.1971   3.2401   4.9295   5.9603   6.4089

          k = 0.7336-0.6353-0.0000 (  8385 PWs)   bands (ev):

   -42.9817 -42.9645 -42.9601 -42.9568 -42.9507 -42.9475  -4.5937   0.0815
     0.6886   1.2708   2.8307   3.3696   4.5531   5.7509   6.2435

          k = 0.5502-0.5294-0.0653 (  8385 PWs)   bands (ev):

   -42.9723 -42.9690 -42.9614 -42.9597 -42.9504 -42.9486  -4.5292   0.0815
     0.4683   0.9680   2.9951   3.1574   4.4592   5.5252   6.8339

          k = 0.3668-0.4235-0.1305 (  8375 PWs)   bands (ev):

   -42.9801 -42.9620 -42.9604 -42.9571 -42.9525 -42.9492  -4.5511   0.0513
     0.7770   1.0545   2.5406   3.3303   4.2553   5.4525   6.6048

          k = 0.5502 0.5294 0.2610 (  8390 PWs)   bands (ev):

   -42.9703 -42.9664 -42.9636 -42.9619 -42.9510 -42.9481  -4.5195   0.0818
     0.4865   0.9479   2.5025   3.1529   4.9231   6.2091   6.3350

     the Fermi energy is     2.9219 ev

!    total energy              =     -94.71242062 Ry
     estimated scf accuracy    <          1.3E-09 Ry
     smearing contrib. (-TS)   =       0.00030445 Ry
     internal energy E=F+TS    =     -94.71272507 Ry

     The total energy is F=E-TS. E is the sum of the following terms:
     one-electron contribution =     -52.76045026 Ry
     hartree contribution      =      22.28188998 Ry
     xc contribution           =     -23.64880686 Ry
     ewald contribution        =     -40.58535793 Ry

     convergence has been achieved in   8 iterations

     Forces acting on atoms (cartesian axes, Ry/au):

     atom    1 type  1   force =     0.00000000    0.00000000    0.00000000
     atom    2 type  2   force =     0.04283633    0.07338336    0.05270531
     atom    3 type  2   force =    -0.04283633   -0.07338336   -0.05270531
     atom    4 type  2   force =    -0.08497002    0.00040567    0.05270531
     atom    5 type  2   force =     0.08497002   -0.00040567   -0.05270531
     atom    6 type  2   force =     0.04213368   -0.07378903    0.05270531
     atom    7 type  2   force =    -0.04213368    0.07378903   -0.05270531
     The non-local contrib.  to forces
     atom    1 type  1   force =     0.00000000   -0.00000000    0.00000000
     atom    2 type  2   force =     0.02469248    0.07178732    0.03819002
     atom    3 type  2   force =    -0.02469248   -0.07178732   -0.03819002
     atom    4 type  2   force =    -0.07451588   -0.01450935    0.03819002
     atom    5 type  2   force =     0.07451588    0.01450935   -0.03819002
     atom    6 type  2   force =     0.04982340   -0.05727797    0.03819002
     atom    7 type  2   force =    -0.04982340    0.05727797   -0.03819002
     The ionic contribution  to forces
     atom    1 type  1   force =     0.00000000   -0.00000000   -0.00000000
     atom    2 type  2   force =     0.44694209    0.73484403    0.67057082
     atom    3 type  2   force =    -0.44694209   -0.73484403   -0.67057082
     atom    4 type  2   force =    -0.85986464    0.01964119    0.67057082
     atom    5 type  2   force =     0.85986464   -0.01964119   -0.67057082
     atom    6 type  2   force =     0.41292255   -0.75448521    0.67057082
     atom    7 type  2   force =    -0.41292255    0.75448521   -0.67057082
     The local contribution  to forces
     atom    1 type  1   force =     0.00000000    0.00000000   -0.00000000
     atom    2 type  2   force =    -0.42879456   -0.73324418   -0.65605625
     atom    3 type  2   force =     0.42879456    0.73324418    0.65605625
     atom    4 type  2   force =     0.84940537   -0.00472489   -0.65605625
     atom    5 type  2   force =    -0.84940537    0.00472489    0.65605625
     atom    6 type  2   force =    -0.42061081    0.73796907   -0.65605625
     atom    7 type  2   force =     0.42061081   -0.73796907    0.65605625
     The core correction contribution to forces
     atom    1 type  1   force =    -0.00000000   -0.00000000    0.00000000
     atom    2 type  2   force =     0.00000000    0.00000000    0.00000000
     atom    3 type  2   force =     0.00000000    0.00000000    0.00000000
     atom    4 type  2   force =     0.00000000    0.00000000    0.00000000
     atom    5 type  2   force =     0.00000000    0.00000000    0.00000000
     atom    6 type  2   force =     0.00000000    0.00000000    0.00000000
     atom    7 type  2   force =     0.00000000    0.00000000    0.00000000
     The Hubbard contrib.    to forces
     atom    1 type  1   force =     0.00000000    0.00000000    0.00000000
     atom    2 type  2   force =     0.00000000    0.00000000    0.00000000
     atom    3 type  2   force =     0.00000000    0.00000000    0.00000000
     atom    4 type  2   force =     0.00000000    0.00000000    0.00000000
     atom    5 type  2   force =     0.00000000    0.00000000    0.00000000
     atom    6 type  2   force =     0.00000000    0.00000000    0.00000000
     atom    7 type  2   force =     0.00000000    0.00000000    0.00000000
     The SCF correction term to forces
     atom    1 type  1   force =    -0.00000000    0.00000000    0.00000000
     atom    2 type  2   force =    -0.00000367   -0.00000381    0.00000072
     atom    3 type  2   force =     0.00000367    0.00000381   -0.00000072
     atom    4 type  2   force =     0.00000513   -0.00000128    0.00000072
     atom    5 type  2   force =    -0.00000513    0.00000128   -0.00000072
     atom    6 type  2   force =    -0.00000146    0.00000508    0.00000072
     atom    7 type  2   force =     0.00000146   -0.00000508   -0.00000072

     Total force =     0.244923     Total SCF correction =     0.000013


     Computing stress (Cartesian axis) and pressure

          total   stress  (Ry/bohr**3)                   (kbar)     P=      167.84
   0.00113240  -0.00000000  -0.00000000          166.58       -0.00       -0.00
   0.00000000   0.00113240   0.00000000            0.00      166.58        0.00
   0.00000000   0.00000000   0.00115797            0.00        0.00      170.34


     BFGS Geometry Optimization
     Energy error            =      0.0E+00 Ry
     Gradient error          =      8.5E-02 Ry/Bohr
     Cell gradient error     =      3.3E+02 kbar

     number of scf cycles    =   1
     number of bfgs steps    =   0

     enthalpy           new  =     -92.3526873239 Ry

     new trust radius        =       0.2986016016 bohr
ibrav =      5
 celldm(1) =      9.86006866
 celldm(4) =      0.58747466
Input lattice vectors:
     0.42863766    -0.24747407     0.80360745
    -0.00000000     0.49494814     0.80360745
    -0.42863766    -0.24747407     0.80360745
New lattice vectors in INITIAL alat:
     0.42863766    -0.24747407     0.80360745
     0.00000000     0.49494814     0.80360745
    -0.42863766    -0.24747407     0.80360745
New lattice vectors in NEW alat (for information only):
     0.45416150    -0.26221026     0.85145940
     0.00000000     0.52442053     0.85145940
    -0.45416150    -0.26221026     0.85145940
Discrepancy in bohr =     0.000000    0.000000    0.000000
     new conv_thr            =       0.0000000100 Ry

     new unit-cell volume =    583.19664 a.u.^3 (    86.42083 Ang^3 )
     density =      1.33986 g/cm^3

CELL_PARAMETERS (alat= 10.44720051)
   0.428637659  -0.247474068   0.803607449
   0.000000000   0.494948136   0.803607449
  -0.428637659  -0.247474068   0.803607449

ATOMIC_POSITIONS (crystal)
Si            0.0000000000        0.0000000000        0.0000000000
Li            1.0912307172        0.4232864848        0.7448529314
Li           -0.0912307172       -0.4232864848        1.2551470686
Li            0.7448529314        0.0912307172        1.4232864848
Li            0.2551470686       -0.0912307172        0.5767135152
Li            1.4232864848       -0.2551470686        1.0912307172
Li           -0.4232864848        0.2551470686        0.9087692828



     Writing config-only to output data dir ./output/SiLi.save/
     NEW-OLD atomic charge density approx. for the potential

     negative rho (up, down):  2.753E-06 0.000E+00
     extrapolated charge   17.81576, renormalised to   22.00000

     total cpu time spent up to now is       18.2 secs

     Self-consistent Calculation

     iteration #  1     ecut=    80.00 Ry     beta= 0.70
     Davidson diagonalization with overlap
     ethr =  1.00E-06,  avg # of iterations =  9.3

     total cpu time spent up to now is       21.5 secs

     total energy              =     -94.31200682 Ry
     estimated scf accuracy    <       0.20771117 Ry

     iteration #  2     ecut=    80.00 Ry     beta= 0.70
     Davidson diagonalization with overlap
     ethr =  9.44E-04,  avg # of iterations =  3.1

     total cpu time spent up to now is       23.2 secs

     total energy              =     -94.57795124 Ry
     estimated scf accuracy    <       0.65073040 Ry

     iteration #  3     ecut=    80.00 Ry     beta= 0.70
     Davidson diagonalization with overlap
     ethr =  9.44E-04,  avg # of iterations =  2.0

     total cpu time spent up to now is       24.4 secs

     total energy              =     -94.60827025 Ry
     estimated scf accuracy    <       0.07214808 Ry

     iteration #  4     ecut=    80.00 Ry     beta= 0.70
     Davidson diagonalization with overlap
     ethr =  3.28E-04,  avg # of iterations =  2.0

     total cpu time spent up to now is       25.6 secs

     total energy              =     -94.61286615 Ry
     estimated scf accuracy    <       0.00647691 Ry

     iteration #  5     ecut=    80.00 Ry     beta= 0.70
     Davidson diagonalization with overlap
     ethr =  2.94E-05,  avg # of iterations =  2.4

     total cpu time spent up to now is       26.9 secs

     total energy              =     -94.61376542 Ry
     estimated scf accuracy    <       0.00028106 Ry

     iteration #  6     ecut=    80.00 Ry     beta= 0.70
     Davidson diagonalization with overlap
     ethr =  1.28E-06,  avg # of iterations =  3.8

     total cpu time spent up to now is       28.4 secs

     total energy              =     -94.61384916 Ry
     estimated scf accuracy    <       0.00000605 Ry

     iteration #  7     ecut=    80.00 Ry     beta= 0.70
     Davidson diagonalization with overlap
     ethr =  2.75E-08,  avg # of iterations =  2.1

     total cpu time spent up to now is       29.7 secs

     total energy              =     -94.61385002 Ry
     estimated scf accuracy    <       0.00000043 Ry

     iteration #  8     ecut=    80.00 Ry     beta= 0.70
     Davidson diagonalization with overlap
     ethr =  1.95E-09,  avg # of iterations =  2.1

     total cpu time spent up to now is       30.9 secs

     End of self-consistent calculation

          k = 0.0000 0.0000 0.0000 (  8395 PWs)   bands (ev):

   -41.8878 -41.8119 -41.7985 -41.7985 -41.7956 -41.7956  -4.0070   2.1809
     2.7326   2.7326   2.8392   4.3028   5.7345   5.7345   6.6109

          k =-0.1944-0.1122 0.0691 (  8416 PWs)   bands (ev):

   -41.8815 -41.8100 -41.8049 -41.8013 -41.7960 -41.7942  -3.9425   1.6299
     2.4285   2.6419   2.9571   4.8482   5.1095   5.9924   7.3979

          k =-0.3888-0.2245 0.1383 (  8395 PWs)   bands (ev):

   -41.8645 -41.8205 -41.8049 -41.8042 -41.7988 -41.7949  -3.7995   0.8308
     2.0279   2.5459   3.1781   4.2758   5.3465   7.1463   7.3358

          k = 0.5832 0.3367-0.2074 (  8382 PWs)   bands (ev):

   -41.8429 -41.8413 -41.8051 -41.8006 -41.7999 -41.7981  -3.7192   0.5005
     1.8690   2.5095   3.1977   4.3536   4.9840   7.6155   8.0597

          k =-0.1944 0.1122 0.1383 (  8397 PWs)   bands (ev):

   -41.8799 -41.8116 -41.8037 -41.8017 -41.7974 -41.7936  -3.9311   1.5454
     2.2401   2.6094   3.2520   4.4354   5.6283   5.8023   7.4531

          k =-0.3888 0.0000 0.2074 (  8385 PWs)   bands (ev):

   -41.8670 -41.8135 -41.8093 -41.8049 -41.8007 -41.7925  -3.8193   1.0514
     1.8830   2.3236   3.5309   3.9426   5.6587   7.0289   7.9825

          k = 0.5832 0.5612-0.1383 (  8384 PWs)   bands (ev):

   -41.8470 -41.8314 -41.8089 -41.8045 -41.8021 -41.7939  -3.7082   0.6566
     1.7743   1.9349   3.5865   3.9724   5.7527   7.5414   7.8029

          k = 0.3888 0.4490-0.0691 (  8383 PWs)   bands (ev):

   -41.8528 -41.8259 -41.8109 -41.8005 -41.7996 -41.7982  -3.7225   0.7102
     1.8327   1.9648   3.5815   4.0339   5.5959   6.8721   7.7907

          k = 0.1944 0.3367 0.0000 (  8403 PWs)   bands (ev):

   -41.8713 -41.8099 -41.8086 -41.8050 -41.7966 -41.7964  -3.8446   1.1658
     2.0792   2.4144   3.1643   4.3001   5.6852   6.1102   7.4075

          k =-0.3888 0.2245 0.2765 (  8368 PWs)   bands (ev):

   -41.8592 -41.8119 -41.8110 -41.8101 -41.8038 -41.7919  -3.7623   0.8792
     1.7165   2.4328   3.1518   3.5938   6.3242   7.2971   7.9583

          k = 0.5832 0.7857-0.0691 (  8381 PWs)   bands (ev):

   -41.8439 -41.8208 -41.8188 -41.8078 -41.8053 -41.7915  -3.6822   0.7451
     1.6090   1.8284   3.1253   3.9329   6.4891   7.4210   8.4272

          k = 0.3888 0.6735 0.0000 (  8394 PWs)   bands (ev):

   -41.8361 -41.8273 -41.8238 -41.8040 -41.8033 -41.7935  -3.6619   0.9638
     1.0933   1.7878   3.3676   4.5126   5.8137   6.8431   8.5004

          k = 0.5832-0.3367-0.4148 (  8368 PWs)   bands (ev):

   -41.8357 -41.8309 -41.8143 -41.8081 -41.8075 -41.7913  -3.6672   0.6182
     1.5373   2.3999   2.8086   3.3738   6.7400   8.2510   8.8986

          k =-0.0000 0.0000 0.2074 (  8377 PWs)   bands (ev):

   -41.8828 -41.8169 -41.7984 -41.7984 -41.7957 -41.7957  -3.9736   1.4109
     2.7385   2.7385   3.7161   4.0830   5.7971   5.7971   6.4958

          k =-0.1944-0.1122 0.2765 (  8386 PWs)   bands (ev):

   -41.8737 -41.8177 -41.8071 -41.8003 -41.7970 -41.7920  -3.8947   1.1336
     2.0131   2.6106   3.9650   4.6034   4.9762   6.5885   7.2657

          k = 0.7777 0.4490-0.0691 (  8390 PWs)   bands (ev):

   -41.8554 -41.8241 -41.8139 -41.8054 -41.7976 -41.7915  -3.7590   0.7692
     1.5219   2.3670   3.7908   4.2290   5.6304   7.2624   7.7832

          k = 0.5832 0.3367 0.0000 (  8369 PWs)   bands (ev):

   -41.8454 -41.8333 -41.8090 -41.8076 -41.7968 -41.7958  -3.7067   0.5976
     1.6026   2.2890   3.4652   4.5683   4.7415   7.3862   8.2923

          k = 0.3888 0.2245 0.0691 (  8395 PWs)   bands (ev):

   -41.8659 -41.8140 -41.8083 -41.8037 -41.8012 -41.7947  -3.8011   0.9669
     1.9607   2.3969   3.3016   3.9769   5.3289   6.8766   7.8904

          k =-0.1944 0.1122 0.3457 (  8383 PWs)   bands (ev):

   -41.8694 -41.8220 -41.8050 -41.8024 -41.7966 -41.7924  -3.8704   0.9411
     2.0257   2.6304   3.9050   4.1853   5.6064   6.3605   7.6914

          k = 0.7777 0.6735 0.0000 (  8385 PWs)   bands (ev):

   -41.8554 -41.8212 -41.8148 -41.8089 -41.7968 -41.7909  -3.7658   0.8468
     1.4780   2.2928   3.4987   4.4479   5.8957   7.3504   7.7820

          k = 0.5832 0.5612 0.0691 (  8385 PWs)   bands (ev):

   -41.8363 -41.8322 -41.8156 -41.8145 -41.7964 -41.7930  -3.6804   0.7714
     1.2883   1.9477   3.2819   5.0523   5.1848   7.3392   8.2142

          k = 0.3888 0.4490 0.1383 (  8375 PWs)   bands (ev):

   -41.8516 -41.8183 -41.8158 -41.8078 -41.7999 -41.7945  -3.7101   0.8085
     1.5274   2.0684   3.4203   3.9360   5.6431   7.5154   8.0088

          k = 0.7777-0.4490-0.3457 (  8379 PWs)   bands (ev):

   -41.8466 -41.8230 -41.8183 -41.8115 -41.7971 -41.7915  -3.7198   0.7659
     1.3146   2.4764   3.1788   3.8868   6.5634   7.6497   8.2193

          k = 0.5832-0.5612-0.2765 (  8390 PWs)   bands (ev):

   -41.8331 -41.8270 -41.8203 -41.8182 -41.7974 -41.7920  -3.6669   0.8078
     1.3101   1.7216   3.3632   4.4122   5.7615   7.7315   8.2885

          k = 0.3888-0.6735-0.2074 (  8378 PWs)   bands (ev):

   -41.8341 -41.8324 -41.8178 -41.8112 -41.7968 -41.7957  -3.6619   0.9111
     1.1960   1.7034   3.4983   4.3968   5.6445   7.4740   7.9140

          k = 0.5832-0.3367-0.2074 (  8375 PWs)   bands (ev):

   -41.8423 -41.8242 -41.8167 -41.8128 -41.7991 -41.7928  -3.6807   0.6908
     1.3711   2.3285   3.1055   3.8164   5.8637   7.9078   8.6491

          k =-0.0000 0.0000 0.4148 (  8425 PWs)   bands (ev):

   -41.8694 -41.8303 -41.7983 -41.7983 -41.7958 -41.7958  -3.9022   0.6959
     2.7518   2.7518   3.7153   4.6733   5.9226   5.9226   6.1923

          k = 0.9721 0.5612 0.0691 (  8427 PWs)   bands (ev):

   -41.8591 -41.8324 -41.8074 -41.8028 -41.7946 -41.7918  -3.8309   0.6554
     1.8564   2.6381   4.1848   4.7545   5.0365   6.8882   7.5252

          k = 0.7777 0.4490 0.1383 (  8400 PWs)   bands (ev):

   -41.8420 -41.8279 -41.8227 -41.8094 -41.7937 -41.7923  -3.7181   0.8913
     1.0099   2.4160   3.4382   4.6482   5.6760   7.4899   8.0969

          k = 0.9721-0.5612-0.2765 (  8417 PWs)   bands (ev):

   -41.8539 -41.8376 -41.8057 -41.8046 -41.7936 -41.7927  -3.8178   0.5717
     1.8794   2.6566   3.9698   4.5844   5.4326   6.8311   7.8415

          k = 0.7777-0.6735-0.2074 (  8400 PWs)   bands (ev):

   -41.8432 -41.8333 -41.8136 -41.8129 -41.7926 -41.7924  -3.7375   0.7646
     1.2807   2.2065   3.7238   4.8313   5.5017   7.4572   7.9729

          k = 0.0000 0.0000-0.6222 (  8450 PWs)   bands (ev):

   -41.8553 -41.8444 -41.7983 -41.7983 -41.7959 -41.7959  -3.8638   0.4316
     2.7591   2.7591   3.6138   4.8117   5.9853   5.9853   6.5013

          k =-0.3888-0.0000-0.2074 (  8385 PWs)   bands (ev):

   -41.8670 -41.8136 -41.8092 -41.8050 -41.8007 -41.7924  -3.8189   1.0375
     1.9859   2.2217   3.1920   4.6465   5.7812   6.6282   6.8192

          k = 0.5832-0.5612 0.1383 (  8384 PWs)   bands (ev):

   -41.8469 -41.8315 -41.8092 -41.8046 -41.8019 -41.7938  -3.7078   0.6721
     1.6035   2.1085   3.2553   4.9371   5.1417   6.9469   7.8214

          k = 0.3888-0.4490 0.0691 (  8383 PWs)   bands (ev):

   -41.8528 -41.8256 -41.8112 -41.8003 -41.7997 -41.7982  -3.7225   0.7468
     1.5663   2.2291   3.5382   4.1592   5.3607   6.6527   8.4804

          k = 0.5832-0.7857 0.0691 (  8381 PWs)   bands (ev):

   -41.8437 -41.8201 -41.8198 -41.8079 -41.8050 -41.7914  -3.6818   0.7551
     1.6443   1.7213   3.1091   4.2118   6.2095   7.4535   7.8870

          k = 0.7777-0.6735-0.0000 (  8385 PWs)   bands (ev):

   -41.8553 -41.8212 -41.8147 -41.8092 -41.7965 -41.7910  -3.7654   0.8559
     1.4794   2.1581   3.8737   4.3086   5.8490   7.1436   7.6471

          k = 0.5832-0.5612-0.0691 (  8385 PWs)   bands (ev):

   -41.8363 -41.8320 -41.8156 -41.8150 -41.7960 -41.7931  -3.6800   0.8343
     1.2214   1.7993   4.0076   4.1711   5.6184   6.8388   8.4476

          k = 0.3888-0.4490-0.1383 (  8375 PWs)   bands (ev):

   -41.8516 -41.8180 -41.8161 -41.8080 -41.7999 -41.7943  -3.7097   0.8245
     1.5722   1.8824   3.4908   4.3151   5.4248   6.7706   8.2101

          k = 0.5832 0.5612 0.2765 (  8390 PWs)   bands (ev):

   -41.8329 -41.8272 -41.8201 -41.8184 -41.7972 -41.7921  -3.6668   0.8189
     1.2417   1.8059   3.4385   4.0996   6.2839   7.5933   7.9033

     the Fermi energy is     3.8861 ev

!    total energy              =     -94.61385010 Ry
     estimated scf accuracy    <          2.3E-09 Ry
     smearing contrib. (-TS)   =       0.00013910 Ry
     internal energy E=F+TS    =     -94.61398920 Ry

     The total energy is F=E-TS. E is the sum of the following terms:
     one-electron contribution =     -47.94076006 Ry
     hartree contribution      =      20.83215928 Ry
     xc contribution           =     -23.86658518 Ry
     ewald contribution        =     -43.63880323 Ry

     convergence has been achieved in   8 iterations

     Forces acting on atoms (cartesian axes, Ry/au):

     atom    1 type  1   force =     0.00000000    0.00000000   -0.00000000
     atom    2 type  2   force =     0.04978106    0.09059357    0.05931822
     atom    3 type  2   force =    -0.04978106   -0.09059357   -0.05931822
     atom    4 type  2   force =    -0.10334686   -0.00218512    0.05931822
     atom    5 type  2   force =     0.10334686    0.00218512   -0.05931822
     atom    6 type  2   force =     0.05356580   -0.08840844    0.05931822
     atom    7 type  2   force =    -0.05356580    0.08840844   -0.05931822
     The non-local contrib.  to forces
     atom    1 type  1   force =     0.00000000    0.00000000    0.00000000
     atom    2 type  2   force =     0.01673320    0.06173893    0.03052260
     atom    3 type  2   force =    -0.01673320   -0.06173893   -0.03052260
     atom    4 type  2   force =    -0.06183408   -0.01637808    0.03052260
     atom    5 type  2   force =     0.06183408    0.01637808   -0.03052260
     atom    6 type  2   force =     0.04510088   -0.04536084    0.03052260
     atom    7 type  2   force =    -0.04510088    0.04536084   -0.03052260
     The ionic contribution  to forces
     atom    1 type  1   force =     0.00000000   -0.00000000    0.00000000
     atom    2 type  2   force =     0.40375498    0.69480175    0.59122856
     atom    3 type  2   force =    -0.40375498   -0.69480175   -0.59122856
     atom    4 type  2   force =    -0.80359345    0.00226120    0.59122856
     atom    5 type  2   force =     0.80359345   -0.00226120   -0.59122856
     atom    6 type  2   force =     0.39983847   -0.69706294    0.59122856
     atom    7 type  2   force =    -0.39983847    0.69706294   -0.59122856
     The local contribution  to forces
     atom    1 type  1   force =    -0.00000000   -0.00000000   -0.00000000
     atom    2 type  2   force =    -0.37069661   -0.66596605   -0.56243574
     atom    3 type  2   force =     0.37069661    0.66596605    0.56243574
     atom    4 type  2   force =     0.76209182    0.01195035   -0.56243574
     atom    5 type  2   force =    -0.76209182   -0.01195035    0.56243574
     atom    6 type  2   force =    -0.39139521    0.65401570   -0.56243574
     atom    7 type  2   force =     0.39139521   -0.65401570    0.56243574
     The core correction contribution to forces
     atom    1 type  1   force =    -0.00000000   -0.00000000    0.00000000
     atom    2 type  2   force =     0.00000000    0.00000000    0.00000000
     atom    3 type  2   force =     0.00000000    0.00000000    0.00000000
     atom    4 type  2   force =     0.00000000    0.00000000    0.00000000
     atom    5 type  2   force =     0.00000000    0.00000000    0.00000000
     atom    6 type  2   force =     0.00000000    0.00000000    0.00000000
     atom    7 type  2   force =     0.00000000    0.00000000    0.00000000
     The Hubbard contrib.    to forces
     atom    1 type  1   force =     0.00000000    0.00000000    0.00000000
     atom    2 type  2   force =     0.00000000    0.00000000    0.00000000
     atom    3 type  2   force =     0.00000000    0.00000000    0.00000000
     atom    4 type  2   force =     0.00000000    0.00000000    0.00000000
     atom    5 type  2   force =     0.00000000    0.00000000    0.00000000
     atom    6 type  2   force =     0.00000000    0.00000000    0.00000000
     atom    7 type  2   force =     0.00000000    0.00000000    0.00000000
     The SCF correction term to forces
     atom    1 type  1   force =    -0.00000000    0.00000000    0.00000000
     atom    2 type  2   force =    -0.00001052    0.00001894    0.00000280
     atom    3 type  2   force =     0.00001052   -0.00001894   -0.00000280
     atom    4 type  2   force =    -0.00001114   -0.00001858    0.00000280
     atom    5 type  2   force =     0.00001114    0.00001858   -0.00000280
     atom    6 type  2   force =     0.00002166   -0.00000035    0.00000280
     atom    7 type  2   force =    -0.00002166    0.00000035   -0.00000280

     Total force =     0.291931     Total SCF correction =     0.000054


     Computing stress (Cartesian axis) and pressure

          total   stress  (Ry/bohr**3)                   (kbar)     P=      272.48
   0.00186510   0.00000000   0.00000000          274.37        0.00        0.00
  -0.00000000   0.00186510   0.00000000           -0.00      274.37        0.00
   0.00000000   0.00000000   0.00182673            0.00        0.00      268.72

     Energy error            =      2.8E-01 Ry
     Gradient error          =      1.0E-01 Ry/Bohr
     Cell gradient error     =      2.3E+02 kbar

     number of scf cycles    =   2
     number of bfgs steps    =   1

     enthalpy           old  =     -92.3526873239 Ry
     enthalpy           new  =     -92.6316049996 Ry

     CASE: enthalpy          _new < enthalpy          _old

     new trust radius        =       0.4351749384 bohr
ibrav =      5
 celldm(1) =      8.97577858
 celldm(4) =      0.58648011
Input lattice vectors:
     0.39066581    -0.22555101     0.73120215
     0.00000000     0.45110202     0.73120215
    -0.39066581    -0.22555101     0.73120215
New lattice vectors in INITIAL alat:
     0.39066581    -0.22555101     0.73120215
     0.00000000     0.45110202     0.73120215
    -0.39066581    -0.22555101     0.73120215
New lattice vectors in NEW alat (for information only):
     0.45470863    -0.26252615     0.85106996
     0.00000000     0.52505231     0.85106996
    -0.45470863    -0.26252615     0.85106996
Discrepancy in bohr =     0.000000    0.000000    0.000000
     new conv_thr            =       0.0000000100 Ry

     new unit-cell volume =    440.79705 a.u.^3 (    65.31938 Ang^3 )
     density =      1.77270 g/cm^3

CELL_PARAMETERS (alat= 10.44720051)
   0.390665808  -0.225551009   0.731202154
   0.000000000   0.451102018   0.731202154
  -0.390665808  -0.225551009   0.731202154

ATOMIC_POSITIONS (crystal)
Si            0.0000000000        0.0000000000       -0.0000000000
Li            1.0954705220        0.4511918074        0.7268889229
Li           -0.0954705220       -0.4511918074        1.2731110771
Li            0.7268889229        0.0954705220        1.4511918074
Li            0.2731110771       -0.0954705220        0.5488081926
Li            1.4511918074       -0.2731110771        1.0954705220
Li           -0.4511918074        0.2731110771        0.9045294780



     Writing config-only to output data dir ./output/SiLi.save/
     NEW-OLD atomic charge density approx. for the potential

     negative rho (up, down):  2.461E-04 0.000E+00
     extrapolated charge   14.90193, renormalised to   22.00000

     total cpu time spent up to now is       34.3 secs

     Self-consistent Calculation

     iteration #  1     ecut=    80.00 Ry     beta= 0.70
     Davidson diagonalization with overlap
     c_bands:  1 eigenvalues not converged
     c_bands:  1 eigenvalues not converged
     ethr =  1.00E-06,  avg # of iterations = 11.9

     negative rho (up, down):  9.304E-07 0.000E+00

     total cpu time spent up to now is       38.0 secs

     total energy              =     -93.92239159 Ry
     estimated scf accuracy    <       0.94577046 Ry

     iteration #  2     ecut=    80.00 Ry     beta= 0.70
     Davidson diagonalization with overlap
     ethr =  4.30E-03,  avg # of iterations =  2.0

     total cpu time spent up to now is       39.5 secs

     total energy              =     -94.34815094 Ry
     estimated scf accuracy    <       0.41445521 Ry

     iteration #  3     ecut=    80.00 Ry     beta= 0.70
     Davidson diagonalization with overlap
     ethr =  1.88E-03,  avg # of iterations =  2.0

     total cpu time spent up to now is       40.6 secs

     total energy              =     -94.40699757 Ry
     estimated scf accuracy    <       0.02858072 Ry

     iteration #  4     ecut=    80.00 Ry     beta= 0.70
     Davidson diagonalization with overlap
     ethr =  1.30E-04,  avg # of iterations =  1.9

     total cpu time spent up to now is       41.8 secs

     total energy              =     -94.41075633 Ry
     estimated scf accuracy    <       0.00147309 Ry

     iteration #  5     ecut=    80.00 Ry     beta= 0.70
     Davidson diagonalization with overlap
     ethr =  6.70E-06,  avg # of iterations =  4.7

     total cpu time spent up to now is       43.0 secs

     total energy              =     -94.41101428 Ry
     estimated scf accuracy    <       0.00001352 Ry

     iteration #  6     ecut=    80.00 Ry     beta= 0.70
     Davidson diagonalization with overlap
     ethr =  6.14E-08,  avg # of iterations =  2.7

     total cpu time spent up to now is       44.3 secs

     total energy              =     -94.41101711 Ry
     estimated scf accuracy    <       0.00000176 Ry

     iteration #  7     ecut=    80.00 Ry     beta= 0.70
     Davidson diagonalization with overlap
     ethr =  7.98E-09,  avg # of iterations =  2.0

     total cpu time spent up to now is       45.4 secs

     total energy              =     -94.41101727 Ry
     estimated scf accuracy    <       0.00000003 Ry

     iteration #  8     ecut=    80.00 Ry     beta= 0.70
     Davidson diagonalization with overlap
     ethr =  1.42E-10,  avg # of iterations =  3.4

     total cpu time spent up to now is       46.6 secs

     End of self-consistent calculation

          k = 0.0000 0.0000 0.0000 (  8395 PWs)   bands (ev):

   -39.9018 -39.6848 -39.6554 -39.6554 -39.6422 -39.6422  -2.3472   4.3187
     4.7298   4.7298   4.9165   6.5553   7.7669   7.7669   8.7163

          k =-0.2133-0.1232 0.0760 (  8416 PWs)   bands (ev):

   -39.8854 -39.6814 -39.6732 -39.6635 -39.6411 -39.6374  -2.2618   3.6873
     4.2120   4.5485   4.9700   6.7865   7.5534   8.2701   9.8555

          k =-0.4266-0.2463 0.1520 (  8395 PWs)   bands (ev):

   -39.8418 -39.7172 -39.6746 -39.6679 -39.6454 -39.6356  -2.0662   2.5660
     3.6925   4.4309   5.2542   6.0858   7.6818   9.7513  10.3638

          k = 0.6399 0.3695-0.2279 (  8382 PWs)   bands (ev):

   -39.7984 -39.7592 -39.6786 -39.6579 -39.6522 -39.6365  -1.9510   2.1114
     3.4819   4.3913   5.2522   6.1800   7.3132  10.4838  10.8536

          k =-0.2133 0.1232 0.1520 (  8397 PWs)   bands (ev):

   -39.8816 -39.6850 -39.6699 -39.6673 -39.6443 -39.6340  -2.2473   3.5866
     3.9632   4.5729   5.2286   6.3946   8.0910   8.2451   9.7649

          k =-0.4266 0.0000 0.2279 (  8385 PWs)   bands (ev):

   -39.8487 -39.6983 -39.6860 -39.6722 -39.6449 -39.6324  -2.0947   2.9003
     3.5146   4.1928   5.4566   5.7691   8.4694   9.7678  10.5996

          k = 0.6399 0.6158-0.1520 (  8384 PWs)   bands (ev):

   -39.8000 -39.7431 -39.6931 -39.6652 -39.6463 -39.6351  -1.9352   2.2937
     3.3733   3.7499   5.3658   6.0892   8.3152  10.2288  10.7313

          k = 0.4266 0.4926-0.0760 (  8383 PWs)   bands (ev):

   -39.8116 -39.7317 -39.6950 -39.6582 -39.6471 -39.6392  -1.9553   2.3562
     3.5474   3.6841   5.5091   5.9734   8.1193   9.3685  10.9341

          k = 0.2133 0.3695 0.0000 (  8403 PWs)   bands (ev):

   -39.8587 -39.6894 -39.6864 -39.6669 -39.6424 -39.6385  -2.1284   3.0290
     3.8175   4.2646   5.0718   6.1794   8.0796   8.6405  10.3328

          k =-0.4266 0.2463 0.3039 (  8368 PWs)   bands (ev):

   -39.8291 -39.7063 -39.6894 -39.6751 -39.6552 -39.6277  -2.0116   2.5996
     3.3165   4.3750   5.1084   5.2930   9.2131  10.3580  10.7718

          k = 0.6399 0.8621-0.0760 (  8381 PWs)   bands (ev):

   -39.7907 -39.7283 -39.7106 -39.6685 -39.6571 -39.6277  -1.8939   2.3583
     3.1844   3.5951   5.0080   5.8722   9.3966  10.2233  11.5901

          k = 0.4266 0.7389 0.0000 (  8394 PWs)   bands (ev):

   -39.7737 -39.7320 -39.7307 -39.6612 -39.6535 -39.6319  -1.8642   2.5483
     2.7549   3.4120   5.2643   6.6906   8.1459   9.6278  11.4613

          k = 0.6399-0.3695-0.4559 (  8368 PWs)   bands (ev):

   -39.7732 -39.7519 -39.6972 -39.6685 -39.6665 -39.6257  -1.8679   2.1657
     3.1006   4.3924   4.6322   5.1465   9.7532  11.4447  12.4362

          k = 0.0000-0.0000 0.2279 (  8377 PWs)   bands (ev):

   -39.8903 -39.6965 -39.6592 -39.6592 -39.6385 -39.6385  -2.3063   3.2822
     4.7262   4.7262   5.9685   6.4151   7.9038   7.9038   8.5297

          k =-0.2133-0.1232 0.3039 (  8386 PWs)   bands (ev):

   -39.8677 -39.6984 -39.6813 -39.6645 -39.6398 -39.6308  -2.2008   2.9604
     3.7673   4.5253   6.2108   6.4392   7.6460   8.9266   9.6567

          k = 0.8532 0.4926-0.0760 (  8390 PWs)   bands (ev):

   -39.8219 -39.7257 -39.6879 -39.6771 -39.6409 -39.6292  -2.0089   2.4556
     3.1244   4.2141   5.6293   6.5315   8.0408   9.9515  10.7354

          k = 0.6399 0.3695 0.0000 (  8369 PWs)   bands (ev):

   -39.7964 -39.7505 -39.6848 -39.6719 -39.6457 -39.6336  -1.9312   2.2122
     3.1977   4.1407   5.3361   6.5855   7.1502   9.9747  11.2863

          k = 0.4266 0.2463 0.0760 (  8395 PWs)   bands (ev):

   -39.8448 -39.7049 -39.6821 -39.6643 -39.6526 -39.6337  -2.0674   2.7480
     3.6234   4.2942   5.2700   5.7241   7.7964   9.5585  10.9058

          k =-0.2133 0.1232 0.3799 (  8383 PWs)   bands (ev):

   -39.8582 -39.7081 -39.6752 -39.6723 -39.6395 -39.6292  -2.1687   2.6804
     3.8114   4.6007   5.9277   6.1523   8.3136   8.9868  10.0094

          k = 0.8532 0.7389 0.0000 (  8385 PWs)   bands (ev):

   -39.8238 -39.7076 -39.7030 -39.6822 -39.6387 -39.6277  -2.0198   2.5315
     3.1160   4.1531   5.2889   6.5645   8.8551  10.1779  10.4836

          k = 0.6399 0.6158 0.0760 (  8385 PWs)   bands (ev):

   -39.7812 -39.7436 -39.7057 -39.6814 -39.6378 -39.6333  -1.8922   2.3741
     2.8688   3.7451   5.0443   7.3687   7.5264  10.4331  10.8947

          k = 0.4266 0.4926 0.1520 (  8375 PWs)   bands (ev):

   -39.8081 -39.7200 -39.7056 -39.6664 -39.6475 -39.6351  -1.9367   2.4952
     3.1164   3.8717   5.2040   5.8917   8.3361  10.3681  10.7581

          k = 0.8532-0.4926-0.3799 (  8379 PWs)   bands (ev):

   -39.8041 -39.7222 -39.6976 -39.6906 -39.6424 -39.6261  -1.9496   2.3617
     2.9213   4.4558   4.9432   5.8527   9.5692  10.6317  11.4372

          k = 0.6399-0.6158-0.3039 (  8390 PWs)   bands (ev):

   -39.7735 -39.7398 -39.7123 -39.6858 -39.6440 -39.6277  -1.8695   2.3675
     2.8900   3.4640   5.2875   6.4826   8.2587  10.8034  11.3712

          k = 0.4266-0.7389-0.2279 (  8378 PWs)   bands (ev):

   -39.7732 -39.7396 -39.7221 -39.6684 -39.6454 -39.6343  -1.8642   2.5204
     2.8230   3.3414   5.4124   6.4776   8.1576  10.0114  11.0592

          k = 0.6399-0.3695-0.2279 (  8375 PWs)   bands (ev):

   -39.7860 -39.7427 -39.6936 -39.6824 -39.6496 -39.6286  -1.8897   2.2819
     2.9294   4.2232   4.9344   5.7183   8.5996  10.7302  11.9295

          k = 0.0000-0.0000 0.4559 (  8425 PWs)   bands (ev):

   -39.8615 -39.7256 -39.6642 -39.6642 -39.6336 -39.6336  -2.2166   2.3779
     4.7258   4.7258   5.9890   6.8364   8.1750   8.1750   8.6221

          k = 1.0666 0.6158 0.0760 (  8427 PWs)   bands (ev):

   -39.8386 -39.7275 -39.6839 -39.6712 -39.6334 -39.6282  -2.1164   2.2895
     3.6533   4.5786   5.9941   7.2184   7.5553   9.4126  10.1137

          k = 0.8532 0.4926 0.1520 (  8400 PWs)   bands (ev):

   -39.7988 -39.7278 -39.7077 -39.6857 -39.6346 -39.6284  -1.9481   2.4738
     2.6225   4.3125   5.2146   6.9145   8.2539  10.4527  10.8295

          k = 1.0666-0.6158-0.3039 (  8417 PWs)   bands (ev):

   -39.8313 -39.7350 -39.6803 -39.6757 -39.6321 -39.6286  -2.0984   2.1771
     3.6829   4.6288   5.7830   6.9405   7.9193   9.5978  10.4413

          k = 0.8532-0.7389-0.2279 (  8400 PWs)   bands (ev):

   -39.8060 -39.7236 -39.7040 -39.6892 -39.6316 -39.6287  -1.9780   2.3327
     2.9516   4.0461   5.5887   7.0622   8.0779  10.5509  10.7868

          k = 0.0000 0.0000-0.6838 (  8450 PWs)   bands (ev):

   -39.8409 -39.7463 -39.6661 -39.6661 -39.6317 -39.6317  -2.1670   2.0442
     4.7288   4.7288   5.9610   6.6784   8.3078   8.3078   9.3519

          k =-0.4266-0.0000-0.2279 (  8385 PWs)   bands (ev):

   -39.8487 -39.6975 -39.6861 -39.6724 -39.6480 -39.6299  -2.0928   2.8304
     3.6423   4.0453   5.1839   6.6424   8.1407   9.1034   9.9475

          k = 0.6399-0.6158 0.1520 (  8384 PWs)   bands (ev):

   -39.8000 -39.7427 -39.6931 -39.6642 -39.6510 -39.6318  -1.9329   2.2928
     3.2295   3.8495   5.2505   6.9796   7.4519   9.7482  10.7125

          k = 0.4266-0.4926 0.0760 (  8383 PWs)   bands (ev):

   -39.8116 -39.7316 -39.6947 -39.6580 -39.6493 -39.6376  -1.9555   2.4325
     3.1648   4.0083   5.5279   6.1087   7.6765   9.3648  11.5984

          k = 0.6399-0.8621 0.0760 (  8381 PWs)   bands (ev):

   -39.7907 -39.7277 -39.7105 -39.6693 -39.6583 -39.6264  -1.8915   2.3341
     3.2435   3.4531   5.0706   6.2005   8.7219  10.5189  10.8920

          k = 0.8532-0.7389-0.0000 (  8385 PWs)   bands (ev):

   -39.8237 -39.7064 -39.7029 -39.6837 -39.6402 -39.6259  -2.0177   2.5168
     3.1063   3.9752   6.0636   6.1807   8.5152   9.7917  10.7333

          k = 0.6399-0.6158-0.0760 (  8385 PWs)   bands (ev):

   -39.7815 -39.7428 -39.7050 -39.6827 -39.6418 -39.6291  -1.8899   2.4458
     2.7688   3.5275   6.0804   6.2663   7.9435   9.4696  11.6377

          k = 0.4266-0.4926-0.1520 (  8375 PWs)   bands (ev):

   -39.8081 -39.7196 -39.7054 -39.6650 -39.6532 -39.6314  -1.9346   2.4896
     3.1869   3.5839   5.4749   6.3352   7.7669   9.4279  11.5403

          k = 0.6399 0.6158 0.3039 (  8390 PWs)   bands (ev):

   -39.7734 -39.7399 -39.7118 -39.6867 -39.6427 -39.6284  -1.8693   2.3817
     2.7997   3.5907   5.3787   6.0731   9.0560  10.1565  11.2438

     the Fermi energy is     5.8407 ev

!    total energy              =     -94.41101728 Ry
     estimated scf accuracy    <          3.3E-09 Ry
     smearing contrib. (-TS)   =       0.00038061 Ry
     internal energy E=F+TS    =     -94.41139789 Ry

     The total energy is F=E-TS. E is the sum of the following terms:
     one-electron contribution =     -39.56448728 Ry
     hartree contribution      =      18.47994264 Ry
     xc contribution           =     -24.25137110 Ry
     ewald contribution        =     -49.07548214 Ry

     convergence has been achieved in   8 iterations

     Forces acting on atoms (cartesian axes, Ry/au):

     atom    1 type  1   force =    -0.00000000   -0.00000000   -0.00000000
     atom    2 type  2   force =     0.04556200    0.10170143    0.04485216
     atom    3 type  2   force =    -0.04556200   -0.10170143   -0.04485216
     atom    4 type  2   force =    -0.11085703   -0.01139287    0.04485216
     atom    5 type  2   force =     0.11085703    0.01139287   -0.04485216
     atom    6 type  2   force =     0.06529502   -0.09030857    0.04485216
     atom    7 type  2   force =    -0.06529502    0.09030857   -0.04485216
     The non-local contrib.  to forces
     atom    1 type  1   force =    -0.00000000   -0.00000000    0.00000000
     atom    2 type  2   force =    -0.00109132    0.04488134    0.02005506
     atom    3 type  2   force =     0.00109132   -0.04488134   -0.02005506
     atom    4 type  2   force =    -0.03832272   -0.02338578    0.02005506
     atom    5 type  2   force =     0.03832272    0.02338578   -0.02005506
     atom    6 type  2   force =     0.03941404   -0.02149556    0.02005506
     atom    7 type  2   force =    -0.03941404    0.02149556   -0.02005506
     The ionic contribution  to forces
     atom    1 type  1   force =     0.00000000   -0.00000000    0.00000000
     atom    2 type  2   force =     0.22514960    0.52734244    0.26878853
     atom    3 type  2   force =    -0.22514960   -0.52734244   -0.26878853
     atom    4 type  2   force =    -0.56926675   -0.06868594    0.26878853
     atom    5 type  2   force =     0.56926675    0.06868594   -0.26878853
     atom    6 type  2   force =     0.34411715   -0.45865649    0.26878853
     atom    7 type  2   force =    -0.34411715    0.45865649   -0.26878853
     The local contribution  to forces
     atom    1 type  1   force =    -0.00000000   -0.00000000   -0.00000000
     atom    2 type  2   force =    -0.17849314   -0.47052302   -0.24398050
     atom    3 type  2   force =     0.17849314    0.47052302    0.24398050
     atom    4 type  2   force =     0.49673145    0.08068192   -0.24398050
     atom    5 type  2   force =    -0.49673145   -0.08068192    0.24398050
     atom    6 type  2   force =    -0.31823832    0.38984110   -0.24398050
     atom    7 type  2   force =     0.31823832   -0.38984110    0.24398050
     The core correction contribution to forces
     atom    1 type  1   force =    -0.00000000   -0.00000000    0.00000000
     atom    2 type  2   force =     0.00000000    0.00000000    0.00000000
     atom    3 type  2   force =     0.00000000    0.00000000    0.00000000
     atom    4 type  2   force =     0.00000000    0.00000000    0.00000000
     atom    5 type  2   force =     0.00000000    0.00000000    0.00000000
     atom    6 type  2   force =     0.00000000    0.00000000    0.00000000
     atom    7 type  2   force =     0.00000000    0.00000000    0.00000000
     The Hubbard contrib.    to forces
     atom    1 type  1   force =     0.00000000    0.00000000    0.00000000
     atom    2 type  2   force =     0.00000000    0.00000000    0.00000000
     atom    3 type  2   force =     0.00000000    0.00000000    0.00000000
     atom    4 type  2   force =     0.00000000    0.00000000    0.00000000
     atom    5 type  2   force =     0.00000000    0.00000000    0.00000000
     atom    6 type  2   force =     0.00000000    0.00000000    0.00000000
     atom    7 type  2   force =     0.00000000    0.00000000    0.00000000
     The SCF correction term to forces
     atom    1 type  1   force =    -0.00000000    0.00000000   -0.00000000
     atom    2 type  2   force =    -0.00000315    0.00000068   -0.00001093
     atom    3 type  2   force =     0.00000315   -0.00000068    0.00001093
     atom    4 type  2   force =     0.00000099   -0.00000306   -0.00001093
     atom    5 type  2   force =    -0.00000099    0.00000306    0.00001093
     atom    6 type  2   force =     0.00000216    0.00000239   -0.00001093
     atom    7 type  2   force =    -0.00000216   -0.00000239    0.00001093

     Total force =     0.294253     Total SCF correction =     0.000028


     Computing stress (Cartesian axis) and pressure

          total   stress  (Ry/bohr**3)                   (kbar)     P=      525.07
   0.00369040  -0.00000000   0.00000000          542.88       -0.00        0.00
   0.00000000   0.00369040   0.00000000            0.00      542.88        0.00
  -0.00000000   0.00000000   0.00332722           -0.00        0.00      489.45

     Energy error            =      2.8E-01 Ry
     Gradient error          =      1.1E-01 Ry/Bohr
     Cell gradient error     =      4.3E+01 kbar

     number of scf cycles    =   3
     number of bfgs steps    =   2

     enthalpy           old  =     -92.6316049996 Ry
     enthalpy           new  =     -92.9127785590 Ry

     CASE: enthalpy          _new < enthalpy          _old

     new trust radius        =       0.2192719331 bohr
ibrav =      5
 celldm(1) =      8.53595219
 celldm(4) =      0.57913933
Input lattice vectors:
     0.37480572    -0.21639419     0.69301905
    -0.00000000     0.43278837     0.69301905
    -0.37480572    -0.21639419     0.69301905
New lattice vectors in INITIAL alat:
     0.37480572    -0.21639419     0.69301905
     0.00000000     0.43278837     0.69301905
    -0.37480572    -0.21639419     0.69301905
New lattice vectors in NEW alat (for information only):
     0.45872686    -0.26484608     0.84818997
     0.00000000     0.52969215     0.84818997
    -0.45872686    -0.26484608     0.84818997
Discrepancy in bohr =     0.000000    0.000000    0.000000
     new conv_thr            =       0.0000000100 Ry

     new unit-cell volume =    384.54575 a.u.^3 (    56.98380 Ang^3 )
     density =      2.03201 g/cm^3

CELL_PARAMETERS (alat= 10.44720051)
   0.374805725  -0.216394186   0.693019055
   0.000000000   0.432788372   0.693019055
  -0.374805725  -0.216394186   0.693019055

ATOMIC_POSITIONS (crystal)
Si           -0.0000000000       -0.0000000000       -0.0000000000
Li            1.0976567229        0.4799057955        0.7080820247
Li           -0.0976567229       -0.4799057955        1.2919179753
Li            0.7080820247        0.0976567229        1.4799057955
Li            0.2919179753       -0.0976567229        0.5200942045
Li            1.4799057955       -0.2919179753        1.0976567229
Li           -0.4799057955        0.2919179753        0.9023432771



     Writing config-only to output data dir ./output/SiLi.save/
     NEW-OLD atomic charge density approx. for the potential

     negative rho (up, down):  9.323E-06 0.000E+00
     extrapolated charge   18.78594, renormalised to   22.00000

     total cpu time spent up to now is       49.9 secs

     Self-consistent Calculation

     iteration #  1     ecut=    80.00 Ry     beta= 0.70
     Davidson diagonalization with overlap
     c_bands:  1 eigenvalues not converged
     ethr =  1.00E-06,  avg # of iterations = 11.9

     total cpu time spent up to now is       53.4 secs

     total energy              =     -94.23934452 Ry
     estimated scf accuracy    <       0.08786394 Ry

     iteration #  2     ecut=    80.00 Ry     beta= 0.70
     Davidson diagonalization with overlap
     ethr =  3.99E-04,  avg # of iterations =  2.0

     total cpu time spent up to now is       54.9 secs

     total energy              =     -94.30952420 Ry
     estimated scf accuracy    <       0.02348005 Ry

     iteration #  3     ecut=    80.00 Ry     beta= 0.70
     Davidson diagonalization with overlap
     ethr =  1.07E-04,  avg # of iterations =  1.7

     total cpu time spent up to now is       56.0 secs

     total energy              =     -94.31111923 Ry
     estimated scf accuracy    <       0.00329901 Ry

     iteration #  4     ecut=    80.00 Ry     beta= 0.70
     Davidson diagonalization with overlap
     ethr =  1.50E-05,  avg # of iterations =  2.0

     total cpu time spent up to now is       57.2 secs

     total energy              =     -94.31149440 Ry
     estimated scf accuracy    <       0.00049618 Ry

     iteration #  5     ecut=    80.00 Ry     beta= 0.70
     Davidson diagonalization with overlap
     ethr =  2.26E-06,  avg # of iterations =  3.3

     total cpu time spent up to now is       58.4 secs

     total energy              =     -94.31159833 Ry
     estimated scf accuracy    <       0.00000696 Ry

     iteration #  6     ecut=    80.00 Ry     beta= 0.70
     Davidson diagonalization with overlap
     ethr =  3.16E-08,  avg # of iterations =  2.1

     total cpu time spent up to now is       59.5 secs

     total energy              =     -94.31159947 Ry
     estimated scf accuracy    <       0.00000037 Ry

     iteration #  7     ecut=    80.00 Ry     beta= 0.70
     Davidson diagonalization with overlap
     ethr =  1.67E-09,  avg # of iterations =  2.2

     total cpu time spent up to now is       60.7 secs

     total energy              =     -94.31159954 Ry
     estimated scf accuracy    <       0.00000002 Ry

     iteration #  8     ecut=    80.00 Ry     beta= 0.70
     Davidson diagonalization with overlap
     ethr =  6.91E-11,  avg # of iterations =  2.7

     total cpu time spent up to now is       61.9 secs

     End of self-consistent calculation

          k = 0.0000 0.0000 0.0000 (  8395 PWs)   bands (ev):

   -38.9022 -38.5080 -38.4839 -38.4839 -38.4359 -38.4359  -1.3269   5.6945
     5.9265   5.9265   6.1113   8.2004   8.9586   8.9586   9.8639

          k =-0.2223-0.1284 0.0802 (  8416 PWs)   bands (ev):

   -38.8764 -38.5190 -38.4990 -38.4936 -38.4334 -38.4291  -1.2355   4.9341
     5.2795   5.7441   6.3160   7.9853   8.9918   9.6919  11.0044

          k =-0.4447-0.2567 0.1603 (  8395 PWs)   bands (ev):

   -38.8080 -38.5905 -38.5104 -38.4813 -38.4406 -38.4210  -1.0242   3.6807
     4.6639   5.5913   6.7437   7.2411   9.0247  11.2986  11.9749

          k = 0.6670 0.3851-0.2405 (  8382 PWs)   bands (ev):

   -38.7453 -38.6538 -38.5171 -38.4610 -38.4571 -38.4182  -0.8985   3.1752
     4.4299   5.5438   6.6612   7.4420   8.6802  12.0779  12.2956

          k =-0.2223 0.1284 0.1603 (  8397 PWs)   bands (ev):

   -38.8710 -38.5170 -38.5054 -38.4980 -38.4398 -38.4194  -1.2197   4.8617
     5.0011   5.7506   6.5277   7.5601   9.5326   9.8998  11.1405

          k =-0.4447 0.0000 0.2405 (  8385 PWs)   bands (ev):

   -38.8195 -38.5573 -38.5349 -38.4868 -38.4364 -38.4168  -1.0544   4.0881
     4.4629   5.3447   6.6932   7.0138  10.2459  11.3892  11.8559

          k = 0.6670 0.6418-0.1603 (  8384 PWs)   bands (ev):

   -38.7452 -38.6306 -38.5495 -38.4708 -38.4303 -38.4264  -0.8793   3.3638
     4.3030   4.8912   6.5578   7.5435   9.8817  11.6528  12.5162

          k = 0.4447 0.5135-0.0802 (  8383 PWs)   bands (ev):

   -38.7603 -38.6144 -38.5516 -38.4578 -38.4438 -38.4246  -0.9017   3.4259
     4.4960   4.8208   6.7753   7.3556   9.6880  10.7984  12.4247

          k = 0.2223 0.3851 0.0000 (  8403 PWs)   bands (ev):

   -38.8337 -38.5439 -38.5345 -38.4769 -38.4370 -38.4254  -1.0913   4.2002
     4.8250   5.4002   6.4494   7.3874   9.5013  10.1195  11.9081

          k =-0.4447 0.2567 0.3207 (  8368 PWs)   bands (ev):

   -38.7895 -38.5786 -38.5354 -38.4926 -38.4546 -38.4017  -0.9591   3.6921
     4.2371   5.5513   6.3228   6.5351  11.0566  12.1531  12.6529

          k = 0.6670 0.8986-0.0802 (  8381 PWs)   bands (ev):

   -38.7302 -38.6149 -38.5755 -38.4732 -38.4557 -38.4036  -0.8274   3.3878
     4.0952   4.6873   6.3177   7.1541  11.1920  12.0025  13.3666

          k = 0.4447 0.7702 0.0000 (  8394 PWs)   bands (ev):

   -38.7047 -38.6141 -38.6131 -38.4600 -38.4455 -38.4157  -0.7963   3.5321
     3.8354   4.3734   6.5891   8.1283   9.6155  11.2676  12.9975

          k = 0.6670-0.3851-0.4810 (  8368 PWs)   bands (ev):

   -38.7081 -38.6508 -38.5474 -38.4826 -38.4689 -38.3955  -0.7935   3.1503
     3.9952   5.5860   5.7914   6.4653  11.7170  13.5408  14.6030

          k = 0.0000-0.0000 0.2405 (  8377 PWs)   bands (ev):

   -38.8861 -38.5246 -38.4926 -38.4926 -38.4273 -38.4273  -1.2841   4.4682
     5.8793   5.8793   7.2335   7.9778   9.1899   9.1899   9.9397

          k =-0.2223-0.1284 0.3207 (  8386 PWs)   bands (ev):

   -38.8519 -38.5359 -38.5213 -38.4991 -38.4266 -38.4165  -1.1700   4.0980
     4.8385   5.6667   7.4728   7.6751   9.3778  10.2992  11.1612

          k = 0.8893 0.5135-0.0802 (  8390 PWs)   bands (ev):

   -38.7811 -38.6050 -38.5162 -38.5088 -38.4284 -38.4129  -0.9594   3.5411
     4.0777   5.3796   6.7720   8.0652   9.5235  11.4962  12.0691

          k = 0.6670 0.3851 0.0000 (  8369 PWs)   bands (ev):

   -38.7402 -38.6460 -38.5263 -38.4828 -38.4458 -38.4116  -0.8735   3.2737
     4.1266   5.3197   6.5434   7.9558   8.6943  11.4968  12.5566

          k = 0.4447 0.2567 0.0802 (  8395 PWs)   bands (ev):

   -38.8117 -38.5744 -38.5220 -38.4740 -38.4565 -38.4133  -1.0239   3.8861
     4.5805   5.4758   6.6558   6.8500   9.3339  11.0745  12.3991

          k =-0.2223 0.1284 0.4008 (  8383 PWs)   bands (ev):

   -38.8392 -38.5436 -38.5177 -38.5146 -38.4286 -38.4078  -1.1344   3.7678
     4.8928   5.7274   6.9966   7.5494   9.9766  10.8225  11.4338

          k = 0.8893 0.7702 0.0000 (  8385 PWs)   bands (ev):

   -38.7864 -38.5690 -38.5550 -38.5100 -38.4245 -38.4077  -0.9695   3.5748
     4.1321   5.2470   6.4416   7.9646  10.7481  11.7335  12.2106

          k = 0.6670 0.6418 0.0802 (  8385 PWs)   bands (ev):

   -38.7209 -38.6336 -38.5664 -38.4920 -38.4230 -38.4173  -0.8270   3.4134
     3.8040   4.8513   6.2470   8.8430   9.0993  12.0760  12.3789

          k = 0.4447 0.5135 0.1603 (  8375 PWs)   bands (ev):

   -38.7543 -38.6023 -38.5669 -38.4668 -38.4473 -38.4151  -0.8791   3.6017
     4.0407   4.9716   6.4051   7.2477  10.1236  11.8849  12.1149

          k = 0.8893-0.5135-0.4008 (  8379 PWs)   bands (ev):

   -38.7576 -38.5994 -38.5393 -38.5228 -38.4359 -38.3980  -0.8871   3.3463
     3.9087   5.6091   6.0473   7.2394  11.4936  12.4279  13.6318

          k = 0.6670-0.6418-0.3207 (  8390 PWs)   bands (ev):

   -38.7105 -38.6301 -38.5768 -38.4954 -38.4378 -38.4028  -0.7973   3.3410
     3.8424   4.5581   6.5914   7.8022   9.8557  12.5127  13.3566

          k = 0.4447-0.7702-0.2405 (  8378 PWs)   bands (ev):

   -38.7045 -38.6223 -38.6043 -38.4667 -38.4365 -38.4188  -0.7963   3.5232
     3.8745   4.3214   6.7328   7.8832   9.6892  11.4937  12.9580

          k = 0.6670-0.3851-0.2405 (  8375 PWs)   bands (ev):

   -38.7233 -38.6417 -38.5411 -38.4949 -38.4514 -38.4006  -0.8211   3.3093
     3.8383   5.3901   6.0986   7.0582  10.3940  12.4249  13.2612

          k = 0.0000-0.0000 0.4810 (  8425 PWs)   bands (ev):

   -38.8485 -38.5631 -38.5052 -38.5052 -38.4147 -38.4147  -1.1886   3.4567
     5.8056   5.8056   7.3955   7.9382   9.6453   9.6453  10.5988

          k = 1.1117 0.6418 0.0802 (  8427 PWs)   bands (ev):

   -38.8152 -38.5664 -38.5351 -38.5129 -38.4139 -38.4087  -1.0772   3.3213
     4.7394   5.6736   6.9713   8.7990   9.3208  10.7549  12.0229

          k = 0.8893 0.5135 0.1603 (  8400 PWs)   bands (ev):

   -38.7524 -38.6091 -38.5334 -38.5310 -38.4232 -38.4039  -0.8871   3.4253
     3.6606   5.4536   6.3073   8.4432   9.9501  11.9236  12.6039

          k = 1.1117-0.6418-0.3207 (  8417 PWs)   bands (ev):

   -38.8070 -38.5746 -38.5303 -38.5208 -38.4149 -38.4047  -1.0568   3.1927
     4.7676   5.7140   6.7787   8.5236   9.5640  11.1566  12.4373

          k = 0.8893-0.7702-0.2405 (  8400 PWs)   bands (ev):

   -38.7659 -38.5717 -38.5705 -38.5231 -38.4166 -38.4051  -0.9202   3.2951
     3.9998   5.1365   6.7082   8.5849   9.7032  12.0242  12.8463

          k = 0.0000 0.0000-0.7215 (  8450 PWs)   bands (ev):

   -38.8252 -38.5869 -38.5104 -38.5104 -38.4096 -38.4096  -1.1347   3.0834
     5.7769   5.7769   7.4667   7.6437   9.8690   9.8690  11.6279

          k =-0.4447-0.0000-0.2405 (  8385 PWs)   bands (ev):

   -38.8196 -38.5562 -38.5341 -38.4884 -38.4415 -38.4121  -1.0509   3.9605
     4.5989   5.1742   6.6027   7.8405   9.5278  10.6220  12.0839

          k = 0.6670-0.6418 0.1603 (  8384 PWs)   bands (ev):

   -38.7454 -38.6299 -38.5489 -38.4685 -38.4452 -38.4148  -0.8751   3.3425
     4.2058   4.9059   6.6764   8.2876   8.8374  11.4037  12.5773

          k = 0.4447-0.5135 0.0802 (  8383 PWs)   bands (ev):

   -38.7603 -38.6152 -38.5499 -38.4588 -38.4460 -38.4224  -0.9019   3.5360
     4.1240   5.0847   6.8849   7.4444   9.0812  10.9965  12.9017

          k = 0.6670-0.8986 0.0802 (  8381 PWs)   bands (ev):

   -38.7304 -38.6147 -38.5738 -38.4760 -38.4569 -38.4013  -0.8228   3.3283
     4.1604   4.5556   6.4779   7.4167  10.3146  12.2809  12.9156

          k = 0.8893-0.7702-0.0000 (  8385 PWs)   bands (ev):

   -38.7865 -38.5683 -38.5534 -38.5121 -38.4291 -38.4031  -0.9656   3.5401
     4.1075   5.0896   7.2553   7.5593  10.2143  11.3655  12.5945

          k = 0.6670-0.6418-0.0802 (  8385 PWs)   bands (ev):

   -38.7212 -38.6331 -38.5651 -38.4921 -38.4344 -38.4072  -0.8227   3.4803
     3.6886   4.6307   7.4276   7.6358   9.3750  11.1444  13.3411

          k = 0.4447-0.5135-0.1603 (  8375 PWs)   bands (ev):

   -38.7545 -38.6026 -38.5648 -38.4638 -38.4570 -38.4101  -0.8751   3.5590
     4.1310   4.6602   6.8606   7.6535   9.1477  11.1275  13.5382

          k = 0.6670 0.6418 0.3207 (  8390 PWs)   bands (ev):

   -38.7105 -38.6302 -38.5764 -38.4967 -38.4359 -38.4037  -0.7971   3.3596
     3.7446   4.7043   6.6331   7.4245  10.7829  11.6940  13.2929

     the Fermi energy is     7.0445 ev

!    total energy              =     -94.31159954 Ry
     estimated scf accuracy    <          6.2E-10 Ry
     smearing contrib. (-TS)   =       0.00177069 Ry
     internal energy E=F+TS    =     -94.31337024 Ry

     The total energy is F=E-TS. E is the sum of the following terms:
     one-electron contribution =     -35.34378363 Ry
     hartree contribution      =      17.41331096 Ry
     xc contribution           =     -24.44937813 Ry
     ewald contribution        =     -51.93351944 Ry

     convergence has been achieved in   8 iterations

     Forces acting on atoms (cartesian axes, Ry/au):

     atom    1 type  1   force =     0.00000000    0.00000000    0.00000000
     atom    2 type  2   force =     0.02297031    0.08404658    0.00597769
     atom    3 type  2   force =    -0.02297031   -0.08404658   -0.00597769
     atom    4 type  2   force =    -0.08427163   -0.02213042    0.00597769
     atom    5 type  2   force =     0.08427163    0.02213042   -0.00597769
     atom    6 type  2   force =     0.06130132   -0.06191616    0.00597769
     atom    7 type  2   force =    -0.06130132    0.06191616   -0.00597769
     The non-local contrib.  to forces
     atom    1 type  1   force =     0.00000000   -0.00000000   -0.00000000
     atom    2 type  2   force =    -0.01906177    0.04051599    0.02705718
     atom    3 type  2   force =     0.01906177   -0.04051599   -0.02705718
     atom    4 type  2   force =    -0.02555699   -0.03676597    0.02705718
     atom    5 type  2   force =     0.02555699    0.03676597   -0.02705718
     atom    6 type  2   force =     0.04461876   -0.00375001    0.02705718
     atom    7 type  2   force =    -0.04461876    0.00375001   -0.02705718
     The ionic contribution  to forces
     atom    1 type  1   force =    -0.00000000   -0.00000000    0.00000000
     atom    2 type  2   force =     0.02363769    0.35475034   -0.09821364
     atom    3 type  2   force =    -0.02363769   -0.35475034    0.09821364
     atom    4 type  2   force =    -0.31904165   -0.15690433   -0.09821364
     atom    5 type  2   force =     0.31904165    0.15690433    0.09821364
     atom    6 type  2   force =     0.29540397   -0.19784601   -0.09821364
     atom    7 type  2   force =    -0.29540397    0.19784601    0.09821364
     The local contribution  to forces
     atom    1 type  1   force =     0.00000000    0.00000000   -0.00000000
     atom    2 type  2   force =     0.01838900   -0.31122641    0.07712805
     atom    3 type  2   force =    -0.01838900    0.31122641   -0.07712805
     atom    4 type  2   force =     0.26033548    0.17153855    0.07712805
     atom    5 type  2   force =    -0.26033548   -0.17153855   -0.07712805
     atom    6 type  2   force =    -0.27872448    0.13968786    0.07712805
     atom    7 type  2   force =     0.27872448   -0.13968786   -0.07712805
     The core correction contribution to forces
     atom    1 type  1   force =     0.00000000    0.00000000   -0.00000000
     atom    2 type  2   force =     0.00000000    0.00000000    0.00000000
     atom    3 type  2   force =     0.00000000    0.00000000    0.00000000
     atom    4 type  2   force =     0.00000000    0.00000000    0.00000000
     atom    5 type  2   force =     0.00000000    0.00000000    0.00000000
     atom    6 type  2   force =     0.00000000    0.00000000    0.00000000
     atom    7 type  2   force =     0.00000000    0.00000000    0.00000000
     The Hubbard contrib.    to forces
     atom    1 type  1   force =     0.00000000    0.00000000    0.00000000
     atom    2 type  2   force =     0.00000000    0.00000000    0.00000000
     atom    3 type  2   force =     0.00000000    0.00000000    0.00000000
     atom    4 type  2   force =     0.00000000    0.00000000    0.00000000
     atom    5 type  2   force =     0.00000000    0.00000000    0.00000000
     atom    6 type  2   force =     0.00000000    0.00000000    0.00000000
     atom    7 type  2   force =     0.00000000    0.00000000    0.00000000
     The SCF correction term to forces
     atom    1 type  1   force =     0.00000000    0.00000000   -0.00000000
     atom    2 type  2   force =     0.00000539    0.00000666    0.00000609
     atom    3 type  2   force =    -0.00000539   -0.00000666   -0.00000609
     atom    4 type  2   force =    -0.00000847    0.00000134    0.00000609
     atom    5 type  2   force =     0.00000847   -0.00000134   -0.00000609
     atom    6 type  2   force =     0.00000307   -0.00000800    0.00000609
     atom    7 type  2   force =    -0.00000307    0.00000800   -0.00000609

     Total force =     0.213923     Total SCF correction =     0.000026


     Computing stress (Cartesian axis) and pressure

          total   stress  (Ry/bohr**3)                   (kbar)     P=      682.16
   0.00494762   0.00000000  -0.00000000          727.82        0.00       -0.00
  -0.00000000   0.00494762   0.00000000           -0.00      727.82        0.00
   0.00000000   0.00000000   0.00401638            0.00        0.00      590.83

     Energy error            =      9.2E-02 Ry
     Gradient error          =      8.4E-02 Ry/Bohr
     Cell gradient error     =      2.3E+02 kbar

     number of scf cycles    =   4
     number of bfgs steps    =   3

     enthalpy           old  =     -92.9127785590 Ry
     enthalpy           new  =     -93.0045550920 Ry

     CASE: enthalpy          _new < enthalpy          _old

     new trust radius        =       0.1645001295 bohr
ibrav =      5
 celldm(1) =      8.43802963
 celldm(4) =      0.56113366
Input lattice vectors:
     0.37834871    -0.21843973     0.67932959
     0.00000000     0.43687946     0.67932959
    -0.37834871    -0.21843973     0.67932959
New lattice vectors in INITIAL alat:
     0.37834871    -0.21843973     0.67932959
     0.00000000     0.43687946     0.67932959
    -0.37834871    -0.21843973     0.67932959
New lattice vectors in NEW alat (for information only):
     0.46843694    -0.27045220     0.84108409
     0.00000000     0.54090439     0.84108409
    -0.46843694    -0.27045220     0.84108409
Discrepancy in bohr =     0.000000    0.000000    0.000000
     new conv_thr            =       0.0000000084 Ry

     new unit-cell volume =    384.10986 a.u.^3 (    56.91921 Ang^3 )
     density =      2.03432 g/cm^3

CELL_PARAMETERS (alat= 10.44720051)
   0.378348707  -0.218439728   0.679329591
   0.000000000   0.436879456   0.679329591
  -0.378348707  -0.218439728   0.679329591

ATOMIC_POSITIONS (crystal)
Si            0.0000000000        0.0000000000       -0.0000000000
Li            1.0961647862        0.5037313715        0.6919897418
Li           -0.0961647862       -0.5037313715        1.3080102582
Li            0.6919897418        0.0961647862        1.5037313715
[...]
        k(   22) = (   0.4033165   0.4657098   0.2007648), wk =   0.0555556
        k(   23) = (   0.8066330  -0.4657098  -0.5019121), wk =   0.0555556
        k(   24) = (   0.6049748  -0.5821372  -0.4015297), wk =   0.0555556
        k(   25) = (   0.4033165  -0.6985647  -0.3011472), wk =   0.0555556
        k(   26) = (   0.6049748  -0.3492823  -0.3011472), wk =   0.0555556
        k(   27) = (  -0.0000000  -0.0000000   0.6022945), wk =   0.0185185
        k(   28) = (   1.0082913   0.5821372   0.1003824), wk =   0.0555556
        k(   29) = (   0.8066330   0.4657098   0.2007648), wk =   0.0555556
        k(   30) = (   1.0082913  -0.5821372  -0.4015297), wk =   0.0555556
        k(   31) = (   0.8066330  -0.6985647  -0.3011472), wk =   0.0555556
        k(   32) = (  -0.0000000  -0.0000000  -0.9034417), wk =   0.0092593
        k(   33) = (  -0.4033165  -0.0000000  -0.3011472), wk =   0.0555556
        k(   34) = (   0.6049748  -0.5821372   0.2007648), wk =   0.0555556
        k(   35) = (   0.4033165  -0.4657098   0.1003824), wk =   0.0555556
        k(   36) = (   0.6049748  -0.8149921   0.1003824), wk =   0.0555556
        k(   37) = (   0.8066330  -0.6985647  -0.0000000), wk =   0.0555556
        k(   38) = (   0.6049748  -0.5821372  -0.1003824), wk =   0.0555556
        k(   39) = (   0.4033165  -0.4657098  -0.2007648), wk =   0.0555556
        k(   40) = (   0.6049748   0.5821372   0.4015297), wk =   0.0555556

     Dense  grid:    36045 G-vectors     FFT dimensions: (  45,  45,  45)

     Estimated max dynamical RAM per process >      20.88 MB

     Estimated total dynamical RAM >     167.08 MB

     Initial potential from superposition of free atoms

     starting charge      21.9720, renormalised to      22.0000
     Starting wfcs are   16 randomized atomic wfcs

     total cpu time spent up to now is      271.5 secs

     Self-consistent Calculation

     iteration #  1     ecut=    80.00 Ry     beta= 0.70
     Davidson diagonalization with overlap
     c_bands:  1 eigenvalues not converged
     c_bands:  2 eigenvalues not converged
     c_bands:  1 eigenvalues not converged
     c_bands:  1 eigenvalues not converged
     c_bands:  1 eigenvalues not converged
     c_bands:  1 eigenvalues not converged
     c_bands:  1 eigenvalues not converged
     c_bands:  1 eigenvalues not converged
     c_bands:  1 eigenvalues not converged
     c_bands:  1 eigenvalues not converged
     ethr =  1.00E-06,  avg # of iterations = 17.2

     total cpu time spent up to now is      273.5 secs

     total energy              =     -94.53777994 Ry
     estimated scf accuracy    <       0.03372996 Ry

     iteration #  2     ecut=    80.00 Ry     beta= 0.70
     Davidson diagonalization with overlap
     ethr =  1.53E-04,  avg # of iterations =  1.1

     total cpu time spent up to now is      274.1 secs

     total energy              =     -94.53895688 Ry
     estimated scf accuracy    <       0.00188440 Ry

     iteration #  3     ecut=    80.00 Ry     beta= 0.70
     Davidson diagonalization with overlap
     ethr =  8.57E-06,  avg # of iterations =  1.4

     total cpu time spent up to now is      274.6 secs

     total energy              =     -94.53904353 Ry
     estimated scf accuracy    <       0.00006105 Ry

     iteration #  4     ecut=    80.00 Ry     beta= 0.70
     Davidson diagonalization with overlap
     ethr =  2.78E-07,  avg # of iterations =  3.5

     total cpu time spent up to now is      275.3 secs

     total energy              =     -94.53905481 Ry
     estimated scf accuracy    <       0.00000413 Ry

     iteration #  5     ecut=    80.00 Ry     beta= 0.70
     Davidson diagonalization with overlap
     ethr =  1.88E-08,  avg # of iterations =  2.0

     total cpu time spent up to now is      275.9 secs

     total energy              =     -94.53905553 Ry
     estimated scf accuracy    <       0.00000003 Ry

     iteration #  6     ecut=    80.00 Ry     beta= 0.70
     Davidson diagonalization with overlap
     ethr =  1.55E-10,  avg # of iterations =  3.0

     total cpu time spent up to now is      276.6 secs

     total energy              =     -94.53905554 Ry
     estimated scf accuracy    <          2.1E-09 Ry

     iteration #  7     ecut=    80.00 Ry     beta= 0.70
     Davidson diagonalization with overlap
     ethr =  9.70E-12,  avg # of iterations =  2.1

     total cpu time spent up to now is      277.2 secs

     End of self-consistent calculation

          k = 0.0000 0.0000 0.0000 (  4511 PWs)   bands (ev):

   -39.2210 -38.6499 -38.6499 -38.4733 -38.4733 -38.3664  -1.0881   5.6362
     5.6362   6.2985   8.1284   9.2717   9.2717  10.0254  10.4233

          k =-0.2017-0.1164 0.1004 (  4511 PWs)   bands (ev):

   -39.1926 -38.7133 -38.6480 -38.4753 -38.4511 -38.3539  -1.0366   4.8870
     5.6782   6.0184   8.3745   9.2963   9.4747  10.1299  10.8260

          k =-0.4033-0.2329 0.2008 (  4496 PWs)   bands (ev):

   -39.1144 -38.8367 -38.6439 -38.4795 -38.4332 -38.3274  -0.9201   3.8199
     5.7737   5.7786   8.0736   9.3272   9.8077  10.4754  11.8380

          k = 0.6050 0.3493-0.3011 (  4496 PWs)   bands (ev):

   -39.0348 -38.9334 -38.6419 -38.4817 -38.4291 -38.3147  -0.8532   3.3967
     5.6893   5.8292   7.8642   9.3307   9.9588  10.7726  11.6580

          k =-0.2017 0.1164 0.2008 (  4506 PWs)   bands (ev):

   -39.1742 -38.7266 -38.6775 -38.4922 -38.3958 -38.3679  -0.9824   5.0005
     5.2758   5.7563   7.4728   9.5534  10.2758  10.6758  10.8678

          k =-0.4033 0.0000 0.3011 (  4505 PWs)   bands (ev):

   -39.1050 -38.8204 -38.6814 -38.5143 -38.3832 -38.3306  -0.8632   4.0501
     5.2738   5.5244   7.1606   9.5131  10.7414  10.8518  11.9392

          k = 0.6050 0.5821-0.2008 (  4509 PWs)   bands (ev):

   -39.0167 -38.9202 -38.6823 -38.5218 -38.3933 -38.3014  -0.7935   3.5066
     5.0885   5.5135   7.7187   9.4900   9.9747  11.0670  12.0699

          k = 0.4033 0.4657-0.1004 (  4508 PWs)   bands (ev):

   -39.0770 -38.8427 -38.6909 -38.5103 -38.4129 -38.3019  -0.8614   3.7754
     4.8670   5.8092   8.4208   9.2658   9.5861  11.2486  11.6608

          k = 0.2017 0.3493 0.0000 (  4508 PWs)   bands (ev):

   -39.1569 -38.7339 -38.6870 -38.4915 -38.4405 -38.3251  -0.9836   4.5609
     5.0353   5.9962   8.6190   9.2405   9.5504  10.6850  11.8253

          k =-0.4033 0.2329 0.4015 (  4510 PWs)   bands (ev):

   -39.0494 -38.8183 -38.7500 -38.5599 -38.3549 -38.3026  -0.7373   4.0439
     4.7813   5.1735   6.1461   9.3461  12.0654  12.3683  13.1513

          k = 0.6050 0.8150-0.1004 (  4508 PWs)   bands (ev):

   -38.9657 -38.8894 -38.7704 -38.5743 -38.3583 -38.2776  -0.6626   3.7008
     4.4092   5.1537   6.4635   9.3087  11.0768  12.9361  13.6562

          k = 0.4033 0.6986 0.0000 (  4520 PWs)   bands (ev):

   -39.0030 -38.8605 -38.7646 -38.5496 -38.3792 -38.2790  -0.7313   3.9640
     3.9740   5.4341   7.6913   9.4153   9.6575  12.4154  12.9815

          k = 0.6050-0.3493-0.6023 (  4522 PWs)   bands (ev):

   -38.9150 -38.8549 -38.8535 -38.5993 -38.3463 -38.2668  -0.5902   3.6000
     4.5899   5.0086   5.6271   9.2209  12.5670  13.1097  13.8370

          k =-0.0000-0.0000 0.3011 (  4535 PWs)   bands (ev):

   -39.1647 -38.7229 -38.7229 -38.4245 -38.3995 -38.3995  -0.9241   5.1308
     5.1308   5.6197   6.9879   9.9389  10.2174  10.2174  10.9282

          k =-0.2017-0.1164 0.4015 (  4507 PWs)   bands (ev):

   -39.1028 -38.8124 -38.7194 -38.4676 -38.4030 -38.3290  -0.8008   4.2209
     5.1150   5.4077   6.7094   9.9060  10.2280  10.8245  12.0450

          k = 0.8066 0.4657-0.1004 (  4517 PWs)   bands (ev):

   -39.0091 -38.9110 -38.7198 -38.5012 -38.4028 -38.2913  -0.7287   3.5671
     5.1074   5.2482   6.8423  10.2920  10.4128  11.0313  11.9615

          k = 0.6050 0.3493 0.0000 (  4502 PWs)   bands (ev):

   -39.0495 -38.8478 -38.7236 -38.5261 -38.3991 -38.2895  -0.7991   3.6885
     4.9506   5.4024   7.1340  10.3421  10.7487  11.6508  11.8936

          k = 0.4033 0.2329 0.1004 (  4479 PWs)   bands (ev):

   -39.1315 -38.7270 -38.7253 -38.5369 -38.3957 -38.3187  -0.9278   4.4252
     5.1083   5.4137   7.4561  10.3387  10.5624  10.8227  12.1656

          k =-0.2017 0.1164 0.5019 (  4517 PWs)   bands (ev):

   -39.0524 -38.8150 -38.7736 -38.5284 -38.3592 -38.3057  -0.6684   4.2419
     4.6044   5.0324   6.1286   9.7871  10.5237  12.0075  12.5876

          k = 0.8066 0.6986 0.0000 (  4516 PWs)   bands (ev):

   -38.9647 -38.8841 -38.7834 -38.5754 -38.3502 -38.2773  -0.5906   3.7485
     4.4556   4.9140   6.1726   9.9878  10.6318  12.6488  12.8329

          k = 0.6050 0.5821 0.1004 (  4515 PWs)   bands (ev):

   -38.9863 -38.8491 -38.7775 -38.5958 -38.3492 -38.2778  -0.6636   3.8360
     4.1773   5.0416   6.7809  10.2852  10.5095  12.5360  12.6333

          k = 0.4033 0.4657 0.2008 (  4503 PWs)   bands (ev):

   -39.0617 -38.8221 -38.7042 -38.5884 -38.3527 -38.3065  -0.8024   4.0072
     4.5925   5.2557   7.2378  10.2903  10.5638  11.1318  12.3098

          k = 0.8066-0.4657-0.5019 (  4519 PWs)   bands (ev):

   -38.9028 -38.8513 -38.8512 -38.6371 -38.3239 -38.2688  -0.5135   3.6501
     4.4936   4.6517   5.6287  10.0026  11.2067  12.7602  13.9906

          k = 0.6050-0.5821-0.4015 (  4521 PWs)   bands (ev):

   -38.9387 -38.8767 -38.7676 -38.6542 -38.3192 -38.2794  -0.5904   3.7488
     4.3179   4.6364   6.3144  10.1786  10.7934  12.7212  14.1081

          k = 0.4033-0.6986-0.3011 (  4504 PWs)   bands (ev):

   -38.9903 -38.9051 -38.6868 -38.6154 -38.3378 -38.3005  -0.7309   3.6367
     4.7567   4.8692   7.7018   9.5767  10.2208  11.2957  12.8729

          k = 0.6050-0.3493-0.3011 (  4530 PWs)   bands (ev):

   -39.0076 -38.8177 -38.7403 -38.6582 -38.3085 -38.3034  -0.6686   3.9471
     4.4923   4.8178   6.0481  10.3018  12.0858  12.3330  12.9756

          k =-0.0000-0.0000 0.6023 (  4519 PWs)   bands (ev):

   -39.0105 -38.8110 -38.8110 -38.5822 -38.3096 -38.3096  -0.5217   4.2436
     4.4670   4.4670   5.9360   9.2712  11.7215  11.7215  13.0194

          k = 1.0083 0.5821 0.1004 (  4520 PWs)   bands (ev):

   -38.9287 -38.8667 -38.8104 -38.6419 -38.3104 -38.2763  -0.4352   3.8013
     4.2596   4.4986   5.8449   9.5595  11.7203  12.3325  12.8197

          k = 0.8066 0.4657 0.2008 (  4515 PWs)   bands (ev):

   -38.9414 -38.8155 -38.8137 -38.6806 -38.3072 -38.2768  -0.5146   3.8696
     4.0294   4.6723   5.9262  10.5994  11.9511  11.9840  12.7651

          k = 1.0083-0.5821-0.4015 (  4506 PWs)   bands (ev):

   -38.8671 -38.8470 -38.8430 -38.7151 -38.2893 -38.2729  -0.3468   3.6483
     4.2443   4.3075   5.6378   9.5424  11.8693  12.3278  13.1753

          k = 0.8066-0.6986-0.3011 (  4530 PWs)   bands (ev):

   -38.8969 -38.8536 -38.7618 -38.7558 -38.2857 -38.2814  -0.4315   3.7431
     4.1427   4.3495   5.8346  10.1420  11.8122  12.2894  13.3489

          k =-0.0000-0.0000-0.9034 (  4480 PWs)   bands (ev):

   -38.8448 -38.8448 -38.8156 -38.7788 -38.2750 -38.2750  -0.2553   3.5316
     4.2175   4.2175   5.6492   8.9738  12.1620  12.1620  13.6292

          k =-0.4033-0.0000-0.3011 (  4505 PWs)   bands (ev):

   -39.1050 -38.8204 -38.6814 -38.5143 -38.3833 -38.3306  -0.8632   4.0503
     5.2737   5.5246   7.1597   9.5134  10.7421  10.8513  11.9412

          k = 0.6050-0.5821 0.2008 (  4509 PWs)   bands (ev):

   -39.0167 -38.9201 -38.6823 -38.5217 -38.3934 -38.3014  -0.7935   3.5066
     5.0905   5.5113   7.7181   9.4921   9.9737  11.0657  12.0722

          k = 0.4033-0.4657 0.1004 (  4508 PWs)   bands (ev):

   -39.0770 -38.8426 -38.6909 -38.5102 -38.4130 -38.3019  -0.8614   3.7751
     4.8685   5.8073   8.4217   9.2689   9.5836  11.2464  11.6609

          k = 0.6050-0.8150 0.1004 (  4508 PWs)   bands (ev):

   -38.9657 -38.8893 -38.7704 -38.5743 -38.3583 -38.2776  -0.6626   3.7007
     4.4100   5.1531   6.4631   9.3090  11.0767  12.9366  13.6583

          k = 0.8066-0.6986-0.0000 (  4516 PWs)   bands (ev):

   -38.9647 -38.8841 -38.7834 -38.5754 -38.3502 -38.2773  -0.5906   3.7483
     4.4566   4.9132   6.1724   9.9850  10.6356  12.6488  12.8341

          k = 0.6050-0.5821-0.1004 (  4515 PWs)   bands (ev):

   -38.9863 -38.8491 -38.7775 -38.5958 -38.3492 -38.2778  -0.6636   3.8357
     4.1782   5.0411   6.7805  10.2812  10.5144  12.5337  12.6374

          k = 0.4033-0.4657-0.2008 (  4503 PWs)   bands (ev):

   -39.0617 -38.8221 -38.7042 -38.5884 -38.3527 -38.3065  -0.8024   4.0077
     4.5917   5.2563   7.2368  10.2931  10.5624  11.1314  12.3110

          k = 0.6050 0.5821 0.4015 (  4521 PWs)   bands (ev):

   -38.9387 -38.8767 -38.7675 -38.6542 -38.3191 -38.2794  -0.5904   3.7489
     4.3177   4.6365   6.3146  10.1756  10.7969  12.7213  14.1110

     the Fermi energy is     8.7481 ev

!    total energy              =     -94.53905554 Ry
     estimated scf accuracy    <          8.4E-11 Ry
     smearing contrib. (-TS)   =       0.00045979 Ry
     internal energy E=F+TS    =     -94.53951533 Ry

     The total energy is F=E-TS. E is the sum of the following terms:
     one-electron contribution =     -34.31639607 Ry
     hartree contribution      =      16.90640467 Ry
     xc contribution           =     -24.37192799 Ry
     ewald contribution        =     -52.75759595 Ry

     convergence has been achieved in   7 iterations

     Forces acting on atoms (cartesian axes, Ry/au):

     atom    1 type  1   force =    -0.00000000   -0.00000000   -0.00000000
     atom    2 type  2   force =    -0.00005740    0.00001676    0.00004973
     atom    3 type  2   force =     0.00005740   -0.00001676   -0.00004973
     atom    4 type  2   force =     0.00001419   -0.00005809    0.00004973
     atom    5 type  2   force =    -0.00001419    0.00005809   -0.00004973
     atom    6 type  2   force =     0.00004322    0.00004133    0.00004973
     atom    7 type  2   force =    -0.00004322   -0.00004133   -0.00004973
     The non-local contrib.  to forces
     atom    1 type  1   force =    -0.00000000   -0.00000000    0.00000000
     atom    2 type  2   force =    -0.02299445    0.01307313    0.00202466
     atom    3 type  2   force =     0.02299445   -0.01307313   -0.00202466
     atom    4 type  2   force =     0.00017556   -0.02645034    0.00202466
     atom    5 type  2   force =    -0.00017556    0.02645034   -0.00202466
     atom    6 type  2   force =     0.02281889    0.01337721    0.00202466
     atom    7 type  2   force =    -0.02281889   -0.01337721   -0.00202466
     The ionic contribution  to forces
     atom    1 type  1   force =    -0.00000000    0.00000000    0.00000000
     atom    2 type  2   force =     0.03215558   -0.01810637    0.07095408
     atom    3 type  2   force =    -0.03215558    0.01810637   -0.07095408
     atom    4 type  2   force =    -0.00039721    0.03690073    0.07095408
     atom    5 type  2   force =     0.00039721   -0.03690073   -0.07095408
     atom    6 type  2   force =    -0.03175837   -0.01879436    0.07095408
     atom    7 type  2   force =     0.03175837    0.01879436   -0.07095408
     The local contribution  to forces
     atom    1 type  1   force =    -0.00000000    0.00000000    0.00000000
     atom    2 type  2   force =    -0.00922114    0.00505152   -0.07292945
     atom    3 type  2   force =     0.00922114   -0.00505152    0.07292945
     atom    4 type  2   force =     0.00023583   -0.01051150   -0.07292945
     atom    5 type  2   force =    -0.00023583    0.01051150    0.07292945
     atom    6 type  2   force =     0.00898531    0.00545998   -0.07292945
     atom    7 type  2   force =    -0.00898531   -0.00545998    0.07292945
     The core correction contribution to forces
     atom    1 type  1   force =     0.00000000    0.00000000   -0.00000000
     atom    2 type  2   force =     0.00000000    0.00000000    0.00000000
     atom    3 type  2   force =     0.00000000    0.00000000    0.00000000
     atom    4 type  2   force =     0.00000000    0.00000000    0.00000000
     atom    5 type  2   force =     0.00000000    0.00000000    0.00000000
     atom    6 type  2   force =     0.00000000    0.00000000    0.00000000
     atom    7 type  2   force =     0.00000000    0.00000000    0.00000000
     The Hubbard contrib.    to forces
     atom    1 type  1   force =     0.00000000    0.00000000    0.00000000
     atom    2 type  2   force =     0.00000000    0.00000000    0.00000000
     atom    3 type  2   force =     0.00000000    0.00000000    0.00000000
     atom    4 type  2   force =     0.00000000    0.00000000    0.00000000
     atom    5 type  2   force =     0.00000000    0.00000000    0.00000000
     atom    6 type  2   force =     0.00000000    0.00000000    0.00000000
     atom    7 type  2   force =     0.00000000    0.00000000    0.00000000
     The SCF correction term to forces
     atom    1 type  1   force =    -0.00000000   -0.00000000    0.00000000
     atom    2 type  2   force =     0.00000261   -0.00000152    0.00000044
     atom    3 type  2   force =    -0.00000261    0.00000152   -0.00000044
     atom    4 type  2   force =     0.00000001    0.00000302    0.00000044
     atom    5 type  2   force =    -0.00000001   -0.00000302   -0.00000044
     atom    6 type  2   force =    -0.00000262   -0.00000150    0.00000044
     atom    7 type  2   force =     0.00000262    0.00000150   -0.00000044

     Total force =     0.000191     Total SCF correction =     0.000007


     Computing stress (Cartesian axis) and pressure

          total   stress  (Ry/bohr**3)                   (kbar)     P=      499.49
   0.00339327   0.00000000  -0.00000000          499.17        0.00       -0.00
  -0.00000000   0.00339327   0.00000000           -0.00      499.17        0.00
  -0.00000000   0.00000000   0.00339996           -0.00        0.00      500.15


     Writing all to output data dir ./output/SiLi.save/

     init_run     :      2.10s CPU      3.71s WALL (       2 calls)
     electrons    :    179.69s CPU    203.02s WALL (      24 calls)
     update_pot   :     14.46s CPU     14.61s WALL (      22 calls)
     forces       :     10.14s CPU     10.28s WALL (      24 calls)
     stress       :     44.23s CPU     46.12s WALL (      24 calls)

     Called by init_run:
     wfcinit      :      0.90s CPU      2.11s WALL (       2 calls)
     potinit      :      0.48s CPU      0.76s WALL (       2 calls)
     hinit0       :      0.62s CPU      0.71s WALL (       2 calls)

     Called by electrons:
     c_bands      :    155.11s CPU    174.60s WALL (     156 calls)
     sum_band     :     22.21s CPU     25.41s WALL (     156 calls)
     v_of_rho     :      2.46s CPU      3.16s WALL (     170 calls)
     mix_rho      :      0.18s CPU      0.22s WALL (     156 calls)

     Called by c_bands:
     init_us_2    :      4.05s CPU      4.58s WALL (   14480 calls)
     init_us_2:cp :      4.03s CPU      4.56s WALL (   14480 calls)
     cegterg      :    147.25s CPU    164.54s WALL (    6240 calls)

     Called by *egterg:
     cdiaghg      :      5.44s CPU      5.67s WALL (   23490 calls)
     h_psi        :    127.99s CPU    145.82s WALL (   24850 calls)
     g_psi        :      0.59s CPU      0.61s WALL (   18530 calls)

     Called by h_psi:
     h_psi:calbec :      7.51s CPU      8.28s WALL (   24850 calls)
     vloc_psi     :    113.64s CPU    130.29s WALL (   24850 calls)
     add_vuspsi   :      6.45s CPU      6.82s WALL (   24850 calls)

     General routines
     calbec       :      9.54s CPU     10.35s WALL (   29650 calls)
     fft          :      1.55s CPU      2.43s WALL (    2308 calls)
     ffts         :      0.06s CPU      0.10s WALL (     156 calls)
     fftw         :    116.80s CPU    133.99s WALL (  623818 calls)

     Parallel routines

     PWSCF        :   4m11.10s CPU   4m38.70s WALL


   This run was terminated on:   3:46:58  30Dec2024            

=------------------------------------------------------------------------------=
   JOB DONE.
=------------------------------------------------------------------------------=
