
     Program PWSCF v.7.3.1 starts on 31Mar2025 at 18:24:27 

     This program is part of the open-source Quantum ESPRESSO suite
     for quantum simulation of materials; please cite
         "P. Giannozzi et al., J. Phys.:Condens. Matter 21 395502 (2009);
         "P. Giannozzi et al., J. Phys.:Condens. Matter 29 465901 (2017);
         "P. Giannozzi et al., J. Chem. Phys. 152 154105 (2020);
          URL http://www.quantum-espresso.org", 
     in publications or presentations arising from this work. More details at
     http://www.quantum-espresso.org/quote

     Parallel version (MPI & OpenMP), running on     128 processor cores
     Number of MPI processes:               128
     Threads/MPI process:                     1

     MPI processes distributed on     1 nodes
     493204 MiB available memory on the printing compute node when the environment starts

     Waiting for input...
     Reading input from standard input

     Current dimensions of program PWSCF are:
     Max number of different atomic species (ntypx) = 10
     Max number of k-points (npk) =  40000
     Max angular momentum in pseudopotentials (lmaxx) =  4

     K-points division:     npool     =       2
     R & G space division:  proc/nbgrp/npool/nimage =      64
     Subspace diagonalization in iterative solution of the eigenvalue problem:
     a serial algorithm will be used


     Parallelization info
     --------------------
     sticks:   dense  smooth     PW     G-vecs:    dense   smooth      PW
     Min          47      47     15                  834      834     149
     Max          48      48     16                  836      836     151
     Sum        3015    3015    963                53453    53453    9599

     Using Slab Decomposition



     bravais-lattice index     =            5
     lattice parameter (alat)  =      19.7120  a.u.
     unit-cell volume          =     394.9403 (a.u.)^3
     number of atoms/cell      =            7
     number of atomic types    =            2
     number of electrons       =        22.00
     number of Kohn-Sham states=           15
     kinetic-energy cutoff     =     100.0000  Ry
     charge density cutoff     =     400.0000  Ry
     scf convergence threshold =      1.0E-08
     mixing beta               =       0.7000
     number of iterations used =            8  plain     mixing
     energy convergence thresh.=      1.0E-04
     force convergence thresh. =      5.0E-04
     press convergence thresh. =      1.0E+00
     Exchange-correlation= PBE
                           (   1   4   3   4   0   0   0)
     nstep                     =           50


     celldm(1)=  19.711969  celldm(2)=   0.000000  celldm(3)=   0.000000
     celldm(4)=   0.969927  celldm(5)=   0.000000  celldm(6)=   0.000000

     crystal axes: (cart. coord. in units of alat)
               a(1) = (   0.122624  -0.070797   0.989925 )  
               a(2) = (   0.000000   0.141594   0.989925 )  
               a(3) = (  -0.122624  -0.070797   0.989925 )  

     reciprocal axes: (cart. coord. in units 2 pi/alat)
               b(1) = (  4.077517 -2.354155  0.336726 )  
               b(2) = ( -0.000000  4.708311  0.336726 )  
               b(3) = ( -4.077517 -2.354155  0.336726 )  


     PseudoPot. # 1 for Si read from file:
     ../pseudo/Si_ONCV_PBE_sr.upf
     MD5 check sum: e543d271109d17c80368dfa7c482276d
     Pseudo is Norm-conserving + core correction, Zval =  4.0
     Generated using ONCVPSP code by D. R. Hamann
     Using radial grid of 1510 points,  6 beta functions with: 
                l(1) =   0
                l(2) =   0
                l(3) =   1
                l(4) =   1
                l(5) =   2
                l(6) =   2

     PseudoPot. # 2 for Li read from file:
     ../pseudo/Li_ONCV_PBE_sr.upf
     MD5 check sum: 50ff420e78310ffa21704f3361e624a4
     Pseudo is Norm-conserving, Zval =  3.0
     Generated using ONCVPSP code by D. R. Hamann
     Using radial grid of 1944 points,  4 beta functions with: 
                l(1) =   0
                l(2) =   0
                l(3) =   1
                l(4) =   1

     atomic species   valence    mass     pseudopotential
     Si                4.00    28.08550     Si( 1.00)
     Li                3.00     6.94100     Li( 1.00)

      6 Sym. Ops. (no inversion) found



   Cartesian axes

     site n.     atom                  positions (alat units)
         1        Si     tau(   1) = (   0.0000000  -0.0000000   2.1814687  )
         2        Li     tau(   2) = (   0.0000000  -0.0000000   0.6309930  )
         3        Li     tau(   3) = (   0.0000000  -0.0000000   1.0369760  )
         4        Li     tau(   4) = (   0.0000000  -0.0000000   1.3399593  )
         5        Li     tau(   5) = (   0.0000000  -0.0000000   1.7478341  )
         6        Li     tau(   6) = (   0.0000000  -0.0000000   2.4588269  )
         7        Li     tau(   7) = (  -0.0000000  -0.0000000   2.8870159  )

     number of k points=    44  Marzari-Vanderbilt smearing, width (Ry)=  0.0200
                       cart. coord. in units 2pi/alat
        k(    1) = (   0.0000000   0.0000000   0.0000000), wk =   0.0058309
        k(    2) = (  -0.5825024  -0.3363079   0.0481037), wk =   0.0349854
        k(    3) = (  -1.1650048  -0.6726158   0.0962074), wk =   0.0349854
        k(    4) = (  -1.7475072  -1.0089238   0.1443111), wk =   0.0349854
        k(    5) = (  -0.5825024   0.3363079   0.0962074), wk =   0.0349854
        k(    6) = (  -1.1650048   0.0000000   0.1443111), wk =   0.0699708
        k(    7) = (  -1.7475072  -0.3363079   0.1924148), wk =   0.0699708
        k(    8) = (   1.7475072   1.6815396  -0.0962074), wk =   0.0699708
        k(    9) = (   1.1650048   1.3452317  -0.0481037), wk =   0.0699708
        k(   10) = (   0.5825024   1.0089238   0.0000000), wk =   0.0349854
        k(   11) = (  -1.1650048   0.6726158   0.1924148), wk =   0.0349854
        k(   12) = (  -1.7475072   0.3363079   0.2405185), wk =   0.0699708
        k(   13) = (   1.7475072   2.3541554  -0.0481037), wk =   0.0699708
        k(   14) = (   1.1650048   2.0178475   0.0000000), wk =   0.0349854
        k(   15) = (  -1.7475072   1.0089238   0.2886222), wk =   0.0349854
        k(   16) = (   1.7475072   3.0267713   0.0000000), wk =   0.0349854
        k(   17) = (  -0.0000000  -0.0000000   0.1443111), wk =   0.0116618
        k(   18) = (  -0.5825024  -0.3363079   0.1924148), wk =   0.0349854
        k(   19) = (  -1.1650048  -0.6726158   0.2405185), wk =   0.0349854
        k(   20) = (   2.3300096   1.3452317  -0.0481037), wk =   0.0349854
        k(   21) = (   1.7475072   1.0089238   0.0000000), wk =   0.0349854
        k(   22) = (   1.1650048   0.6726158   0.0481037), wk =   0.0349854
        k(   23) = (  -0.5825024   0.3363079   0.2405185), wk =   0.0349854
        k(   24) = (  -1.1650048   0.0000000   0.2886222), wk =   0.0699708
        k(   25) = (   2.3300096   2.0178475   0.0000000), wk =   0.0699708
        k(   26) = (   1.7475072   1.6815396   0.0481037), wk =   0.0699708
        k(   27) = (   1.1650048   1.3452317   0.0962074), wk =   0.0699708
        k(   28) = (  -1.1650048   0.6726158   0.3367259), wk =   0.0349854
        k(   29) = (   2.3300096   2.6904633   0.0481037), wk =   0.0699708
        k(   30) = (   1.7475072   2.3541554   0.0962074), wk =   0.0699708
        k(   31) = (   1.1650048   2.0178475   0.1443111), wk =   0.0699708
        k(   32) = (   2.3300096  -1.3452317  -0.2405185), wk =   0.0349854
        k(   33) = (   1.7475072  -1.6815396  -0.1924148), wk =   0.0699708
        k(   34) = (   1.7475072  -1.0089238  -0.1443111), wk =   0.0349854
        k(   35) = (  -0.0000000  -0.0000000   0.2886222), wk =   0.0116618
        k(   36) = (  -0.5825024  -0.3363079   0.3367259), wk =   0.0349854
        k(   37) = (   2.9125120   1.6815396   0.0481037), wk =   0.0349854
        k(   38) = (   2.3300096   1.3452317   0.0962074), wk =   0.0349854
        k(   39) = (  -0.5825024   0.3363079   0.3848296), wk =   0.0349854
        k(   40) = (   2.9125120   2.3541554   0.0962074), wk =   0.0699708
        k(   41) = (   2.3300096   2.0178475   0.1443111), wk =   0.0699708
        k(   42) = (   2.9125120  -1.6815396  -0.1924148), wk =   0.0349854
        k(   43) = (  -0.0000000  -0.0000000   0.4329333), wk =   0.0116618
        k(   44) = (   3.4950144   2.0178475   0.1443111), wk =   0.0349854

     Dense  grid:    53453 G-vectors     FFT dimensions: ( 125, 125, 125)

     Estimated max dynamical RAM per process >      16.07 MB

     Estimated total dynamical RAM >       2.00 GB

     Initial potential from superposition of free atoms

     starting charge      21.9720, renormalised to      22.0000
     Starting wfcs are   16 randomized atomic wfcs

     total cpu time spent up to now is        1.5 secs

     per-process dynamical memory:    37.1 Mb

     Self-consistent Calculation

     iteration #  1     ecut=   100.00 Ry     beta= 0.70
     CG style diagonalization
     ethr =  1.00E-02,  avg # of iterations =  4.1

     total cpu time spent up to now is        3.7 secs

     total energy              =     -94.19326109 Ry
     estimated scf accuracy    <       0.27214535 Ry

     iteration #  2     ecut=   100.00 Ry     beta= 0.70
     CG style diagonalization
     ethr =  1.24E-03,  avg # of iterations =  4.9

     total cpu time spent up to now is        6.1 secs

     total energy              =     -93.36791218 Ry
     estimated scf accuracy    <      14.42735424 Ry

     iteration #  3     ecut=   100.00 Ry     beta= 0.70
     CG style diagonalization
     ethr =  1.24E-03,  avg # of iterations =  4.7

     total cpu time spent up to now is        8.6 secs

     total energy              =     -94.38955585 Ry
     estimated scf accuracy    <       0.08160007 Ry

     iteration #  4     ecut=   100.00 Ry     beta= 0.70
     CG style diagonalization
     ethr =  3.71E-04,  avg # of iterations =  3.3

     total cpu time spent up to now is       10.3 secs

     total energy              =     -94.39497196 Ry
     estimated scf accuracy    <       0.01840478 Ry

     iteration #  5     ecut=   100.00 Ry     beta= 0.70
     CG style diagonalization
     ethr =  8.37E-05,  avg # of iterations =  3.4

     total cpu time spent up to now is       12.1 secs

     total energy              =     -94.39504175 Ry
     estimated scf accuracy    <       0.02440762 Ry

     iteration #  6     ecut=   100.00 Ry     beta= 0.70
     CG style diagonalization
     ethr =  8.37E-05,  avg # of iterations =  3.0

     total cpu time spent up to now is       13.7 secs

     total energy              =     -94.39603080 Ry
     estimated scf accuracy    <       0.00634045 Ry

     iteration #  7     ecut=   100.00 Ry     beta= 0.70
     CG style diagonalization
     ethr =  2.88E-05,  avg # of iterations =  3.1

     total cpu time spent up to now is       15.3 secs

     total energy              =     -94.39645273 Ry
     estimated scf accuracy    <       0.00028097 Ry

     iteration #  8     ecut=   100.00 Ry     beta= 0.70
     CG style diagonalization
     ethr =  1.28E-06,  avg # of iterations =  4.1

     total cpu time spent up to now is       17.6 secs

     total energy              =     -94.39655111 Ry
     estimated scf accuracy    <       0.00001969 Ry

     iteration #  9     ecut=   100.00 Ry     beta= 0.70
     CG style diagonalization
     ethr =  8.95E-08,  avg # of iterations =  3.3

     total cpu time spent up to now is       19.4 secs

     total energy              =     -94.39655366 Ry
     estimated scf accuracy    <       0.00000628 Ry

     iteration # 10     ecut=   100.00 Ry     beta= 0.70
     CG style diagonalization
     ethr =  2.86E-08,  avg # of iterations =  3.1

     total cpu time spent up to now is       21.1 secs

     total energy              =     -94.39655436 Ry
     estimated scf accuracy    <       0.00000013 Ry

     iteration # 11     ecut=   100.00 Ry     beta= 0.70
     CG style diagonalization
     ethr =  6.04E-10,  avg # of iterations =  3.8

     total cpu time spent up to now is       23.0 secs

     total energy              =     -94.39655443 Ry
     estimated scf accuracy    <       0.00000002 Ry

     iteration # 12     ecut=   100.00 Ry     beta= 0.70
     CG style diagonalization
     ethr =  7.53E-11,  avg # of iterations =  3.4

     total cpu time spent up to now is       24.7 secs

     End of self-consistent calculation

          k = 0.0000 0.0000 0.0000 (  6705 PWs)   bands (ev):

   -39.1445 -39.0768 -38.8051 -38.5989 -38.4750 -38.1782  -6.0695   1.8969
     3.5477   4.5758   5.6682   8.7074   9.8796  15.9742  18.5578

          k =-0.5825-0.3363 0.0481 (  6693 PWs)   bands (ev):

   -39.1014 -39.0358 -38.7697 -38.5987 -38.4782 -38.1922  -5.5122   2.2159
     3.7835   4.8393   5.8715   9.0162  10.1124  13.6552  15.9564

          k =-1.1650-0.6726 0.0962 (  6653 PWs)   bands (ev):

   -38.9945 -38.9355 -38.6926 -38.5963 -38.4900 -38.2359  -3.8544   3.1392
     4.5489   5.3905   6.3781   8.0148   9.8702  11.5707  13.8907

          k =-1.7475-1.0089 0.1443 (  6680 PWs)   bands (ev):

   -38.8870 -38.8413 -38.6784 -38.5613 -38.4922 -38.2984  -1.1504   2.5574
     4.3688   5.8714   6.5055   8.2457   9.3502  10.4499  11.5031

          k =-0.5825 0.3363 0.0962 (  6687 PWs)   bands (ev):

   -39.1014 -39.0358 -38.7697 -38.5987 -38.4782 -38.1922  -5.5122   2.2160
     3.7867   4.8177   5.9092   8.8961  10.2531  13.6092  15.9561

          k =-1.1650 0.0000 0.1443 (  6676 PWs)   bands (ev):

   -39.0261 -38.9648 -38.7122 -38.5985 -38.4860 -38.2214  -4.4042   2.8494
     4.2977   5.2899   6.3587   9.1358  10.4316  10.8567  12.4544

          k =-1.7475-0.3363 0.1924 (  6665 PWs)   bands (ev):

   -38.9150 -38.8645 -38.6733 -38.5719 -38.4959 -38.2795  -2.2153   4.0537
     4.8307   5.5697   6.4623   7.7522   9.1553  10.3370  11.5219

          k = 1.7475 1.6815-0.0962 (  6673 PWs)   bands (ev):

   -38.8487 -38.8118 -38.6916 -38.5552 -38.4711 -38.3285   0.7290   1.2951
     5.0537   6.4291   7.3561   7.8710   8.4775   9.8334  10.1762

          k = 1.1650 1.3452-0.0481 (  6676 PWs)   bands (ev):

   -38.9150 -38.8644 -38.6734 -38.5718 -38.4960 -38.2795  -2.2153   4.0536
     4.8191   5.5737   6.5759   7.5186   9.2535  10.5240  11.5427

          k = 0.5825 1.0089 0.0000 (  6675 PWs)   bands (ev):

   -39.0261 -38.9647 -38.7124 -38.5983 -38.4861 -38.2214  -4.4042   2.8499
     4.2707   5.4424   6.1499   9.7703   9.8254  10.8478  12.4478

          k =-1.1650 0.6726 0.1924 (  6648 PWs)   bands (ev):

   -38.9945 -38.9355 -38.6927 -38.5962 -38.4901 -38.2359  -3.8544   3.1427
     4.4884   5.6001   6.1697   8.0984   9.8009  11.6206  13.9181

          k =-1.7475 0.3363 0.2405 (  6672 PWs)   bands (ev):

   -38.9150 -38.8644 -38.6735 -38.5717 -38.4960 -38.2795  -2.2153   4.0587
     4.7962   5.6189   6.4736   7.7138   9.0385  10.6042  11.5001

          k = 1.7475 2.3542-0.0481 (  6660 PWs)   bands (ev):

   -38.8293 -38.7985 -38.7006 -38.5558 -38.4521 -38.3477   0.4771   4.1362
     4.1838   5.5730   7.0834   7.6215   8.6705   9.3539  10.4087

          k = 1.1650 2.0178 0.0000 (  6666 PWs)   bands (ev):

   -38.8293 -38.7985 -38.7006 -38.5558 -38.4521 -38.3477   0.4771   4.1367
     4.1838   5.5681   7.0438   7.8624   8.3574   9.3468  10.4492

          k =-1.7475 1.0089 0.2886 (  6668 PWs)   bands (ev):

   -38.8870 -38.8412 -38.6785 -38.5612 -38.4922 -38.2984  -1.1503   2.5578
     4.3645   5.7673   6.8883   7.6682   9.8421  10.4878  11.2135

          k = 1.7475 3.0268 0.0000 (  6662 PWs)   bands (ev):

   -38.8487 -38.8118 -38.6916 -38.5552 -38.4711 -38.3285   0.7292   1.2951
     5.0296   6.5813   7.1648   7.8177   8.8983   9.2993  10.0781

          k =-0.0000-0.0000 0.1443 (  6707 PWs)   bands (ev):

   -39.1444 -39.0770 -38.8048 -38.5993 -38.4748 -38.1782  -6.0695   1.8966
     3.5712   4.4790   5.8198   8.3970  10.1862  15.7497  18.5579

          k =-0.5825-0.3363 0.1924 (  6688 PWs)   bands (ev):

   -39.1013 -39.0360 -38.7694 -38.5992 -38.4779 -38.1922  -5.5122   2.2151
     3.8292   4.6638   6.1432   8.4979  10.6314  13.6108  15.9566

          k =-1.1650-0.6726 0.2405 (  6664 PWs)   bands (ev):

   -38.9944 -38.9357 -38.6922 -38.5968 -38.4898 -38.2359  -3.8544   3.1382
     4.6533   5.1181   6.7379   7.8564   9.5817  12.0608  13.4189

          k = 2.3300 1.3452-0.0481 (  6657 PWs)   bands (ev):

   -38.8870 -38.8412 -38.6784 -38.5613 -38.4922 -38.2984  -1.1503   2.5571
     4.3774   5.7960   6.6089   8.1787   9.4221  10.4482  11.4039

          k = 1.7475 1.0089 0.0000 (  6677 PWs)   bands (ev):

   -38.8870 -38.8412 -38.6784 -38.5613 -38.4922 -38.2984  -1.1503   2.5578
     4.3605   5.8898   6.5378   8.0875   9.4914  10.4582  11.4954

          k = 1.1650 0.6726 0.0481 (  6653 PWs)   bands (ev):

   -38.9945 -38.9354 -38.6928 -38.5960 -38.4901 -38.2359  -3.8544   3.1412
     4.4911   5.6762   6.0594   8.0983  10.0142  11.3545  13.8903

          k =-0.5825 0.3363 0.2405 (  6681 PWs)   bands (ev):

   -39.1012 -39.0361 -38.7692 -38.5993 -38.4779 -38.1922  -5.5122   2.2153
     3.8385   4.6269   6.2285   8.3299  10.8512  13.4808  15.9558

          k =-1.1650 0.0000 0.2886 (  6671 PWs)   bands (ev):

   -39.0260 -38.9650 -38.7118 -38.5990 -38.4858 -38.2214  -4.4042   2.8483
     4.3749   5.0387   6.7813   8.4891  10.7983  11.0439  12.4761

          k = 2.3300 2.0178 0.0000 (  6662 PWs)   bands (ev):

   -38.9150 -38.8645 -38.6733 -38.5720 -38.4958 -38.2795  -2.2153   4.0559
     4.8294   5.5883   6.3553   8.0733   8.8834  10.2617  11.5050

          k = 1.7475 1.6815 0.0481 (  6666 PWs)   bands (ev):

   -38.8487 -38.8118 -38.6916 -38.5552 -38.4711 -38.3285   0.7291   1.2951
     5.0449   6.4768   7.2942   7.8454   8.5980   9.6771  10.1134

          k = 1.1650 1.3452 0.0962 (  6669 PWs)   bands (ev):

   -38.9150 -38.8644 -38.6735 -38.5717 -38.4960 -38.2795  -2.2153   4.0558
     4.8039   5.5946   6.5858   7.4969   9.2001  10.6595  11.5341

          k =-1.1650 0.6726 0.3367 (  6645 PWs)   bands (ev):

   -38.9944 -38.9356 -38.6923 -38.5966 -38.4899 -38.2359  -3.8544   3.1426
     4.5434   5.3244   6.5365   7.9970   9.5075  12.0879  13.8898

          k = 2.3300 2.6905 0.0481 (  6682 PWs)   bands (ev):

   -38.9150 -38.8645 -38.6734 -38.5718 -38.4959 -38.2795  -2.2153   4.0600
     4.8014   5.6304   6.3573   8.0539   8.7916  10.4453  11.4914

          k = 1.7475 2.3542 0.0962 (  6663 PWs)   bands (ev):

   -38.8293 -38.7985 -38.7006 -38.5558 -38.4521 -38.3477   0.4772   4.1359
     4.1838   5.5758   7.1142   7.5197   8.8165   9.3551  10.3983

          k = 1.1650 2.0178 0.1443 (  6662 PWs)   bands (ev):

   -38.8293 -38.7985 -38.7006 -38.5558 -38.4521 -38.3477   0.4771   4.1365
     4.1838   5.5696   7.0545   7.7709   8.4702   9.3494  10.4352

          k = 2.3300-1.3452-0.2405 (  6660 PWs)   bands (ev):

   -38.8870 -38.8412 -38.6785 -38.5612 -38.4923 -38.2984  -1.1503   2.5574
     4.3739   5.7281   6.9116   7.7070   9.8258  10.4803  11.1604

          k = 1.7475-1.6815-0.1924 (  6661 PWs)   bands (ev):

   -38.8487 -38.8118 -38.6916 -38.5552 -38.4711 -38.3285   0.7292   1.2951
     5.0342   6.5455   7.2081   7.8246   8.7779   9.4426  10.0850

          k = 1.7475-1.0089-0.1443 (  6672 PWs)   bands (ev):

   -38.8870 -38.8412 -38.6784 -38.5613 -38.4922 -38.2984  -1.1503   2.5579
     4.3586   5.8351   6.7044   7.8484   9.6993  10.4725  11.3732

          k =-0.0000-0.0000 0.2886 (  6725 PWs)   bands (ev):

   -39.1442 -39.0775 -38.8042 -38.6000 -38.4744 -38.1782  -6.0695   1.8958
     3.6360   4.2896   6.1737   7.8463  10.6946  15.2818  18.5578

          k =-0.5825-0.3363 0.3367 (  6696 PWs)   bands (ev):

   -39.1010 -39.0364 -38.7689 -38.5999 -38.4776 -38.1923  -5.5122   2.2142
     3.9120   4.4559   6.5620   7.8940  11.2139  13.4538  15.9563

          k = 2.9125 1.6815 0.0481 (  6667 PWs)   bands (ev):

   -38.9943 -38.9358 -38.6920 -38.5971 -38.4897 -38.2359  -3.8544   3.1390
     4.7474   4.9537   6.9929   7.7043   9.3850  12.5189  13.2409

          k = 2.3300 1.3452 0.0962 (  6660 PWs)   bands (ev):

   -38.8870 -38.8412 -38.6785 -38.5612 -38.4922 -38.2984  -1.1503   2.5571
     4.3798   5.7374   6.7712   7.9413   9.6431  10.4577  11.2580

          k =-0.5825 0.3363 0.3848 (  6683 PWs)   bands (ev):

   -39.1010 -39.0365 -38.7688 -38.6000 -38.4775 -38.1923  -5.5122   2.2143
     3.9242   4.4273   6.6685   7.7447  11.3981  13.3019  15.9557

          k = 2.9125 2.3542 0.0962 (  6675 PWs)   bands (ev):

   -39.0259 -38.9652 -38.7115 -38.5995 -38.4856 -38.2214  -4.4042   2.8474
     4.4763   4.8394   7.2823   7.8837  10.8207  11.3617  12.5068

          k = 2.3300 2.0178 0.1443 (  6662 PWs)   bands (ev):

   -38.9150 -38.8645 -38.6733 -38.5720 -38.4958 -38.2795  -2.2153   4.0588
     4.8161   5.6170   6.3123   8.3353   8.5865  10.3118  11.4955

          k = 2.9125-1.6815-0.1924 (  6657 PWs)   bands (ev):

   -38.9943 -38.9358 -38.6920 -38.5970 -38.4897 -38.2359  -3.8544   3.1409
     4.6515   5.0820   6.8809   7.8016   9.3531  12.4981  13.8900

          k =-0.0000-0.0000 0.4329 (  6707 PWs)   bands (ev):

   -39.1439 -39.0779 -38.8038 -38.6007 -38.4740 -38.1783  -6.0695   1.8953
     3.7128   4.1352   6.5904   7.3257  11.0537  14.9165  18.5579

          k = 3.4950 2.0178 0.1443 (  6679 PWs)   bands (ev):

   -39.1009 -39.0366 -38.7686 -38.6003 -38.4774 -38.1923  -5.5122   2.2139
     3.9758   4.3401   6.9560   7.4234  11.5658  13.2644  15.9555

     the Fermi energy is     7.3912 ev

!    total energy              =     -94.39655443 Ry
     estimated scf accuracy    <          8.4E-10 Ry
     smearing contrib. (-TS)   =      -0.00003943 Ry
     internal energy E=F+TS    =     -94.39651500 Ry

     The total energy is F=E-TS. E is the sum of the following terms:
     one-electron contribution =     -35.93264467 Ry
     hartree contribution      =      17.50306035 Ry
     xc contribution           =     -24.36072876 Ry
     ewald contribution        =     -51.60620192 Ry

     convergence has been achieved in  12 iterations

     Forces acting on atoms (cartesian axes, Ry/au):

     atom    1 type  1   force =    -0.00000000   -0.00000000   -0.02695324
     atom    2 type  2   force =    -0.00000000   -0.00000000   -0.03516358
     atom    3 type  2   force =     0.00000000    0.00000000   -0.00771512
     atom    4 type  2   force =     0.00000000    0.00000000    0.03076700
     atom    5 type  2   force =     0.00000000   -0.00000000    0.03125430
     atom    6 type  2   force =    -0.00000000   -0.00000000    0.03741712
     atom    7 type  2   force =     0.00000000    0.00000000   -0.02960647

     Total force =     0.078883     Total SCF correction =     0.000074


     Computing stress (Cartesian axis) and pressure

          total   stress  (Ry/bohr**3)                   (kbar)     P=      554.29
   0.00358013  -0.00000000  -0.00000000          526.66       -0.00       -0.00
   0.00000000   0.00358013   0.00000000            0.00      526.66        0.00
  -0.00000000   0.00000000   0.00414367           -0.00        0.00      609.55


     BFGS Geometry Optimization
     Energy error            =      0.0E+00 Ry
     Gradient error          =      3.7E-02 Ry/Bohr
     Cell gradient error     =      1.1E+02 kbar

     number of scf cycles    =   1
     number of bfgs steps    =   0

     enthalpy           new  =     -93.0541797946 Ry

     new trust radius        =       0.0740013645 bohr
ibrav =      5
 celldm(1) =     20.07344613
 celldm(4) =      0.97073689
Input lattice vectors:
     0.12317914    -0.07111751     1.00835576
    -0.00000000     0.14223502     1.00835576
    -0.12317914    -0.07111751     1.00835576
New lattice vectors in INITIAL alat:
     0.12317914    -0.07111751     1.00835576
     0.00000000     0.14223502     1.00835576
    -0.12317914    -0.07111751     1.00835576
New lattice vectors in NEW alat (for information only):
     0.12096096    -0.06983685     0.99019759
     0.00000000     0.13967369     0.99019759
    -0.12096096    -0.06983685     0.99019759
Discrepancy in bohr =     0.000000    0.000000    0.000000
     new conv_thr            =       0.0000000100 Ry

     new unit-cell volume =    405.94648 a.u.^3 (    60.15506 Ang^3 )
     density =      1.92489 g/cm^3

CELL_PARAMETERS (alat= 19.71196940)
   0.123179139  -0.071117509   1.008355761
   0.000000000   0.142235018   1.008355761
  -0.123179139  -0.071117509   1.008355761

ATOMIC_POSITIONS (crystal)
Si               0.7340965765        0.7340965765        0.7340965765
Li               0.2118709949        0.2118709949        0.2118709949
Li               0.3490448780        0.3490448780        0.3490448780
Li               0.4517245713        0.4517245713        0.4517245713
Li               0.5890748954        0.5890748954        0.5890748954
Li               0.8285898407        0.8285898407        0.8285898407
Li               0.9716272532        0.9716272532        0.9716272532



     Writing config-only to output data dir ./output/SiLi.save/ :
     XML data file
     NEW-OLD atomic charge density approx. for the potential

     total cpu time spent up to now is       25.1 secs

     per-process dynamical memory:    38.3 Mb

     Self-consistent Calculation

     iteration #  1     ecut=   100.00 Ry     beta= 0.70
     CG style diagonalization
     ethr =  1.00E-06,  avg # of iterations =  9.4

     total cpu time spent up to now is       29.5 secs

     total energy              =     -94.44312596 Ry
     estimated scf accuracy    <       0.00087771 Ry

     iteration #  2     ecut=   100.00 Ry     beta= 0.70
     CG style diagonalization
     ethr =  3.99E-06,  avg # of iterations =  3.7

     total cpu time spent up to now is       31.5 secs

     total energy              =     -94.44263971 Ry
     estimated scf accuracy    <       0.00587249 Ry

     iteration #  3     ecut=   100.00 Ry     beta= 0.70
     CG style diagonalization
     ethr =  3.99E-06,  avg # of iterations =  3.6

     total cpu time spent up to now is       33.4 secs

     total energy              =     -94.44311062 Ry
     estimated scf accuracy    <       0.00616694 Ry

     iteration #  4     ecut=   100.00 Ry     beta= 0.70
     CG style diagonalization
     ethr =  3.99E-06,  avg # of iterations =  3.2

     total cpu time spent up to now is       35.1 secs

     total energy              =     -94.44353654 Ry
     estimated scf accuracy    <       0.00029117 Ry

     iteration #  5     ecut=   100.00 Ry     beta= 0.70
     CG style diagonalization
     ethr =  1.32E-06,  avg # of iterations =  3.0

     total cpu time spent up to now is       36.6 secs

     total energy              =     -94.44355920 Ry
     estimated scf accuracy    <       0.00046553 Ry

     iteration #  6     ecut=   100.00 Ry     beta= 0.70
     CG style diagonalization
     ethr =  1.32E-06,  avg # of iterations =  3.0

     total cpu time spent up to now is       38.2 secs

     total energy              =     -94.44358651 Ry
     estimated scf accuracy    <       0.00000375 Ry

     iteration #  7     ecut=   100.00 Ry     beta= 0.70
     CG style diagonalization
     ethr =  1.71E-08,  avg # of iterations =  3.3

     total cpu time spent up to now is       39.9 secs

     total energy              =     -94.44358779 Ry
     estimated scf accuracy    <       0.00000063 Ry

     iteration #  8     ecut=   100.00 Ry     beta= 0.70
     CG style diagonalization
     ethr =  2.85E-09,  avg # of iterations =  3.2

     total cpu time spent up to now is       41.6 secs

     total energy              =     -94.44358786 Ry
     estimated scf accuracy    <       0.00000006 Ry

     iteration #  9     ecut=   100.00 Ry     beta= 0.70
     CG style diagonalization
     ethr =  2.83E-10,  avg # of iterations =  3.3

     total cpu time spent up to now is       43.4 secs

     End of self-consistent calculation

          k = 0.0000 0.0000 0.0000 (  6705 PWs)   bands (ev):

   -39.3143 -39.2399 -38.9804 -38.8244 -38.7035 -38.4318  -6.1900   1.6587
     3.2724   4.3106   5.3005   8.2687   9.4182  15.2824  18.3418

          k =-0.5799-0.3348 0.0472 (  6693 PWs)   bands (ev):

   -39.2739 -39.2003 -38.9514 -38.8217 -38.7059 -38.4431  -5.6331   1.9909
     3.5143   4.5751   5.5252   8.5861   9.6821  13.3684  15.7531

          k =-1.1598-0.6696 0.0944 (  6653 PWs)   bands (ev):

   -39.1738 -39.1024 -38.8962 -38.8104 -38.7139 -38.4786  -3.9758   2.9516
     4.3000   5.1576   6.1225   7.7476   9.4701  11.1354  13.7047

          k =-1.7396-1.0044 0.1417 (  6680 PWs)   bands (ev):

   -39.0719 -39.0063 -38.8970 -38.7917 -38.7001 -38.5304  -1.2689   2.4288
     4.2359   5.6570   6.2451   7.9751   9.0237  10.1415  11.1007

          k =-0.5799 0.3348 0.0944 (  6687 PWs)   bands (ev):

   -39.2739 -39.2004 -38.9513 -38.8217 -38.7059 -38.4431  -5.6331   1.9910
     3.5178   4.5520   5.5637   8.4743   9.8118  13.3221  15.7529

          k =-1.1598 0.0000 0.1417 (  6676 PWs)   bands (ev):

   -39.2035 -39.1312 -38.9083 -38.8154 -38.7116 -38.4668  -4.5255   2.6487
     4.0413   5.0308   6.0590   8.7792  10.0714  10.6776  12.0340

          k =-1.7396-0.3348 0.1889 (  6665 PWs)   bands (ev):

   -39.0988 -39.0307 -38.8905 -38.7932 -38.7093 -38.5147  -2.3368   3.8956
     4.6924   5.3334   6.2144   7.4973   8.9080  10.0007  11.2838

          k = 1.7396 1.6740-0.0944 (  6673 PWs)   bands (ev):

   -39.0341 -38.9741 -38.9116 -38.7958 -38.6771 -38.5554   0.6404   1.1335
     4.9386   6.2208   7.1310   7.6541   8.2815   9.5273   9.8670

          k = 1.1598 1.3392-0.0472 (  6676 PWs)   bands (ev):

   -39.0988 -39.0306 -38.8906 -38.7931 -38.7094 -38.5147  -2.3368   3.8962
     4.6757   5.3447   6.3199   7.2657   9.0323  10.1627  11.2922

          k = 0.5799 1.0044 0.0000 (  6675 PWs)   bands (ev):

   -39.2035 -39.1312 -38.9084 -38.8152 -38.7117 -38.4668  -4.5255   2.6493
     4.0148   5.1813   5.8547   9.3498   9.5159  10.6715  12.0404

          k =-1.1598 0.6696 0.1889 (  6648 PWs)   bands (ev):

   -39.1738 -39.1023 -38.8963 -38.8103 -38.7139 -38.4786  -3.9758   2.9551
     4.2461   5.3381   5.9455   7.8155   9.4073  11.2092  13.5435

          k =-1.7396 0.3348 0.2361 (  6672 PWs)   bands (ev):

   -39.0988 -39.0306 -38.8906 -38.7931 -38.7094 -38.5147  -2.3368   3.9014
     4.6499   5.3928   6.2253   7.4379   8.8367  10.2250  11.2140

          k = 1.7396 2.3435-0.0472 (  6660 PWs)   bands (ev):

   -39.0137 -38.9589 -38.9222 -38.8000 -38.6604 -38.5711   0.3564   4.0046
     4.0575   5.4458   6.8623   7.3878   8.4540   9.1351  10.1109

          k = 1.1598 2.0087 0.0000 (  6666 PWs)   bands (ev):

   -39.0137 -38.9589 -38.9222 -38.8000 -38.6604 -38.5711   0.3564   4.0051
     4.0574   5.4410   6.8226   7.6149   8.1508   9.1295  10.1605

          k =-1.7396 1.0044 0.2833 (  6668 PWs)   bands (ev):

   -39.0719 -39.0062 -38.8971 -38.7916 -38.7002 -38.5304  -1.2689   2.4292
     4.2338   5.5417   6.6308   7.4032   9.5240  10.1777  10.8058

          k = 1.7396 3.0131 0.0000 (  6662 PWs)   bands (ev):

   -39.0341 -38.9741 -38.9116 -38.7958 -38.6771 -38.5554   0.6406   1.1335
     4.9143   6.3793   6.9068   7.6671   8.6319   9.0449   9.7619

          k =-0.0000-0.0000 0.1417 (  6707 PWs)   bands (ev):

   -39.3142 -39.2401 -38.9801 -38.8248 -38.7033 -38.4318  -6.1900   1.6583
     3.2950   4.2119   5.4499   7.9802   9.7021  15.0802  18.3418

          k =-0.5799-0.3348 0.1889 (  6688 PWs)   bands (ev):

   -39.2738 -39.2005 -38.9510 -38.8222 -38.7057 -38.4431  -5.6331   1.9900
     3.5582   4.4000   5.7895   8.1050  10.1631  13.3142  15.7528

          k =-1.1598-0.6696 0.2361 (  6664 PWs)   bands (ev):

   -39.1738 -39.1025 -38.8959 -38.8108 -38.7137 -38.4787  -3.9758   2.9501
     4.3991   4.8912   6.4930   7.5600   9.2173  11.5888  13.1387

          k = 2.3195 1.3392-0.0472 (  6657 PWs)   bands (ev):

   -39.0719 -39.0063 -38.8970 -38.7917 -38.7001 -38.5304  -1.2689   2.4286
     4.2448   5.5811   6.3458   7.9127   9.0916  10.1348  11.0142

          k = 1.7396 1.0044 0.0000 (  6677 PWs)   bands (ev):

   -39.0719 -39.0063 -38.8970 -38.7917 -38.7001 -38.5304  -1.2689   2.4292
     4.2282   5.6694   6.2836   7.8135   9.1707  10.1533  11.0819

          k = 1.1598 0.6696 0.0472 (  6653 PWs)   bands (ev):

   -39.1739 -39.1023 -38.8964 -38.8102 -38.7140 -38.4786  -3.9758   2.9538
     4.2459   5.4284   5.8165   7.8337   9.5951  10.9471  13.7044

          k =-0.5799 0.3348 0.2361 (  6681 PWs)   bands (ev):

   -39.2738 -39.2006 -38.9509 -38.8223 -38.7056 -38.4431  -5.6331   1.9901
     3.5680   4.3612   5.8737   7.9443  10.3676  13.1853  15.7518

          k =-1.1598 0.0000 0.2833 (  6671 PWs)   bands (ev):

   -39.2034 -39.1314 -38.9079 -38.8159 -38.7114 -38.4668  -4.5255   2.6473
     4.1162   4.7853   6.4670   8.1547  10.5583  10.7608  12.0124

          k = 2.3195 2.0087 0.0000 (  6662 PWs)   bands (ev):

   -39.0988 -39.0307 -38.8904 -38.7933 -38.7093 -38.5147  -2.3368   3.8974
     4.6935   5.3469   6.1152   7.8108   8.6241   9.9386  11.2627

          k = 1.7396 1.6740 0.0472 (  6666 PWs)   bands (ev):

   -39.0341 -38.9741 -38.9116 -38.7958 -38.6771 -38.5554   0.6405   1.1335
     4.9297   6.2695   7.0553   7.6601   8.3780   9.3862   9.8002

          k = 1.1598 1.3392 0.0944 (  6669 PWs)   bands (ev):

   -39.0988 -39.0306 -38.8906 -38.7930 -38.7094 -38.5147  -2.3368   3.8988
     4.6572   5.3699   6.3301   7.2365   8.9951  10.2810  11.2480

          k =-1.1598 0.6696 0.3306 (  6645 PWs)   bands (ev):

   -39.1738 -39.1024 -38.8960 -38.8107 -38.7138 -38.4787  -3.9758   2.9545
     4.3029   5.0702   6.3177   7.6774   9.1536  11.6663  13.7036

          k = 2.3195 2.6783 0.0472 (  6682 PWs)   bands (ev):

   -39.0988 -39.0307 -38.8905 -38.7932 -38.7093 -38.5147  -2.3368   3.9021
     4.6588   5.3978   6.1162   7.7590   8.5870  10.0866  11.2236

          k = 1.7396 2.3435 0.0944 (  6663 PWs)   bands (ev):

   -39.0137 -38.9589 -38.9222 -38.8000 -38.6604 -38.5711   0.3564   4.0043
     4.0576   5.4486   6.8933   7.2887   8.6018   9.1338  10.0882

          k = 1.1598 2.0087 0.1417 (  6662 PWs)   bands (ev):

   -39.0137 -38.9589 -38.9222 -38.8000 -38.6604 -38.5711   0.3564   4.0049
     4.0575   5.4425   6.8333   7.5305   8.2572   9.1318  10.1445

          k = 2.3195-1.3392-0.2361 (  6660 PWs)   bands (ev):

   -39.0719 -39.0062 -38.8971 -38.7916 -38.7002 -38.5304  -1.2689   2.4288
     4.2431   5.5054   6.6471   7.4470   9.5042  10.1594  10.7713

          k = 1.7396-1.6740-0.1889 (  6661 PWs)   bands (ev):

   -39.0341 -38.9741 -38.9116 -38.7958 -38.6771 -38.5554   0.6406   1.1335
     4.9190   6.3410   6.9559   7.6653   8.5304   9.1719   9.7694

          k = 1.7396-1.0044-0.1417 (  6672 PWs)   bands (ev):

   -39.0719 -39.0062 -38.8971 -38.7917 -38.7002 -38.5304  -1.2689   2.4293
     4.2272   5.6096   6.4526   7.5768   9.3807  10.1684  10.9566

          k =-0.0000-0.0000 0.2833 (  6725 PWs)   bands (ev):

   -39.3140 -39.2404 -38.9796 -38.8255 -38.7029 -38.4319  -6.1900   1.6574
     3.3570   4.0237   5.7883   7.4658  10.1760  14.6546  18.3418

          k =-0.5799-0.3348 0.3306 (  6696 PWs)   bands (ev):

   -39.2737 -39.2008 -38.9505 -38.8229 -38.7053 -38.4431  -5.6331   1.9890
     3.6370   4.1965   6.1845   7.5416  10.7056  13.1443  15.7525

          k = 2.8994 1.6740 0.0472 (  6667 PWs)   bands (ev):

   -39.1737 -39.1026 -38.8957 -38.8111 -38.7136 -38.4787  -3.9758   2.9505
     4.4893   4.7287   6.7993   7.3386   9.0499  12.0192  12.9550

          k = 2.3195 1.3392 0.0944 (  6660 PWs)   bands (ev):

   -39.0719 -39.0062 -38.8971 -38.7916 -38.7002 -38.5304  -1.2689   2.4286
     4.2481   5.5188   6.5066   7.6789   9.3148  10.1381  10.8757

          k =-0.5799 0.3348 0.3778 (  6683 PWs)   bands (ev):

   -39.2737 -39.2008 -38.9504 -38.8230 -38.7053 -38.4431  -5.6331   1.9890
     3.6494   4.1671   6.2835   7.4026  10.8714  13.0006  15.0028

          k = 2.8994 2.3435 0.0944 (  6675 PWs)   bands (ev):

   -39.2033 -39.1315 -38.9075 -38.8163 -38.7112 -38.4668  -4.5255   2.6462
     4.2118   4.5941   6.9333   7.5874  10.6328  11.0665  11.9789

          k = 2.3195 2.0087 0.1417 (  6662 PWs)   bands (ev):

   -39.0988 -39.0307 -38.8905 -38.7932 -38.7093 -38.5147  -2.3368   3.9003
     4.6780   5.3772   6.0750   8.0245   8.3789   9.9779  11.2428

          k = 2.8994-1.6740-0.1889 (  6657 PWs)   bands (ev):

   -39.1737 -39.1025 -38.8957 -38.8110 -38.7136 -38.4787  -3.9758   2.9525
     4.4087   4.8371   6.6866   7.4352   9.0239  12.0498  13.7040

          k =-0.0000-0.0000 0.4250 (  6707 PWs)   bands (ev):

   -39.3139 -39.2407 -38.9791 -38.8262 -38.7026 -38.4319  -6.1900   1.6568
     3.4286   3.8745   6.1597   7.0002  10.5090  14.3215  18.3418

          k = 3.4793 2.0087 0.1417 (  6679 PWs)   bands (ev):

   -39.2736 -39.2009 -38.9502 -38.8233 -38.7052 -38.4431  -5.6331   1.9885
     3.6961   4.0856   6.5188   7.1367  11.0243  12.9595  14.9081

     the Fermi energy is     7.1339 ev

!    total energy              =     -94.44358788 Ry
     estimated scf accuracy    <          1.0E-09 Ry
     smearing contrib. (-TS)   =      -0.00017265 Ry
     internal energy E=F+TS    =     -94.44341523 Ry

     The total energy is F=E-TS. E is the sum of the following terms:
     one-electron contribution =     -36.47109164 Ry
     hartree contribution      =      17.57266798 Ry
     xc contribution           =     -24.30204084 Ry
     ewald contribution        =     -51.24295073 Ry

     convergence has been achieved in   9 iterations

     Forces acting on atoms (cartesian axes, Ry/au):

     atom    1 type  1   force =     0.00000000   -0.00000000   -0.01042712
     atom    2 type  2   force =     0.00000000   -0.00000000   -0.02766679
     atom    3 type  2   force =    -0.00000000   -0.00000000   -0.00625795
     atom    4 type  2   force =    -0.00000000   -0.00000000    0.01266541
     atom    5 type  2   force =    -0.00000000    0.00000000    0.02453057
     atom    6 type  2   force =    -0.00000000    0.00000000    0.03271654
     atom    7 type  2   force =    -0.00000000   -0.00000000   -0.02556066

     Total force =     0.058303     Total SCF correction =     0.000067


     Computing stress (Cartesian axis) and pressure

          total   stress  (Ry/bohr**3)                   (kbar)     P=      505.11
   0.00325176  -0.00000000   0.00000000          478.35       -0.00        0.00
   0.00000000   0.00325176   0.00000000            0.00      478.35        0.00
  -0.00000000   0.00000000   0.00379745           -0.00        0.00      558.62

     Energy error            =      9.6E-03 Ry
     Gradient error          =      3.3E-02 Ry/Bohr
     Cell gradient error     =      5.9E+01 kbar

     number of scf cycles    =   2
     number of bfgs steps    =   1

     enthalpy           old  =     -93.0541797946 Ry
     enthalpy           new  =     -93.0638038292 Ry

     CASE: enthalpy          _new < enthalpy          _old

     new trust radius        =       0.1104811358 bohr
ibrav =      5
 celldm(1) =     20.61162499
 celldm(4) =      0.97247555
Input lattice vectors:
     0.12266665    -0.07082162     1.03600209
    -0.00000000     0.14164325     1.03600209
    -0.12266665    -0.07082162     1.03600209
New lattice vectors in INITIAL alat:
     0.12266665    -0.07082162     1.03600209
     0.00000000     0.14164325     1.03600209
    -0.12266665    -0.07082162     1.03600209
New lattice vectors in NEW alat (for information only):
     0.11731250    -0.06773040     0.99078271
     0.00000000     0.13546081     0.99078271
    -0.11731250    -0.06773040     0.99078271
Discrepancy in bohr =     0.000000    0.000000    0.000000
     new conv_thr            =       0.0000000065 Ry

     new unit-cell volume =    413.61314 a.u.^3 (    61.29114 Ang^3 )
     density =      1.88921 g/cm^3

CELL_PARAMETERS (alat= 19.71196940)
   0.122666652  -0.070821625   1.036002093
   0.000000000   0.141643249   1.036002093
  -0.122666652  -0.070821625   1.036002093

ATOMIC_POSITIONS (crystal)
Si               0.7335246463        0.7335246463        0.7335246463
Li               0.2106924486        0.2106924486        0.2106924486
Li               0.3487805269        0.3487805269        0.3487805269
Li               0.4524008831        0.4524008831        0.4524008831
Li               0.5901205611        0.5901205611        0.5901205611
Li               0.8299446620        0.8299446620        0.8299446620
Li               0.9705652820        0.9705652820        0.9705652820



     Writing config-only to output data dir ./output/SiLi.save/ :
     XML data file
     NEW-OLD atomic charge density approx. for the potential

     total cpu time spent up to now is       43.7 secs

     per-process dynamical memory:    38.5 Mb

     Self-consistent Calculation

     iteration #  1     ecut=   100.00 Ry     beta= 0.70
     CG style diagonalization
     c_bands:  1 eigenvalues not converged
     c_bands:  1 eigenvalues not converged
     ethr =  1.00E-06,  avg # of iterations = 11.1

     total cpu time spent up to now is       48.9 secs

     total energy              =     -94.47843032 Ry
     estimated scf accuracy    <       0.00264658 Ry

     iteration #  2     ecut=   100.00 Ry     beta= 0.70
     CG style diagonalization
     ethr =  1.20E-05,  avg # of iterations =  3.7

     total cpu time spent up to now is       50.8 secs

     total energy              =     -94.47543143 Ry
     estimated scf accuracy    <       0.03561098 Ry

     iteration #  3     ecut=   100.00 Ry     beta= 0.70
     CG style diagonalization
     ethr =  1.20E-05,  avg # of iterations =  3.6

     total cpu time spent up to now is       52.7 secs

     total energy              =     -94.47853997 Ry
     estimated scf accuracy    <       0.01586766 Ry

     iteration #  4     ecut=   100.00 Ry     beta= 0.70
     CG style diagonalization
     ethr =  1.20E-05,  avg # of iterations =  3.3

     total cpu time spent up to now is       54.7 secs

     total energy              =     -94.47972155 Ry
     estimated scf accuracy    <       0.00079553 Ry

     iteration #  5     ecut=   100.00 Ry     beta= 0.70
     CG style diagonalization
     ethr =  3.62E-06,  avg # of iterations =  3.1

     total cpu time spent up to now is       56.3 secs

     total energy              =     -94.47977176 Ry
     estimated scf accuracy    <       0.00184551 Ry

     iteration #  6     ecut=   100.00 Ry     beta= 0.70
     CG style diagonalization
     ethr =  3.62E-06,  avg # of iterations =  3.0

     total cpu time spent up to now is       57.9 secs

     total energy              =     -94.47987103 Ry
     estimated scf accuracy    <       0.00000663 Ry

     iteration #  7     ecut=   100.00 Ry     beta= 0.70
     CG style diagonalization
     ethr =  3.01E-08,  avg # of iterations =  3.4

     total cpu time spent up to now is       59.7 secs

     total energy              =     -94.47987399 Ry
     estimated scf accuracy    <       0.00000250 Ry

     iteration #  8     ecut=   100.00 Ry     beta= 0.70
     CG style diagonalization
     ethr =  1.14E-08,  avg # of iterations =  3.2

     total cpu time spent up to now is       61.3 secs

     total energy              =     -94.47987439 Ry
     estimated scf accuracy    <       0.00000020 Ry

     iteration #  9     ecut=   100.00 Ry     beta= 0.70
     CG style diagonalization
     ethr =  9.17E-10,  avg # of iterations =  3.2

     total cpu time spent up to now is       63.1 secs

     End of self-consistent calculation

          k = 0.0000 0.0000 0.0000 (  6705 PWs)   bands (ev):

   -39.3879 -39.3105 -39.0708 -38.9530 -38.8300 -38.6194  -6.3446   1.4508
     3.0626   4.0881   4.9031   7.7420   8.8812  14.3431  18.6036

          k =-0.5823-0.3362 0.0460 (  6693 PWs)   bands (ev):

   -39.3483 -39.2709 -39.0466 -38.9459 -38.8307 -38.6276  -5.7769   1.8090
     3.3102   4.3517   5.1610   8.0772   9.1914  13.2589  15.9500

          k =-1.1646-0.6724 0.0919 (  6653 PWs)   bands (ev):

   -39.2508 -39.1720 -39.0006 -38.9281 -38.8345 -38.6546  -4.0878   2.8422
     4.1176   4.9740   5.9031   7.6173   9.0383  10.6724  13.8908

          k =-1.7469-1.0086 0.1379 (  6680 PWs)   bands (ev):

   -39.1531 -39.0703 -38.9961 -38.9178 -38.8237 -38.6950  -1.3260   2.4260
     4.2333   5.5097   6.0476   7.7699   8.7477   9.9403  10.7044

          k =-0.5823 0.3362 0.0919 (  6687 PWs)   bands (ev):

   -39.3483 -39.2710 -39.0465 -38.9459 -38.8306 -38.6276  -5.7769   1.8090
     3.3135   4.3276   5.1987   7.9822   9.3009  13.2034  15.9498

          k =-1.1646 0.0000 0.1379 (  6676 PWs)   bands (ev):

   -39.2795 -39.2014 -39.0109 -38.9337 -38.8333 -38.6454  -4.6482   2.5149
     3.8502   4.8152   5.7632   8.3962   9.7274  10.7507  11.7449

          k =-1.7469-0.3362 0.1839 (  6665 PWs)   bands (ev):

   -39.1786 -39.0972 -38.9921 -38.9164 -38.8303 -38.6826  -2.4176   3.8460
     4.6930   5.1757   6.0424   7.2965   8.7878   9.7607  11.2291

          k = 1.7469 1.6810-0.0919 (  6673 PWs)   bands (ev):

   -39.1178 -39.0322 -39.0064 -38.9268 -38.8073 -38.7144   0.6595   1.0648
     4.9805   6.0847   6.9815   7.5682   8.2749   9.3197   9.6389

          k = 1.1646 1.3448-0.0460 (  6676 PWs)   bands (ev):

   -39.1786 -39.0971 -38.9922 -38.9163 -38.8304 -38.6826  -2.4176   3.8473
     4.6628   5.2121   6.1190   7.0816   8.9897   9.8288  11.1749

          k = 0.5823 1.0086 0.0000 (  6675 PWs)   bands (ev):

   -39.2796 -39.2014 -39.0111 -38.9335 -38.8334 -38.6454  -4.6482   2.5156
     3.8257   4.9595   5.5702   8.8496   9.2639  10.7490  11.7791

          k =-1.1646 0.6724 0.1839 (  6648 PWs)   bands (ev):

   -39.2508 -39.1720 -39.0007 -38.9280 -38.8346 -38.6546  -4.0878   2.8456
     4.0709   5.1219   5.7675   7.6507   9.0036  10.7698  13.2263

          k =-1.7469 0.3362 0.2298 (  6672 PWs)   bands (ev):

   -39.1786 -39.0971 -38.9922 -38.9162 -38.8304 -38.6826  -2.4176   3.8528
     4.6290   5.2698   6.0384   7.2129   8.8066   9.8806  11.0560

          k = 1.7469 2.3533-0.0460 (  6660 PWs)   bands (ev):

   -39.0993 -39.0144 -39.0112 -38.9358 -38.7951 -38.7264   0.3259   3.9878
     4.1314   5.4877   6.7333   7.2377   8.3608   9.0602   9.9335

          k = 1.1646 2.0171 0.0000 (  6666 PWs)   bands (ev):

   -39.0993 -39.0143 -39.0113 -38.9358 -38.7951 -38.7264   0.3259   3.9882
     4.1314   5.4827   6.6941   7.4425   8.0652   9.0645  10.0050

          k =-1.7469 1.0086 0.2758 (  6668 PWs)   bands (ev):

   -39.1531 -39.0702 -38.9962 -38.9177 -38.8238 -38.6950  -1.3260   2.4263
     4.2335   5.3859   6.4213   7.2165   9.2654   9.9652  10.4072

          k = 1.7469 3.0257 0.0000 (  6662 PWs)   bands (ev):

   -39.1178 -39.0322 -39.0063 -38.9269 -38.8072 -38.7144   0.6596   1.0648
     4.9525   6.2634   6.7170   7.6817   8.4792   8.9256   9.5543

          k =-0.0000-0.0000 0.1379 (  6707 PWs)   bands (ev):

   -39.3879 -39.3106 -39.0706 -38.9534 -38.8298 -38.6194  -6.3446   1.4505
     3.0827   3.9895   5.0447   7.4978   9.1212  14.1785  18.6036

          k =-0.5823-0.3362 0.1839 (  6688 PWs)   bands (ev):

   -39.3483 -39.2711 -39.0462 -38.9464 -38.8305 -38.6276  -5.7769   1.8082
     3.3494   4.1818   5.4070   7.6657   9.6038  13.1669  14.9011

          k =-1.1646-0.6724 0.2298 (  6664 PWs)   bands (ev):

   -39.2507 -39.1721 -39.0003 -38.9285 -38.8344 -38.6546  -4.0878   2.8405
     4.2070   4.7228   6.2776   7.3650   8.8824  11.0559  13.0229

          k = 2.3292 1.3448-0.0460 (  6657 PWs)   bands (ev):

   -39.1531 -39.0702 -38.9961 -38.9178 -38.8238 -38.6950  -1.3260   2.4258
     4.2434   5.4304   6.1485   7.7160   8.7982   9.9245  10.6501

          k = 1.7469 1.0086 0.0000 (  6677 PWs)   bands (ev):

   -39.1531 -39.0702 -38.9961 -38.9178 -38.8237 -38.6950  -1.3260   2.4263
     4.2255   5.5203   6.0858   7.6049   8.9118   9.9581  10.6593

          k = 1.1646 0.6724 0.0460 (  6653 PWs)   bands (ev):

   -39.2508 -39.1719 -39.0008 -38.9279 -38.8346 -38.6545  -4.0878   2.8445
     4.0687   5.2192   5.6225   7.7146   9.1198  10.5311  13.8914

          k =-0.5823 0.3362 0.2298 (  6681 PWs)   bands (ev):

   -39.3483 -39.2711 -39.0460 -38.9465 -38.8304 -38.6276  -5.7769   1.8082
     3.3586   4.1433   5.4849   7.5218   9.7817  13.0207  14.8076

          k =-1.1646 0.0000 0.2758 (  6671 PWs)   bands (ev):

   -39.2795 -39.2015 -39.0105 -38.9342 -38.8332 -38.6454  -4.6482   2.5134
     3.9185   4.5844   6.1386   7.8219  10.3161  10.7625  11.6277

          k = 2.3292 2.0171 0.0000 (  6662 PWs)   bands (ev):

   -39.1786 -39.0972 -38.9920 -38.9165 -38.8303 -38.6826  -2.4176   3.8474
     4.7008   5.1721   5.9666   7.5787   8.4751   9.7492  11.2033

          k = 1.7469 1.6810 0.0460 (  6666 PWs)   bands (ev):

   -39.1178 -39.0322 -39.0064 -38.9268 -38.8073 -38.7144   0.6596   1.0648
     4.9701   6.1379   6.8909   7.6171   8.3275   9.1961   9.5866

          k = 1.1646 1.3448 0.0919 (  6669 PWs)   bands (ev):

   -39.1786 -39.0971 -38.9922 -38.9162 -38.8304 -38.6826  -2.4176   3.8504
     4.6358   5.2514   6.1217   7.0453   8.9868   9.8990  11.0631

          k =-1.1646 0.6724 0.3217 (  6645 PWs)   bands (ev):

   -39.2507 -39.1721 -39.0004 -38.9284 -38.8345 -38.6546  -4.0878   2.8447
     4.1257   4.8717   6.1448   7.4287   8.8515  11.1912  12.9914

          k = 2.3292 2.6895 0.0460 (  6682 PWs)   bands (ev):

   -39.1786 -39.0972 -38.9921 -38.9163 -38.8303 -38.6826  -2.4176   3.8528
     4.6461   5.2534   5.9566   7.4911   8.5249   9.8217  11.1075

          k = 1.7469 2.3533 0.0919 (  6663 PWs)   bands (ev):

   -39.0993 -39.0144 -39.0111 -38.9358 -38.7951 -38.7264   0.3259   3.9876
     4.1314   5.4905   6.7640   7.1436   8.5208   9.0452   9.8861

          k = 1.1646 2.0171 0.1379 (  6662 PWs)   bands (ev):

   -39.0993 -39.0143 -39.0112 -38.9358 -38.7951 -38.7264   0.3259   3.9881
     4.1314   5.4842   6.7047   7.3692   8.1640   9.0648   9.9839

          k = 2.3292-1.3448-0.2298 (  6660 PWs)   bands (ev):

   -39.1531 -39.0702 -38.9962 -38.9177 -38.8238 -38.6950  -1.3260   2.4260
     4.2437   5.3496   6.4370   7.2632   9.2252   9.9274  10.4203

          k = 1.7469-1.6810-0.1839 (  6661 PWs)   bands (ev):

   -39.1178 -39.0322 -39.0063 -38.9269 -38.8072 -38.7144   0.6596   1.0648
     4.9578   6.2182   6.7753   7.6642   8.4191   9.0199   9.5607

          k = 1.7469-1.0086-0.1379 (  6672 PWs)   bands (ev):

   -39.1531 -39.0702 -38.9962 -38.9178 -38.8238 -38.6950  -1.3260   2.4264
     4.2255   5.4560   6.2519   7.3767   9.1275   9.9731  10.5284

          k =-0.0000-0.0000 0.2758 (  6725 PWs)   bands (ev):

   -39.3878 -39.3108 -39.0700 -38.9541 -38.8295 -38.6194  -6.3446   1.4498
     3.1367   3.8099   5.3469   7.0559   9.5321  13.8258  18.6036

          k =-0.5823-0.3362 0.3217 (  6696 PWs)   bands (ev):

   -39.3482 -39.2713 -39.0456 -38.9470 -38.8302 -38.6276  -5.7769   1.8072
     3.4179   3.9921   5.7524   7.1797  10.0770  12.9389  14.6465

          k = 2.9115 1.6810 0.0460 (  6667 PWs)   bands (ev):

   -39.2507 -39.1722 -39.0000 -38.9288 -38.8343 -38.6546  -4.0878   2.8406
     4.2848   4.5726   6.6702   7.0050   8.7893  11.4363  12.8016

          k = 2.3292 1.3448 0.0919 (  6660 PWs)   bands (ev):

   -39.1531 -39.0702 -38.9962 -38.9177 -38.8238 -38.6950  -1.3260   2.4257
     4.2482   5.3647   6.3048   7.4877   9.0194   9.9151  10.5332

          k =-0.5823 0.3362 0.3677 (  6683 PWs)   bands (ev):

   -39.3482 -39.2713 -39.0455 -38.9472 -38.8301 -38.6276  -5.7769   1.8072
     3.4290   3.9641   5.8342   7.0622  10.2150  12.7944  14.6099

          k = 2.9115 2.3533 0.0919 (  6675 PWs)   bands (ev):

   -39.2794 -39.2016 -39.0102 -38.9346 -38.8330 -38.6454  -4.6482   2.5123
     4.0015   4.4107   6.5311   7.3339  10.6777  10.9144  11.4065

          k = 2.3292 2.0171 0.1379 (  6662 PWs)   bands (ev):

   -39.1786 -39.0972 -38.9920 -38.9164 -38.8303 -38.6826  -2.4176   3.8504
     4.6779   5.2090   5.9317   7.7164   8.3082   9.7739  11.1602

          k = 2.9115-1.6810-0.1839 (  6657 PWs)   bands (ev):

   -39.2507 -39.1721 -39.0001 -38.9287 -38.8343 -38.6546  -4.0878   2.8425
     4.2224   4.6579   6.5608   7.0908   8.7781  11.5160  12.7578

          k =-0.0000-0.0000 0.4137 (  6707 PWs)   bands (ev):

   -39.3877 -39.3110 -39.0695 -38.9547 -38.8292 -38.6195  -6.3446   1.4492
     3.1962   3.6749   5.6399   6.6850   9.8197  13.5478  18.6036

          k = 3.4938 2.0171 0.1379 (  6679 PWs)   bands (ev):

   -39.3481 -39.2714 -39.0453 -38.9474 -38.8300 -38.6276  -5.7769   1.8068
     3.4667   3.8933   6.0013   6.8697  10.3447  12.7390  14.5499

     the Fermi energy is     6.9446 ev

!    total energy              =     -94.47987442 Ry
     estimated scf accuracy    <          2.2E-09 Ry
     smearing contrib. (-TS)   =      -0.00059264 Ry
     internal energy E=F+TS    =     -94.47928178 Ry

     The total energy is F=E-TS. E is the sum of the following terms:
     one-electron contribution =     -36.69768299 Ry
     hartree contribution      =      17.56850689 Ry
     xc contribution           =     -24.26344167 Ry
     ewald contribution        =     -51.08666401 Ry

     convergence has been achieved in   9 iterations

     Forces acting on atoms (cartesian axes, Ry/au):

     atom    1 type  1   force =    -0.00000000    0.00000000    0.00662613
     atom    2 type  2   force =     0.00000000   -0.00000000   -0.01101015
     atom    3 type  2   force =     0.00000000    0.00000000   -0.00513666
     atom    4 type  2   force =    -0.00000000    0.00000000   -0.00593066
     atom    5 type  2   force =     0.00000000   -0.00000000    0.00937540
     atom    6 type  2   force =    -0.00000000    0.00000000    0.02230635
     atom    7 type  2   force =     0.00000000    0.00000000   -0.01623041

     Total force =     0.032796     Total SCF correction =     0.000095


     Computing stress (Cartesian axis) and pressure

          total   stress  (Ry/bohr**3)                   (kbar)     P=      473.33
   0.00305596   0.00000000   0.00000000          449.55        0.00        0.00
   0.00000000   0.00305596   0.00000000            0.00      449.55        0.00
  -0.00000000   0.00000000   0.00354106           -0.00        0.00      520.91

     Energy error            =      1.0E-02 Ry
     Gradient error          =      2.2E-02 Ry/Bohr
     Cell gradient error     =      5.0E+01 kbar

     number of scf cycles    =   3
     number of bfgs steps    =   2

     enthalpy           old  =     -93.0638038292 Ry
     enthalpy           new  =     -93.0740319200 Ry

     CASE: enthalpy          _new < enthalpy          _old

     new trust radius        =       0.1388857054 bohr
ibrav =      5
 celldm(1) =     21.29712859
 celldm(4) =      0.97500516
Input lattice vectors:
     0.12078171    -0.06973336     1.07137665
     0.00000000     0.13946671     1.07137665
    -0.12078171    -0.06973336     1.07137665
New lattice vectors in INITIAL alat:
     0.12078171    -0.06973336     1.07137665
     0.00000000     0.13946671     1.07137665
    -0.12078171    -0.06973336     1.07137665
New lattice vectors in NEW alat (for information only):
     0.11179185    -0.06454306     0.99163339
     0.00000000     0.12908611     0.99163339
    -0.11179185    -0.06454306     0.99163339
Discrepancy in bohr =     0.000000    0.000000    0.000000
     new conv_thr            =       0.0000000045 Ry

     new unit-cell volume =    414.69159 a.u.^3 (    61.45095 Ang^3 )
     density =      1.88430 g/cm^3

CELL_PARAMETERS (alat= 19.71196940)
   0.120781714  -0.069733355   1.071376651
   0.000000000   0.139466710   1.071376651
  -0.120781714  -0.069733355   1.071376651

ATOMIC_POSITIONS (crystal)
Si               0.7330967113        0.7330967113        0.7330967113
Li               0.2092571025        0.2092571025        0.2092571025
Li               0.3483679344        0.3483679344        0.3483679344
Li               0.4529567646        0.4529567646        0.4529567646
Li               0.5913811586        0.5913811586        0.5913811586
Li               0.8318865160        0.8318865160        0.8318865160
Li               0.9690828225        0.9690828225        0.9690828225



     Writing config-only to output data dir ./output/SiLi.save/ :
     XML data file
     NEW-OLD atomic charge density approx. for the potential

     total cpu time spent up to now is       63.4 secs

     per-process dynamical memory:    38.5 Mb

     Self-consistent Calculation

     iteration #  1     ecut=   100.00 Ry     beta= 0.70
     CG style diagonalization
     c_bands:  1 eigenvalues not converged
     c_bands:  2 eigenvalues not converged
     c_bands:  1 eigenvalues not converged
     c_bands:  1 eigenvalues not converged
     c_bands:  1 eigenvalues not converged
     c_bands:  1 eigenvalues not converged
     c_bands:  1 eigenvalues not converged
     c_bands:  1 eigenvalues not converged
     c_bands:  1 eigenvalues not converged
     c_bands:  1 eigenvalues not converged
     c_bands:  1 eigenvalues not converged
     c_bands:  1 eigenvalues not converged
     c_bands:  1 eigenvalues not converged
     c_bands:  1 eigenvalues not converged
     c_bands:  1 eigenvalues not converged
     c_bands:  1 eigenvalues not converged
     c_bands:  1 eigenvalues not converged
     c_bands:  2 eigenvalues not converged
     ethr =  1.00E-06,  avg # of iterations = 11.5

     total cpu time spent up to now is       68.8 secs

     total energy              =     -94.48736677 Ry
     estimated scf accuracy    <       0.00447547 Ry

     iteration #  2     ecut=   100.00 Ry     beta= 0.70
     CG style diagonalization
     ethr =  2.03E-05,  avg # of iterations =  3.8

     total cpu time spent up to now is       70.8 secs

     total energy              =     -94.47844376 Ry
     estimated scf accuracy    <       0.13289973 Ry

     iteration #  3     ecut=   100.00 Ry     beta= 0.70
     CG style diagonalization
     ethr =  2.03E-05,  avg # of iterations =  3.8

     total cpu time spent up to now is       72.7 secs

     total energy              =     -94.48876046 Ry
     estimated scf accuracy    <       0.01115786 Ry

     iteration #  4     ecut=   100.00 Ry     beta= 0.70
     CG style diagonalization
     ethr =  2.03E-05,  avg # of iterations =  3.2

     total cpu time spent up to now is       74.4 secs

     total energy              =     -94.48932595 Ry
     estimated scf accuracy    <       0.01023741 Ry

     iteration #  5     ecut=   100.00 Ry     beta= 0.70
     CG style diagonalization
     ethr =  2.03E-05,  avg # of iterations =  3.0

     total cpu time spent up to now is       76.0 secs

     total energy              =     -94.48998698 Ry
     estimated scf accuracy    <       0.00091087 Ry

     iteration #  6     ecut=   100.00 Ry     beta= 0.70
     CG style diagonalization
     ethr =  4.14E-06,  avg # of iterations =  3.0

     total cpu time spent up to now is       77.6 secs

     total energy              =     -94.49005042 Ry
     estimated scf accuracy    <       0.00000932 Ry

     iteration #  7     ecut=   100.00 Ry     beta= 0.70
     CG style diagonalization
     ethr =  4.23E-08,  avg # of iterations =  3.6

     total cpu time spent up to now is       79.4 secs

     total energy              =     -94.49005578 Ry
     estimated scf accuracy    <       0.00000579 Ry

     iteration #  8     ecut=   100.00 Ry     beta= 0.70
     CG style diagonalization
     ethr =  2.63E-08,  avg # of iterations =  3.2

     total cpu time spent up to now is       81.3 secs

     total energy              =     -94.49005661 Ry
     estimated scf accuracy    <       0.00000086 Ry

     iteration #  9     ecut=   100.00 Ry     beta= 0.70
     CG style diagonalization
     ethr =  3.89E-09,  avg # of iterations =  3.1

     total cpu time spent up to now is       82.9 secs

     total energy              =     -94.49005672 Ry
     estimated scf accuracy    <       0.00000005 Ry

     iteration # 10     ecut=   100.00 Ry     beta= 0.70
     CG style diagonalization
     ethr =  2.06E-10,  avg # of iterations =  3.5

     total cpu time spent up to now is       84.8 secs

     total energy              =     -94.49005673 Ry
     estimated scf accuracy    <       0.00000002 Ry

     iteration # 11     ecut=   100.00 Ry     beta= 0.70
     CG style diagonalization
     ethr =  9.12E-11,  avg # of iterations =  3.2

     total cpu time spent up to now is       86.5 secs

     End of self-consistent calculation

          k = 0.0000 0.0000 0.0000 (  6705 PWs)   bands (ev):

   -39.3678 -39.2956 -39.0316 -38.9327 -38.8187 -38.7012  -6.5073   1.3192
     2.9703   3.9469   4.5600   7.2296   8.3888  13.2866  19.4987

          k =-0.5914-0.3414 0.0444 (  6693 PWs)   bands (ev):

   -39.3246 -39.2550 -39.0069 -38.9181 -38.8176 -38.7082  -5.9157   1.7173
     3.2243   4.2117   4.8585   7.5860   8.7442  13.0865  16.6830

          k =-1.1828-0.6829 0.0889 (  6653 PWs)   bands (ev):

   -39.2199 -39.1538 -38.9497 -38.8886 -38.8201 -38.7340  -4.1558   2.8625
     4.0543   4.8850   5.7609   7.7109   8.6790  10.3047  13.2879

          k =-1.7742-1.0243 0.1333 (  6680 PWs)   bands (ev):

   -39.1222 -39.0520 -38.9038 -38.8711 -38.8283 -38.7758  -1.2800   2.6197
     4.4118   5.4758   5.9733   7.6857   8.6031   9.9405  10.4278

          k =-0.5914 0.3414 0.0889 (  6687 PWs)   bands (ev):

   -39.3246 -39.2550 -39.0068 -38.9181 -38.8175 -38.7082  -5.9157   1.7173
     3.2270   4.1889   4.8923   7.5147   8.8272  13.0137  16.6825

          k =-1.1828-0.0000 0.1333 (  6676 PWs)   bands (ev):

   -39.2504 -39.1838 -38.9658 -38.8961 -38.8185 -38.7249  -4.7396   2.4982
     3.7780   4.6942   5.5362   8.0440   9.4317  11.1612  11.7743

          k =-1.7742-0.3414 0.1778 (  6665 PWs)   bands (ev):

   -39.1465 -39.0784 -38.9131 -38.8745 -38.8255 -38.7629  -2.4173   3.9612
     4.8581   5.1678   6.0221   7.1950   8.7942   9.7961  11.3147

          k = 1.7742 1.7072-0.0889 (  6673 PWs)   bands (ev):

   -39.0919 -39.0175 -38.8955 -38.8626 -38.8312 -38.7956   0.7782   1.2102
     5.2363   6.0648   6.9479   7.6676   8.5363   9.2959   9.6028

          k = 1.1828 1.3657-0.0444 (  6676 PWs)   bands (ev):

   -39.1465 -39.0783 -38.9132 -38.8742 -38.8257 -38.7629  -2.4173   3.9634
     4.7943   5.2661   6.0384   7.0239   9.1416   9.6501  11.1097

          k = 0.5914 1.0243 0.0000 (  6675 PWs)   bands (ev):

   -39.2504 -39.1838 -38.9659 -38.8959 -38.8186 -38.7249  -4.7396   2.4988
     3.7571   4.8237   5.3657   8.3721   9.0771  11.1614  11.8393

          k =-1.1828 0.6829 0.1778 (  6648 PWs)   bands (ev):

   -39.2199 -39.1538 -38.9497 -38.8885 -38.8201 -38.7340  -4.1558   2.8656
     4.0138   5.0051   5.6626   7.6838   8.7160  10.3934  13.0133

          k =-1.7742 0.3414 0.2222 (  6672 PWs)   bands (ev):

   -39.1465 -39.0783 -38.9133 -38.8741 -38.8258 -38.7629  -2.4173   3.9696
     4.7472   5.3447   5.9690   7.1095   8.9316   9.7517  11.0730

          k = 1.7742 2.3901-0.0444 (  6660 PWs)   bands (ev):

   -39.0783 -39.0013 -38.8933 -38.8555 -38.8318 -38.8079   0.4310   4.1361
     4.5084   5.7565   6.7421   7.2266   8.4391   9.2203   9.9661

          k = 1.1828 2.0486 0.0000 (  6666 PWs)   bands (ev):

   -39.0783 -39.0013 -38.8933 -38.8555 -38.8319 -38.8079   0.4310   4.1364
     4.5085   5.7511   6.7033   7.4045   8.1532   9.2465  10.0768

          k =-1.7742 1.0243 0.2667 (  6668 PWs)   bands (ev):

   -39.1222 -39.0520 -38.9041 -38.8707 -38.8285 -38.7758  -1.2800   2.6199
     4.4155   5.3473   6.3179   7.1710   9.1293   9.9092  10.1809

          k = 1.7742 3.0729 0.0000 (  6662 PWs)   bands (ev):

   -39.0919 -39.0175 -38.8954 -38.8628 -38.8311 -38.7957   0.7783   1.2102
     5.1964   6.2783   6.6574   7.8805   8.5003   9.0759   9.5608

          k =-0.0000-0.0000 0.1333 (  6707 PWs)   bands (ev):

   -39.3677 -39.2957 -39.0314 -38.9330 -38.8185 -38.7013  -6.5073   1.3191
     2.9862   3.8541   4.6847   7.0476   8.5705  13.1633  19.4987

          k =-0.5914-0.3414 0.1778 (  6688 PWs)   bands (ev):

   -39.3245 -39.2551 -39.0066 -38.9185 -38.8173 -38.7083  -5.9157   1.7167
     3.2559   4.0568   5.0715   7.2690   9.0674  12.9166  14.7611

          k =-1.1828-0.6829 0.2222 (  6664 PWs)   bands (ev):

   -39.2199 -39.1538 -38.9494 -38.8891 -38.8198 -38.7340  -4.1558   2.8608
     4.1296   4.6614   6.1040   7.3623   8.7083  10.5872  13.0876

          k = 2.3655 1.3657-0.0444 (  6657 PWs)   bands (ev):

   -39.1222 -39.0520 -38.9039 -38.8709 -38.8284 -38.7758  -1.2800   2.6195
     4.4252   5.3898   6.0764   7.6441   8.6227   9.9125  10.4228

          k = 1.7742 1.0243 0.0000 (  6677 PWs)   bands (ev):

   -39.1222 -39.0520 -38.9039 -38.8710 -38.8283 -38.7758  -1.2800   2.6200
     4.4029   5.4903   6.0035   7.5224   8.7898   9.9647  10.3467

          k = 1.1828 0.6829 0.0444 (  6653 PWs)   bands (ev):

   -39.2199 -39.1537 -38.9498 -38.8884 -38.8202 -38.7340  -4.1558   2.8646
     4.0116   5.0937   5.5214   7.8449   8.6780  10.2149  13.2402

          k =-0.5914 0.3414 0.2222 (  6681 PWs)   bands (ev):

   -39.3245 -39.2551 -39.0065 -38.9187 -38.8172 -38.7083  -5.9157   1.7168
     3.2631   4.0224   5.1361   7.1527   9.2109  12.7525  14.7453

          k =-1.1828 0.0000 0.2667 (  6671 PWs)   bands (ev):

   -39.2504 -39.1839 -38.9655 -38.8967 -38.8182 -38.7250  -4.7396   2.4969
     3.8352   4.4896   5.8575   7.5587   9.9951  11.1601  11.5716

          k = 2.3655 2.0486 0.0000 (  6662 PWs)   bands (ev):

   -39.1465 -39.0784 -38.9129 -38.8747 -38.8254 -38.7629  -2.4173   3.9621
     4.8941   5.1158   5.9892   7.4120   8.4686   9.8682  11.3662

          k = 1.7742 1.7072 0.0444 (  6666 PWs)   bands (ev):

   -39.0919 -39.0175 -38.8955 -38.8627 -38.8312 -38.7956   0.7782   1.2102
     5.2212   6.1267   6.8523   7.7465   8.5268   9.2127   9.5794

          k = 1.1828 1.3657 0.0889 (  6669 PWs)   bands (ev):

   -39.1465 -39.0783 -38.9133 -38.8740 -38.8258 -38.7629  -2.4173   3.9671
     4.7527   5.3379   6.0146   6.9903   9.2368   9.5916  11.0238

          k =-1.1828 0.6829 0.3111 (  6645 PWs)   bands (ev):

   -39.2199 -39.1538 -38.9495 -38.8889 -38.8199 -38.7340  -4.1558   2.8647
     4.0620   4.7844   6.0161   7.3525   8.7400  10.7300  12.7293

          k = 2.3655 2.7315 0.0444 (  6682 PWs)   bands (ev):

   -39.1465 -39.0784 -38.9131 -38.8744 -38.8256 -38.7629  -2.4173   3.9689
     4.7808   5.2792   5.9483   7.3201   8.5846   9.8498  11.1814

          k = 1.7742 2.3901 0.0889 (  6663 PWs)   bands (ev):

   -39.0783 -39.0013 -38.8933 -38.8556 -38.8318 -38.8079   0.4310   4.1359
     4.5083   5.7596   6.7725   7.1393   8.6154   9.1726   9.8885

          k = 1.1828 2.0486 0.1333 (  6662 PWs)   bands (ev):

   -39.0783 -39.0013 -38.8933 -38.8555 -38.8318 -38.8079   0.4310   4.1363
     4.5085   5.7527   6.7138   7.3435   8.2434   9.2425  10.0449

          k = 2.3655-1.3657-0.2222 (  6660 PWs)   bands (ev):

   -39.1222 -39.0520 -38.9041 -38.8706 -38.8286 -38.7758  -1.2800   2.6196
     4.4285   5.3067   6.3393   7.2171   9.0499   9.8665  10.2487

          k = 1.7742-1.7072-0.1778 (  6661 PWs)   bands (ev):

   -39.0919 -39.0175 -38.8954 -38.8628 -38.8311 -38.7956   0.7783   1.2102
     5.2038   6.2217   6.7257   7.8391   8.5104   9.1163   9.5649

          k = 1.7742-1.0243-0.1333 (  6672 PWs)   bands (ev):

   -39.1222 -39.0520 -38.9040 -38.8709 -38.8284 -38.7758  -1.2800   2.6201
     4.4044   5.4224   6.1602   7.3114   9.0100   9.9700  10.2206

          k =-0.0000-0.0000 0.2667 (  6725 PWs)   bands (ev):

   -39.3677 -39.2958 -39.0309 -38.9337 -38.8181 -38.7014  -6.5073   1.3187
     3.0277   3.6950   4.9295   6.7085   8.8979  12.8936  19.4987

          k =-0.5914-0.3414 0.3111 (  6696 PWs)   bands (ev):

   -39.3245 -39.2552 -39.0062 -38.9192 -38.8170 -38.7083  -5.9157   1.7161
     3.3089   3.8924   5.3457   6.8891   9.4530  12.6128  14.6786

          k = 2.9569 1.7072 0.0444 (  6667 PWs)   bands (ev):

   -39.2199 -39.1539 -38.9492 -38.8894 -38.8196 -38.7341  -4.1558   2.8608
     4.1886   4.5342   6.4529   6.9683   8.7313  10.8898  12.7525

          k = 2.3655 1.3657 0.0889 (  6660 PWs)   bands (ev):

   -39.1222 -39.0520 -38.9040 -38.8707 -38.8285 -38.7758  -1.2800   2.6194
     4.4330   5.3210   6.2239   7.4271   8.8297   9.8833  10.3484

          k =-0.5914 0.3414 0.3556 (  6683 PWs)   bands (ev):

   -39.3245 -39.2552 -39.0061 -38.9193 -38.8169 -38.7083  -5.9157   1.7162
     3.3170   3.8688   5.4045   6.8006   9.5616  12.4770  14.6769

          k = 2.9569 2.3901 0.0889 (  6675 PWs)   bands (ev):

   -39.2504 -39.1839 -38.9652 -38.8971 -38.8180 -38.7250  -4.7396   2.4959
     3.9001   4.3424   6.1558   7.1762  10.5088  11.1483  11.2701

          k = 2.3655 2.0486 0.1333 (  6662 PWs)   bands (ev):

   -39.1465 -39.0784 -38.9130 -38.8746 -38.8255 -38.7629  -2.4173   3.9655
     4.8441   5.1793   5.9600   7.4885   8.3628   9.8838  11.2864

          k = 2.9569-1.7072-0.1778 (  6657 PWs)   bands (ev):

   -39.2199 -39.1539 -38.9492 -38.8894 -38.8197 -38.7341  -4.1558   2.8625
     4.1426   4.5991   6.4013   6.9851   8.7426  10.9760  12.5772

          k =-0.0000-0.0000 0.4000 (  6707 PWs)   bands (ev):

   -39.3676 -39.2959 -39.0305 -38.9342 -38.8178 -38.7014  -6.5073   1.3184
     3.0705   3.5830   5.1353   6.4449   9.1293  12.6790  19.4987

          k = 3.5483 2.0486 0.1333 (  6679 PWs)   bands (ev):

   -39.3245 -39.2552 -39.0059 -38.9195 -38.8168 -38.7084  -5.9157   1.7159
     3.3439   3.8119   5.5135   6.6722   9.6660  12.4059  14.6533

     the Fermi energy is     6.8844 ev

!    total energy              =     -94.49005673 Ry
     estimated scf accuracy    <          4.6E-10 Ry
     smearing contrib. (-TS)   =      -0.00130638 Ry
     internal energy E=F+TS    =     -94.48875035 Ry

     The total energy is F=E-TS. E is the sum of the following terms:
     one-electron contribution =     -36.57041941 Ry
     hartree contribution      =      17.51218022 Ry
     xc contribution           =     -24.26164193 Ry
     ewald contribution        =     -51.16886923 Ry

     convergence has been achieved in  11 iterations

     Forces acting on atoms (cartesian axes, Ry/au):

     atom    1 type  1   force =     0.00000000    0.00000000    0.01608812
     atom    2 type  2   force =    -0.00000000    0.00000000    0.01500114
     atom    3 type  2   force =    -0.00000000   -0.00000000   -0.00059499
     atom    4 type  2   force =     0.00000000    0.00000000   -0.01924251
     atom    5 type  2   force =    -0.00000000   -0.00000000   -0.01450643
     atom    6 type  2   force =     0.00000000   -0.00000000    0.00426985
     atom    7 type  2   force =     0.00000000    0.00000000   -0.00101519

     Total force =     0.032927     Total SCF correction =     0.000039


     Computing stress (Cartesian axis) and pressure

          total   stress  (Ry/bohr**3)                   (kbar)     P=      470.25
   0.00311026  -0.00000000   0.00000000          457.53       -0.00        0.00
  -0.00000000   0.00311026   0.00000000           -0.00      457.53        0.00
   0.00000000   0.00000000   0.00336952            0.00        0.00      495.67

     Energy error            =      6.5E-03 Ry
     Gradient error          =      1.9E-02 Ry/Bohr
     Cell gradient error     =      4.2E+01 kbar

     number of scf cycles    =   4
     number of bfgs steps    =   3

     enthalpy           old  =     -93.0740319200 Ry
     enthalpy           new  =     -93.0805486665 Ry

     CASE: enthalpy          _new < enthalpy          _old

     new trust radius        =       0.0280646581 bohr
ibrav =      5
 celldm(1) =     21.38131710
 celldm(4) =      0.97554219
Input lattice vectors:
     0.11994944    -0.06925284     1.07580764
    -0.00000000     0.13850568     1.07580764
    -0.11994944    -0.06925284     1.07580764
New lattice vectors in INITIAL alat:
     0.11994944    -0.06925284     1.07580764
     0.00000000     0.13850568     1.07580764
    -0.11994944    -0.06925284     1.07580764
New lattice vectors in NEW alat (for information only):
     0.11058438    -0.06384592     0.99181389
     0.00000000     0.12769184     0.99181389
    -0.11058438    -0.06384592     0.99181389
Discrepancy in bohr =     0.000000    0.000000    0.000000
     new conv_thr            =       0.0000000038 Ry

     new unit-cell volume =    410.68772 a.u.^3 (    60.85764 Ang^3 )
     density =      1.90267 g/cm^3

CELL_PARAMETERS (alat= 19.71196940)
   0.119949436  -0.069252839   1.075807641
   0.000000000   0.138505679   1.075807641
  -0.119949436  -0.069252839   1.075807641

ATOMIC_POSITIONS (crystal)
Si               0.7332795695        0.7332795695        0.7332795695
Li               0.2093777718        0.2093777718        0.2093777718
Li               0.3483185969        0.3483185969        0.3483185969
Li               0.4527319779        0.4527319779        0.4527319779
Li               0.5912513329        0.5912513329        0.5912513329
Li               0.8321483565        0.8321483565        0.8321483565
Li               0.9689214045        0.9689214045        0.9689214045



     Writing config-only to output data dir ./output/SiLi.save/ :
     XML data file
     NEW-OLD atomic charge density approx. for the potential

     total cpu time spent up to now is       86.9 secs

     per-process dynamical memory:    38.5 Mb

     Self-consistent Calculation

     iteration #  1     ecut=   100.00 Ry     beta= 0.70
     CG style diagonalization
     ethr =  1.00E-06,  avg # of iterations =  7.3

     total cpu time spent up to now is       90.4 secs

     total energy              =     -94.47823432 Ry
     estimated scf accuracy    <       0.00034209 Ry

     iteration #  2     ecut=   100.00 Ry     beta= 0.70
     CG style diagonalization
     ethr =  1.55E-06,  avg # of iterations =  3.9

     total cpu time spent up to now is       92.4 secs

     total energy              =     -94.47756701 Ry
     estimated scf accuracy    <       0.00903371 Ry

     iteration #  3     ecut=   100.00 Ry     beta= 0.70
     CG style diagonalization
     ethr =  1.55E-06,  avg # of iterations =  3.8

     total cpu time spent up to now is       94.5 secs

     total energy              =     -94.47812698 Ry
     estimated scf accuracy    <       0.00595473 Ry

     iteration #  4     ecut=   100.00 Ry     beta= 0.70
     CG style diagonalization
     ethr =  1.55E-06,  avg # of iterations =  3.5

     total cpu time spent up to now is       96.3 secs

     total energy              =     -94.47843997 Ry
     estimated scf accuracy    <       0.00001832 Ry

     iteration #  5     ecut=   100.00 Ry     beta= 0.70
     CG style diagonalization
     ethr =  8.33E-08,  avg # of iterations =  3.3

     total cpu time spent up to now is       98.0 secs

     total energy              =     -94.47843720 Ry
     estimated scf accuracy    <       0.00015254 Ry

     iteration #  6     ecut=   100.00 Ry     beta= 0.70
     CG style diagonalization
     ethr =  8.33E-08,  avg # of iterations =  3.1

     total cpu time spent up to now is       99.6 secs

     total energy              =     -94.47844743 Ry
     estimated scf accuracy    <       0.00000117 Ry

     iteration #  7     ecut=   100.00 Ry     beta= 0.70
     CG style diagonalization
     ethr =  5.32E-09,  avg # of iterations =  3.3

     total cpu time spent up to now is      101.4 secs

     total energy              =     -94.47844765 Ry
     estimated scf accuracy    <       0.00000056 Ry

     iteration #  8     ecut=   100.00 Ry     beta= 0.70
     CG style diagonalization
     ethr =  2.55E-09,  avg # of iterations =  3.1

     total cpu time spent up to now is      103.0 secs

     total energy              =     -94.47844774 Ry
     estimated scf accuracy    <       0.00000002 Ry

     iteration #  9     ecut=   100.00 Ry     beta= 0.70
     CG style diagonalization
     ethr =  7.21E-11,  avg # of iterations =  3.3

     total cpu time spent up to now is      104.9 secs

     End of self-consistent calculation

          k = 0.0000 0.0000 0.0000 (  6705 PWs)   bands (ev):

   -39.2826 -39.2081 -38.9429 -38.8360 -38.7270 -38.6180  -6.5307   1.3560
     3.0458   3.9922   4.5983   7.1866   8.3791  13.2006  19.8642

          k =-0.5955-0.3438 0.0443 (  6693 PWs)   bands (ev):

   -39.2371 -39.1666 -38.9172 -38.8199 -38.7244 -38.6243  -5.9305   1.7626
     3.2990   4.2595   4.9001   7.5530   8.7450  13.0977  15.0206

          k =-1.1910-0.6876 0.0885 (  6653 PWs)   bands (ev):

   -39.1268 -39.0636 -38.8578 -38.7875 -38.7228 -38.6489  -4.1458   2.9323
     4.1286   4.9469   5.8165   7.8208   8.7011  10.3434  13.4209

          k =-1.7865-1.0314 0.1328 (  6680 PWs)   bands (ev):

   -39.0240 -38.9598 -38.8071 -38.7741 -38.7249 -38.6904  -1.2319   2.7257
     4.5129   5.5448   6.0587   7.7545   8.6812  10.0480  10.4837

          k =-0.5955 0.3438 0.0885 (  6687 PWs)   bands (ev):

   -39.2371 -39.1666 -38.9171 -38.8200 -38.7244 -38.6243  -5.9305   1.7626
     3.3015   4.2381   4.9323   7.4870   8.8217  13.0261  15.0069

          k =-1.1910-0.0000 0.1328 (  6676 PWs)   bands (ev):

   -39.1590 -39.0941 -38.8745 -38.7957 -38.7226 -38.6400  -4.7378   2.5601
     3.8522   4.7511   5.5830   8.0474   9.4564  11.3559  11.9129

          k =-1.7865-0.3438 0.1771 (  6665 PWs)   bands (ev):

   -39.0495 -38.9868 -38.8186 -38.7747 -38.7239 -38.6776  -2.3837   4.0542
     4.9596   5.2515   6.1124   7.2672   8.8756   9.9285  11.4004

          k = 1.7865 1.7190-0.0885 (  6673 PWs)   bands (ev):

   -38.9922 -38.9242 -38.7914 -38.7742 -38.7270 -38.7082   0.8290   1.3220
     5.3561   6.1431   7.0443   7.7728   8.6777   9.4033   9.7035

          k = 1.1910 1.3752-0.0443 (  6676 PWs)   bands (ev):

   -39.0495 -38.9867 -38.8188 -38.7744 -38.7240 -38.6775  -2.3837   4.0564
     4.8906   5.3620   6.1131   7.1087   9.2445   9.7355  11.2145

          k = 0.5955 1.0314 0.0000 (  6675 PWs)   bands (ev):

   -39.1590 -39.0941 -38.8747 -38.7954 -38.7227 -38.6400  -4.7378   2.5606
     3.8321   4.8752   5.4188   8.3531   9.1233  11.3562  11.9868

          k =-1.1910 0.6876 0.1771 (  6648 PWs)   bands (ev):

   -39.1268 -39.0636 -38.8578 -38.7874 -38.7229 -38.6489  -4.1458   2.9353
     4.0886   5.0647   5.7221   7.7773   8.7612  10.4242  13.0830

          k =-1.7865 0.3438 0.2213 (  6672 PWs)   bands (ev):

   -39.0495 -38.9867 -38.8188 -38.7743 -38.7241 -38.6775  -2.3837   4.0627
     4.8415   5.4450   6.0447   7.1876   9.0232   9.8594  11.1944

          k = 1.7865 2.4066-0.0443 (  6660 PWs)   bands (ev):

   -38.9781 -38.9076 -38.7825 -38.7743 -38.7319 -38.7151   0.4994   4.2214
     4.6857   5.8826   6.8347   7.3274   8.5496   9.3570  10.0846

          k = 1.1910 2.0628 0.0000 (  6666 PWs)   bands (ev):

   -38.9781 -38.9076 -38.7826 -38.7742 -38.7319 -38.7151   0.4994   4.2217
     4.6859   5.8770   6.7972   7.5012   8.2646   9.3869  10.2033

          k =-1.7865 1.0314 0.2656 (  6668 PWs)   bands (ev):

   -39.0240 -38.9598 -38.8073 -38.7738 -38.7251 -38.6903  -1.2319   2.7259
     4.5165   5.4224   6.3916   7.2515   9.2006   9.9940  10.2642

          k = 1.7865 3.0943 0.0000 (  6662 PWs)   bands (ev):

   -38.9922 -38.9242 -38.7913 -38.7744 -38.7269 -38.7083   0.8290   1.3220
     5.3131   6.3587   6.7538   7.9920   8.6140   9.2121   9.6746

          k =-0.0000-0.0000 0.1328 (  6707 PWs)   bands (ev):

   -39.2825 -39.2082 -38.9427 -38.8364 -38.7268 -38.6180  -6.5307   1.3559
     3.0608   3.9042   4.7168   7.0186   8.5458  13.0860  19.8640

          k =-0.5955-0.3438 0.1771 (  6688 PWs)   bands (ev):

   -39.2371 -39.1667 -38.9169 -38.8204 -38.7241 -38.6243  -5.9305   1.7622
     3.3291   4.1116   5.1042   7.2560   9.0466  12.9217  14.9477

          k =-1.1910-0.6876 0.2213 (  6664 PWs)   bands (ev):

   -39.1268 -39.0636 -38.8575 -38.7880 -38.7225 -38.6490  -4.1458   2.9308
     4.2009   4.7300   6.1517   7.4444   8.7826  10.5988  13.2064

          k = 2.3820 1.3752-0.0443 (  6657 PWs)   bands (ev):

[...]
        k(   33) = (   1.8455975  -1.7759270  -0.1646866), wk =   0.0699708
        k(   34) = (   1.8455975  -1.0655562  -0.1235150), wk =   0.0349854
        k(   35) = (   0.0000000  -0.0000000   0.2470300), wk =   0.0116618
        k(   36) = (  -0.6151992  -0.3551854   0.2882016), wk =   0.0349854
        k(   37) = (   3.0759959   1.7759270   0.0411717), wk =   0.0349854
        k(   38) = (   2.4607967   1.4207416   0.0823433), wk =   0.0349854
        k(   39) = (  -0.6151992   0.3551854   0.3293733), wk =   0.0349854
        k(   40) = (   3.0759959   2.4862979   0.0823433), wk =   0.0699708
        k(   41) = (   2.4607967   2.1311125   0.1235150), wk =   0.0699708
        k(   42) = (   3.0759959  -1.7759270  -0.1646866), wk =   0.0349854
        k(   43) = (  -0.0000000  -0.0000000   0.3705449), wk =   0.0116618
        k(   44) = (   3.6911950   2.1311125   0.1235150), wk =   0.0349854

     Dense  grid:    56017 G-vectors     FFT dimensions: ( 150, 150, 150)

     Estimated max dynamical RAM per process >      18.62 MB

     Estimated total dynamical RAM >       2.31 GB

     Initial potential from superposition of free atoms

     starting charge      21.9720, renormalised to      22.0000
     Starting wfcs are   16 randomized atomic wfcs

     total cpu time spent up to now is      344.5 secs

     per-process dynamical memory:    45.5 Mb

     Self-consistent Calculation

     iteration #  1     ecut=   100.00 Ry     beta= 0.70
     CG style diagonalization
     c_bands:  1 eigenvalues not converged
     c_bands:  1 eigenvalues not converged
     c_bands:  1 eigenvalues not converged
     c_bands:  4 eigenvalues not converged
     c_bands:  1 eigenvalues not converged
     c_bands:  2 eigenvalues not converged
     c_bands:  2 eigenvalues not converged
     c_bands:  5 eigenvalues not converged
     c_bands:  5 eigenvalues not converged
     c_bands:  3 eigenvalues not converged
     c_bands:  3 eigenvalues not converged
     c_bands:  5 eigenvalues not converged
     c_bands:  4 eigenvalues not converged
     c_bands:  5 eigenvalues not converged
     c_bands:  1 eigenvalues not converged
     c_bands:  1 eigenvalues not converged
     c_bands:  5 eigenvalues not converged
     c_bands:  4 eigenvalues not converged
     c_bands:  3 eigenvalues not converged
     ethr =  1.00E-06,  avg # of iterations = 12.3

     total cpu time spent up to now is      353.7 secs

     total energy              =     -93.85441549 Ry
     estimated scf accuracy    <       0.77892219 Ry

     iteration #  2     ecut=   100.00 Ry     beta= 0.70
     CG style diagonalization
     ethr =  3.54E-03,  avg # of iterations =  5.7

     total cpu time spent up to now is      358.0 secs

     total energy              =     -92.77568375 Ry
     estimated scf accuracy    <      37.95519291 Ry

     iteration #  3     ecut=   100.00 Ry     beta= 0.70
     CG style diagonalization
     ethr =  3.54E-03,  avg # of iterations =  5.2

     total cpu time spent up to now is      362.0 secs

     total energy              =     -94.46011087 Ry
     estimated scf accuracy    <       1.16449482 Ry

     iteration #  4     ecut=   100.00 Ry     beta= 0.70
     CG style diagonalization
     ethr =  3.54E-03,  avg # of iterations =  3.0

     total cpu time spent up to now is      364.5 secs

     total energy              =     -94.49232726 Ry
     estimated scf accuracy    <       0.21606766 Ry

     iteration #  5     ecut=   100.00 Ry     beta= 0.70
     CG style diagonalization
     ethr =  9.82E-04,  avg # of iterations =  3.2

     total cpu time spent up to now is      367.1 secs

     total energy              =     -94.47391928 Ry
     estimated scf accuracy    <       0.33982782 Ry

     iteration #  6     ecut=   100.00 Ry     beta= 0.70
     CG style diagonalization
     ethr =  9.82E-04,  avg # of iterations =  3.1

     total cpu time spent up to now is      369.6 secs

     total energy              =     -94.50028323 Ry
     estimated scf accuracy    <       0.05757204 Ry

     iteration #  7     ecut=   100.00 Ry     beta= 0.70
     CG style diagonalization
     ethr =  2.62E-04,  avg # of iterations =  3.2

     total cpu time spent up to now is      372.2 secs

     total energy              =     -94.49767615 Ry
     estimated scf accuracy    <       0.04120451 Ry

     iteration #  8     ecut=   100.00 Ry     beta= 0.70
     CG style diagonalization
     ethr =  1.87E-04,  avg # of iterations =  3.0

     total cpu time spent up to now is      374.6 secs

     total energy              =     -94.49771278 Ry
     estimated scf accuracy    <       0.00845629 Ry

     iteration #  9     ecut=   100.00 Ry     beta= 0.70
     CG style diagonalization
     ethr =  3.84E-05,  avg # of iterations =  3.4

     total cpu time spent up to now is      377.4 secs

     total energy              =     -94.49810778 Ry
     estimated scf accuracy    <       0.00085692 Ry

     iteration # 10     ecut=   100.00 Ry     beta= 0.70
     CG style diagonalization
     ethr =  3.90E-06,  avg # of iterations =  3.7

     total cpu time spent up to now is      380.4 secs

     total energy              =     -94.49818646 Ry
     estimated scf accuracy    <       0.00009112 Ry

     iteration # 11     ecut=   100.00 Ry     beta= 0.70
     CG style diagonalization
     ethr =  4.14E-07,  avg # of iterations =  3.2

     total cpu time spent up to now is      382.9 secs

     total energy              =     -94.49819962 Ry
     estimated scf accuracy    <       0.00000625 Ry

     iteration # 12     ecut=   100.00 Ry     beta= 0.70
     CG style diagonalization
     ethr =  2.84E-08,  avg # of iterations =  3.2

     total cpu time spent up to now is      385.6 secs

     total energy              =     -94.49819982 Ry
     estimated scf accuracy    <       0.00000307 Ry

     iteration # 13     ecut=   100.00 Ry     beta= 0.70
     CG style diagonalization
     ethr =  1.40E-08,  avg # of iterations =  3.0

     total cpu time spent up to now is      387.9 secs

     total energy              =     -94.49820014 Ry
     estimated scf accuracy    <       0.00000004 Ry

     iteration # 14     ecut=   100.00 Ry     beta= 0.70
     CG style diagonalization
     ethr =  1.88E-10,  avg # of iterations =  3.8

     total cpu time spent up to now is      390.9 secs

     total energy              =     -94.49820016 Ry
     estimated scf accuracy    <       0.00000001 Ry

     iteration # 15     ecut=   100.00 Ry     beta= 0.70
     CG style diagonalization
     ethr =  4.94E-11,  avg # of iterations =  3.1

     total cpu time spent up to now is      393.3 secs

     total energy              =     -94.49820016 Ry
     estimated scf accuracy    <          3.8E-10 Ry

     iteration # 16     ecut=   100.00 Ry     beta= 0.70
     CG style diagonalization
     ethr =  1.72E-12,  avg # of iterations =  3.9

     total cpu time spent up to now is      396.4 secs

     End of self-consistent calculation

          k = 0.0000 0.0000 0.0000 (  7033 PWs)   bands (ev):

   -39.2731 -39.1512 -39.0013 -38.8384 -38.6631 -38.6413  -6.9955   1.1720
     2.7828   3.5074   4.1537   5.8769   7.0326  11.9297  16.0894

          k =-0.6152-0.3552 0.0412 (  7005 PWs)   bands (ev):

   -39.2247 -39.1133 -38.9757 -38.8270 -38.6411 -38.6190  -6.3533   1.6268
     3.0654   3.8348   4.4983   6.3493   7.5298  12.0408  15.5201

          k =-1.2304-0.7104 0.0823 (  6980 PWs)   bands (ev):

   -39.1065 -39.0245 -38.9212 -38.8118 -38.5908 -38.5676  -4.4468   2.9392
     3.9796   4.7570   5.5270   7.5171   8.1933   9.6619  13.3029

          k =-1.8456-1.0656 0.1235 (  6984 PWs)   bands (ev):

   -38.9897 -38.9453 -38.8854 -38.8220 -38.5494 -38.5253  -1.3518   2.9200
     4.7418   5.5132   6.1256   7.5343   8.5157  10.0952  10.2272

          k =-0.6152 0.3552 0.0823 (  7014 PWs)   bands (ev):

   -39.2247 -39.1133 -38.9757 -38.8270 -38.6411 -38.6190  -6.3533   1.6268
     3.0674   3.8213   4.5206   6.3128   7.5656  12.0006  15.5467

          k =-1.2304-0.0000 0.1235 (  6971 PWs)   bands (ev):

   -39.1412 -39.0498 -38.9357 -38.8140 -38.6049 -38.5820  -5.0786   2.5187
     3.6775   4.4653   5.2495   7.1471   8.5074  11.6165  11.9152

          k =-1.8456-0.3552 0.1647 (  6979 PWs)   bands (ev):

   -39.0205 -38.9645 -38.8918 -38.8154 -38.5586 -38.5347  -2.5703   4.1989
     5.0077   5.3256   6.1173   7.1101   8.6123   9.9410  11.1303

          k = 1.8456 1.7759-0.0823 (  7003 PWs)   bands (ev):

   -38.9480 -38.9201 -38.8790 -38.8346 -38.5377 -38.5133   0.7005   1.5604
     5.7083   6.2475   7.2164   7.8131   8.8573   9.3899   9.8647

          k = 1.2304 1.4207-0.0412 (  6969 PWs)   bands (ev):

   -39.0205 -38.9645 -38.8918 -38.8154 -38.5586 -38.5347  -2.5703   4.2025
     4.9355   5.4731   6.0325   7.0428   8.9088   9.6393  11.1556

          k = 0.6152 1.0656 0.0000 (  6987 PWs)   bands (ev):

   -39.1412 -39.0498 -38.9357 -38.8140 -38.6049 -38.5820  -5.0786   2.5191
     3.6631   4.5435   5.1379   7.3203   8.3288  11.7178  11.9149

          k =-1.2304 0.7104 0.1647 (  6979 PWs)   bands (ev):

   -39.1065 -39.0244 -38.9212 -38.8118 -38.5908 -38.5676  -4.4468   2.9413
     3.9574   4.8086   5.5063   7.3561   8.4250   9.6281  12.5832

          k =-1.8456 0.3552 0.2059 (  6981 PWs)   bands (ev):

   -39.0205 -38.9645 -38.8918 -38.8154 -38.5586 -38.5347  -2.5703   4.2079
     4.9014   5.5327   5.9921   7.0928   8.6762   9.9150  11.1264

          k = 1.8456 2.4863-0.0412 (  6981 PWs)   bands (ev):

   -38.9271 -38.9073 -38.8767 -38.8441 -38.5324 -38.5079   0.4741   4.2948
     5.2598   6.2483   6.9363   7.5530   8.6879   9.7902  10.2859

          k = 1.2304 2.1311 0.0000 (  6975 PWs)   bands (ev):

   -38.9271 -38.9073 -38.8767 -38.8441 -38.5324 -38.5079   0.4741   4.2949
     5.2601   6.2461   6.9060   7.6932   8.4459   9.8539  10.4707

          k =-1.8456 1.0656 0.2470 (  6976 PWs)   bands (ev):

   -38.9897 -38.9453 -38.8854 -38.8220 -38.5494 -38.5253  -1.3518   2.9201
     4.7542   5.4109   6.3990   7.1442   8.8649   9.8932  10.2874

          k = 1.8456 3.1967 0.0000 (  6986 PWs)   bands (ev):

   -38.9480 -38.9201 -38.8790 -38.8346 -38.5377 -38.5133   0.7005   1.5605
     5.6624   6.4101   6.9705   8.0498   8.6814   9.4081   9.8733

          k = 0.0000-0.0000 0.1235 (  7054 PWs)   bands (ev):

   -39.2731 -39.1512 -39.0013 -38.8384 -38.6631 -38.6413  -6.9955   1.1719
     2.7928   3.4591   4.2258   5.7883   7.1036  11.8746  16.2468

          k =-0.6152-0.3552 0.1647 (  7008 PWs)   bands (ev):

   -39.2247 -39.1133 -38.9756 -38.8270 -38.6411 -38.6190  -6.3533   1.6265
     3.0854   3.7458   4.6320   6.1789   7.6735  11.9267  15.5065

          k =-1.2304-0.7104 0.2059 (  6971 PWs)   bands (ev):

   -39.1065 -39.0245 -38.9212 -38.8118 -38.5908 -38.5676  -4.4468   2.9377
     4.0272   4.5977   5.7851   7.0959   8.5277   9.6731  12.8728

          k = 2.4608 1.4207-0.0412 (  6979 PWs)   bands (ev):

   -38.9897 -38.9453 -38.8854 -38.8220 -38.5494 -38.5253  -1.3518   2.9199
     4.7553   5.4575   6.1858   7.5477   8.4436  10.1175  10.2570

          k = 1.8456 1.0656 0.0000 (  6987 PWs)   bands (ev):

   -38.9897 -38.9453 -38.8854 -38.8220 -38.5494 -38.5253  -1.3518   2.9202
     4.7357   5.5157   6.1660   7.3916   8.7058   9.9865  10.2429

          k = 1.2304 0.7104 0.0412 (  6976 PWs)   bands (ev):

   -39.1065 -39.0244 -38.9212 -38.8118 -38.5908 -38.5676  -4.4468   2.9409
     3.9525   4.8783   5.3844   7.7117   8.0537   9.6447  12.9362

          k =-0.6152 0.3552 0.2059 (  7015 PWs)   bands (ev):

   -39.2247 -39.1133 -38.9756 -38.8271 -38.6410 -38.6190  -6.3533   1.6265
     3.0905   3.7222   4.6799   6.1056   7.7414  11.8419  15.5338

          k =-1.2304-0.0000 0.2470 (  6970 PWs)   bands (ev):

   -39.1412 -39.0499 -38.9357 -38.8141 -38.6048 -38.5820  -5.0786   2.5177
     3.7148   4.3279   5.4822   6.8217   8.8354  11.3804  11.9154

          k = 2.4608 2.1311 0.0000 (  6986 PWs)   bands (ev):

   -39.0205 -38.9645 -38.8918 -38.8154 -38.5586 -38.5347  -2.5703   4.1983
     5.0880   5.2042   6.1572   7.2081   8.3547  10.2246  11.0791

          k = 1.8456 1.7759 0.0412 (  6995 PWs)   bands (ev):

   -38.9480 -38.9201 -38.8790 -38.8346 -38.5377 -38.5133   0.7005   1.5604
     5.6903   6.3003   7.1262   7.9008   8.7987   9.3974   9.8681

          k = 1.2304 1.4207 0.0823 (  6980 PWs)   bands (ev):

   -39.0205 -38.9645 -38.8918 -38.8154 -38.5586 -38.5347  -2.5703   4.2066
     4.8977   5.5728   5.9589   7.0376   8.9483   9.6150  11.1536

          k =-1.2304 0.7104 0.2882 (  6951 PWs)   bands (ev):

   -39.1065 -39.0245 -38.9212 -38.8118 -38.5908 -38.5676  -4.4468   2.9402
     3.9932   4.6549   5.7809   6.9792   8.7392   9.6224  12.3335

          k = 2.4608 2.8415 0.0412 (  6984 PWs)   bands (ev):

   -39.0205 -38.9645 -38.8918 -38.8154 -38.5586 -38.5347  -2.5703   4.2055
     4.9480   5.4039   6.0798   7.1858   8.4050  10.2102  11.0776

          k = 1.8456 2.4863 0.0823 (  6976 PWs)   bands (ev):

   -38.9271 -38.9073 -38.8767 -38.8441 -38.5324 -38.5079   0.4741   4.2947
     5.2596   6.2496   6.9566   7.4864   8.8360   9.7031  10.2220

          k = 1.2304 2.1311 0.1235 (  6979 PWs)   bands (ev):

   -38.9271 -38.9073 -38.8767 -38.8441 -38.5324 -38.5079   0.4741   4.2948
     5.2600   6.2468   6.9146   7.6455   8.5211   9.8426  10.4086

          k = 2.4608-1.4207-0.2059 (  6982 PWs)   bands (ev):

   -38.9897 -38.9453 -38.8854 -38.8220 -38.5494 -38.5253  -1.3518   2.9199
     4.7662   5.3832   6.3954   7.2150   8.7286   9.9758  10.3010

          k = 1.8456-1.7759-0.1647 (  6983 PWs)   bands (ev):

   -38.9480 -38.9201 -38.8790 -38.8346 -38.5377 -38.5133   0.7005   1.5604
     5.6705   6.3731   7.0198   8.0031   8.7201   9.4051   9.8721

          k = 1.8456-1.0656-0.1235 (  6999 PWs)   bands (ev):

   -38.9897 -38.9453 -38.8854 -38.8220 -38.5494 -38.5253  -1.3518   2.9202
     4.7408   5.4666   6.2881   7.2312   8.8601   9.8915  10.2661

          k = 0.0000-0.0000 0.2470 (  7041 PWs)   bands (ev):

   -39.2731 -39.1513 -39.0012 -38.8385 -38.6629 -38.6415  -6.9955   1.1718
     2.8179   3.3662   4.3829   5.5970   7.2427  11.7550  16.6747

          k =-0.6152-0.3552 0.2882 (  7008 PWs)   bands (ev):

   -39.2247 -39.1134 -38.9756 -38.8271 -38.6410 -38.6191  -6.3533   1.6262
     3.1172   3.6426   4.8206   5.9416   7.8545  11.7537  15.5129

          k = 3.0760 1.7759 0.0412 (  6954 PWs)   bands (ev):

   -39.1065 -39.0245 -38.9212 -38.8118 -38.5908 -38.5676  -4.4468   2.9373
     4.0623   4.5045   6.0475   6.7304   8.7791   9.6681  12.4647

          k = 2.4608 1.4207 0.0823 (  6987 PWs)   bands (ev):

   -38.9897 -38.9453 -38.8854 -38.8220 -38.5494 -38.5253  -1.3518   2.9198
     4.7666   5.4011   6.2966   7.3972   8.5505  10.0633  10.2945

          k =-0.6152 0.3552 0.3294 (  7000 PWs)   bands (ev):

   -39.2247 -39.1134 -38.9756 -38.8271 -38.6409 -38.6191  -6.3533   1.6262
     3.1225   3.6260   4.8653   5.8804   7.9030  11.6895  15.5258

          k = 3.0760 2.4863 0.0823 (  6971 PWs)   bands (ev):

   -39.1412 -39.0499 -38.9356 -38.8141 -38.6048 -38.5820  -5.0786   2.5170
     3.7526   4.2306   5.7013   6.5483   9.0815  11.1737  11.9155

          k = 2.4608 2.1311 0.1235 (  6983 PWs)   bands (ev):

   -39.0205 -38.9645 -38.8918 -38.8154 -38.5586 -38.5347  -2.5703   4.2012
     5.0313   5.2671   6.1426   7.2498   8.2682  10.3444  11.0444

          k = 3.0760-1.7759-0.1647 (  6949 PWs)   bands (ev):

   -39.1065 -39.0245 -38.9212 -38.8118 -38.5908 -38.5676  -4.4468   2.9384
     4.0430   4.5321   6.0598   6.6767   8.8693   9.6418  12.2749

          k =-0.0000-0.0000 0.3705 (  7026 PWs)   bands (ev):

   -39.2731 -39.1513 -39.0012 -38.8386 -38.6628 -38.6416  -6.9955   1.1716
     2.8421   3.2987   4.5207   5.4347   7.3415  11.6626  17.2403

          k = 3.6912 2.1311 0.1235 (  7007 PWs)   bands (ev):

   -39.2247 -39.1134 -38.9756 -38.8271 -38.6409 -38.6191  -6.3533   1.6261
     3.1367   3.5920   4.9393   5.7972   7.9493  11.6510  15.5193

     the Fermi energy is     6.7389 ev

!    total energy              =     -94.49820016 Ry
     estimated scf accuracy    <          5.9E-11 Ry
     smearing contrib. (-TS)   =       0.00165047 Ry
     internal energy E=F+TS    =     -94.49985064 Ry

     The total energy is F=E-TS. E is the sum of the following terms:
     one-electron contribution =     -36.70367344 Ry
     hartree contribution      =      17.66214980 Ry
     xc contribution           =     -24.30785103 Ry
     ewald contribution        =     -51.15047596 Ry

     convergence has been achieved in  16 iterations

     Forces acting on atoms (cartesian axes, Ry/au):

     atom    1 type  1   force =     0.00000000   -0.00000000   -0.00005033
     atom    2 type  2   force =    -0.00000000   -0.00000000   -0.00004839
     atom    3 type  2   force =    -0.00000000    0.00000000   -0.00021058
     atom    4 type  2   force =    -0.00000000    0.00000000   -0.00001876
     atom    5 type  2   force =    -0.00000000   -0.00000000   -0.00005254
     atom    6 type  2   force =     0.00000000    0.00000000    0.00023215
     atom    7 type  2   force =     0.00000000   -0.00000000    0.00014844

     Total force =     0.000358     Total SCF correction =     0.000018


     Computing stress (Cartesian axis) and pressure

          total   stress  (Ry/bohr**3)                   (kbar)     P=      499.73
   0.00339711   0.00000000   0.00000000          499.73        0.00        0.00
  -0.00000000   0.00339711   0.00000000           -0.00      499.73        0.00
  -0.00000000   0.00000000   0.00339711           -0.00        0.00      499.73


     Writing all to output data dir ./output/SiLi.save/ :
     XML data file, charge density, pseudopotentials, collected wavefunctions

     init_run     :      1.69s CPU      2.16s WALL (       2 calls)
     electrons    :    372.54s CPU    387.79s WALL (      17 calls)
     update_pot   :      0.42s CPU      0.60s WALL (      15 calls)
     forces       :      1.08s CPU      1.70s WALL (      17 calls)
     stress       :      2.01s CPU      2.53s WALL (      17 calls)

     Called by init_run:
     wfcinit      :      1.07s CPU      1.21s WALL (       2 calls)
     potinit      :      0.08s CPU      0.11s WALL (       2 calls)
     hinit0       :      0.47s CPU      0.68s WALL (       2 calls)

     Called by electrons:
     c_bands      :    324.47s CPU    335.15s WALL (     186 calls)
     sum_band     :     42.76s CPU     44.43s WALL (     186 calls)
     v_of_rho     :      4.68s CPU      5.41s WALL (     202 calls)
     mix_rho      :      0.31s CPU      0.69s WALL (     186 calls)

     Called by c_bands:
     init_us_2    :      0.65s CPU      0.87s WALL (    8976 calls)
     ccgdiagg     :    241.98s CPU    247.96s WALL (    4093 calls)
     wfcrot       :     73.44s CPU     75.83s WALL (    3741 calls)

     Called by *cgdiagg:
     h_psi        :    297.17s CPU    304.25s WALL (  182354 calls)

     Called by h_psi:
     h_psi:calbec :      9.11s CPU      9.63s WALL (  182354 calls)
     vloc_psi     :    283.48s CPU    289.69s WALL (  182354 calls)
     add_vuspsi   :      3.94s CPU      4.13s WALL (  182354 calls)
     hs_1psi      :    225.65s CPU    230.92s WALL (  178613 calls)
     s_1psi       :      5.31s CPU      5.51s WALL (  178613 calls)

     General routines
     calbec       :     14.31s CPU     15.03s WALL (  362837 calls)
     fft          :      2.33s CPU      2.71s WALL (    2444 calls)
     ffts         :      0.17s CPU      0.19s WALL (     186 calls)
     fftw         :    299.02s CPU    305.00s WALL (  530924 calls)

     Parallel routines

     PWSCF        :    378.27s CPU    397.16s WALL


   This run was terminated on:  18:31: 4  31Mar2025            

=------------------------------------------------------------------------------=
   JOB DONE.
=------------------------------------------------------------------------------=
