
     Program PWSCF v.7.3.1 starts on 17Feb2025 at 13:57:42 

     This program is part of the open-source Quantum ESPRESSO suite
     for quantum simulation of materials; please cite
         "P. Giannozzi et al., J. Phys.:Condens. Matter 21 395502 (2009);
         "P. Giannozzi et al., J. Phys.:Condens. Matter 29 465901 (2017);
         "P. Giannozzi et al., J. Chem. Phys. 152 154105 (2020);
          URL http://www.quantum-espresso.org", 
     in publications or presentations arising from this work. More details at
     http://www.quantum-espresso.org/quote

     Parallel version (MPI & OpenMP), running on       8 processor cores
     Number of MPI processes:                 8
     Threads/MPI process:                     1

     MPI processes distributed on     1 nodes
     486015 MiB available memory on the printing compute node when the environment starts

     Waiting for input...
     Reading input from standard input

     Current dimensions of program PWSCF are:
     Max number of different atomic species (ntypx) = 10
     Max number of k-points (npk) =  40000
     Max angular momentum in pseudopotentials (lmaxx) =  4

     R & G space division:  proc/nbgrp/npool/nimage =       8
     Subspace diagonalization in iterative solution of the eigenvalue problem:
     a serial algorithm will be used


     Parallelization info
     --------------------
     sticks:   dense  smooth     PW     G-vecs:    dense   smooth      PW
     Min         328     328     92                12110    12110    1792
     Max         329     329     93                12113    12113    1795
     Sum        2629    2629    739                96889    96889   14345

     Using Slab Decomposition



     bravais-lattice index     =            5
     lattice parameter (alat)  =      10.4311  a.u.
     unit-cell volume          =    1003.7004 (a.u.)^3
     number of atoms/cell      =           14
     number of atomic types    =            2
     number of electrons       =        54.00
     number of Kohn-Sham states=           32
     kinetic-energy cutoff     =      80.0000  Ry
     charge density cutoff     =     320.0000  Ry
     scf convergence threshold =      1.0E-08
     mixing beta               =       0.7000
     number of iterations used =            8  plain     mixing
     energy convergence thresh.=      1.0E-04
     force convergence thresh. =      1.0E-03
     press convergence thresh. =      1.0E+00
     Exchange-correlation= PBE
                           (   1   4   3   4   0   0   0)
     nstep                     =           50


     celldm(1)=  10.431090  celldm(2)=   0.000000  celldm(3)=   0.000000
     celldm(4)=   0.301552  celldm(5)=   0.000000  celldm(6)=   0.000000

     crystal axes: (cart. coord. in units of alat)
               a(1) = (   0.590952  -0.341186   0.731005 )  
               a(2) = (   0.000000   0.682372   0.731005 )  
               a(3) = (  -0.590952  -0.341186   0.731005 )  

     reciprocal axes: (cart. coord. in units 2 pi/alat)
               b(1) = (  0.846093 -0.488492  0.455993 )  
               b(2) = (  0.000000  0.976984  0.455993 )  
               b(3) = ( -0.846093 -0.488492  0.455993 )  


     PseudoPot. # 1 for Si read from file:
     ../pseudo/Si_ONCV_PBE_sr.upf
     MD5 check sum: e543d271109d17c80368dfa7c482276d
     Pseudo is Norm-conserving + core correction, Zval =  4.0
     Generated using ONCVPSP code by D. R. Hamann
     Using radial grid of 1510 points,  6 beta functions with: 
                l(1) =   0
                l(2) =   0
                l(3) =   1
                l(4) =   1
                l(5) =   2
                l(6) =   2

     PseudoPot. # 2 for Li read from file:
     ../pseudo/Li_ONCV_PBE_sr.upf
     MD5 check sum: 50ff420e78310ffa21704f3361e624a4
     Pseudo is Norm-conserving, Zval =  3.0
     Generated using ONCVPSP code by D. R. Hamann
     Using radial grid of 1944 points,  4 beta functions with: 
                l(1) =   0
                l(2) =   0
                l(3) =   1
                l(4) =   1

     atomic species   valence    mass     pseudopotential
     Si                4.00    28.08550     Si( 1.00)
     Li                3.00     6.94100     Li( 1.00)

      6 Sym. Ops., with inversion, found



   Cartesian axes

     site n.     atom                  positions (alat units)
         1        Si     tau(   1) = (   0.0809344  -0.2440955   1.7016832  )
         2        Si     tau(   2) = (  -0.6718862  -0.7794631   0.4913309  )
         3        Si     tau(   3) = (  -0.4200261  -0.8314196   1.7016832  )
         4        Si     tau(   4) = (  -0.1709257  -0.1921390   0.4913309  )
         5        Si     tau(   5) = (   0.3390917  -0.9716021   1.7016832  )
         6        Si     tau(   6) = (  -0.9300436  -0.0519565   0.4913309  )
         7        Si     tau(   7) = (   0.0803364  -0.2533499   1.1710907  )
         8        Si     tau(   8) = (  -0.6712882  -0.7702088   1.0219234  )
         9        Si     tau(   9) = (  -0.4117126  -0.8273104   1.1710907  )
        10        Si     tau(  10) = (  -0.1792392  -0.1962483   1.0219234  )
        11        Si     tau(  11) = (   0.3313762  -0.9664570   1.1710907  )
        12        Si     tau(  12) = (  -0.9223281  -0.0571016   1.0219234  )
        13        Li     tau(  13) = (  -0.0000000  -0.0000000   0.3791985  )
        14        Li     tau(  14) = (  -0.0000000  -0.0000000   1.8138157  )

     number of k points=    40  Marzari-Vanderbilt smearing, width (Ry)=  0.0200
                       cart. coord. in units 2pi/alat
        k(    1) = (   0.0000000   0.0000000   0.0000000), wk =   0.0092593
        k(    2) = (  -0.1410154  -0.0814153   0.0759989), wk =   0.0555556
        k(    3) = (  -0.2820309  -0.1628306   0.1519978), wk =   0.0555556
        k(    4) = (   0.4230463   0.2442459  -0.2279967), wk =   0.0277778
        k(    5) = (  -0.1410154   0.0814153   0.1519978), wk =   0.0555556
        k(    6) = (  -0.2820309  -0.0000000   0.2279967), wk =   0.0555556
        k(    7) = (   0.4230463   0.4070765  -0.1519978), wk =   0.0555556
        k(    8) = (   0.2820309   0.3256612  -0.0759989), wk =   0.0555556
        k(    9) = (   0.1410154   0.2442459   0.0000000), wk =   0.0555556
        k(   10) = (  -0.2820309   0.1628306   0.3039956), wk =   0.0555556
        k(   11) = (   0.4230463   0.5699071  -0.0759989), wk =   0.0555556
        k(   12) = (   0.2820309   0.4884918   0.0000000), wk =   0.0555556
        k(   13) = (   0.4230463  -0.2442459  -0.4559934), wk =   0.0277778
        k(   14) = (  -0.0000000  -0.0000000   0.2279967), wk =   0.0185185
        k(   15) = (  -0.1410154  -0.0814153   0.3039956), wk =   0.0555556
        k(   16) = (   0.5640617   0.3256612  -0.0759989), wk =   0.0555556
        k(   17) = (   0.4230463   0.2442459   0.0000000), wk =   0.0555556
        k(   18) = (   0.2820309   0.1628306   0.0759989), wk =   0.0555556
        k(   19) = (  -0.1410154   0.0814153   0.3799945), wk =   0.0555556
        k(   20) = (   0.5640617   0.4884918   0.0000000), wk =   0.0555556
        k(   21) = (   0.4230463   0.4070765   0.0759989), wk =   0.0555556
        k(   22) = (   0.2820309   0.3256612   0.1519978), wk =   0.0555556
        k(   23) = (   0.5640617  -0.3256612  -0.3799945), wk =   0.0555556
        k(   24) = (   0.4230463  -0.4070765  -0.3039956), wk =   0.0555556
        k(   25) = (   0.2820309  -0.4884918  -0.2279967), wk =   0.0555556
        k(   26) = (   0.4230463  -0.2442459  -0.2279967), wk =   0.0555556
        k(   27) = (  -0.0000000  -0.0000000   0.4559934), wk =   0.0185185
        k(   28) = (   0.7050772   0.4070765   0.0759989), wk =   0.0555556
        k(   29) = (   0.5640617   0.3256612   0.1519978), wk =   0.0555556
        k(   30) = (   0.7050772  -0.4070765  -0.3039956), wk =   0.0555556
        k(   31) = (   0.5640617  -0.4884918  -0.2279967), wk =   0.0555556
        k(   32) = (   0.0000000   0.0000000  -0.6839901), wk =   0.0092593
        k(   33) = (  -0.2820309   0.0000000  -0.2279967), wk =   0.0555556
        k(   34) = (   0.4230463  -0.4070765   0.1519978), wk =   0.0555556
        k(   35) = (   0.2820309  -0.3256612   0.0759989), wk =   0.0555556
        k(   36) = (   0.4230463  -0.5699071   0.0759989), wk =   0.0555556
        k(   37) = (   0.5640617  -0.4884918  -0.0000000), wk =   0.0555556
        k(   38) = (   0.4230463  -0.4070765  -0.0759989), wk =   0.0555556
        k(   39) = (   0.2820309  -0.3256612  -0.1519978), wk =   0.0555556
        k(   40) = (   0.4230463   0.4070765   0.3039956), wk =   0.0555556

     Dense  grid:    96889 G-vectors     FFT dimensions: (  60,  60,  60)

     Estimated max dynamical RAM per process >      57.85 MB

     Estimated total dynamical RAM >     462.80 MB

     Initial potential from superposition of free atoms

     starting charge      53.9835, renormalised to      54.0000
     Starting wfcs are   52 randomized atomic wfcs

     total cpu time spent up to now is        5.2 secs

     per-process dynamical memory:    73.8 Mb

     Self-consistent Calculation

     iteration #  1     ecut=    80.00 Ry     beta= 0.70
     Davidson diagonalization with overlap
     ethr =  1.00E-02,  avg # of iterations =  5.5

     total cpu time spent up to now is       14.1 secs

     total energy              =    -122.66632329 Ry
     estimated scf accuracy    <       3.42811774 Ry

     iteration #  2     ecut=    80.00 Ry     beta= 0.70
     Davidson diagonalization with overlap
     ethr =  6.35E-03,  avg # of iterations =  3.1

     total cpu time spent up to now is       20.8 secs

     total energy              =    -123.75838065 Ry
     estimated scf accuracy    <       1.93616917 Ry

     iteration #  3     ecut=    80.00 Ry     beta= 0.70
     Davidson diagonalization with overlap
     ethr =  3.59E-03,  avg # of iterations =  2.0

     total cpu time spent up to now is       26.7 secs

     total energy              =    -124.09839721 Ry
     estimated scf accuracy    <       0.05282512 Ry

     iteration #  4     ecut=    80.00 Ry     beta= 0.70
     Davidson diagonalization with overlap
     ethr =  9.78E-05,  avg # of iterations =  8.2

     total cpu time spent up to now is       34.9 secs

     total energy              =    -124.11997497 Ry
     estimated scf accuracy    <       0.00660982 Ry

     iteration #  5     ecut=    80.00 Ry     beta= 0.70
     Davidson diagonalization with overlap
     c_bands:  1 eigenvalues not converged
     ethr =  1.22E-05,  avg # of iterations =  6.3

     total cpu time spent up to now is       42.6 secs

     total energy              =    -124.12176519 Ry
     estimated scf accuracy    <       0.00110449 Ry

     iteration #  6     ecut=    80.00 Ry     beta= 0.70
     Davidson diagonalization with overlap
     ethr =  2.05E-06,  avg # of iterations =  6.8

     total cpu time spent up to now is       49.9 secs

     total energy              =    -124.12194030 Ry
     estimated scf accuracy    <       0.00007187 Ry

     iteration #  7     ecut=    80.00 Ry     beta= 0.70
     Davidson diagonalization with overlap
     ethr =  1.33E-07,  avg # of iterations =  4.2

     total cpu time spent up to now is       56.9 secs

     total energy              =    -124.12196802 Ry
     estimated scf accuracy    <       0.00000063 Ry

     iteration #  8     ecut=    80.00 Ry     beta= 0.70
     Davidson diagonalization with overlap
     ethr =  1.16E-09,  avg # of iterations =  6.3

     total cpu time spent up to now is       66.5 secs

     total energy              =    -124.12196920 Ry
     estimated scf accuracy    <       0.00000014 Ry

     iteration #  9     ecut=    80.00 Ry     beta= 0.70
     Davidson diagonalization with overlap
     ethr =  2.56E-10,  avg # of iterations =  2.4

     total cpu time spent up to now is       72.4 secs

     End of self-consistent calculation

          k = 0.0000 0.0000 0.0000 ( 12111 PWs)   bands (ev):

   -37.4606 -37.4580  -4.9318  -1.3107  -1.3107  -0.7692  -0.7692   0.4388
     3.3710   4.9569   5.7232   5.7232   6.3309   6.5909   6.6272   6.6272
     7.1600   7.6715   7.6715   7.8054   7.8054   9.5912   9.9236  11.2554
    11.2554  11.5008  11.5008  13.8652  15.5331  15.7932  15.7932  16.3449

          k =-0.1410-0.0814 0.0760 ( 12105 PWs)   bands (ev):

   -37.4605 -37.4582  -4.8427  -1.9611  -1.6271  -0.4512  -0.2376   0.8968
     3.4756   4.5057   5.0381   5.3596   5.7617   6.2225   6.3911   7.0067
     7.5974   7.8552   7.9412   8.1999   9.0055   9.7723  10.0292  10.4248
    10.8415  12.3339  12.6003  14.1535  14.5211  15.2013  15.6645  15.9629

          k =-0.2820-0.1628 0.1520 ( 12134 PWs)   bands (ev):

   -37.4601 -37.4586  -4.6132  -2.7180  -1.9197  -0.3286   0.6950   1.8719
     3.1978   3.7778   4.6037   4.7064   5.2401   5.3941   6.2141   7.3916
     7.5320   8.1627   8.8079   9.0979   9.4422  10.4144  10.8333  11.0246
    11.4244  12.1615  13.1492  13.4489  13.8733  14.6962  14.8573  15.2532

          k = 0.4230 0.2442-0.2280 ( 12104 PWs)   bands (ev):

   -37.4598 -37.4589  -4.4467  -3.0706  -2.0201  -0.3045   1.7152   2.0075
     2.4990   4.0000   4.2089   4.5735   4.9037   5.0769   6.1619   7.0974
     7.6319   8.4103   8.8317   9.5918  10.6054  10.6612  11.4939  11.5288
    11.7699  11.9377  12.1610  13.0759  13.4544  14.2677  15.0312  15.2514

          k =-0.1410 0.0814 0.1520 ( 12112 PWs)   bands (ev):

   -37.4605 -37.4582  -4.8143  -1.8454  -1.7863  -0.5759  -0.1084   0.8695
     3.3196   4.4104   4.7377   5.4716   5.9194   6.4614   6.6286   7.1819
     7.3616   7.6165   8.2002   8.5547   9.0291   9.7512  10.2493  10.6016
    10.8638  12.3875  12.5057  13.6428  14.1017  14.6772  15.0214  15.9466

          k =-0.2820-0.0000 0.2280 ( 12142 PWs)   bands (ev):

   -37.4602 -37.4585  -4.6309  -2.4510  -2.0705  -0.1489   0.2023   1.6264
     3.3253   3.6072   4.2506   5.1996   5.4822   6.1213   6.3381   6.9820
     7.8005   8.3040   8.6891   9.1140   9.7516  10.0658  10.5829  11.2632
    11.4086  12.0145  12.7949  13.3111  13.6298  14.0721  14.8465  15.2470

          k = 0.4230 0.4071-0.1520 ( 12130 PWs)   bands (ev):

   -37.4598 -37.4589  -4.4166  -2.9543  -2.2747   0.0870   0.9284   2.0297
     3.0103   3.5320   4.2990   4.6286   5.1215   5.3539   6.2972   6.6507
     7.7579   8.4811   9.1599   9.7106  10.3570  10.8908  11.0334  11.5015
    12.0195  12.3297  12.5136  12.9504  13.5591  14.0091  14.4237  14.7916

          k = 0.2820 0.3257-0.0760 ( 12113 PWs)   bands (ev):

   -37.4598 -37.4589  -4.4700  -2.8782  -2.2976   0.0682   1.0398   1.9867
     2.9892   3.9556   4.3077   4.6244   4.6775   5.5380   6.2899   6.6733
     7.4701   8.6339   8.8020   9.2479   9.4894  11.0830  11.1982  11.6423
    12.2239  12.6918  12.8341  13.2036  13.7473  14.2484  14.7997  14.8805

          k = 0.1410 0.2442 0.0000 ( 12103 PWs)   bands (ev):

   -37.4602 -37.4585  -4.7030  -2.3684  -2.0777  -0.0822   0.1938   1.6743
     3.5381   3.8188   4.4180   5.0837   5.5061   5.8512   6.3473   6.7891
     7.3876   8.0869   8.5685   8.7340   9.1586  10.0734  10.4454  10.5978
    11.5177  12.5490  13.4195  14.2170  14.6394  14.8611  15.1017  15.4480

          k =-0.2820 0.1628 0.3040 ( 12134 PWs)   bands (ev):

   -37.4601 -37.4586  -4.5137  -2.5448  -2.2173  -0.5455   0.8877   1.8119
     3.0122   3.3827   3.8052   4.9198   5.3271   6.8174   6.9944   7.3847
     7.8324   8.1054   8.3709   9.1010   9.9128  10.7499  10.9675  11.4099
    11.7539  11.9019  12.2452  12.8684  13.6815  13.9094  14.5384  15.4175

          k = 0.4230 0.5699-0.0760 ( 12140 PWs)   bands (ev):

   -37.4597 -37.4589  -4.3419  -2.7888  -2.5256  -0.1380   1.1144   2.0559
     3.0493   3.0556   3.8662   4.5387   5.3381   5.9586   6.7324   7.2845
     7.7106   8.7752   9.2076   9.3427  10.1658  10.6253  11.0957  11.6308
    11.9739  12.2553  12.5795  13.3057  13.6553  13.8728  14.0846  14.8058

          k = 0.2820 0.4885 0.0000 ( 12132 PWs)   bands (ev):

   -37.4593 -37.4593  -4.3127  -2.8431  -2.6937   0.5596   1.1448   1.2770
     3.3497   4.0483   4.1021   4.4574   4.7400   5.0815   6.3882   7.1841
     7.4983   8.5887   8.7897   9.5668  10.3062  11.3949  11.6775  11.9958
    12.2391  12.5318  12.5797  13.0833  13.7361  13.8752  14.1349  14.5600

          k = 0.4230-0.2442-0.4560 ( 12092 PWs)   bands (ev):

   -37.4597 -37.4589  -4.2944  -2.9017  -2.3688  -0.5564   1.9021   2.1375
     2.4374   2.8664   3.8804   4.0695   5.4095   6.8017   7.1126   7.2974
     8.2563   8.6126   8.8092   9.6717   9.9590  10.2810  10.6831  11.0375
    12.0397  12.4290  13.1681  13.4207  13.6451  13.7242  14.4437  14.7658

          k =-0.0000-0.0000 0.2280 ( 12148 PWs)   bands (ev):

   -37.4606 -37.4580  -4.8489  -1.3918  -1.3918  -0.7590  -0.7590   0.3784
     2.9134   4.5975   5.6258   5.6258   6.2308   6.8146   6.9498   6.9498
     7.7048   7.7048   7.8441   8.4178   8.4178   9.9065  10.6984  11.2041
    11.2041  11.4690  11.4690  13.4603  13.4603  13.5417  15.0045  16.2997

          k =-0.1410-0.0814 0.3040 ( 12140 PWs)   bands (ev):

   -37.4605 -37.4582  -4.7185  -2.1086  -1.6095  -0.4251  -0.3628   0.8228
     2.7244   4.4663   4.9115   5.5313   5.7987   5.9939   7.1277   7.2907
     7.8486   8.2141   8.7957   8.9744   9.2845   9.9339  10.4063  10.9440
    11.4056  11.5451  12.5115  12.9142  13.0129  14.0307  14.2347  15.1732

          k = 0.5641 0.3257-0.0760 ( 12127 PWs)   bands (ev):

   -37.4601 -37.4586  -4.4919  -2.8038  -1.9562  -0.3624   0.5979   1.8017
     2.7878   3.3762   4.7902   4.9869   5.4027   5.5085   6.5021   7.5388
     7.6997   8.4981   9.0202   9.5428  10.2324  10.5028  10.8734  11.2521
    11.5665  12.0512  12.5842  12.6877  13.7063  14.0925  14.1721  14.9195

          k = 0.4230 0.2442 0.0000 ( 12110 PWs)   bands (ev):

   -37.4598 -37.4589  -4.4182  -3.0081  -2.1151  -0.3835   1.7388   2.0687
     2.4520   3.3532   4.1367   4.6997   5.4885   5.5435   6.2419   7.1173
     7.7032   8.1508   8.7505   9.2539   9.9120  10.8564  11.2728  11.9557
    12.1420  12.5052  12.8847  13.2147  13.6603  14.4867  14.7389  14.8915

          k = 0.2820 0.1628 0.0760 ( 12123 PWs)   bands (ev):

   -37.4601 -37.4586  -4.6258  -2.5748  -2.0592  -0.4372   0.8447   1.8851
     3.2110   3.7881   3.9409   4.8978   5.7348   5.9702   6.1290   7.3350
     7.5434   7.8071   8.3781   8.8010   9.3758  10.1963  10.8386  11.1038
    11.4875  12.8179  13.6226  13.9969  14.1911  14.4855  14.6729  15.3295

          k =-0.1410 0.0814 0.3800 ( 12143 PWs)   bands (ev):

   -37.4604 -37.4582  -4.6560  -1.9132  -1.8953  -0.6586  -0.1254   0.7684
     2.3848   4.4962   4.8520   5.2131   6.0524   6.9223   7.0908   7.3409
     7.8242   8.3870   8.7530   9.1408   9.6646   9.8822  10.5712  11.1649
    11.2802  11.9200  12.1971  12.6066  12.7353  13.6857  13.7856  15.2037

          k = 0.5641 0.4885 0.0000 ( 12129 PWs)   bands (ev):

   -37.4602 -37.4585  -4.4776  -2.5158  -2.1628  -0.2032   0.1180   1.5477
     2.3688   3.7414   4.6949   5.0289   5.6716   6.1997   7.0406   7.3007
     8.1013   8.6833   9.0721   9.4116  10.1523  10.4728  10.4956  11.1840
    11.6824  11.8284  12.5966  12.7716  13.2778  13.6518  14.4555  14.7017

          k = 0.4230 0.4071 0.0760 ( 12130 PWs)   bands (ev):

   -37.4597 -37.4589  -4.3322  -2.9112  -2.4036  -0.0204   0.8954   2.1304
     2.6423   3.1139   4.6396   4.9821   5.0398   5.6041   6.4558   7.0938
     7.6196   8.6318   9.3319   9.5500   9.9428  10.7666  11.5342  11.6625
    12.1288  12.3634  13.0246  13.1559  13.5801  13.7894  14.2428  14.4651

          k = 0.2820 0.3257 0.1520 ( 12123 PWs)   bands (ev):

   -37.4598 -37.4589  -4.4365  -2.7879  -2.4245  -0.0555   1.1497   1.9810
     3.0203   3.3987   4.2093   4.6083   5.4045   5.5506   6.1606   7.1533
     7.4368   8.3813   8.7761   9.3769   9.8575  10.6998  11.3365  11.7195
    11.9886  12.8013  13.1725  13.5232  13.6222  13.8035  14.1259  14.7799

          k = 0.5641-0.3257-0.3800 ( 12126 PWs)   bands (ev):

   -37.4600 -37.4586  -4.3824  -2.6451  -2.2470  -0.5651   0.7743   1.7025
     2.3027   3.4861   4.3086   4.8670   5.4730   7.0008   7.1867   7.4228
     7.9544   8.8582   8.9801   9.1778   9.9927  10.6030  10.9350  11.1524
    11.4408  12.0688  12.5455  12.9109  13.4379  14.0553  14.1883  14.4028

          k = 0.4230-0.4071-0.3040 ( 12117 PWs)   bands (ev):

   -37.4597 -37.4589  -4.2904  -2.8288  -2.5329  -0.1209   0.9728   2.1067
     2.6151   3.0314   4.3726   4.7274   5.4404   5.9328   6.2976   7.4101
     7.9399   8.7817   9.2958   9.3588  10.3741  10.8074  11.2142  11.2861
    11.8502  12.4047  12.5978  13.3977  13.6819  13.9843  13.9998  14.4315

          k = 0.2820-0.4885-0.2280 ( 12126 PWs)   bands (ev):

   -37.4593 -37.4593  -4.3122  -2.8630  -2.6723   0.5612   1.1102   1.3116
     3.1816   4.0799   4.4141   4.4993   4.8247   5.0195   5.8577   7.1618
     7.6887   8.4932   9.2914   9.4542  10.7411  10.9746  11.5000  11.8679
    12.1795  12.5392  12.7123  12.9405  13.2694  13.9000  14.1767  14.8315

          k = 0.4230-0.2442-0.2280 ( 12104 PWs)   bands (ev):

   -37.4597 -37.4589  -4.3428  -2.9211  -2.2888  -0.5079   1.8269   2.1243
     2.3870   2.9275   4.0831   4.3977   5.6105   6.4879   6.6657   6.8485
     7.9408   8.4377   8.6960   9.3953  10.2044  10.7049  11.1278  11.6678
    11.8975  12.2513  13.0754  13.3107  13.5641  14.0108  14.5016  14.9047

          k =-0.0000-0.0000 0.4560 ( 12172 PWs)   bands (ev):

   -37.4606 -37.4581  -4.6679  -1.4951  -1.4951  -0.8149  -0.8149   0.2848
     1.9406   4.5447   5.9298   5.9298   6.2306   6.9684   7.2311   7.2311
     7.9408   7.9408   9.0321   9.4025   9.4025   9.9468  11.1376  11.1376
    11.4174  11.4174  11.8460  11.8460  12.5694  12.9432  14.2345  15.1745

          k = 0.7051 0.4071 0.0760 ( 12152 PWs)   bands (ev):

   -37.4604 -37.4582  -4.5498  -2.1406  -1.7513  -0.5342  -0.3769   0.7427
     1.8453   4.5419   5.0517   5.8449   6.1952   6.2951   7.3033   7.5150
     8.3610   8.5724   9.0921   9.3872   9.6611  10.0770  10.4557  10.9518
    11.2991  11.8769  12.3318  12.8253  13.1779  13.4892  13.8497  14.1737

          k = 0.5641 0.3257 0.1520 ( 12116 PWs)   bands (ev):

   -37.4600 -37.4586  -4.3742  -2.7587  -2.1245  -0.4887   0.6341   1.7109
     2.1648   3.4899   4.8051   4.9106   6.1460   6.2279   6.3968   7.4742
     7.7175   8.7571   9.0183  10.1307  10.2007  10.4375  10.9011  11.1443
    11.6365  11.7359  12.7312  13.2483  13.4693  13.9337  14.2403  14.7572

          k = 0.7051-0.4071-0.3040 ( 12161 PWs)   bands (ev):

   -37.4604 -37.4582  -4.5149  -2.0406  -1.8960  -0.6436  -0.2673   0.7167
     1.6953   4.5454   5.1188   5.5469   6.4793   6.8879   7.0813   7.6710
     8.3431   8.6741   9.0432   9.2388   9.5587   9.9163  10.6137  10.8693
    11.7302  12.0516  12.2832  12.8700  13.1256  13.3447  13.5921  14.2784

          k = 0.5641-0.4885-0.2280 ( 12136 PWs)   bands (ev):

   -37.4602 -37.4585  -4.3958  -2.5040  -2.2515  -0.2001   0.0388   1.5192
     1.9349   3.8258   4.8572   5.3783   5.8898   6.3920   6.5134   7.6370
     8.3244   8.6665   8.9979   9.6627  10.1127  10.5431  10.7101  11.3182
    11.6375  12.0400  12.1942  12.7815  13.2963  13.8903  14.1414  14.6335

          k = 0.0000 0.0000-0.6840 ( 12190 PWs)   bands (ev):

   -37.4606 -37.4581  -4.5683  -1.5265  -1.5265  -0.8697  -0.8697   0.2573
     1.4927   4.5133   6.2795   6.2795   6.3214   7.2122   7.3427   7.3427
     8.5304   8.5304   8.6411   8.6411   9.3061   9.9715  11.1524  11.1524
    11.3962  11.3962  12.1700  13.1722  13.1722  13.3021  13.3021  13.6397

          k =-0.2820 0.0000-0.2280 ( 12142 PWs)   bands (ev):

   -37.4602 -37.4585  -4.6309  -2.4509  -2.0711  -0.1461   0.1997   1.6359
     3.2403   3.6310   4.3516   5.2343   5.5899   5.8291   6.3047   6.9607
     8.1442   8.4885   8.6663   8.8287   9.4840  10.1908  10.5987  11.1513
    11.6458  12.0368  12.5187  13.2582  13.8390  14.2787  15.0465  15.3848

          k = 0.4230-0.4071 0.1520 ( 12130 PWs)   bands (ev):

   -37.4598 -37.4589  -4.4166  -2.9542  -2.2751   0.0893   0.9248   2.0498
     2.9436   3.5711   4.2827   4.6682   5.1174   5.5748   5.8506   6.8364
     7.8423   8.4512   9.1380   9.8685  10.2282  10.6920  11.1455  11.6479
    11.8116  12.2589  12.6261  12.7942  13.7092  14.0732  14.9164  14.9759

          k = 0.2820-0.3257 0.0760 ( 12113 PWs)   bands (ev):

   -37.4598 -37.4589  -4.4700  -2.8780  -2.2979   0.0703   1.0367   1.9750
     3.0408   3.9061   4.3042   4.5398   4.7359   5.6636   6.0814   6.8781
     7.6053   8.2352   8.5056   9.4437  10.1432  10.7551  11.2722  11.5322
    12.1336  12.3947  12.9696  13.4572  13.7209  14.3387  14.5577  15.1458

          k = 0.4230-0.5699 0.0760 ( 12140 PWs)   bands (ev):

   -37.4597 -37.4589  -4.3418  -2.7885  -2.5262  -0.1366   1.1106   2.0917
     2.8253   3.2571   3.8189   4.6362   5.3478   5.9029   6.5344   7.3016
     8.2315   8.4670   9.1197   9.3609  10.1915  10.6087  10.9870  11.4661
    12.3230  12.4215  12.5565  13.0777  13.3037  14.0717  14.5216  14.8615

          k = 0.5641-0.4885-0.0000 ( 12129 PWs)   bands (ev):

   -37.4602 -37.4585  -4.4776  -2.5155  -2.1636  -0.2016   0.1173   1.5566
     2.3498   3.7349   4.7724   4.9762   5.6963   6.2454   6.7807   7.3596
     8.5100   8.6186   8.8732   9.4422  10.0676  10.2543  10.6386  11.1698
    11.6705  12.0922  12.4959  12.7206  13.2693  13.8923  14.3101  14.4783

          k = 0.4230-0.4071-0.0760 ( 12130 PWs)   bands (ev):

   -37.4597 -37.4589  -4.3322  -2.9110  -2.4044  -0.0169   0.8922   2.0964
     2.7858   2.9939   4.5782   4.9775   5.0570   5.8398   6.2750   7.0669
     7.7358   8.3847   9.1446   9.8189  10.4410  10.6205  11.3635  11.5486
    11.8099  12.4704  13.1084  13.3657  13.5234  13.7819  14.0803  14.7310

          k = 0.2820-0.3257-0.1520 ( 12123 PWs)   bands (ev):

   -37.4598 -37.4589  -4.4364  -2.7876  -2.4253  -0.0519   1.1382   2.0023
     3.0116   3.3682   4.2100   4.6521   5.3432   5.8092   5.8948   7.0638
     7.6967   8.4523   8.4979   9.3372  10.1157  10.5225  11.3580  11.8542
    12.1579  12.4219  12.9892  13.2868  13.5220  14.3462  14.5807  15.0159

          k = 0.4230 0.4071 0.3040 ( 12117 PWs)   bands (ev):

   -37.4597 -37.4589  -4.2904  -2.8289  -2.5326  -0.1224   0.9751   2.1624
     2.4795   3.1294   4.3503   4.7654   5.3513   5.8673   6.5131   7.2631
     8.0728   8.7360   9.1300   9.4311  10.1457  11.0530  11.2782  11.4295
    12.1831  12.2482  12.5853  13.1078  13.3543  13.5233  14.4758  14.6339

     the Fermi energy is    12.8811 ev

!    total energy              =    -124.12196923 Ry
     estimated scf accuracy    <          2.4E-09 Ry
     smearing contrib. (-TS)   =       0.00140838 Ry
     internal energy E=F+TS    =    -124.12337761 Ry

     The total energy is F=E-TS. E is the sum of the following terms:
     one-electron contribution =      16.89886587 Ry
     hartree contribution      =      24.21402911 Ry
     xc contribution           =     -49.53483993 Ry
     ewald contribution        =    -115.70143266 Ry

     convergence has been achieved in   9 iterations

     Forces acting on atoms (cartesian axes, Ry/au):

     atom    1 type  1   force =    -0.18338934   -0.20293124   -0.77780302
     atom    2 type  1   force =     0.18338934    0.20293124    0.77780302
     atom    3 type  1   force =     0.26743828   -0.05735421   -0.77780302
     atom    4 type  1   force =    -0.26743828    0.05735421    0.77780302
     atom    5 type  1   force =    -0.08404894    0.26028545   -0.77780302
     atom    6 type  1   force =     0.08404894   -0.26028545    0.77780302
     atom    7 type  1   force =     0.04330734   -0.31579197    1.20310715
     atom    8 type  1   force =    -0.04330734    0.31579197   -1.20310715
     atom    9 type  1   force =     0.25183019    0.19540124    1.20310715
     atom   10 type  1   force =    -0.25183019   -0.19540124   -1.20310715
     atom   11 type  1   force =    -0.29513753    0.12039073    1.20310715
     atom   12 type  1   force =     0.29513753   -0.12039073   -1.20310715
     atom   13 type  2   force =    -0.00000000    0.00000000   -0.60352383
     atom   14 type  2   force =     0.00000000    0.00000000    0.60352383

     Total force =     3.755213     Total SCF correction =     0.000028


     Computing stress (Cartesian axis) and pressure

          total   stress  (Ry/bohr**3)                   (kbar)     P=     2004.19
   0.01511182  -0.00000000   0.00000000         2223.03       -0.00        0.00
   0.00000000   0.01511182   0.00000000            0.00     2223.03        0.00
  -0.00000000   0.00000000   0.01064904           -0.00        0.00     1566.53


     BFGS Geometry Optimization
     Energy error            =      0.0E+00 Ry
     Gradient error          =      1.2E+00 Ry/Bohr
     Cell gradient error     =      1.7E+03 kbar

     number of scf cycles    =   1
     number of bfgs steps    =   0

     enthalpy           new  =    -120.7104609620 Ry

     new trust radius        =       0.5000000000 bohr
ibrav =      5
 celldm(1) =     11.08773205
 celldm(4) =      0.28041940
Input lattice vectors:
     0.63758450    -0.36810958     0.76671052
    -0.00000000     0.73621916     0.76671052
    -0.63758450    -0.36810958     0.76671052
New lattice vectors in INITIAL alat:
     0.63758450    -0.36810958     0.76671052
     0.00000000     0.73621916     0.76671052
    -0.63758450    -0.36810958     0.76671052
New lattice vectors in NEW alat (for information only):
     0.59982523    -0.34630926     0.72130409
     0.00000000     0.69261851     0.72130409
    -0.59982523    -0.34630926     0.72130409
Discrepancy in bohr =     0.000000    0.000000    0.000000
     new conv_thr            =       0.0000000100 Ry

     new unit-cell volume =   1225.42473 a.u.^3 (   181.58921 Ang^3 )
     density =      3.20887 g/cm^3

CELL_PARAMETERS (alat= 10.43109018)
   0.637584497  -0.368109581   0.766710516
   0.000000000   0.736219162   0.766710516
  -0.637584497  -0.368109581   0.766710516

ATOMIC_POSITIONS (crystal)
Si               0.9530624750        0.5231941031        0.8241237486
Si               0.0469375250       -0.5231941031        1.1758762514
Si               0.8241237486       -0.0469375250        1.5231941031
Si               0.1758762514        0.0469375250        0.4768058969
Si               1.5231941031       -0.1758762514        0.9530624750
Si              -0.5231941031        0.1758762514        1.0469375250
Si               0.7448461329        0.2926935441        0.6070088484
Si               0.2551538671       -0.2926935441        1.3929911516
Si               0.6070088484       -0.2551538671        1.2926935441
Si               0.3929911516        0.2551538671        0.7073064559
Si               1.2926935441       -0.3929911516        0.7448461329
Si              -0.2926935441        0.3929911516        1.2551538671
Li               0.1658022035        0.1658022035        0.1658022035
Li               0.8341977965        0.8341977965        0.8341977965



     Writing config-only to output data dir ./output/SiLi.save/ :
     XML data file
     NEW-OLD atomic charge density approx. for the potential

     negative rho (up, down):  8.120E-04 0.000E+00

     total cpu time spent up to now is       88.2 secs

     per-process dynamical memory:    97.2 Mb

     Self-consistent Calculation

     iteration #  1     ecut=    80.00 Ry     beta= 0.70
     Davidson diagonalization with overlap
     c_bands:  1 eigenvalues not converged
     c_bands:  1 eigenvalues not converged
     c_bands:  1 eigenvalues not converged
     c_bands:  1 eigenvalues not converged
     c_bands:  2 eigenvalues not converged
     c_bands:  2 eigenvalues not converged
     c_bands:  2 eigenvalues not converged
     c_bands:  2 eigenvalues not converged
     c_bands:  1 eigenvalues not converged
     c_bands:  3 eigenvalues not converged
     c_bands:  3 eigenvalues not converged
     c_bands:  2 eigenvalues not converged
     c_bands:  1 eigenvalues not converged
     c_bands:  1 eigenvalues not converged
     c_bands:  3 eigenvalues not converged
     c_bands:  1 eigenvalues not converged
     c_bands:  1 eigenvalues not converged
     c_bands:  2 eigenvalues not converged
     c_bands:  2 eigenvalues not converged
     c_bands:  1 eigenvalues not converged
     c_bands:  1 eigenvalues not converged
     c_bands:  2 eigenvalues not converged
     c_bands:  1 eigenvalues not converged
     c_bands:  3 eigenvalues not converged
     c_bands:  1 eigenvalues not converged
     c_bands:  2 eigenvalues not converged
     c_bands:  2 eigenvalues not converged
     c_bands:  3 eigenvalues not converged
     c_bands:  3 eigenvalues not converged
     c_bands:  3 eigenvalues not converged
     c_bands:  1 eigenvalues not converged
     c_bands:  3 eigenvalues not converged
     c_bands:  1 eigenvalues not converged
     c_bands:  2 eigenvalues not converged
     ethr =  1.00E-06,  avg # of iterations = 19.8

     total cpu time spent up to now is      116.2 secs

     total energy              =    -128.13195337 Ry
     estimated scf accuracy    <       0.55332769 Ry

     iteration #  2     ecut=    80.00 Ry     beta= 0.70
     Davidson diagonalization with overlap
     ethr =  1.02E-03,  avg # of iterations =  3.1

     total cpu time spent up to now is      123.2 secs

     total energy              =    -128.25271277 Ry
     estimated scf accuracy    <       0.74867295 Ry

     iteration #  3     ecut=    80.00 Ry     beta= 0.70
     Davidson diagonalization with overlap
     ethr =  1.02E-03,  avg # of iterations =  2.0

     total cpu time spent up to now is      129.3 secs

     total energy              =    -128.38775555 Ry
     estimated scf accuracy    <       0.03093880 Ry

     iteration #  4     ecut=    80.00 Ry     beta= 0.70
     Davidson diagonalization with overlap
     ethr =  5.73E-05,  avg # of iterations =  3.8

     total cpu time spent up to now is      136.0 secs

     total energy              =    -128.39626100 Ry
     estimated scf accuracy    <       0.00045319 Ry

     iteration #  5     ecut=    80.00 Ry     beta= 0.70
     Davidson diagonalization with overlap
     ethr =  8.39E-07,  avg # of iterations = 10.2

     total cpu time spent up to now is      146.6 secs

     total energy              =    -128.39677728 Ry
     estimated scf accuracy    <       0.00015066 Ry

     iteration #  6     ecut=    80.00 Ry     beta= 0.70
     Davidson diagonalization with overlap
     ethr =  2.79E-07,  avg # of iterations =  2.0

     total cpu time spent up to now is      152.2 secs

     total energy              =    -128.39679175 Ry
     estimated scf accuracy    <       0.00001831 Ry

     iteration #  7     ecut=    80.00 Ry     beta= 0.70
     Davidson diagonalization with overlap
     ethr =  3.39E-08,  avg # of iterations =  3.9

     total cpu time spent up to now is      158.9 secs

     total energy              =    -128.39679618 Ry
     estimated scf accuracy    <       0.00000115 Ry

     iteration #  8     ecut=    80.00 Ry     beta= 0.70
     Davidson diagonalization with overlap
     ethr =  2.12E-09,  avg # of iterations =  4.4

     total cpu time spent up to now is      166.2 secs

     total energy              =    -128.39679663 Ry
     estimated scf accuracy    <       0.00000034 Ry

     iteration #  9     ecut=    80.00 Ry     beta= 0.70
     Davidson diagonalization with overlap
     ethr =  6.32E-10,  avg # of iterations =  2.2

     total cpu time spent up to now is      172.4 secs

     total energy              =    -128.39679670 Ry
     estimated scf accuracy    <       0.00000001 Ry

     iteration # 10     ecut=    80.00 Ry     beta= 0.70
     Davidson diagonalization with overlap
     ethr =  1.94E-11,  avg # of iterations =  5.7

     total cpu time spent up to now is      180.2 secs

     End of self-consistent calculation

          k = 0.0000 0.0000 0.0000 ( 12111 PWs)   bands (ev):

   -37.0666 -37.0656  -5.0352  -1.7474  -1.7474  -1.4777  -1.4777   0.1025
     1.6933   3.9814   4.0765   4.0765   4.1245   4.1245   4.3193   4.8023
     5.5698   5.5698   5.7156   6.2512   6.2512   6.6838   9.0888   9.5414
     9.5414   9.7069   9.7069  11.1498  12.4999  12.8201  12.8201  13.0625

          k =-0.1307-0.0755 0.0725 ( 12105 PWs)   bands (ev):

   -37.0665 -37.0657  -4.9388  -2.4310  -2.0726  -1.1104  -0.9619   0.4901
     1.8418   3.2608   3.4579   3.5782   3.7093   4.3982   4.7598   5.0885
     5.2952   5.7978   6.0125   6.6295   7.0920   7.3043   8.2563   8.6568
     9.2351  10.3625  10.7383  11.6792  11.7214  12.1593  12.5462  12.9657

          k =-0.2614-0.1509 0.1449 ( 12134 PWs)   bands (ev):

   -37.0664 -37.0658  -4.6725  -3.1985  -2.3254  -0.9880  -0.1420   1.3186
     1.9749   2.4604   2.9038   2.9680   3.2008   3.9275   4.4582   5.8882
     6.1601   6.1972   6.6460   6.7725   7.3127   7.8019   8.3865   9.1025
     9.2868   9.9016  10.2885  10.5843  11.8106  12.1828  12.3641  12.6393

          k = 0.3921 0.2264-0.2174 ( 12104 PWs)   bands (ev):

   -37.0662 -37.0659  -4.4373  -3.6105  -2.4097  -0.9704   0.7660   0.9949
     1.9730   2.3528   2.7440   2.9284   3.0281   3.4479   4.4936   5.5315
     6.2651   6.8081   7.1549   7.2655   7.5972   8.1115   8.1663   9.0676
     9.2046   9.5938   9.9278  10.5980  11.3513  11.6039  12.7474  12.8829

          k =-0.1307 0.0755 0.1449 ( 12112 PWs)   bands (ev):

   -37.0665 -37.0657  -4.9005  -2.3031  -2.2467  -1.3206  -0.7679   0.4470
     1.7370   2.6676   3.5856   3.6379   4.3054   4.4393   4.7050   5.0761
     5.3812   5.9791   6.1725   6.6938   7.2806   7.5734   8.1539   8.6905
     9.3116  10.3716  10.5271  11.0038  11.2571  11.7105  12.0762  13.0438

          k =-0.2614-0.0000 0.2174 ( 12142 PWs)   bands (ev):

   -37.0664 -37.0658  -4.6845  -2.9273  -2.5056  -0.9126  -0.5044   1.1067
     1.8097   2.1229   2.6954   3.5462   4.1086   4.3673   4.4789   5.3460
     5.9397   6.0373   7.0747   7.1895   7.4212   8.0870   8.2129   8.9058
     9.2740   9.7121  10.2252  10.5314  11.0709  11.6551  12.2009  12.5592

          k = 0.3921 0.3773-0.1449 ( 12130 PWs)   bands (ev):

   -37.0662 -37.0659  -4.3977  -3.4873  -2.6941  -0.5940   0.0174   1.2005
     1.9733   2.0966   2.3590   3.3682   3.7991   3.9065   4.5760   4.9126
     6.0235   6.3627   7.4205   7.4839   7.5957   8.1340   8.6130   9.0902
     9.6524   9.7831  10.0626  10.6101  11.0749  11.3204  11.9588  12.1489

          k = 0.2614 0.3018-0.0725 ( 12113 PWs)   bands (ev):

   -37.0663 -37.0659  -4.4969  -3.3480  -2.7360  -0.6215   0.1818   1.0841
     2.0511   2.4815   2.5156   3.1696   3.2186   4.1862   4.7354   4.9982
     5.5739   6.2073   6.4957   6.8755   7.8037   8.2824   8.8077   9.5244
     9.9063  10.0817  10.3896  10.7509  11.3137  11.6492  12.0349  12.3919

          k = 0.1307 0.2264 0.0000 ( 12103 PWs)   bands (ev):

   -37.0664 -37.0658  -4.7890  -2.7687  -2.5618  -0.7574  -0.5707   1.2251
     2.0377   2.4372   2.9247   3.0556   4.1354   4.3220   4.5494   5.0456
     5.4204   5.4865   6.4485   6.9819   7.4418   7.5751   8.1473   8.6271
     9.8478  10.3972  11.3172  11.6118  11.8574  12.1232  12.2500  12.3864

          k =-0.2614 0.1509 0.2898 ( 12134 PWs)   bands (ev):

   -37.0663 -37.0658  -4.5308  -2.9427  -2.7381  -1.3608   0.1327   1.2189
     1.6611   1.7892   2.3500   3.5232   3.9179   5.1945   5.2746   5.4581
     5.7489   6.2229   6.4042   7.4144   7.8579   8.1523   8.6701   8.8355
     9.3195   9.4109   9.6185  10.2780  11.1677  11.7606  12.0391  12.7035

          k = 0.3921 0.5282-0.0725 ( 12140 PWs)   bands (ev):

   -37.0662 -37.0659  -4.2834  -3.2590  -3.0449  -0.9742   0.3109   1.2114
     1.5644   1.9345   2.2069   3.3742   4.1048   4.8805   5.0656   5.1505
     5.8041   6.5196   7.1068   7.2602   7.5312   7.7984   8.9072   9.2864
     9.6496   9.7267   9.9324  10.7236  11.1536  11.5132  11.8473  12.1319

          k = 0.2614 0.4528 0.0000 ( 12132 PWs)   bands (ev):

   -37.0661 -37.0661  -4.2525  -3.3446  -3.1822  -0.2383   0.2975   0.3922
     1.8465   2.0814   3.2073   3.4095   3.5731   4.1022   4.8563   5.0259
     5.3322   6.4111   6.5303   6.6913   8.3931   8.6544   9.2886   9.5045
     9.9033  10.1423  10.3967  10.8405  11.0464  11.2224  11.6022  11.7368

          k = 0.3921-0.2264-0.4348 ( 12092 PWs)   bands (ev):

   -37.0662 -37.0659  -4.1930  -3.3965  -2.8892  -1.4029   0.9828   1.1621
     1.3452   1.6255   2.4183   2.7161   4.1689   4.9789   5.9639   6.0321
     6.2788   6.6326   6.7875   6.9831   7.1491   7.5196   8.2078   8.4469
     9.4958   9.7407  10.8404  10.9624  11.4584  11.6634  12.1402  12.2770

          k = 0.0000 0.0000 0.2174 ( 12148 PWs)   bands (ev):

   -37.0666 -37.0656  -4.9233  -1.8969  -1.8969  -1.4226  -1.4226  -0.0445
     1.3462   3.1005   3.5840   3.5840   4.6800   5.1160   5.2377   5.2377
     5.8375   5.8375   6.1444   6.3635   6.3635   7.9561   9.1199   9.3342
     9.3342   9.5839   9.5839  10.5575  10.5575  11.0166  11.7311  13.0637

          k =-0.1307-0.0755 0.2898 ( 12140 PWs)   bands (ev):

   -37.0665 -37.0657  -4.7653  -2.6397  -2.0325  -1.1530  -1.0744   0.3064
     1.1787   3.0457   3.1094   3.7783   3.8898   4.6960   5.2980   5.5611
     5.9249   6.5988   6.8165   7.1013   7.3621   8.1275   8.5053   8.6800
     8.8234   9.2197   9.8569  10.4407  10.9051  11.0905  11.7599  12.2226

          k = 0.5228 0.3018-0.0725 ( 12127 PWs)   bands (ev):

   -37.0663 -37.0658  -4.4820  -3.3358  -2.3754  -1.0579  -0.2879   1.1005
     1.3253   2.3086   3.1148   3.1502   3.6732   4.2087   4.8536   6.1055
     6.3473   6.5042   6.9928   7.2432   7.5808   8.1163   8.6908   8.9251
     9.1793   9.5626   9.6883  10.0313  11.1000  11.6193  11.8051  12.1713

          k = 0.3921 0.2264 0.0000 ( 12110 PWs)   bands (ev):

   -37.0662 -37.0659  -4.4086  -3.5026  -2.5474  -1.1165   0.7632   1.0861
     1.5197   2.2629   2.5401   3.2748   3.4490   4.0958   4.7280   5.4867
     5.9454   6.2890   6.7351   7.0783   7.3326   8.1727   8.4838   9.3813
     9.9387  10.2482  10.5415  10.9451  11.0960  11.6416  11.8494  12.0926

          k = 0.2614 0.1509 0.0725 ( 12123 PWs)   bands (ev):

   -37.0664 -37.0658  -4.6976  -2.9762  -2.5267  -1.1800   0.0777   1.4328
     1.8825   2.0735   2.6374   3.4505   3.7700   4.2292   4.5959   5.4047
     5.4756   6.1204   6.2809   6.5826   7.5297   7.9606   8.0623   9.3413
     9.3472  10.7508  11.0056  11.3769  11.6136  11.9895  12.0504  12.3755

          k =-0.1307 0.0755 0.3623 ( 12143 PWs)   bands (ev):

   -37.0665 -37.0657  -4.6756  -2.4680  -2.3176  -1.4581  -0.8066   0.2240
     0.8263   2.8117   3.2995   3.8084   4.4590   5.0248   5.2171   5.7733
     6.1119   6.6498   6.9625   7.3799   7.8509   7.9134   8.1941   8.4555
     9.0955   9.3803   9.6865  10.1095  10.5851  10.8893  11.3768  11.9824

          k = 0.5228 0.4528 0.0000 ( 12129 PWs)   bands (ev):

   -37.0664 -37.0658  -4.4481  -3.0276  -2.6426  -1.0096  -0.6483   0.7685
     0.9562   2.4582   3.0507   3.5356   4.4157   4.5969   5.4813   5.7000
     6.1497   6.8613   7.0785   7.1948   7.6215   8.0583   8.3733   8.9839
     9.1254   9.5416   9.9473  10.1106  10.6871  11.0853  11.6120  11.9299

          k = 0.3921 0.3773 0.0725 ( 12130 PWs)   bands (ev):

   -37.0662 -37.0659  -4.2591  -3.4306  -2.8875  -0.7898  -0.0353   1.0379
     1.4719   2.0352   3.0411   3.4719   3.8585   4.5654   4.8036   5.1756
     5.5348   6.6855   6.9201   7.0310   7.9494   8.1143   8.9887   9.4058
     9.4944  10.2529  10.4325  10.6830  10.7606  11.4404  11.5972  11.7996

          k = 0.2614 0.3018 0.1449 ( 12123 PWs)   bands (ev):

   -37.0662 -37.0659  -4.4512  -3.2031  -2.9241  -0.8388   0.3703   1.0485
     1.6489   2.2785   2.8087   3.2614   3.6007   4.2702   4.8406   5.1736
     5.3633   5.9014   6.9312   7.1747   7.4601   8.3971   8.9339   9.3723
     9.8454   9.9887  10.5703  10.8442  11.2007  11.3807  11.7206  12.5579

          k = 0.5228-0.3018-0.3623 ( 12126 PWs)   bands (ev):

   -37.0663 -37.0658  -4.3107  -3.1223  -2.7744  -1.3990  -0.0479   0.5510
     1.2363   2.4604   2.5768   3.5482   4.1182   5.5383   5.7722   5.8413
     6.0151   6.5534   7.0187   7.2392   7.4560   7.8426   8.3573   8.4918
     9.4020   9.6301   9.9306  10.4187  10.9978  11.5728  11.6228  11.6807

          k = 0.3921-0.3773-0.2898 ( 12117 PWs)   bands (ev):

   -37.0662 -37.0659  -4.1840  -3.3290  -3.0648  -0.9537   0.0700   0.8780
     1.5145   2.0638   2.7880   3.5355   4.0987   4.4989   5.0125   5.4924
     5.8525   6.4517   7.0379   7.1545   7.9846   8.3017   8.5375   9.0699
     9.4355   9.9490  10.0103  10.6472  11.2229  11.3750  11.7963  11.9927

          k = 0.2614-0.4528-0.2174 ( 12126 PWs)   bands (ev):

   -37.0661 -37.0661  -4.2485  -3.4005  -3.1234  -0.2301   0.1903   0.4923
     1.4726   3.0103   3.1844   3.3255   3.4368   3.7426   4.3862   4.9479
     5.7625   6.0592   7.1636   7.3342   8.0813   8.3170   8.8856   9.5826
    10.0304  10.1685  10.3571  10.5195  10.8458  11.3083  11.5628  12.0870

          k = 0.3921-0.2264-0.2174 ( 12104 PWs)   bands (ev):

   -37.0662 -37.0659  -4.2924  -3.3828  -2.7847  -1.3279   0.8593   0.9206
     1.3357   2.2273   2.4722   3.0356   4.2318   4.6386   4.8591   5.2890
     6.1190   6.5310   6.6424   7.2761   7.7213   8.0539   8.5872   9.1049
     9.2870   9.5515  10.5335  11.0561  11.1962  11.5688  12.1459  12.2949

          k = 0.0000 0.0000 0.4348 ( 12172 PWs)   bands (ev):

   -37.0665 -37.0657  -4.6649  -2.0138  -2.0138  -1.5373  -1.5373  -0.2628
     0.3417   3.0607   4.0719   4.0719   4.8309   5.1745   5.6526   5.6526
     6.4066   6.4066   7.4407   7.4407   7.4414   7.8558   7.8558   9.1338
     9.4454   9.4454   9.7763   9.7763   9.8482  10.2710  10.9839  11.8339

          k = 0.6535 0.3773 0.0725 ( 12152 PWs)   bands (ev):

   -37.0665 -37.0657  -4.5124  -2.6798  -2.2322  -1.2716  -1.1824   0.1490
     0.2258   3.1621   3.7454   4.1879   4.3015   4.8960   5.7643   6.1276
     6.2338   6.8631   7.0690   7.4213   7.6329   8.1510   8.3410   8.6019
     8.9128   9.1046   9.5641  10.4368  10.6286  10.9116  11.3258  11.4105

          k = 0.5228 0.3018 0.1449 ( 12116 PWs)   bands (ev):

   -37.0663 -37.0658  -4.2908  -3.2838  -2.6105  -1.2832  -0.2475   0.4378
     1.1541   2.4940   3.4479   3.5931   4.2151   4.6605   4.7415   5.8171
     6.4094   6.8581   7.1528   7.3323   7.6845   7.9150   8.4855   8.8954
     9.2464   9.4315   9.9810  10.5507  10.7280  11.3974  11.8067  12.1371

          k = 0.6535-0.3773-0.2898 ( 12161 PWs)   bands (ev):

   -37.0665 -37.0657  -4.4575  -2.5355  -2.4361  -1.4443  -1.0270   0.0045
     0.1663   3.1487   3.9005   3.9657   5.0997   5.3779   5.5203   5.7296
     6.1341   6.8015   6.9608   7.5036   7.5375   8.2529   8.3339   8.8001
     9.0484   9.2356   9.7815  10.2474  10.5247  10.6047  11.1316  11.5594

          k = 0.5228-0.4528-0.2174 ( 12136 PWs)   bands (ev):

   -37.0664 -37.0658  -4.3117  -2.9997  -2.7909  -0.9911  -0.8056   0.2966
     0.8775   2.7466   3.4693   4.0198   4.1398   4.8805   5.3293   5.7420
     6.3230   6.5551   7.1176   7.2925   7.9480   8.2790   8.5342   8.9437
     9.2903   9.3324   9.6652   9.9112  10.7812  10.8564  11.8461  12.0177

          k = 0.0000 0.0000-0.6521 ( 12190 PWs)   bands (ev):

   -37.0665 -37.0657  -4.5113  -2.0139  -2.0139  -1.6651  -1.6651  -0.3276
    -0.1611   3.0282   5.0956   5.0956   5.0971   5.4057   5.4685   5.4685
     6.2176   6.2176   6.7024   6.7024   7.5777   8.9959   8.9959   9.0675
     9.4441   9.4441   9.9188   9.9471   9.9471  10.0392  10.6420  10.6420

          k =-0.2614 0.0000-0.2174 ( 12142 PWs)   bands (ev):

   -37.0664 -37.0658  -4.6845  -2.9298  -2.5025  -0.9058  -0.5131   1.0987
     1.7715   2.1929   2.7111   3.5271   4.0996   4.1904   4.7345   5.1097
     6.0738   6.1973   6.9068   7.1675   7.3979   8.0740   8.4870   8.6505
     9.3262   9.7103  10.3081  10.4779  10.8002  11.9716  12.2727  12.7712

          k = 0.3921-0.3773 0.1449 ( 12130 PWs)   bands (ev):

   -37.0662 -37.0659  -4.3975  -3.4883  -2.6932  -0.5870   0.0112   1.1618
     1.9600   2.1625   2.4203   3.2519   3.8427   3.8800   4.5242   5.0096
     6.0019   6.3591   7.2754   7.4069   7.9751   8.1216   8.7604   8.8414
     9.5526   9.6298  10.1705  10.3855  11.2305  11.6007  11.9288  12.4172

          k = 0.2614-0.3018 0.0725 ( 12113 PWs)   bands (ev):

   -37.0663 -37.0659  -4.4970  -3.3478  -2.7364  -0.6174   0.1702   1.0932
     2.1744   2.3468   2.4384   3.1363   3.4167   4.1106   4.6729   5.0930
     5.5292   6.0719   6.7266   6.8181   7.8119   8.3441   8.7485   9.5733
     9.6189   9.9775  10.6821  10.8299  11.2207  11.8020  12.0747  12.2995

          k = 0.3921-0.5282 0.0725 ( 12140 PWs)   bands (ev):

   -37.0662 -37.0659  -4.2831  -3.2633  -3.0407  -0.9718   0.3123   1.1417
     1.7051   1.8180   2.2784   3.3494   4.1473   4.7111   5.0636   5.1783
     5.9463   6.5485   7.0303   7.2066   7.5125   8.1446   8.6069   9.0239
     9.4243   9.9957  10.2605  10.9146  11.0195  11.3209  11.7984  12.1871

          k = 0.5228-0.4528-0.0000 ( 12129 PWs)   bands (ev):

   -37.0664 -37.0658  -4.4480  -3.0304  -2.6395  -1.0048  -0.6526   0.7596
     0.9498   2.5587   2.9468   3.5398   4.3100   4.9690   5.0943   5.7952
     6.1148   6.9363   7.0386   7.1938   7.7340   8.2768   8.4046   8.7143
     8.9026   9.5674   9.7910  10.3961  10.5269  11.4003  11.6729  11.9809

          k = 0.3921-0.3773-0.0725 ( 12130 PWs)   bands (ev):

   -37.0662 -37.0659  -4.2588  -3.4320  -2.8863  -0.7840  -0.0391   0.9813
     1.5521   2.0239   3.0477   3.4316   3.8569   4.5753   4.8585   5.2185
     5.4528   6.5089   6.8796   7.1470   8.1242   8.5897   8.6444   9.1962
     9.2937  10.0271  10.5731  10.7887  11.0081  11.3238  11.5945  11.9280

          k = 0.2614-0.3018-0.1449 ( 12123 PWs)   bands (ev):

   -37.0662 -37.0659  -4.4510  -3.2058  -2.9215  -0.8330   0.3406   1.1023
     1.5940   2.2873   2.8715   3.2279   3.6447   4.2324   4.7151   5.0777
     5.5029   6.1260   6.7557   7.1179   7.4718   8.5608   8.8650   9.3488
     9.8288  10.0126  10.4323  10.8146  11.1993  11.5240  11.8724  12.2963

          k = 0.3921 0.3773 0.2898 ( 12117 PWs)   bands (ev):

   -37.0662 -37.0659  -4.1840  -3.3287  -3.0651  -0.9546   0.0782   0.8511
     1.5487   2.0708   2.7410   3.5029   4.2620   4.5209   4.8673   5.4072
     5.9048   6.5593   7.0248   7.2391   7.6678   8.3137   8.7171   9.1772
     9.3044  10.0113  10.3154  10.4450  10.9795  11.2503  11.9410  12.0232

     the Fermi energy is    10.4429 ev

!    total energy              =    -128.39679671 Ry
     estimated scf accuracy    <          4.9E-09 Ry
     smearing contrib. (-TS)   =      -0.00092339 Ry
     internal energy E=F+TS    =    -128.39587332 Ry

     The total energy is F=E-TS. E is the sum of the following terms:
     one-electron contribution =      20.81479698 Ry
     hartree contribution      =      17.49797682 Ry
     xc contribution           =     -46.50187927 Ry
     ewald contribution        =    -120.20676786 Ry

     convergence has been achieved in  10 iterations

     Forces acting on atoms (cartesian axes, Ry/au):

     atom    1 type  1   force =    -0.01718089   -0.13255231   -0.32680643
     atom    2 type  1   force =     0.01718089    0.13255231    0.32680643
     atom    3 type  1   force =     0.12338412    0.05139707   -0.32680643
     atom    4 type  1   force =    -0.12338412   -0.05139707    0.32680643
     atom    5 type  1   force =    -0.10620322    0.08115525   -0.32680643
     atom    6 type  1   force =     0.10620322   -0.08115525    0.32680643
     atom    7 type  1   force =    -0.01222535   -0.05891893    0.36333623
     atom    8 type  1   force =     0.01222535    0.05891893   -0.36333623
     atom    9 type  1   force =     0.05713797    0.01887200    0.36333623
     atom   10 type  1   force =    -0.05713797   -0.01887200   -0.36333623
     atom   11 type  1   force =    -0.04491261    0.04004693    0.36333623
     atom   12 type  1   force =     0.04491261   -0.04004693   -0.36333623
     atom   13 type  2   force =     0.00000000    0.00000000   -0.37774700
     atom   14 type  2   force =    -0.00000000   -0.00000000    0.37774700

     Total force =     1.359116     Total SCF correction =     0.000108


     Computing stress (Cartesian axis) and pressure

          total   stress  (Ry/bohr**3)                   (kbar)     P=      587.52
   0.00410340   0.00000000  -0.00000000          603.63        0.00       -0.00
  -0.00000000   0.00410340   0.00000000           -0.00      603.63        0.00
  -0.00000000   0.00000000   0.00377492           -0.00        0.00      555.31

     Energy error            =      3.5E+00 Ry
     Gradient error          =      3.8E-01 Ry/Bohr
     Cell gradient error     =      1.0E+02 kbar

     number of scf cycles    =   2
     number of bfgs steps    =   1

     enthalpy           old  =    -120.7104609620 Ry
     enthalpy           new  =    -124.2316627047 Ry

     CASE: enthalpy          _new < enthalpy          _old

     new trust radius        =       0.4315295738 bohr
ibrav =      5
 celldm(1) =     10.81365846
 celldm(4) =      0.28723268
Input lattice vectors:
     0.61887343    -0.35730674     0.75101546
     0.00000000     0.71461349     0.75101546
    -0.61887343    -0.35730674     0.75101546
New lattice vectors in INITIAL alat:
     0.61887343    -0.35730674     0.75101546
     0.00000000     0.71461349     0.75101546
    -0.61887343    -0.35730674     0.75101546
New lattice vectors in NEW alat (for information only):
     0.59697878    -0.34466586     0.72444585
     0.00000000     0.68933172     0.72444585
    -0.59697878    -0.34466586     0.72444585
Discrepancy in bohr =     0.000000    0.000000    0.000000
     new conv_thr            =       0.0000000100 Ry

     new unit-cell volume =   1130.92103 a.u.^3 (   167.58521 Ang^3 )
     density =      3.47702 g/cm^3

CELL_PARAMETERS (alat= 10.43109018)
   0.618873434  -0.357306744   0.751015458
   0.000000000   0.714613488   0.751015458
  -0.618873434  -0.357306744   0.751015458

ATOMIC_POSITIONS (crystal)
Si               0.9477751091        0.4956749590        0.8169380765
Si               0.0522248909       -0.4956749590        1.1830619235
Si               0.8169380765       -0.0522248909        1.4956749590
Si               0.1830619235        0.0522248909        0.5043250410
Si               1.4956749590       -0.1830619235        0.9477751091
Si              -0.4956749590        0.1830619235        1.0522248909
Si               0.7556251870        0.3024719109        0.6220616843
Si               0.2443748130       -0.3024719109        1.3779383157
Si               0.6220616843       -0.2443748130        1.3024719109
Si               0.3779383157        0.2443748130        0.6975280891
Si               1.3024719109       -0.3779383157        0.7556251870
Si              -0.3024719109        0.3779383157        1.2443748130
Li               0.1478164686        0.1478164686        0.1478164686
Li               0.8521835314        0.8521835314        0.8521835314



     Writing config-only to output data dir ./output/SiLi.save/ :
     XML data file
     NEW-OLD atomic charge density approx. for the potential

     total cpu time spent up to now is      195.7 secs

     per-process dynamical memory:    97.2 Mb

     Self-consistent Calculation

     iteration #  1     ecut=    80.00 Ry     beta= 0.70
     Davidson diagonalization with overlap
     c_bands:  2 eigenvalues not converged
     c_bands:  3 eigenvalues not converged
     c_bands:  3 eigenvalues not converged
     c_bands:  1 eigenvalues not converged
     c_bands:  2 eigenvalues not converged
     c_bands:  1 eigenvalues not converged
     c_bands:  2 eigenvalues not converged
     c_bands:  2 eigenvalues not converged
     c_bands:  2 eigenvalues not converged
     c_bands:  3 eigenvalues not converged
     c_bands:  2 eigenvalues not converged
     c_bands:  3 eigenvalues not converged
     c_bands:  3 eigenvalues not converged
     c_bands:  2 eigenvalues not converged
     c_bands:  1 eigenvalues not converged
     c_bands:  1 eigenvalues not converged
     c_bands:  2 eigenvalues not converged
     c_bands:  1 eigenvalues not converged
     c_bands:  3 eigenvalues not converged
     c_bands:  2 eigenvalues not converged
     c_bands:  2 eigenvalues not converged
     c_bands:  3 eigenvalues not converged
     c_bands:  1 eigenvalues not converged
     c_bands:  2 eigenvalues not converged
     c_bands:  3 eigenvalues not converged
     c_bands:  3 eigenvalues not converged
     c_bands:  3 eigenvalues not converged
     c_bands:  3 eigenvalues not converged
     c_bands:  2 eigenvalues not converged
     c_bands:  1 eigenvalues not converged
     c_bands:  2 eigenvalues not converged
     c_bands:  2 eigenvalues not converged
     c_bands:  1 eigenvalues not converged
     c_bands:  3 eigenvalues not converged
     c_bands:  2 eigenvalues not converged
     c_bands:  3 eigenvalues not converged
     ethr =  1.00E-06,  avg # of iterations = 19.9

     total cpu time spent up to now is      223.1 secs

     total energy              =    -129.22272900 Ry
     estimated scf accuracy    <       0.25299143 Ry

     iteration #  2     ecut=    80.00 Ry     beta= 0.70
     Davidson diagonalization with overlap
     ethr =  4.69E-04,  avg # of iterations =  3.2

     total cpu time spent up to now is      229.8 secs

     total energy              =    -129.30335094 Ry
     estimated scf accuracy    <       0.16658578 Ry

     iteration #  3     ecut=    80.00 Ry     beta= 0.70
     Davidson diagonalization with overlap
     ethr =  3.08E-04,  avg # of iterations =  2.1

     total cpu time spent up to now is      235.4 secs

     total energy              =    -129.33084022 Ry
     estimated scf accuracy    <       0.00301749 Ry

     iteration #  4     ecut=    80.00 Ry     beta= 0.70
     Davidson diagonalization with overlap
     c_bands:  1 eigenvalues not converged
     ethr =  5.59E-06,  avg # of iterations =  7.6

     total cpu time spent up to now is      244.1 secs

     total energy              =    -129.33256018 Ry
     estimated scf accuracy    <       0.00099881 Ry

     iteration #  5     ecut=    80.00 Ry     beta= 0.70
     Davidson diagonalization with overlap
     ethr =  1.85E-06,  avg # of iterations =  4.5

     total cpu time spent up to now is      250.8 secs

     total energy              =    -129.33271726 Ry
     estimated scf accuracy    <       0.00020794 Ry

     iteration #  6     ecut=    80.00 Ry     beta= 0.70
     Davidson diagonalization with overlap
     ethr =  3.85E-07,  avg # of iterations =  2.1

     total cpu time spent up to now is      256.3 secs

     total energy              =    -129.33273312 Ry
     estimated scf accuracy    <       0.00002453 Ry

     iteration #  7     ecut=    80.00 Ry     beta= 0.70
     Davidson diagonalization with overlap
     ethr =  4.54E-08,  avg # of iterations =  4.3

     total cpu time spent up to now is      263.3 secs

     total energy              =    -129.33274260 Ry
     estimated scf accuracy    <       0.00000143 Ry

     iteration #  8     ecut=    80.00 Ry     beta= 0.70
     Davidson diagonalization with overlap
     ethr =  2.65E-09,  avg # of iterations =  4.4

     total cpu time spent up to now is      270.0 secs

     total energy              =    -129.33274299 Ry
     estimated scf accuracy    <       0.00000009 Ry

     iteration #  9     ecut=    80.00 Ry     beta= 0.70
     Davidson diagonalization with overlap
     ethr =  1.65E-10,  avg # of iterations =  4.5

     total cpu time spent up to now is      277.4 secs

     End of self-consistent calculation

          k = 0.0000 0.0000 0.0000 ( 12111 PWs)   bands (ev):

   -34.5153 -34.5138  -3.9295  -0.0916  -0.0916   0.2143   0.2143   1.7661
     2.8271   4.0344   4.0344   4.1934   4.1934   4.5696   4.7081   6.5790
     6.7009   7.0266   7.4675   7.4675   8.3181   8.3181  11.1421  11.8962
    11.8962  12.0459  12.0459  12.9740  13.7627  13.7675  13.7675  14.3726

          k =-0.1347-0.0777 0.0740 ( 12105 PWs)   bands (ev):

   -34.5153 -34.5139  -3.8149  -0.9158  -0.3565   0.6179   0.6877   2.1334
     3.0074   3.1881   3.8156   3.8290   4.6186   5.2543   5.3712   5.6709
     6.5351   6.9062   7.5202   7.8274   8.7629   9.3964  10.4261  10.9152
    11.3264  11.9516  12.4486  12.8480  13.0544  13.6686  14.0469  14.1944

          k =-0.2693-0.1555 0.1479 ( 12134 PWs)   bands (ev):

   -34.5151 -34.5141  -3.4919  -1.8422  -0.5593   0.7169   1.4990   2.5909
     2.6732   3.2616   3.5192   3.7271   3.9425   5.2235   5.5444   6.7642
     6.8361   7.4029   7.9701   8.2388   8.5558   9.6002   9.9397  10.4285
    10.6192  11.0096  11.5640  11.8664  13.0516  13.7526  13.7927  14.2236

          k = 0.4040 0.2332-0.2219 ( 12104 PWs)   bands (ev):

   -34.5149 -34.5142  -3.1862  -2.3605  -0.6228   0.7240   2.3629   2.3854
     2.7755   2.8180   3.2594   3.5380   4.0087   4.9045   6.1333   6.9272
     7.8075   8.0160   8.1462   8.4696   8.6955   8.8610   9.4689   9.5338
     9.8597  10.5430  11.4571  11.9848  13.5428  13.6042  14.1634  14.2043

          k =-0.1347 0.0777 0.1479 ( 12112 PWs)   bands (ev):

   -34.5152 -34.5139  -3.7546  -0.8195  -0.5249   0.2057   1.1073   1.9989
     2.5926   2.8966   3.9802   4.1935   4.6559   5.4129   5.4573   6.2044
     6.5145   6.8263   7.8708   8.1206   8.8268   9.3990  10.2007  10.9391
    11.2262  11.6895  12.3295  12.4489  12.5527  13.0885  13.7852  13.8603

          k =-0.2693-0.0000 0.2219 ( 12142 PWs)   bands (ev):

   -34.5151 -34.5141  -3.4788  -1.5627  -0.7872   0.5918   1.2935   2.0303
     2.5634   2.8805   3.9482   4.3437   4.5312   5.0793   6.2224   6.4737
     6.7012   7.2794   7.7221   8.8334   9.0900   9.3536   9.8960  10.4455
    10.8206  10.8678  11.4903  12.2012  12.2931  13.0574  13.2582  13.6510

          k = 0.4040 0.3887-0.1479 ( 12130 PWs)   bands (ev):

   -34.5149 -34.5142  -3.1149  -2.2270  -1.0091   1.0949   1.5433   1.9143
     2.5567   3.0599   3.6242   4.2302   4.5164   5.4898   6.0222   6.7854
     7.1959   7.4422   7.7952   8.3448   8.5847   9.2154   9.6417  10.2705
    10.4922  11.0986  11.6753  11.8163  12.5919  12.9227  13.3924  14.0050

          k = 0.2693 0.3110-0.0740 ( 12113 PWs)   bands (ev):

   -34.5149 -34.5142  -3.2921  -1.9587  -1.1200   1.0493   1.7289   2.2926
     2.5245   2.8876   3.8772   4.4129   4.5240   5.2301   5.7220   6.1909
     6.7530   6.9018   7.4581   8.1898   8.8262   9.4333  10.4164  10.6045
    11.0291  11.0637  11.9634  12.2114  12.5897  13.1528  13.3299  13.8603

          k = 0.1347 0.2332 0.0000 ( 12103 PWs)   bands (ev):

   -34.5151 -34.5140  -3.6484  -1.2068  -1.0051   0.9502   1.0548   2.7265
     2.7646   3.1411   3.8127   4.1269   4.7081   4.9106   5.2794   5.6502
     6.3041   6.8931   7.5041   7.9245   9.2510   9.4102  10.2059  10.5776
    12.0184  12.1671  12.2652  12.5373  12.7373  13.2104  13.3588  13.7426

          k =-0.2693 0.1555 0.2959 ( 12134 PWs)   bands (ev):

   -34.5150 -34.5142  -3.2562  -1.3714  -1.3285   0.0225   1.6023   2.0166
     2.1063   3.1594   4.0796   4.8465   5.1397   5.4779   5.6736   6.3072
     6.9235   7.8821   8.2956   8.4065   9.0136   9.3438   9.7654  10.0822
    10.3202  10.8558  11.2292  11.8099  12.5203  12.9996  13.5883  13.8169

          k = 0.4040 0.5442-0.0740 ( 12140 PWs)   bands (ev):

   -34.5148 -34.5144  -2.9107  -1.9076  -1.5845   0.4307   1.5067   1.7633
     2.3664   3.1942   3.9839   5.1670   5.4254   5.6480   6.0062   6.7102
     6.9085   7.2973   7.6278   8.1310   8.5789   9.1904   9.6669  10.2490
    10.6432  11.1487  11.8127  12.0380  12.4884  12.6606  12.9805  13.7390

          k = 0.2693 0.4665 0.0000 ( 12132 PWs)   bands (ev):

   -34.5147 -34.5144  -2.9466  -1.9362  -1.7405   1.3117   1.5669   1.7085
     2.3673   2.4756   5.0538   5.2138   5.4459   5.4860   5.8566   5.9112
     6.2138   6.5048   7.5315   7.8309   8.8699   9.8062  10.2426  10.5198
    10.8283  11.3114  11.6970  12.0558  12.8391  13.0638  13.3052  13.6065

          k = 0.4040-0.2332-0.4438 ( 12092 PWs)   bands (ev):

   -34.5146 -34.5145  -2.7293  -1.9979  -1.5606  -0.0640   1.4571   1.6310
     2.9320   3.0940   4.1962   4.4113   5.7733   6.2298   6.4286   6.7812
     7.2729   7.2965   7.7711   7.8389   8.3934   9.2293   9.3726   9.5420
    10.5764  10.8747  11.6475  11.8327  12.7579  13.2642  13.7672  13.9912

          k = 0.0000-0.0000 0.2219 ( 12148 PWs)   bands (ev):

   -34.5153 -34.5139  -3.7515  -0.4125  -0.4125   0.4138   0.4138   1.3927
     2.1683   3.3660   3.3660   3.8188   5.6648   5.7872   5.7872   6.6244
     7.1459   7.6090   7.6090   8.4474   8.4474   8.5553  10.7400  10.7400
    11.1977  11.8422  11.8422  12.2252  12.5514  12.5514  12.9853  13.9332

          k =-0.1347-0.0777 0.2959 ( 12140 PWs)   bands (ev):

   -34.5152 -34.5140  -3.5302  -1.2858  -0.2623   0.3497   0.6444   1.6545
     1.9052   2.9159   3.5939   4.4602   5.5849   5.7252   5.9777   6.7910
     7.2576   7.8283   8.1316   8.8805   8.8947   9.3999  10.0392  10.2069
    10.7163  10.7765  11.2627  11.3297  12.2466  12.5572  12.9450  13.7236

          k = 0.5386 0.3110-0.0740 ( 12127 PWs)   bands (ev):

   -34.5150 -34.5142  -3.1630  -2.0718  -0.6770   0.4694   1.2402   1.6463
     2.6893   2.8549   3.7088   4.2487   5.1202   5.7168   5.8172   7.1093
     7.4635   7.8212   8.3181   8.5415   8.7141   9.4968   9.8211   9.9251
    10.4682  10.7191  11.0818  11.6423  12.1346  12.2196  12.8715  13.6863

          k = 0.4040 0.2332 0.0000 ( 12110 PWs)   bands (ev):

   -34.5149 -34.5142  -3.1633  -2.1060  -0.9407   0.3342   1.6958   2.3655
     2.9674   3.2357   3.5347   3.9142   4.9299   5.4172   5.7144   6.2968
     6.7720   6.8659   8.3813   8.4824   9.0463   9.3753   9.6559  10.1010
    11.2231  11.3732  11.5536  11.7516  12.5869  12.7808  13.3128  13.8100

          k = 0.2693 0.1555 0.0740 ( 12123 PWs)   bands (ev):

   -34.5151 -34.5141  -3.5360  -1.3868  -0.9957   0.2835   1.8671   2.0450
     3.1253   3.7025   3.7933   4.0081   4.4606   4.8218   5.4066   5.7870
     6.2860   7.0326   8.0564   8.1714   8.5975   9.4783  10.2263  11.0427
    11.4573  11.7898  12.1054  12.4498  12.5139  13.1212  13.2389  13.6316

          k =-0.1347 0.0777 0.3699 ( 12143 PWs)   bands (ev):

   -34.5151 -34.5140  -3.3705  -1.0995  -0.7065  -0.0148   1.0011   1.0440
     1.7927   2.8634   4.4320   4.4527   5.6687   5.8902   6.6476   6.9610
     7.4105   8.0800   8.2307   8.7512   9.2253   9.3610   9.6946  10.2151
    10.3238  10.7071  11.1831  11.4257  11.8965  12.4868  12.8357  12.8811

          k = 0.5386 0.4665 0.0000 ( 12129 PWs)   bands (ev):

   -34.5149 -34.5142  -3.0486  -1.7224  -1.1150   0.4311   0.6623   1.2624
     2.4860   2.8796   4.5496   4.9046   4.9924   6.3366   6.7241   6.8439
     7.2607   7.5918   7.9255   8.5621   8.9117   9.4369   9.6505  10.5435
    10.7322  10.8722  11.1361  11.2876  11.8701  12.2233  12.7198  12.8092

          k = 0.4040 0.3887 0.0740 ( 12130 PWs)   bands (ev):

   -34.5148 -34.5144  -2.8909  -2.0426  -1.4388   0.5345   1.1081   1.6312
     2.9523   3.5928   3.7234   4.8994   5.1942   5.5704   6.2016   6.4988
     6.7806   7.0009   7.7385   8.2614   8.8194   9.5861  10.0950  10.3462
    10.7121  11.3820  11.6013  11.9815  12.1442  12.5847  12.7848  13.4595

          k = 0.2693 0.3110 0.1479 ( 12123 PWs)   bands (ev):

   -34.5149 -34.5142  -3.2214  -1.6994  -1.4264   0.5749   1.4192   2.2103
     2.8662   3.6250   3.8075   4.3141   4.8863   5.0985   5.6089   6.2414
     6.8705   6.9193   7.3939   8.5322   8.7719   9.2601  10.2050  10.8053
    11.0615  11.5575  11.6471  12.1339  12.2330  12.7877  13.4221  13.8302

          k = 0.5386-0.3110-0.3699 ( 12126 PWs)   bands (ev):

   -34.5148 -34.5143  -2.8177  -1.7227  -1.4301  -0.0645   0.6036   1.6599
     2.6360   2.9962   4.4923   5.0440   5.7898   6.1022   6.4917   6.6835
     7.4142   7.7741   7.9910   8.3867   8.6970   8.9952   9.7117   9.8195
    10.5594  10.9254  11.1308  11.4831  12.3053  12.7115  12.8150  13.5760

          k = 0.4040-0.3887-0.2959 ( 12117 PWs)   bands (ev):

   -34.5146 -34.5145  -2.7240  -1.9075  -1.7278   0.3591   0.7364   1.8260
     2.9591   3.6484   3.8002   5.0481   5.4224   5.7547   6.2888   6.4366
     7.0105   7.3064   7.8104   8.3170   8.6819   9.1806   9.6765  10.0623
    10.5147  11.1023  11.7077  11.9695  12.0478  13.0066  13.5984  13.7175

          k = 0.2693-0.4665-0.2219 ( 12126 PWs)   bands (ev):

   -34.5147 -34.5144  -2.9293  -2.1214  -1.5128   0.9790   1.3444   2.0163
     2.3025   3.6774   3.7499   4.9244   5.0914   5.4670   5.6379   6.4830
     6.6671   7.0801   7.7218   8.1539   8.8797   9.0754   9.3618  10.2713
    11.2395  11.4903  12.0496  12.3879  12.7893  13.0200  13.1006  13.2902

          k = 0.4040-0.2332-0.2219 ( 12104 PWs)   bands (ev):

   -34.5147 -34.5144  -2.9675  -1.8340  -1.3865  -0.0272   0.8869   2.5484
     3.1975   3.3259   3.9905   4.6672   4.8812   5.2990   6.0931   6.1660
     6.6049   7.7358   8.2695   8.5948   9.0282   9.3526   9.5834  10.0832
    10.1407  10.7185  11.3167  12.1040  12.8121  12.9837  13.6143  13.7749

          k = 0.0000-0.0000 0.4438 ( 12172 PWs)   bands (ev):

   -34.5151 -34.5140  -3.2868  -0.5906  -0.5906   0.1097   0.1097   0.4032
     1.1803   4.0869   4.0869   4.2752   5.6951   7.0656   7.4452   7.4452
     7.9239   7.9239   8.5601   8.5601   8.9631   9.0819   9.0819   9.9269
    11.0728  11.5672  11.6374  11.6374  11.7558  11.7558  11.9194  12.7456

          k = 0.6733 0.3887 0.0740 ( 12152 PWs)   bands (ev):

   -34.5150 -34.5141  -3.0412  -1.3427  -0.6790  -0.0103   0.2741   0.4925
     1.6096   4.0442   4.4466   4.7599   5.9873   6.1593   6.8546   7.3248
     7.6854   8.1258   8.3908   8.9367   9.2367   9.5361   9.6698  10.1035
    10.4669  10.6589  10.7434  11.3302  11.5651  12.4316  12.6979  12.7679

          k = 0.5386 0.3110 0.1479 ( 12116 PWs)   bands (ev):

   -34.5148 -34.5143  -2.7895  -1.9408  -1.1489  -0.0961   0.5807   1.2983
     2.6889   4.2424   4.6011   4.6855   5.0371   5.0944   6.3835   7.2984
     7.4107   7.8859   8.3978   8.6172   8.9621   9.1179   9.7018   9.9044
    10.2357  10.7099  11.2391  11.7778  12.2757  12.5683  13.0658  13.2710

          k = 0.6733-0.3887-0.2959 ( 12161 PWs)   bands (ev):

   -34.5149 -34.5142  -2.9126  -1.1098  -1.0434  -0.1814   0.0849   0.5413
     1.5675   4.2804   4.4304   5.6550   5.9927   6.2131   6.3674   7.1029
     7.4775   8.3435   8.8097   8.9009   9.3830   9.5240   9.8217   9.9169
    10.1780  10.5245  10.9247  11.4844  11.7957  12.2125  12.5514  12.7059

          k = 0.5386-0.4665-0.2219 ( 12136 PWs)   bands (ev):

   -34.5148 -34.5143  -2.7485  -1.6283  -1.4307  -0.0021   0.4699   0.8518
     2.4285   4.3700   4.5617   4.7935   5.1680   6.0870   6.5858   7.0784
     7.5485   7.6522   8.3025   8.7947   9.1404   9.4089   9.4394   9.9139
    10.2339  10.6318  11.3947  11.4550  12.2082  12.4011  12.5921  13.0505

          k = 0.0000 0.0000-0.6658 ( 12190 PWs)   bands (ev):

   -34.5150 -34.5141  -2.9410  -0.5370  -0.5370  -0.3143  -0.2124  -0.2124
     1.0106   4.2066   5.5470   5.5470   5.9796   5.9796   6.6372   7.1667
     8.2289   8.2289   8.4363   8.9691   8.9691  10.0353  10.3446  10.3446
    10.7019  10.7019  11.4986  11.5788  11.5788  11.7243  12.1999  12.3498

          k =-0.2693 0.0000-0.2219 ( 12142 PWs)   bands (ev):

   -34.5151 -34.5141  -3.4788  -1.5641  -0.7857   0.5971   1.2961   1.9881
     2.5954   2.8972   3.9555   4.2784   4.5770   5.0533   6.3882   6.4392
     6.5843   7.2498   7.7878   8.8105   9.0211   9.4974   9.8924  10.3384
    10.6208  10.9943  11.5530  12.0745  12.6563  12.7599  13.2207  13.9684

          k = 0.4040-0.3887 0.1479 ( 12130 PWs)   bands (ev):

   -34.5149 -34.5142  -3.1147  -2.2276  -1.0091   1.1185   1.5207   1.9009
     2.5369   3.1094   3.6314   4.1925   4.5383   5.5098   5.9205   6.8893
     7.1839   7.4253   7.8535   8.3660   8.6260   9.1667   9.3766  10.3703
    10.6197  11.1780  11.3087  12.2297  12.4601  12.9832  13.1393  14.1985

          k = 0.2693-0.3110 0.0740 ( 12113 PWs)   bands (ev):

   -34.5149 -34.5142  -3.2921  -1.9583  -1.1210   1.0619   1.7084   2.2303
     2.6421   2.8642   3.8304   4.3506   4.5922   5.2898   5.7739   6.1268
     6.7003   6.7513   7.7236   8.1299   8.8403   9.4309  10.3705  10.5409
    11.0123  11.1063  11.8829  12.1633  12.8383  12.8886  13.6670  14.1749

          k = 0.4040-0.5442 0.0740 ( 12140 PWs)   bands (ev):

   -34.5148 -34.5144  -2.9103  -1.9103  -1.5822   0.4327   1.5401   1.7179
     2.3626   3.2017   4.0226   5.1943   5.2881   5.6678   6.0778   6.6264
     6.8922   7.2967   7.9468   8.1804   8.3871   9.0150   9.6438  10.0873
    10.9295  11.2581  11.7809  12.0686  12.1417  12.6674  13.6488  13.6968

          k = 0.5386-0.4665-0.0000 ( 12129 PWs)   bands (ev):

   -34.5149 -34.5142  -3.0484  -1.7237  -1.1141   0.4334   0.6655   1.2602
     2.4414   2.9301   4.6029   4.7552   5.0672   6.4110   6.7352   6.8452
     7.1327   7.4222   8.3811   8.5310   8.8411   9.4456   9.4607  10.3571
    10.6271  10.8672  11.3643  11.4717  11.8706  12.2729  12.5310  13.2789

          k = 0.4040-0.3887-0.0740 ( 12130 PWs)   bands (ev):

   -34.5148 -34.5144  -2.8906  -2.0435  -1.4388   0.5387   1.1106   1.6240
     2.9482   3.5116   3.8204   4.8931   5.2262   5.5896   6.1114   6.4344
     6.8242   7.0780   7.6345   8.4830   8.7473   9.6458   9.8511  10.4536
    10.6765  11.2382  11.6863  11.9839  12.1499  12.6012  12.9807  13.4267

          k = 0.2693-0.3110-0.1479 ( 12123 PWs)   bands (ev):

   -34.5149 -34.5142  -3.2213  -1.7019  -1.4242   0.5813   1.4029   2.2529
     2.7933   3.6930   3.7746   4.3598   4.8773   5.0794   5.5839   6.2183
     6.7563   7.1015   7.4439   8.4990   8.5096   9.8563  10.0278  10.3373
    11.1601  11.4938  11.6732  12.2658  12.3907  12.7524  13.5924  13.6534

          k = 0.4040 0.3887 0.2959 ( 12117 PWs)   bands (ev):

   -34.5146 -34.5145  -2.7241  -1.9063  -1.7290   0.3588   0.7352   1.8342
     2.9527   3.5904   3.8531   5.0726   5.3716   5.9008   6.2395   6.3952
     6.8565   7.4157   7.7288   8.4377   8.7234   9.3311   9.6073   9.8404
    10.5326  11.2425  11.4846  11.7583  12.4939  13.2054  13.4901  13.6081

     the Fermi energy is    11.7669 ev

!    total energy              =    -129.33274303 Ry
     estimated scf accuracy    <          3.1E-09 Ry
     smearing contrib. (-TS)   =       0.00041111 Ry
     internal energy E=F+TS    =    -129.33315414 Ry

     The total energy is F=E-TS. E is the sum of the following terms:
     one-electron contribution =      39.32534323 Ry
     hartree contribution      =      10.79418302 Ry
     xc contribution           =     -46.41627371 Ry
     ewald contribution        =    -133.03640667 Ry

     convergence has been achieved in   9 iterations

     Forces acting on atoms (cartesian axes, Ry/au):

     atom    1 type  1   force =    -0.00435583   -0.04015348   -0.14640274
     atom    2 type  1   force =     0.00435583    0.04015348    0.14640274
     atom    3 type  1   force =     0.03695185    0.01630448   -0.14640274
     atom    4 type  1   force =    -0.03695185   -0.01630448    0.14640274
     atom    5 type  1   force =    -0.03259602    0.02384900   -0.14640274
     atom    6 type  1   force =     0.03259602   -0.02384900    0.14640274
     atom    7 type  1   force =    -0.00695075   -0.02709844    0.17585627
     atom    8 type  1   force =     0.00695075    0.02709844   -0.17585627
     atom    9 type  1   force =     0.02694331    0.00752969    0.17585627
     atom   10 type  1   force =    -0.02694331   -0.00752969   -0.17585627
     atom   11 type  1   force =    -0.01999256    0.01956875    0.17585627
     atom   12 type  1   force =     0.01999256   -0.01956875   -0.17585627
     atom   13 type  2   force =     0.00000000    0.00000000   -0.19766802
     atom   14 type  2   force =    -0.00000000   -0.00000000    0.19766802

     Total force =     0.637796     Total SCF correction =     0.000092


     Computing stress (Cartesian axis) and pressure

          total   stress  (Ry/bohr**3)                   (kbar)     P=      433.18
   0.00257264   0.00000000   0.00000000          378.45        0.00        0.00
  -0.00000000   0.00257264   0.00000000           -0.00      378.45        0.00
   0.00000000   0.00000000   0.00368882            0.00        0.00      542.64

     Energy error            =      1.3E+00 Ry
     Gradient error          =      2.0E-01 Ry/Bohr
     Cell gradient error     =      1.2E+02 kbar

     number of scf cycles    =   3
     number of bfgs steps    =   2

     enthalpy           old  =    -124.2316627047 Ry
     enthalpy           new  =    -125.4888205669 Ry

     CASE: enthalpy          _new < enthalpy          _old

     new trust radius        =       0.5028091093 bohr
ibrav =      5
 celldm(1) =     10.42410363
 celldm(4) =      0.34037427
Input lattice vectors:
     0.57390871    -0.33134635     0.74799684
     0.00000000     0.66269270     0.74799684
    -0.57390871    -0.33134635     0.74799684
New lattice vectors in INITIAL alat:
     0.57390871    -0.33134635     0.74799684
     0.00000000     0.66269270     0.74799684
    -0.57390871    -0.33134635     0.74799684
New lattice vectors in NEW alat (for information only):
     0.57429336    -0.33156843     0.74849817
     0.00000000     0.66313686     0.74849817
    -0.57429336    -0.33156843     0.74849817
Discrepancy in bohr =     0.000000    0.000000    0.000000
     new conv_thr            =       0.0000000100 Ry

     new unit-cell volume =    968.64607 a.u.^3 (   143.53854 Ang^3 )
     density =      4.05951 g/cm^3

CELL_PARAMETERS (alat= 10.43109018)
   0.573908712  -0.331346349   0.747996840
   0.000000000   0.662692699   0.747996840
  -0.573908712  -0.331346349   0.747996840

ATOMIC_POSITIONS (crystal)
Si               0.9390862353        0.4700366986        0.8069398337
Si               0.0609137647       -0.4700366986        1.1930601663
Si               0.8069398337       -0.0609137647        1.4700366986
Si               0.1930601663        0.0609137647        0.5299633014
Si               1.4700366986       -0.1930601663        0.9390862353
Si              -0.4700366986        0.1930601663        1.0609137647
Si               0.7710100880        0.3142891836        0.6416544650
Si               0.2289899120       -0.3142891836        1.3583455350
Si               0.6416544650       -0.2289899120        1.3142891836
Si               0.3583455350        0.2289899120        0.6857108164
Si               1.3142891836       -0.3583455350        0.7710100880
Si              -0.3142891836        0.3583455350        1.2289899120
Li               0.1264219112        0.1264219112        0.1264219112
Li               0.8735780888        0.8735780888        0.8735780888



     Writing config-only to output data dir ./output/SiLi.save/ :
     XML data file
     NEW-OLD atomic charge density approx. for the potential

     total cpu time spent up to now is      292.7 secs

     per-process dynamical memory:    97.2 Mb

     Self-consistent Calculation

     iteration #  1     ecut=    80.00 Ry     beta= 0.70
     Davidson diagonalization with overlap
     c_bands:  4 eigenvalues not converged
     c_bands:  1 eigenvalues not converged
     c_bands:  1 eigenvalues not converged
     c_bands:  1 eigenvalues not converged
     c_bands:  4 eigenvalues not converged
     c_bands:  2 eigenvalues not converged
     c_bands:  2 eigenvalues not converged
     c_bands:  3 eigenvalues not converged
     c_bands:  2 eigenvalues not converged
     c_bands:  2 eigenvalues not converged
     c_bands:  2 eigenvalues not converged
     c_bands:  2 eigenvalues not converged
     c_bands:  5 eigenvalues not converged
     c_bands:  1 eigenvalues not converged
     c_bands:  3 eigenvalues not converged
     c_bands:  2 eigenvalues not converged
     c_bands:  1 eigenvalues not converged
[...]

     total energy              =    -129.51225885 Ry
     estimated scf accuracy    <       0.15414622 Ry

     iteration #  2     ecut=    80.00 Ry     beta= 0.70
     Davidson diagonalization with overlap
     ethr =  2.85E-04,  avg # of iterations =  3.3

     total cpu time spent up to now is     1723.4 secs

     total energy              =    -129.52062349 Ry
     estimated scf accuracy    <       0.18325062 Ry

     iteration #  3     ecut=    80.00 Ry     beta= 0.70
     Davidson diagonalization with overlap
     ethr =  2.85E-04,  avg # of iterations =  2.0

     total cpu time spent up to now is     1729.4 secs

     total energy              =    -129.55826962 Ry
     estimated scf accuracy    <       0.00433597 Ry

     iteration #  4     ecut=    80.00 Ry     beta= 0.70
     Davidson diagonalization with overlap
     ethr =  8.03E-06,  avg # of iterations =  6.3

     total cpu time spent up to now is     1737.2 secs

     total energy              =    -129.55912344 Ry
     estimated scf accuracy    <       0.00205051 Ry

     iteration #  5     ecut=    80.00 Ry     beta= 0.70
     Davidson diagonalization with overlap
     ethr =  3.80E-06,  avg # of iterations =  2.9

     total cpu time spent up to now is     1742.6 secs

     total energy              =    -129.55930140 Ry
     estimated scf accuracy    <       0.00030241 Ry

     iteration #  6     ecut=    80.00 Ry     beta= 0.70
     Davidson diagonalization with overlap
     ethr =  5.60E-07,  avg # of iterations =  2.8

     total cpu time spent up to now is     1748.0 secs

     total energy              =    -129.55936742 Ry
     estimated scf accuracy    <       0.00000857 Ry

     iteration #  7     ecut=    80.00 Ry     beta= 0.70
     Davidson diagonalization with overlap
     ethr =  1.59E-08,  avg # of iterations =  5.6

     total cpu time spent up to now is     1755.9 secs

     total energy              =    -129.55937349 Ry
     estimated scf accuracy    <       0.00000810 Ry

     iteration #  8     ecut=    80.00 Ry     beta= 0.70
     Davidson diagonalization with overlap
     ethr =  1.50E-08,  avg # of iterations =  2.0

     total cpu time spent up to now is     1761.1 secs

     total energy              =    -129.55937395 Ry
     estimated scf accuracy    <       0.00000096 Ry

     iteration #  9     ecut=    80.00 Ry     beta= 0.70
     Davidson diagonalization with overlap
     ethr =  1.78E-09,  avg # of iterations =  4.0

     total cpu time spent up to now is     1767.6 secs

     total energy              =    -129.55937426 Ry
     estimated scf accuracy    <       0.00000002 Ry

     iteration # 10     ecut=    80.00 Ry     beta= 0.70
     Davidson diagonalization with overlap
     ethr =  3.98E-11,  avg # of iterations =  5.4

     total cpu time spent up to now is     1775.2 secs

     total energy              =    -129.55937427 Ry
     estimated scf accuracy    <       0.00000001 Ry

     iteration # 11     ecut=    80.00 Ry     beta= 0.70
     Davidson diagonalization with overlap
     ethr =  2.11E-11,  avg # of iterations =  2.1

     total cpu time spent up to now is     1780.9 secs

     total energy              =    -129.55937427 Ry
     estimated scf accuracy    <          2.8E-10 Ry

     iteration # 12     ecut=    80.00 Ry     beta= 0.70
     Davidson diagonalization with overlap
     c_bands:  1 eigenvalues not converged
     ethr =  5.22E-13,  avg # of iterations =  5.3

     total cpu time spent up to now is     1787.8 secs

     End of self-consistent calculation

          k = 0.0000 0.0000 0.0000 ( 12275 PWs)   bands (ev):

   -32.8281 -32.7416  -2.9082   2.1755   2.1755   2.2600   2.2600   2.6999
     3.3142   4.1161   4.7267   4.9800   4.9800   4.9854   4.9854   7.2734
     7.8093  10.0915  10.6388  10.6388  11.2917  11.2917  13.1714  13.9660
    13.9660  13.9823  13.9823  14.4338  14.7155  15.8295  16.2123  16.5428

          k =-0.1451-0.0838 0.0709 ( 12258 PWs)   bands (ev):

   -32.8281 -32.7416  -2.7675   0.8367   1.8319   2.3140   2.8471   3.2349
     3.5922   3.9200   4.2545   4.7473   5.2136   5.5933   6.3680   7.3644
     8.2414   8.5218   9.7082  10.9992  11.5946  12.0210  12.9868  13.2113
    13.8037  14.0118  14.0931  14.3992  14.6029  14.8975  14.9898  15.8507

          k =-0.2902-0.1675 0.1419 ( 12293 PWs)   bands (ev):

   -32.8280 -32.7417  -2.3627  -0.4100   1.6873   2.1641   3.0054   3.0825
     3.6721   3.9558   4.1947   5.4327   6.4160   6.6582   6.9827   7.3646
     8.0253   8.8649   9.6433  10.1878  11.1296  11.3397  11.8341  12.3276
    12.4504  13.2905  13.5238  14.0815  14.9162  15.2774  15.4088  15.7264

          k = 0.4353 0.2513-0.2128 ( 12294 PWs)   bands (ev):

   -32.8279 -32.7417  -1.9448  -1.1129   1.6756   2.1133   2.7568   2.9270
     3.7959   4.0960   5.0335   5.2329   5.7648   6.8819   8.2478   8.3023
     8.6545   8.8031   9.6432   9.8635  10.4360  10.7793  10.8465  11.7152
    11.7223  12.7538  12.9749  14.0188  14.7344  15.5451  15.7673  15.8568

          k =-0.1451 0.0838 0.1419 ( 12265 PWs)   bands (ev):

   -32.8280 -32.7417  -2.7001   1.1540   1.5283   1.5869   2.8170   3.3401
     3.5874   3.8248   4.3246   5.0186   5.4927   5.8184   6.7896   7.1678
     8.4816   8.7864   9.8221  10.9810  11.2936  11.9658  12.3737  12.9833
    13.1317  13.7158  14.2060  14.3159  14.5988  15.0676  15.5862  15.7344

          k =-0.2902-0.0000 0.2128 ( 12262 PWs)   bands (ev):

   -32.8279 -32.7417  -2.3594  -0.0039   1.1586   1.9029   2.4707   3.0844
     3.6706   4.1767   5.1468   5.3384   6.0175   6.9677   7.0728   7.5712
     8.2406   9.2977   9.4489   9.8827  10.3725  11.4482  12.1529  12.4419
    13.1002  13.3157  13.7827  14.0550  14.1380  14.5697  15.0317  15.5367

          k = 0.4353 0.4189-0.1419 ( 12293 PWs)   bands (ev):

   -32.8279 -32.7418  -1.8589  -0.9369   0.8006   2.1253   2.4597   3.2792
     3.8451   4.4107   4.9102   5.5457   6.3244   7.5697   7.9294   8.1235
     8.6289   8.9867   9.3686   9.6653   9.8514  10.4388  10.8969  11.4749
    12.8013  13.0602  13.0847  13.8962  14.0984  14.7583  15.2482  15.8271

          k = 0.2902 0.3351-0.0709 ( 12283 PWs)   bands (ev):

   -32.8279 -32.7417  -2.0920  -0.5753   0.5913   2.4189   2.5145   3.4027
     3.9833   4.4815   5.1443   5.3978   6.2815   6.5973   7.0309   7.6508
     8.2436   9.2119   9.6159   9.7462  10.4779  10.7655  11.3362  11.8822
    12.7931  13.0217  13.5701  14.2037  14.3510  14.6368  15.0792  15.7275

          k = 0.1451 0.2513 0.0000 ( 12249 PWs)   bands (ev):

   -32.8280 -32.7417  -2.5543   0.4908   0.6857   2.6035   2.6998   3.4461
     3.7278   4.7232   4.8985   4.9879   5.2382   6.1580   6.4692   6.9094
     8.1859   8.7144   9.1542  10.1477  11.8253  12.3402  12.4707  12.6513
    13.4573  13.6523  13.9471  14.1035  14.4189  14.5354  15.5665  15.8782

          k =-0.2902 0.1675 0.2837 ( 12267 PWs)   bands (ev):

   -32.8279 -32.7418  -2.0813   0.2553   0.5012   1.0303   2.0171   2.7236
     4.7400   4.9912   5.7710   6.0221   6.4538   6.8866   7.0505   7.0702
     8.5379   9.1191   9.5197   9.8573  10.2226  10.8714  11.5691  12.0411
    12.4537  12.9292  13.6185  14.1374  14.3247  14.6025  15.1304  15.8231

          k = 0.4353 0.5864-0.0709 ( 12280 PWs)   bands (ev):

   -32.8278 -32.7419  -1.5764  -0.5890  -0.0077   1.5326   1.9616   2.7299
     4.5439   5.4491   5.8975   6.2629   6.8044   7.3263   7.8123   7.9318
     8.2393   8.6739   8.8055   9.7059   9.8430  10.4066  10.9926  11.3996
    12.2562  12.9154  13.4453  13.8013  14.1398  14.5236  15.2022  15.5309

          k = 0.2902 0.5026 0.0000 ( 12309 PWs)   bands (ev):

   -32.8279 -32.7418  -1.5934  -0.6370  -0.2808   2.1104   2.1207   3.4081
     4.1252   4.5607   5.9110   6.1701   6.8228   6.8833   7.7490   7.9840
     8.5490   8.6788   8.9907   9.4072  10.1925  10.6754  11.2661  11.6282
    11.6782  12.0862  12.9945  13.3564  14.6647  15.4312  15.8101  16.1736

          k = 0.4353-0.2513-0.4256 ( 12252 PWs)   bands (ev):

   -32.8278 -32.7419  -1.1244  -1.0171   0.2818   0.8609   1.8134   2.4555
     5.5782   5.6906   6.1267   6.3151   7.5412   7.5982   7.6364   7.8740
     8.0328   8.3043   8.4681   8.5585   9.7388  10.6607  11.5138  11.6865
    12.5102  12.7296  13.1406  13.5363  13.7970  14.6382  15.5650  15.7917

          k = 0.0000 0.0000 0.2128 ( 12272 PWs)   bands (ev):

   -32.8280 -32.7417  -2.7084   1.6362   1.6362   2.0741   2.3688   2.8356
     2.8356   3.9825   3.9825   4.1321   6.3547   6.7228   6.7228   6.9578
     9.0712  10.2262  10.5978  10.5978  11.3035  11.3035  11.9347  11.9347
    12.3850  13.3239  15.0390  15.0390  15.0986  15.2589  15.7041  15.7044

          k =-0.1451-0.0838 0.2837 ( 12255 PWs)   bands (ev):

   -32.8279 -32.7418  -2.4390   0.3679   1.5845   2.0242   2.4758   2.5165
     3.2744   3.5158   4.3701   5.3796   6.3531   6.7568   7.9709   8.1724
     8.7869   9.4076   9.5664  10.1675  11.1288  11.5792  11.9191  12.1636
    13.0275  13.2993  13.3065  13.8576  14.1460  14.5512  14.6460  15.4485

          k = 0.5804 0.3351-0.0709 ( 12269 PWs)   bands (ev):

   -32.8279 -32.7418  -1.9472  -0.7106   1.2436   1.4401   2.5564   3.3099
     3.6602   3.7115   4.9703   5.9739   6.8081   7.0469   7.4973   7.9659
     8.7992   9.4858   9.6205  10.4061  10.8831  11.0795  11.6153  11.7021
    11.8742  12.2474  12.9374  13.1320  13.7038  14.3515  15.0617  15.6149

          k = 0.4353 0.2513 0.0000 ( 12292 PWs)   bands (ev):

   -32.8279 -32.7418  -1.9140  -0.7730   1.0619   1.1421   2.5410   3.7580
     4.1146   4.9408   5.4694   5.6795   5.9338   6.0141   7.3734   7.8099
     8.1849   8.6629   9.9388  10.8478  10.9484  11.1999  11.6518  11.8058
    12.3804  12.4485  12.7438  13.3716  13.5670  13.9397  14.6328  15.5628

          k = 0.2902 0.1675 0.0709 ( 12254 PWs)   bands (ev):

   -32.8280 -32.7417  -2.4141   0.2507   0.9617   1.2649   2.6630   4.2403
     4.3583   4.4789   4.7627   5.4272   5.6679   6.4207   6.5919   6.7893
     7.4652   8.6217   9.7406  10.6966  11.2814  11.7529  12.3743  12.8905
    12.9636  13.2328  13.5195  13.6011  14.4257  14.6723  15.1356  15.8009

          k =-0.1451 0.0838 0.3546 ( 12275 PWs)   bands (ev):

   -32.8278 -32.7419  -2.2405   0.8202   0.8710   1.0503   2.0051   3.1405
     3.3962   3.4881   5.1606   5.3500   6.6358   7.4932   7.9253   8.7656
     9.0424   9.3125   9.5493   9.8957  10.8101  11.6179  11.7526  12.0273
    12.5737  12.9892  13.1491  13.5487  14.4614  14.4836  14.8399  15.3611

          k = 0.5804 0.5026 0.0000 ( 12268 PWs)   bands (ev):

   -32.8278 -32.7419  -1.7916  -0.2495   0.3548   1.1356   2.2125   3.1353
     3.4619   4.4078   5.5199   6.2435   7.1564   7.3839   7.7294   7.9313
     9.0649   9.4107   9.7596   9.8943  10.4294  10.9517  11.6256  11.7824
    12.0262  12.5601  12.7192  13.1752  14.1726  14.2413  14.5896  15.3524

          k = 0.4353 0.4189 0.0709 ( 12282 PWs)   bands (ev):

   -32.8278 -32.7419  -1.5054  -0.7154   0.0060   1.0860   2.6404   3.3538
     3.9681   5.4029   5.5823   5.8308   6.3789   7.2684   7.4402   8.0364
     8.6111   9.0601   9.6555   9.8760  10.2915  10.8081  11.5242  11.6355
    11.8986  12.3457  12.5394  13.5260  13.7751  14.5188  14.6234  14.8589

          k = 0.2902 0.3351 0.1419 ( 12280 PWs)   bands (ev):

   -32.8279 -32.7418  -2.0076  -0.1386   0.1363   1.3033   2.6015   3.9474
     4.0435   4.8589   5.3824   5.8498   6.1889   6.8593   6.9441   7.6292
     8.2577   8.6123   9.3182   9.7656  10.5165  10.8949  11.4839  12.4310
    12.7162  12.9812  13.4031  13.8006  14.0516  14.3419  14.8026  15.7691

          k = 0.5804-0.3351-0.3546 ( 12272 PWs)   bands (ev):

   -32.8277 -32.7419  -1.3936  -0.5140   0.4331   0.4434   1.6791   3.3834
     4.0672   4.5613   6.2276   6.9693   7.4028   7.4965   7.6854   7.8985
     8.4193   8.7647   9.3409   9.6364  10.0769  11.2223  11.3228  11.8338
    12.1663  12.3515  12.7873  13.4166  13.7754  14.5053  14.7467  15.5919

          k = 0.4353-0.4189-0.2837 ( 12280 PWs)   bands (ev):

   -32.8278 -32.7419  -1.1556  -0.7624  -0.2311   0.7540   2.2199   3.5648
     3.9609   5.4557   5.9031   6.3248   7.0091   7.4609   7.5574   8.2603
     8.3897   8.8174   9.2421   9.7745  10.0774  10.3710  10.7001  11.4095
    11.8773  12.2401  13.4042  13.4972  14.6806  14.7381  15.2131  15.4722

          k = 0.2902-0.5026-0.2128 ( 12308 PWs)   bands (ev):

   -32.8279 -32.7418  -1.5687  -0.8483   0.1141   1.1853   3.2673   3.5825
     3.9348   4.2630   5.1802   5.8184   7.4942   7.8509   8.0344   8.0664
     8.4736   8.6786   8.9392   9.0524   9.6216  10.0106  10.4693  11.6749
    12.6770  13.0484  13.4173  13.8542  14.0086  14.9087  14.9810  15.5108

          k = 0.4353-0.2513-0.2128 ( 12279 PWs)   bands (ev):

   -32.8278 -32.7419  -1.6590  -0.2916   0.3263   0.4825   1.8486   3.7228
     5.0628   5.5211   5.5589   6.1706   6.3250   6.9866   7.2511   7.4639
     8.0216   8.9754   9.3224  10.0432  10.2209  10.4835  11.5214  12.1257
    12.5543  12.6326  13.0265  13.7909  14.0907  14.4822  14.7132  14.8854

          k = 0.0000 0.0000 0.4256 ( 12239 PWs)   bands (ev):

   -32.8277 -32.7419  -2.1233   0.4231   1.4146   1.4146   1.8952   2.2875
     2.2875   4.7821   4.9495   4.9495   6.5176   8.6804   8.6804   8.9509
     8.9509   9.0041   9.9823  11.0635  11.0936  11.3914  11.3914  12.0923
    12.0923  13.6387  13.7349  14.0945  14.0945  14.3431  14.6104  14.6104

          k = 0.7255 0.4189 0.0709 ( 12242 PWs)   bands (ev):

   -32.8277 -32.7420  -1.7486   0.0074   0.3004   1.3252   1.9850   2.4270
     3.1326   4.8608   5.0189   5.8596   7.0488   7.5574   8.5143   8.7895
     9.1141   9.8448  10.0298  10.4872  10.9222  11.5107  11.6058  12.0811
    12.1073  12.5483  13.1899  13.4931  13.6990  13.8263  14.3134  14.4019

          k = 0.5804 0.3351 0.1419 ( 12268 PWs)   bands (ev):

   -32.8277 -32.7419  -1.2892  -0.6184  -0.0139   0.7634   1.8869   3.6146
     4.3020   5.0754   5.1394   5.7761   6.5502   7.6647   8.0483   8.7412
     9.0147   9.3616   9.5314   9.9040  10.5120  10.9406  11.0787  11.8863
    12.2325  12.7122  12.8858  13.1569  13.3908  13.8579  14.3019  14.6240

          k = 0.7255-0.4189-0.2837 ( 12268 PWs)   bands (ev):

   -32.8277 -32.7420  -1.4746  -0.3860   0.5205   0.8812   1.7682   2.7436
     3.0020   4.8183   5.4298   6.6606   7.0254   7.3947   7.7068   8.9358
     9.6755   9.8902  10.2616  10.3733  11.0205  11.0632  11.6909  12.1261
    12.4691  12.6597  12.9543  13.3514  13.8116  13.9848  14.0719  14.4108

          k = 0.5804-0.5026-0.2128 ( 12290 PWs)   bands (ev):

   -32.8277 -32.7420  -1.1275  -0.4794  -0.2592   0.5917   2.2042   2.8558
     4.2839   4.9416   5.2595   6.0579   7.2746   7.4538   7.8871   9.1054
     9.2915   9.6607   9.7823  10.1049  10.1991  10.9300  10.9756  11.3514
    11.5408  12.4269  13.1414  13.6360  13.8334  14.1476  14.7376  15.1210

          k = 0.0000-0.0000-0.6384 ( 12270 PWs)   bands (ev):

   -32.8276 -32.7421  -1.4438  -0.6397   1.4576   1.4576   1.7515   1.8733
     1.8733   4.8564   6.5408   6.5408   6.8692   6.8692   7.7572   7.8949
    10.6095  10.6095  10.9443  11.2345  11.2345  11.3221  12.7344  12.7344
    12.7380  12.8603  12.9152  12.9152  13.7087  13.7192  13.7192  13.8704

          k =-0.2902-0.0000-0.2128 ( 12262 PWs)   bands (ev):

   -32.8279 -32.7417  -2.3594  -0.0040   1.1585   1.9033   2.4723   3.0732
     3.6850   4.1732   5.1451   5.3888   5.9936   6.7579   7.0631   7.8481
     8.2074   9.2116   9.4727   9.8562  10.6141  11.5102  12.0807  12.3629
    12.4252  13.3578  13.5188  14.0249  14.5947  15.0256  15.6153  15.7516

          k = 0.4353-0.4189 0.1419 ( 12293 PWs)   bands (ev):

   -32.8279 -32.7418  -1.8589  -0.9370   0.8002   2.1274   2.4573   3.2748
     3.8650   4.3754   4.9147   5.7000   6.1335   7.5470   7.8358   8.1564
     8.7149   9.2409   9.3372   9.6620  10.0966  10.1615  10.7346  11.5569
    12.4548  12.8891  13.1382  13.6766  14.6966  15.1563  15.4904  15.8487

          k = 0.2902-0.3351 0.0709 ( 12283 PWs)   bands (ev):

   -32.8279 -32.7417  -2.0920  -0.5752   0.5910   2.4252   2.5074   3.4069
     3.9862   4.4780   5.1761   5.3144   6.2878   6.7836   7.0073   7.5800
     8.0262   9.4697   9.6615   9.7119  10.2976  10.8396  11.3923  12.2449
    12.5323  12.7880  13.4073  13.7065  14.5033  15.0951  15.6339  16.0021

          k = 0.4353-0.5864 0.0709 ( 12280 PWs)   bands (ev):

   -32.8278 -32.7419  -1.5763  -0.5892  -0.0076   1.5326   1.9622   2.7276
     4.5585   5.4501   5.8428   6.3630   6.8260   7.2123   7.7107   7.8036
     8.2862   8.6138   9.4755   9.5857   9.8347  10.4192  10.9358  11.0985
    12.0411  12.9390  13.2201  13.9684  14.4831  14.7596  15.1476  15.7453

          k = 0.5804-0.5026-0.0000 ( 12268 PWs)   bands (ev):

   -32.8278 -32.7419  -1.7915  -0.2496   0.3546   1.1358   2.2137   3.1265
     3.4673   4.4219   5.5191   6.2682   7.0448   7.3925   7.5047   8.3540
     8.8342   9.4309   9.8296  10.2099  10.6233  10.8321  11.2529  11.5088
    11.9305  12.5021  12.8067  13.2035  14.0121  14.5822  15.1391  15.5925

          k = 0.4353-0.4189-0.0709 ( 12282 PWs)   bands (ev):

   -32.8278 -32.7419  -1.5053  -0.7154   0.0057   1.0857   2.6441   3.3468
     3.9700   5.4030   5.5503   6.0285   6.2329   7.1700   7.3298   8.1420
     8.6514   9.1060   9.9781  10.0771  10.2455  10.6196  10.9725  11.7018
    11.8705  12.0330  13.0499  13.3057  13.8303  14.4067  14.8251  15.4771

          k = 0.2902-0.3351-0.1419 ( 12280 PWs)   bands (ev):

   -32.8279 -32.7418  -2.0075  -0.1387   0.1363   1.3030   2.6015   3.9552
     4.0381   4.8583   5.3646   5.9195   6.1832   6.8299   6.9365   7.4670
     8.1813   8.8308   9.4816  10.0079  10.3480  10.8060  11.4045  11.9272
    12.7916  12.9660  13.4916  13.6805  14.3885  14.4970  15.0917  15.5589

          k = 0.4353 0.4189 0.2837 ( 12280 PWs)   bands (ev):

   -32.8278 -32.7419  -1.1557  -0.7622  -0.2315   0.7545   2.2193   3.5531
     3.9819   5.4529   5.8686   6.3380   6.9779   7.4480   7.7318   8.0936
     8.4780   8.8618   9.0832   9.9160  10.1707  10.3129  10.5457  11.1906
    11.9987  12.6189  13.2984  13.7507  14.1214  14.7035  15.1542  15.4336

     the Fermi energy is    13.5346 ev

!    total energy              =    -129.55937427 Ry
     estimated scf accuracy    <          4.5E-11 Ry
     smearing contrib. (-TS)   =       0.00025345 Ry
     internal energy E=F+TS    =    -129.55962772 Ry

     The total energy is F=E-TS. E is the sum of the following terms:
     one-electron contribution =      54.73176680 Ry
     hartree contribution      =       6.45222109 Ry
     xc contribution           =     -46.98386532 Ry
     ewald contribution        =    -143.75975029 Ry

     convergence has been achieved in  12 iterations

     Forces acting on atoms (cartesian axes, Ry/au):

     atom    1 type  1   force =     0.00054197   -0.00006070   -0.00000149
     atom    2 type  1   force =    -0.00054197    0.00006070    0.00000149
     atom    3 type  1   force =    -0.00021842    0.00049971   -0.00000149
     atom    4 type  1   force =     0.00021842   -0.00049971    0.00000149
     atom    5 type  1   force =    -0.00032355   -0.00043901   -0.00000149
     atom    6 type  1   force =     0.00032355    0.00043901    0.00000149
     atom    7 type  1   force =     0.00010924    0.00019350   -0.00019163
     atom    8 type  1   force =    -0.00010924   -0.00019350    0.00019163
     atom    9 type  1   force =    -0.00022220   -0.00000215   -0.00019163
     atom   10 type  1   force =     0.00022220    0.00000215    0.00019163
     atom   11 type  1   force =     0.00011296   -0.00019136   -0.00019163
     atom   12 type  1   force =    -0.00011296    0.00019136    0.00019163
     atom   13 type  2   force =     0.00000000    0.00000000   -0.00025072
     atom   14 type  2   force =     0.00000000    0.00000000    0.00025072

     Total force =     0.001558     Total SCF correction =     0.000013


     Computing stress (Cartesian axis) and pressure

