
     Program PWSCF v.7.2 starts on 30Dec2024 at  3:42:20 

     This program is part of the open-source Quantum ESPRESSO suite
     for quantum simulation of materials; please cite
         "P. Giannozzi et al., J. Phys.:Condens. Matter 21 395502 (2009);
         "P. Giannozzi et al., J. Phys.:Condens. Matter 29 465901 (2017);
         "P. Giannozzi et al., J. Chem. Phys. 152 154105 (2020);
          URL http://www.quantum-espresso.org", 
     in publications or presentations arising from this work. More details at
     http://www.quantum-espresso.org/quote

     Parallel version (MPI & OpenMP), running on       8 processor cores
     Number of MPI processes:                 8
     Threads/MPI process:                     1

     MPI processes distributed on     1 nodes
     481638 MiB available memory on the printing compute node when the environment starts

     Waiting for input...
     Reading input from standard input

     Current dimensions of program PWSCF are:
     Max number of different atomic species (ntypx) = 10
     Max number of k-points (npk) =  40000
     Max angular momentum in pseudopotentials (lmaxx) =  4

     R & G space division:  proc/nbgrp/npool/nimage =       8
     Subspace diagonalization in iterative solution of the eigenvalue problem:
     a serial algorithm will be used


     Parallelization info
     --------------------
     sticks:   dense  smooth     PW     G-vecs:    dense   smooth      PW
     Min         105     105     30                 4067     4067     638
     Max         106     106     31                 4074     4074     645
     Sum         845     845    241                32573    32573    5119

     Using Slab Decomposition



     bravais-lattice index     =            6
     lattice parameter (alat)  =       5.7556  a.u.
     unit-cell volume          =     336.5802 (a.u.)^3
     number of atoms/cell      =            7
     number of atomic types    =            2
     number of electrons       =        27.00
     number of Kohn-Sham states=           18
     kinetic-energy cutoff     =      80.0000  Ry
     charge density cutoff     =     320.0000  Ry
     scf convergence threshold =      1.0E-08
     mixing beta               =       0.7000
     number of iterations used =            8  plain     mixing
     energy convergence thresh.=      1.0E-04
     force convergence thresh. =      1.0E-03
     press convergence thresh. =      1.0E+00
     Exchange-correlation= PBE
                           (   1   4   3   4   0   0   0)
     nstep                     =           50


     celldm(1)=   5.755613  celldm(2)=   0.000000  celldm(3)=   1.765281
     celldm(4)=   0.000000  celldm(5)=   0.000000  celldm(6)=   0.000000

     crystal axes: (cart. coord. in units of alat)
               a(1) = (   1.000000   0.000000   0.000000 )  
               a(2) = (   0.000000   1.000000   0.000000 )  
               a(3) = (   0.000000   0.000000   1.765281 )  

     reciprocal axes: (cart. coord. in units 2 pi/alat)
               b(1) = (  1.000000  0.000000  0.000000 )  
               b(2) = (  0.000000  1.000000  0.000000 )  
               b(3) = (  0.000000  0.000000  0.566482 )  


     PseudoPot. # 1 for Si read from file:
     ../pseudo/Si_ONCV_PBE_sr.upf
     MD5 check sum: e543d271109d17c80368dfa7c482276d
     Pseudo is Norm-conserving + core correction, Zval =  4.0
     Generated using ONCVPSP code by D. R. Hamann
     Using radial grid of 1510 points,  6 beta functions with: 
                l(1) =   0
                l(2) =   0
                l(3) =   1
                l(4) =   1
                l(5) =   2
                l(6) =   2

     PseudoPot. # 2 for Li read from file:
     ../pseudo/Li_ONCV_PBE_sr.upf
     MD5 check sum: 50ff420e78310ffa21704f3361e624a4
     Pseudo is Norm-conserving, Zval =  3.0
     Generated using ONCVPSP code by D. R. Hamann
     Using radial grid of 1944 points,  4 beta functions with: 
                l(1) =   0
                l(2) =   0
                l(3) =   1
                l(4) =   1

     atomic species   valence    mass     pseudopotential
        Si             4.00    28.08550     Si( 1.00)
        Li             3.00     6.94100     Li( 1.00)

     16 Sym. Ops., with inversion, found



   Cartesian axes

     site n.     atom                  positions (alat units)
         1           Si  tau(   1) = (   0.0000000   0.5000000   0.3736004  )
         2           Si  tau(   2) = (   0.0000000   0.5000000   1.3916801  )
         3           Si  tau(   3) = (   0.5000000   0.0000000   0.3736004  )
         4           Si  tau(   4) = (   0.5000000   0.0000000   1.3916801  )
         5           Si  tau(   5) = (   0.0000000   0.0000000   0.8826403  )
         6           Si  tau(   6) = (   0.5000000   0.5000000   0.8826403  )
         7           Li  tau(   7) = (   0.0000000   0.0000000   0.0000000  )

     number of k points=    30  Marzari-Vanderbilt smearing, width (Ry)=  0.0200
                       cart. coord. in units 2pi/alat
        k(    1) = (   0.0000000   0.0000000   0.0000000), wk =   0.0102041
        k(    2) = (   0.0000000   0.0000000   0.1416205), wk =   0.0204082
        k(    3) = (   0.0000000   0.0000000  -0.2832411), wk =   0.0102041
        k(    4) = (   0.0000000   0.1428571   0.0000000), wk =   0.0408163
        k(    5) = (   0.0000000   0.1428571   0.1416205), wk =   0.0816327
        k(    6) = (   0.0000000   0.1428571  -0.2832411), wk =   0.0408163
        k(    7) = (   0.0000000   0.2857143   0.0000000), wk =   0.0408163
        k(    8) = (   0.0000000   0.2857143   0.1416205), wk =   0.0816327
        k(    9) = (   0.0000000   0.2857143  -0.2832411), wk =   0.0408163
        k(   10) = (   0.0000000   0.4285714   0.0000000), wk =   0.0408163
        k(   11) = (   0.0000000   0.4285714   0.1416205), wk =   0.0816327
        k(   12) = (   0.0000000   0.4285714  -0.2832411), wk =   0.0408163
        k(   13) = (   0.1428571   0.1428571   0.0000000), wk =   0.0408163
        k(   14) = (   0.1428571   0.1428571   0.1416205), wk =   0.0816327
        k(   15) = (   0.1428571   0.1428571  -0.2832411), wk =   0.0408163
        k(   16) = (   0.1428571   0.2857143   0.0000000), wk =   0.0816327
        k(   17) = (   0.1428571   0.2857143   0.1416205), wk =   0.1632653
        k(   18) = (   0.1428571   0.2857143  -0.2832411), wk =   0.0816327
        k(   19) = (   0.1428571   0.4285714   0.0000000), wk =   0.0816327
        k(   20) = (   0.1428571   0.4285714   0.1416205), wk =   0.1632653
        k(   21) = (   0.1428571   0.4285714  -0.2832411), wk =   0.0816327
        k(   22) = (   0.2857143   0.2857143   0.0000000), wk =   0.0408163
        k(   23) = (   0.2857143   0.2857143   0.1416205), wk =   0.0816327
        k(   24) = (   0.2857143   0.2857143  -0.2832411), wk =   0.0408163
        k(   25) = (   0.2857143   0.4285714   0.0000000), wk =   0.0816327
        k(   26) = (   0.2857143   0.4285714   0.1416205), wk =   0.1632653
        k(   27) = (   0.2857143   0.4285714  -0.2832411), wk =   0.0816327
        k(   28) = (   0.4285714   0.4285714   0.0000000), wk =   0.0408163
        k(   29) = (   0.4285714   0.4285714   0.1416205), wk =   0.0816327
        k(   30) = (   0.4285714   0.4285714  -0.2832411), wk =   0.0408163

     Dense  grid:    32573 G-vectors     FFT dimensions: (  36,  36,  60)

     Estimated max dynamical RAM per process >      19.89 MB

     Estimated total dynamical RAM >     159.13 MB

     Initial potential from superposition of free atoms

     starting charge      26.9918, renormalised to      27.0000
     Starting wfcs are   26 randomized atomic wfcs

     total cpu time spent up to now is        1.3 secs

     Self-consistent Calculation

     iteration #  1     ecut=    80.00 Ry     beta= 0.70
     Davidson diagonalization with overlap
     ethr =  1.00E-02,  avg # of iterations =  5.9

     Threshold (ethr) on eigenvalues was too large:
     Diagonalizing with lowered threshold

     Davidson diagonalization with overlap
     ethr =  4.57E-04,  avg # of iterations =  3.2

     total cpu time spent up to now is        3.0 secs

     total energy              =     -63.27568330 Ry
     estimated scf accuracy    <       0.12931740 Ry

     iteration #  2     ecut=    80.00 Ry     beta= 0.70
     Davidson diagonalization with overlap
     ethr =  4.79E-04,  avg # of iterations =  3.7

     total cpu time spent up to now is        3.7 secs

     total energy              =     -63.25706419 Ry
     estimated scf accuracy    <       0.18649075 Ry

     iteration #  3     ecut=    80.00 Ry     beta= 0.70
     Davidson diagonalization with overlap
     ethr =  4.79E-04,  avg # of iterations =  2.3

     total cpu time spent up to now is        4.4 secs

     total energy              =     -63.30074857 Ry
     estimated scf accuracy    <       0.03735688 Ry

     iteration #  4     ecut=    80.00 Ry     beta= 0.70
     Davidson diagonalization with overlap
     ethr =  1.38E-04,  avg # of iterations =  2.6

     total cpu time spent up to now is        4.9 secs

     total energy              =     -63.30614607 Ry
     estimated scf accuracy    <       0.00039231 Ry

     iteration #  5     ecut=    80.00 Ry     beta= 0.70
     Davidson diagonalization with overlap
     c_bands:  1 eigenvalues not converged
     ethr =  1.45E-06,  avg # of iterations =  8.4

     total cpu time spent up to now is        5.8 secs

     total energy              =     -63.30637089 Ry
     estimated scf accuracy    <       0.00012370 Ry

     iteration #  6     ecut=    80.00 Ry     beta= 0.70
     Davidson diagonalization with overlap
     ethr =  4.58E-07,  avg # of iterations =  2.4

     total cpu time spent up to now is        6.3 secs

     total energy              =     -63.30639024 Ry
     estimated scf accuracy    <       0.00000039 Ry

     iteration #  7     ecut=    80.00 Ry     beta= 0.70
     Davidson diagonalization with overlap
     ethr =  1.45E-09,  avg # of iterations =  5.2

     total cpu time spent up to now is        7.1 secs

     total energy              =     -63.30639100 Ry
     estimated scf accuracy    <       0.00000086 Ry

     iteration #  8     ecut=    80.00 Ry     beta= 0.70
     Davidson diagonalization with overlap
     ethr =  1.45E-09,  avg # of iterations =  2.3

     total cpu time spent up to now is        7.6 secs

     End of self-consistent calculation

          k = 0.0000 0.0000 0.0000 (  4089 PWs)   bands (ev):

   -26.6331  -0.1178   4.1459   7.5767  12.8561  12.8561  15.2959  16.7470
    16.9579  16.9579  17.3887  18.6108  18.6108  18.8247  19.6695  20.0316
    24.2071  24.9247

          k = 0.0000 0.0000 0.1416 (  4081 PWs)   bands (ev):

   -26.6330  -0.0358   3.6024   8.8075  13.0344  13.0344  14.6306  15.3737
    15.8378  15.8378  16.9630  18.1852  19.6353  20.3614  20.3614  23.3466
    24.8710  25.0880

          k = 0.0000 0.0000-0.2832 (  4036 PWs)   bands (ev):

   -26.6330   0.0567   3.1783  11.2971  11.5284  13.2863  13.2863  15.0977
    15.0977  15.4586  16.8137  18.2971  19.2914  22.7960  22.7960  23.9267
    23.9267  25.5433

          k = 0.0000 0.1429 0.0000 (  4067 PWs)   bands (ev):

   -26.6297   0.1876   4.4480   7.7810  10.4153  13.1267  14.3617  15.7653
    16.8288  17.2320  18.1553  18.8756  18.9605  19.8430  20.3385  22.1397
    22.6640  25.3543

          k = 0.0000 0.1429 0.1416 (  4068 PWs)   bands (ev):

   -26.6297   0.2723   3.8876   9.0204  10.5326  13.3052  13.5977  14.8557
    16.1101  16.2229  17.6562  19.1946  20.3371  20.6212  21.8270  22.8283
    23.2783  24.8982

          k = 0.0000 0.1429-0.2832 (  4060 PWs)   bands (ev):

   -26.6296   0.3684   3.4536  10.6692  11.5731  11.6258  13.1935  13.5575
    15.3695  16.1930  18.3394  19.1948  20.9937  22.1099  22.7236  23.0095
    23.0294  24.1821

          k = 0.0000 0.2857 0.0000 (  4062 PWs)   bands (ev):

   -26.6221   1.0991   5.3473   7.2300   8.5582  11.4473  13.7897  13.9389
    17.1746  18.0541  18.9531  19.3449  19.6824  20.0950  21.8406  23.0921
    23.8209  24.4019

          k = 0.0000 0.2857 0.1416 (  4071 PWs)   bands (ev):

   -26.6220   1.1919   4.7320   7.4466   9.5248  10.9913  14.1183  14.6180
    16.0410  16.9197  17.1731  19.8461  21.4066  21.4553  22.2598  22.9487
    22.9561  23.7287

          k = 0.0000 0.2857-0.2832 (  4052 PWs)   bands (ev):

   -26.6220   1.2984   4.2717   7.5955   9.9679  12.4159  12.6188  14.3723
    16.1780  16.2867  16.9881  20.1008  20.9989  21.3858  22.0284  23.6449
    24.2932  24.6420

          k = 0.0000 0.4286 0.0000 (  4056 PWs)   bands (ev):

   -26.6160   2.6010   4.6816   6.8096   8.9310   9.3926  12.0136  15.2842
    17.2291  18.1832  19.1871  19.4177  20.0666  20.9710  21.3737  22.2325
    23.7652  24.3798

          k = 0.0000 0.4286 0.1416 (  4066 PWs)   bands (ev):

   -26.6159   2.7072   4.7767   6.1702   8.0879  11.0843  12.9596  15.4688
    16.7760  17.3770  17.4756  18.2797  20.3808  21.2893  21.7850  22.7236
    22.8785  24.3453

          k = 0.0000 0.4286-0.2832 (  4068 PWs)   bands (ev):

   -26.6159   2.8294   4.9500   5.5719   7.7094  13.4075  13.5912  15.4772
    15.4979  15.7331  17.4473  17.6504  19.7493  21.0259  22.1428  22.4881
    23.7282  25.5926

          k = 0.1429 0.1429 0.0000 (  4071 PWs)   bands (ev):

   -26.6263   0.4923   4.7490   7.9955  10.4294  10.9862  14.0332  15.6360
    15.6376  17.8492  18.5115  18.9956  19.3774  19.6857  21.6393  22.3229
    23.6986  24.6799

          k = 0.1429 0.1429 0.1416 (  4072 PWs)   bands (ev):

   -26.6263   0.5797   4.1727   9.2429  10.5851  11.0543  13.6783  13.9524
    15.1594  17.7285  18.9778  19.1376  19.8092  20.6810  22.2261  23.1858
    23.1979  24.5488

          k = 0.1429 0.1429-0.2832 (  4048 PWs)   bands (ev):

   -26.6263   0.6793   3.7294  10.7851  11.0955  11.6994  11.9845  13.2273
    13.5305  18.7795  19.3560  19.6611  20.3809  20.9687  22.9489  23.0828
    23.0974  23.2735

          k = 0.1429 0.2857 0.0000 (  4065 PWs)   bands (ev):

   -26.6188   1.4018   5.6450   7.5181   8.7689  11.5631  11.6676  13.8206
    15.9391  16.9937  18.4290  19.2392  19.9775  21.2482  21.8985  23.4723
    24.1451  24.4404

          k = 0.1429 0.2857 0.1416 (  4064 PWs)   bands (ev):

   -26.6188   1.4970   5.0174   7.7282   9.7742  11.1963  11.6646  14.1013
    15.4708  16.4386  18.1364  19.4137  19.9667  20.6970  23.3190  23.4717
    23.9518  24.5977

          k = 0.1429 0.2857-0.2832 (  4060 PWs)   bands (ev):

   -26.6188   1.6066   4.5495   7.8793  10.2410  11.7467  12.6978  12.7245
    13.9706  17.9616  18.1810  18.3422  19.9609  21.9177  22.0269  22.7536
    23.6936  25.2386

          k = 0.1429 0.4286 0.0000 (  4076 PWs)   bands (ev):

   -26.6128   2.9007   4.9751   7.0999   9.2089   9.6475  12.0860  12.9317
    14.7982  17.2480  19.0954  19.4592  20.6697  20.8135  21.0237  22.1468
    22.8935  26.3948

          k = 0.1429 0.4286 0.1416 (  4056 PWs)   bands (ev):

   -26.6128   3.0085   5.0731   6.4529   8.3632  11.2937  12.7163  13.3133
    14.7983  16.5908  17.7890  18.3400  19.0256  21.2342  22.7422  23.3002
    23.8407  25.1804

          k = 0.1429 0.4286-0.2832 (  4062 PWs)   bands (ev):

   -26.6127   3.1331   5.2467   5.8578   7.9704  12.8723  13.5485  13.6912
    14.5252  16.1452  16.8202  16.8371  17.8198  23.0865  23.4479  24.2536
    24.4408  24.8894

          k = 0.2857 0.2857 0.0000 (  4062 PWs)   bands (ev):

   -26.6115   2.3054   6.5297   8.1538   8.6114   9.6091  11.8002  13.4080
    13.7481  14.2976  17.0963  18.6194  20.4929  20.6066  23.2011  23.9439
    24.7682  25.9408

          k = 0.2857 0.2857 0.1416 (  4068 PWs)   bands (ev):

   -26.6115   2.4072   5.8639   8.3163   8.8946  10.4113  11.7969  11.8384
    14.2401  15.9202  17.0724  17.8547  18.5704  22.4239  22.7441  22.9394
    25.6086  25.7013

          k = 0.2857 0.2857-0.2832 (  4058 PWs)   bands (ev):

   -26.6115   2.5260   5.3761   8.5253   8.9672  11.0416  11.0439  13.0070
    13.3030  15.8944  17.4215  17.8197  19.6100  20.3800  20.9342  25.0085
    25.7474  25.8880

          k = 0.2857 0.4286 0.0000 (  4085 PWs)   bands (ev):

   -26.6057   3.7941   5.8452   7.9556   9.8367  10.0010  10.5016  11.8926
    12.2728  14.4436  16.3376  17.3291  18.8823  21.5599  23.8024  23.8933
    24.4331  27.3264

          k = 0.2857 0.4286 0.1416 (  4079 PWs)   bands (ev):

   -26.6056   3.9067   5.9530   7.2885   9.1673  10.0394  11.6118  12.2057
    12.4597  14.8851  15.7924  17.8676  18.8293  20.6079  21.3070  24.4489
    26.2029  26.5681

          k = 0.2857 0.4286-0.2832 (  4086 PWs)   bands (ev):

   -26.6056   4.0385   6.1279   6.7067   8.7469  10.1343  11.9166  12.2740
    13.4010  15.6645  15.8438  16.9366  17.7795  21.3380  21.6124  23.1202
    23.6782  27.3360

          k = 0.4286 0.4286 0.0000 (  4068 PWs)   bands (ev):

   -26.5999   5.2600   6.9831   7.6784   9.2733   9.3661  10.7598  11.4885
    12.2524  12.6598  13.9308  15.6738  17.6619  22.7731  24.9660  25.3068
    25.4299  26.3054

          k = 0.4286 0.4286 0.1416 (  4075 PWs)   bands (ev):

   -26.5999   5.3810   7.1520   7.6981   8.6994   9.4435  10.3748  10.6357
    11.9134  14.3289  14.8451  16.9952  17.8482  20.8296  22.0568  22.6637
    24.2151  28.7600

          k = 0.4286 0.4286-0.2832 (  4076 PWs)   bands (ev):

   -26.5999   5.5242   7.3715   7.8096   8.0808   9.6007   9.8613  10.1962
    11.7565  16.0517  16.7534  16.9431  18.8771  19.5928  19.6943  21.3392
    21.9771  31.8211

     the Fermi energy is    20.9534 ev

!    total energy              =     -63.30639115 Ry
     estimated scf accuracy    <          5.8E-09 Ry
     smearing contrib. (-TS)   =       0.00056228 Ry
     internal energy E=F+TS    =     -63.30695343 Ry

     The total energy is F=E-TS. E is the sum of the following terms:
     one-electron contribution =      40.75187043 Ry
     hartree contribution      =       3.63454050 Ry
     xc contribution           =     -25.79457449 Ry
     ewald contribution        =     -81.89878987 Ry

     convergence has been achieved in   8 iterations

     Forces acting on atoms (cartesian axes, Ry/au):

     atom    1 type  1   force =     0.00000000    0.00000000   -0.07525833
     atom    2 type  1   force =     0.00000000    0.00000000    0.07525833
     atom    3 type  1   force =     0.00000000    0.00000000   -0.07525833
     atom    4 type  1   force =     0.00000000    0.00000000    0.07525833
     atom    5 type  1   force =     0.00000000    0.00000000    0.00000000
     atom    6 type  1   force =     0.00000000    0.00000000    0.00000000
     atom    7 type  2   force =     0.00000000    0.00000000    0.00000000
     The non-local contrib.  to forces
     atom    1 type  1   force =     0.00000000    0.00000000    0.00839357
     atom    2 type  1   force =     0.00000000    0.00000000   -0.00839357
     atom    3 type  1   force =     0.00000000    0.00000000    0.00839357
     atom    4 type  1   force =     0.00000000    0.00000000   -0.00839357
     atom    5 type  1   force =     0.00000000    0.00000000    0.00000000
     atom    6 type  1   force =     0.00000000    0.00000000    0.00000000
     atom    7 type  2   force =     0.00000000    0.00000000    0.00000000
     The ionic contribution  to forces
     atom    1 type  1   force =    -0.00000000    0.00000000   -0.63320007
     atom    2 type  1   force =    -0.00000000    0.00000000    0.63320007
     atom    3 type  1   force =     0.00000000   -0.00000000   -0.63320007
     atom    4 type  1   force =     0.00000000   -0.00000000    0.63320007
     atom    5 type  1   force =    -0.00000000   -0.00000000   -0.00000000
     atom    6 type  1   force =     0.00000000    0.00000000   -0.00000000
     atom    7 type  2   force =     0.00000000    0.00000000   -0.00000000
     The local contribution  to forces
     atom    1 type  1   force =     0.00000000   -0.00000000    0.54412260
     atom    2 type  1   force =     0.00000000    0.00000000   -0.54412260
     atom    3 type  1   force =    -0.00000000    0.00000000    0.54412260
     atom    4 type  1   force =     0.00000000   -0.00000000   -0.54412260
     atom    5 type  1   force =    -0.00000000   -0.00000000   -0.00000000
     atom    6 type  1   force =    -0.00000000   -0.00000000    0.00000000
     atom    7 type  2   force =     0.00000000    0.00000000    0.00000000
     The core correction contribution to forces
     atom    1 type  1   force =     0.00000000   -0.00000000    0.00551751
     atom    2 type  1   force =     0.00000000    0.00000000   -0.00551751
     atom    3 type  1   force =    -0.00000000    0.00000000    0.00551751
     atom    4 type  1   force =     0.00000000    0.00000000   -0.00551751
     atom    5 type  1   force =     0.00000000   -0.00000000   -0.00000000
     atom    6 type  1   force =    -0.00000000   -0.00000000   -0.00000000
     atom    7 type  2   force =     0.00000000    0.00000000    0.00000000
     The Hubbard contrib.    to forces
     atom    1 type  1   force =     0.00000000    0.00000000    0.00000000
     atom    2 type  1   force =     0.00000000    0.00000000    0.00000000
     atom    3 type  1   force =     0.00000000    0.00000000    0.00000000
     atom    4 type  1   force =     0.00000000    0.00000000    0.00000000
     atom    5 type  1   force =     0.00000000    0.00000000    0.00000000
     atom    6 type  1   force =     0.00000000    0.00000000    0.00000000
     atom    7 type  2   force =     0.00000000    0.00000000    0.00000000
     The SCF correction term to forces
     atom    1 type  1   force =    -0.00000000   -0.00000000   -0.00009194
     atom    2 type  1   force =    -0.00000000   -0.00000000    0.00009194
     atom    3 type  1   force =     0.00000000    0.00000000   -0.00009194
     atom    4 type  1   force =    -0.00000000    0.00000000    0.00009194
     atom    5 type  1   force =     0.00000000   -0.00000000   -0.00000000
     atom    6 type  1   force =     0.00000000   -0.00000000   -0.00000000
     atom    7 type  2   force =     0.00000000    0.00000000    0.00000000

     Total force =     0.150517     Total SCF correction =     0.000184


     Computing stress (Cartesian axis) and pressure

          total   stress  (Ry/bohr**3)                   (kbar)     P=     2522.10
   0.01770615   0.00000000   0.00000000         2604.66        0.00        0.00
   0.00000000   0.01770615   0.00000000            0.00     2604.66        0.00
   0.00000000   0.00000000   0.01602243            0.00        0.00     2356.98


     BFGS Geometry Optimization
     Energy error            =      0.0E+00 Ry
     Gradient error          =      7.5E-02 Ry/Bohr
     Cell gradient error     =      2.1E+03 kbar

     number of scf cycles    =   1
     number of bfgs steps    =   0

     enthalpy           new  =     -62.1623784350 Ry

     new trust radius        =       0.5000000000 bohr
ibrav =      6
 celldm(1) =      6.53992238
 celldm(3) =      1.74036661
Input lattice vectors:
     1.13626859     0.00000000     0.00000000
     0.00000000     1.13626859     0.00000000
     0.00000000     0.00000000     1.97752391
New lattice vectors in INITIAL alat:
     1.13626859     0.00000000     0.00000000
     0.00000000     1.13626859     0.00000000
     0.00000000     0.00000000     1.97752391
New lattice vectors in NEW alat (for information only):
     1.00000000     0.00000000     0.00000000
     0.00000000     1.00000000     0.00000000
     0.00000000     0.00000000     1.74036661
Discrepancy in bohr =     0.000000    0.000000    0.000000
     new conv_thr            =       0.0000000100 Ry

     new unit-cell volume =    486.80892 a.u.^3 (    72.13764 Ang^3 )
     density =      4.03878 g/cm^3

CELL_PARAMETERS (alat=  5.75561312)
   1.136268587   0.000000000   0.000000000
   0.000000000   1.136268587   0.000000000
   0.000000000   0.000000000   1.977523911

ATOMIC_POSITIONS (crystal)
Si            0.0000000000        0.5000000000        0.2088160462
Si            0.0000000000        0.5000000000        0.7911839538
Si            0.5000000000        0.0000000000        0.2088160462
Si            0.5000000000        0.0000000000        0.7911839538
Si            0.0000000000        0.0000000000        0.5000000000
Si            0.5000000000        0.5000000000        0.5000000000
Li            0.0000000000        0.0000000000        0.0000000000



     Writing config-only to output data dir ./output/SiLi.save/
     NEW-OLD atomic charge density approx. for the potential
     extrapolated charge   35.32963, renormalised to   27.00000

     total cpu time spent up to now is        9.7 secs

     Self-consistent Calculation

     iteration #  1     ecut=    80.00 Ry     beta= 0.70
     Davidson diagonalization with overlap
     c_bands:  1 eigenvalues not converged
     c_bands:  1 eigenvalues not converged
     c_bands:  1 eigenvalues not converged
     c_bands:  1 eigenvalues not converged
     c_bands:  1 eigenvalues not converged
     c_bands:  1 eigenvalues not converged
     ethr =  1.00E-06,  avg # of iterations = 15.2

     total cpu time spent up to now is       11.9 secs

     total energy              =     -64.29539621 Ry
     estimated scf accuracy    <       0.27528838 Ry

     iteration #  2     ecut=    80.00 Ry     beta= 0.70
     Davidson diagonalization with overlap
     ethr =  1.02E-03,  avg # of iterations =  4.6

     total cpu time spent up to now is       12.6 secs

     total energy              =     -64.41833093 Ry
     estimated scf accuracy    <       2.28978678 Ry

     iteration #  3     ecut=    80.00 Ry     beta= 0.70
     Davidson diagonalization with overlap
     ethr =  1.02E-03,  avg # of iterations =  3.3

     total cpu time spent up to now is       13.3 secs

     total energy              =     -64.64827226 Ry
     estimated scf accuracy    <       0.09351186 Ry

     iteration #  4     ecut=    80.00 Ry     beta= 0.70
     Davidson diagonalization with overlap
     ethr =  3.46E-04,  avg # of iterations =  1.3

     total cpu time spent up to now is       13.7 secs

     total energy              =     -64.63775524 Ry
     estimated scf accuracy    <       0.04876093 Ry

     iteration #  5     ecut=    80.00 Ry     beta= 0.70
     Davidson diagonalization with overlap
     ethr =  1.81E-04,  avg # of iterations =  2.0

     total cpu time spent up to now is       14.2 secs

     total energy              =     -64.63544158 Ry
     estimated scf accuracy    <       0.01100666 Ry

     iteration #  6     ecut=    80.00 Ry     beta= 0.70
     Davidson diagonalization with overlap
     ethr =  4.08E-05,  avg # of iterations =  4.0

     total cpu time spent up to now is       14.9 secs

     total energy              =     -64.63849232 Ry
     estimated scf accuracy    <       0.00038424 Ry

     iteration #  7     ecut=    80.00 Ry     beta= 0.70
     Davidson diagonalization with overlap
     ethr =  1.42E-06,  avg # of iterations =  5.4

     total cpu time spent up to now is       15.6 secs

     total energy              =     -64.63849279 Ry
     estimated scf accuracy    <       0.00027891 Ry

     iteration #  8     ecut=    80.00 Ry     beta= 0.70
     Davidson diagonalization with overlap
     ethr =  1.03E-06,  avg # of iterations =  2.0

     total cpu time spent up to now is       16.1 secs

     total energy              =     -64.63854109 Ry
     estimated scf accuracy    <       0.00000113 Ry

     iteration #  9     ecut=    80.00 Ry     beta= 0.70
     Davidson diagonalization with overlap
     ethr =  4.19E-09,  avg # of iterations =  5.2

     total cpu time spent up to now is       16.9 secs

     total energy              =     -64.63854126 Ry
     estimated scf accuracy    <       0.00000724 Ry

     iteration # 10     ecut=    80.00 Ry     beta= 0.70
     Davidson diagonalization with overlap
     ethr =  4.19E-09,  avg # of iterations =  2.2

     total cpu time spent up to now is       17.4 secs

     total energy              =     -64.63854154 Ry
     estimated scf accuracy    <       0.00000065 Ry

     iteration # 11     ecut=    80.00 Ry     beta= 0.70
     Davidson diagonalization with overlap
     ethr =  2.42E-09,  avg # of iterations =  2.4

     total cpu time spent up to now is       18.0 secs

     End of self-consistent calculation

          k = 0.0000 0.0000 0.0000 (  4089 PWs)   bands (ev):

   -31.9167  -2.7087   0.7305   3.1898   7.8458   7.8458   9.6305  10.6010
    11.2037  11.2037  11.8093  12.6663  12.6663  12.7016  13.1373  13.8422
    14.4582  18.7513

          k = 0.0000 0.0000 0.1264 (  4081 PWs)   bands (ev):

   -31.9166  -2.6067   0.1341   4.3410   8.0049   8.0049   9.4138   9.8354
    10.2753  10.2753  10.6855  11.8263  12.8591  14.1073  14.1073  15.6176
    16.8093  18.8965

          k = 0.0000 0.0000-0.2528 (  4036 PWs)   bands (ev):

   -31.9162  -2.4830  -0.3163   6.3871   6.8878   8.2375   8.2375   9.6365
     9.6365  10.1985  10.6475  11.0763  12.8499  16.1430  16.1430  16.7417
    17.0394  17.0394

          k = 0.0000 0.1257 0.0000 (  4067 PWs)   bands (ev):

   -31.9158  -2.4668   0.9720   3.3869   5.7423   8.0712   9.1329  10.1043
    10.6252  11.4285  12.1713  12.6655  12.8777  13.8866  13.9058  14.7710
    16.0817  16.2154

          k = 0.0000 0.1257 0.1264 (  4068 PWs)   bands (ev):

   -31.9158  -2.3633   0.3657   4.5454   5.8820   8.2305   8.2528   9.6274
    10.4896  10.4986  11.4553  12.7671  13.6358  14.3127  14.5298  16.2275
    16.5035  16.7743

          k = 0.0000 0.1257-0.2528 (  4060 PWs)   bands (ev):

   -31.9158  -2.2373  -0.0902   6.0596   6.6576   6.9968   7.7348   8.4634
     9.8597  10.6273  11.7750  12.9921  14.3335  14.6769  15.0184  16.2843
    16.4788  17.0736

          k = 0.0000 0.2514 0.0000 (  4062 PWs)   bands (ev):

   -31.9142  -1.7433   1.6936   3.2070   4.0215   6.6702   8.2832   8.7469
    11.0630  12.1025  12.8444  13.2388  13.8778  14.0475  14.6501  15.7030
    16.4745  16.7506

          k = 0.0000 0.2514 0.1264 (  4071 PWs)   bands (ev):

   -31.9143  -1.6353   1.0564   3.3718   5.0901   5.9673   8.9068   9.4312
    10.3679  11.1626  11.1771  13.6683  13.8463  14.9927  15.1482  15.8318
    16.0818  16.5418

          k = 0.0000 0.2514-0.2528 (  4052 PWs)   bands (ev):

   -31.9141  -1.5024   0.5856   3.5455   5.2641   7.3406   7.6779   9.1415
    10.5232  11.1269  11.1518  12.6442  13.9048  14.3446  15.3624  16.2405
    16.7462  17.2405

          k = 0.0000 0.3772 0.0000 (  4056 PWs)   bands (ev):

   -31.9128  -0.5447   1.1196   2.8781   4.5858   4.9301   6.5997   9.8634
    11.4815  12.1044  13.2188  13.3490  13.8844  14.5836  14.8288  15.6260
    15.8851  16.1047

          k = 0.0000 0.3772 0.1264 (  4066 PWs)   bands (ev):

   -31.9130  -0.4296   1.2350   2.2192   3.7947   6.2757   7.7381  10.0274
    11.2408  11.6089  11.9235  12.2862  13.4486  14.0019  14.1896  15.2162
    16.1079  16.4354

          k = 0.0000 0.3772-0.2528 (  4068 PWs)   bands (ev):

   -31.9130  -0.2862   1.4085   1.6929   3.3130   8.4467   8.5165   9.9101
    10.1894  10.2721  11.5643  11.8637  12.7895  13.4528  14.3042  14.9218
    16.1806  18.0322

          k = 0.1257 0.1257 0.0000 (  4071 PWs)   bands (ev):

   -31.9151  -2.2253   1.2132   3.5849   5.7902   6.1686   9.1395   9.6375
     9.9505  11.8811  12.4639  12.5700  13.2123  13.5651  14.7947  15.8753
    16.1295  17.2806

          k = 0.1257 0.1257 0.1264 (  4072 PWs)   bands (ev):

   -31.9152  -2.1203   0.5969   4.7509   5.9728   6.2549   8.2544   8.6978
     9.8519  11.7440  12.7372  12.9019  13.2974  14.1384  15.0896  15.5813
    16.2945  17.0065

          k = 0.1257 0.1257-0.2528 (  4048 PWs)   bands (ev):

   -31.9150  -1.9919   0.1356   6.2587   6.3218   6.9341   7.1707   7.5145
     8.3838  12.9878  13.1846  13.3069  14.3138  14.3171  14.8998  15.0052
    15.0361  16.0012

          k = 0.1257 0.2514 0.0000 (  4065 PWs)   bands (ev):

   -31.9135  -1.5030   1.9337   3.4375   4.2116   6.6578   6.8969   8.3865
    10.1063  11.3551  12.2028  13.1273  13.4971  14.7377  14.8894  16.5580
    16.9153  16.9246

          k = 0.1257 0.2514 0.1264 (  4064 PWs)   bands (ev):

   -31.9135  -1.3934   1.2864   3.6018   5.3027   6.1198   6.8582   8.8373
    10.1014  10.5838  11.8172  13.2704  13.4987  14.1060  15.3965  16.3402
    16.7155  17.4371

          k = 0.1257 0.2514-0.2528 (  4060 PWs)   bands (ev):

   -31.9135  -1.2581   0.8101   3.7821   5.4525   6.9825   7.6110   7.7693
     8.6090  11.8970  12.0940  12.4165  13.5435  14.1164  15.4204  15.4517
    16.2816  17.1070

          k = 0.1257 0.3772 0.0000 (  4076 PWs)   bands (ev):

   -31.9124  -0.3063   1.3545   3.1162   4.8211   5.1236   6.6703   7.8954
     9.4329  11.2331  12.8521  13.0427  14.2070  14.2160  14.5508  15.6603
    15.9524  17.5042

          k = 0.1257 0.3772 0.1264 (  4056 PWs)   bands (ev):

   -31.9122  -0.1897   1.4725   2.4450   4.0133   6.4547   7.7678   8.0229
     9.5178  10.5818  11.5449  12.2768  13.0308  14.4596  15.2218  16.0329
    16.4558  17.2772

          k = 0.1257 0.3772-0.2528 (  4062 PWs)   bands (ev):

   -31.9122  -0.0436   1.6486   1.9162   3.5200   8.0911   8.5833   8.6876
     9.1350   9.9310  10.5587  11.0644  11.7644  15.1599  16.4713  16.5250
    16.7163  17.3343

          k = 0.2514 0.2514 0.0000 (  4062 PWs)   bands (ev):

   -31.9120  -0.7842   2.6508   3.9366   4.3484   4.8242   7.3512   7.8940
     8.1129   9.0303  10.9797  12.4572  13.8242  13.8953  16.4872  16.8768
    17.5008  18.4930

          k = 0.2514 0.2514 0.1264 (  4068 PWs)   bands (ev):

   -31.9120  -0.6701   1.9720   4.1272   4.4793   5.9017   6.4190   7.1179
     9.0953  10.0597  10.9918  11.6940  12.2511  15.4722  15.6871  16.3928
    17.4716  17.8423

          k = 0.2514 0.2514-0.2528 (  4058 PWs)   bands (ev):

   -31.9120  -0.5274   1.4802   4.4327   4.5499   5.6469   6.6682   8.2074
     8.2505   9.5369  11.4655  12.0278  13.1624  13.2313  14.6989  17.6967
    17.7952  17.9053

          k = 0.2514 0.3772 0.0000 (  4085 PWs)   bands (ev):

   -31.9110   0.4060   2.0526   3.8266   5.3062   5.5211   5.6451   6.9981
     7.1651   8.7998  10.4338  11.2584  12.4077  14.8722  16.6093  17.0860
    17.5871  19.4165

          k = 0.2514 0.3772 0.1264 (  4079 PWs)   bands (ev):

   -31.9110   0.5274   2.1799   3.1145   4.6249   5.5364   6.8366   7.1713
     7.5180   9.1410   9.8314  11.8135  12.5545  14.0220  14.3432  17.2328
    18.5815  18.6987

          k = 0.2514 0.3772-0.2528 (  4086 PWs)   bands (ev):

   -31.9110   0.6819   2.3665   2.5783   4.1155   5.6610   7.2685   7.2702
     8.2601   9.5319  10.3187  11.1526  11.2481  14.3019  15.1139  15.9712
    16.3815  18.8537

          k = 0.3772 0.3772 0.0000 (  4068 PWs)   bands (ev):

   -31.9096   1.5806   2.9890   3.4890   4.8530   4.9835   6.4632   6.6021
     6.9671   7.1864   8.3841  10.1883  11.0432  15.9372  17.5576  17.7300
    18.0487  18.6273

          k = 0.3772 0.3772 0.1264 (  4075 PWs)   bands (ev):

   -31.9097   1.7115   3.1835   3.5325   4.1853   5.0846   5.4745   6.1052
     7.0672   8.7055   9.1575  11.0442  11.6992  13.9583  14.7906  15.9468
    17.0092  20.9417

          k = 0.3772 0.3772-0.2528 (  4076 PWs)   bands (ev):

   -31.9097   1.8823   3.4989   3.6121   3.6384   4.6881   5.2118   5.9039
     6.8536  10.6131  10.6373  11.1581  12.3183  12.3992  13.9859  14.0509
    15.1015  23.0786

     the Fermi energy is    14.1982 ev

!    total energy              =     -64.63854168 Ry
     estimated scf accuracy    <          9.1E-09 Ry
     smearing contrib. (-TS)   =      -0.00165008 Ry
     internal energy E=F+TS    =     -64.63689159 Ry

     The total energy is F=E-TS. E is the sum of the following terms:
     one-electron contribution =      27.75103511 Ry
     hartree contribution      =       3.71295372 Ry
     xc contribution           =     -23.63030529 Ry
     ewald contribution        =     -72.47057513 Ry

     convergence has been achieved in  11 iterations

     Forces acting on atoms (cartesian axes, Ry/au):

     atom    1 type  1   force =     0.00000000    0.00000000    0.00641781
     atom    2 type  1   force =     0.00000000    0.00000000   -0.00641781
     atom    3 type  1   force =     0.00000000    0.00000000    0.00641781
     atom    4 type  1   force =     0.00000000    0.00000000   -0.00641781
     atom    5 type  1   force =     0.00000000    0.00000000    0.00000000
     atom    6 type  1   force =     0.00000000    0.00000000    0.00000000
     atom    7 type  2   force =     0.00000000    0.00000000    0.00000000
     The non-local contrib.  to forces
     atom    1 type  1   force =     0.00000000    0.00000000    0.07318577
     atom    2 type  1   force =     0.00000000    0.00000000   -0.07318577
     atom    3 type  1   force =     0.00000000    0.00000000    0.07318577
     atom    4 type  1   force =     0.00000000    0.00000000   -0.07318577
     atom    5 type  1   force =     0.00000000    0.00000000    0.00000000
     atom    6 type  1   force =     0.00000000    0.00000000    0.00000000
     atom    7 type  2   force =     0.00000000    0.00000000    0.00000000
     The ionic contribution  to forces
     atom    1 type  1   force =    -0.00000000    0.00000000   -0.32495032
     atom    2 type  1   force =    -0.00000000    0.00000000    0.32495032
     atom    3 type  1   force =     0.00000000   -0.00000000   -0.32495032
     atom    4 type  1   force =     0.00000000   -0.00000000    0.32495032
     atom    5 type  1   force =    -0.00000000   -0.00000000   -0.00000000
     atom    6 type  1   force =    -0.00000000    0.00000000   -0.00000000
     atom    7 type  2   force =    -0.00000000   -0.00000000   -0.00000000
     The local contribution  to forces
     atom    1 type  1   force =    -0.00000000   -0.00000000    0.26034293
     atom    2 type  1   force =     0.00000000    0.00000000   -0.26034293
     atom    3 type  1   force =    -0.00000000   -0.00000000    0.26034293
     atom    4 type  1   force =     0.00000000    0.00000000   -0.26034293
     atom    5 type  1   force =     0.00000000    0.00000000   -0.00000000
     atom    6 type  1   force =    -0.00000000   -0.00000000   -0.00000000
     atom    7 type  2   force =     0.00000000    0.00000000   -0.00000000
     The core correction contribution to forces
     atom    1 type  1   force =     0.00000000   -0.00000000   -0.00226271
     atom    2 type  1   force =     0.00000000   -0.00000000    0.00226271
     atom    3 type  1   force =    -0.00000000    0.00000000   -0.00226271
     atom    4 type  1   force =    -0.00000000   -0.00000000    0.00226271
     atom    5 type  1   force =     0.00000000    0.00000000   -0.00000000
     atom    6 type  1   force =    -0.00000000   -0.00000000    0.00000000
     atom    7 type  2   force =     0.00000000    0.00000000    0.00000000
     The Hubbard contrib.    to forces
     atom    1 type  1   force =     0.00000000    0.00000000    0.00000000
     atom    2 type  1   force =     0.00000000    0.00000000    0.00000000
     atom    3 type  1   force =     0.00000000    0.00000000    0.00000000
     atom    4 type  1   force =     0.00000000    0.00000000    0.00000000
     atom    5 type  1   force =     0.00000000    0.00000000    0.00000000
     atom    6 type  1   force =     0.00000000    0.00000000    0.00000000
     atom    7 type  2   force =     0.00000000    0.00000000    0.00000000
     The SCF correction term to forces
     atom    1 type  1   force =    -0.00000000   -0.00000000    0.00010214
     atom    2 type  1   force =    -0.00000000    0.00000000   -0.00010214
     atom    3 type  1   force =     0.00000000    0.00000000    0.00010214
     atom    4 type  1   force =     0.00000000   -0.00000000   -0.00010214
     atom    5 type  1   force =    -0.00000000    0.00000000    0.00000000
     atom    6 type  1   force =     0.00000000   -0.00000000   -0.00000000
     atom    7 type  2   force =    -0.00000000   -0.00000000   -0.00000000

     Total force =     0.012836     Total SCF correction =     0.000204


     Computing stress (Cartesian axis) and pressure

          total   stress  (Ry/bohr**3)                   (kbar)     P=      561.55
   0.00373829   0.00000000   0.00000000          549.92        0.00        0.00
   0.00000000   0.00373829   0.00000000            0.00      549.92        0.00
   0.00000000   0.00000000   0.00397537            0.00        0.00      584.80

     Energy error            =      8.2E-01 Ry
     Gradient error          =      6.4E-03 Ry/Bohr
     Cell gradient error     =      8.5E+01 kbar

     number of scf cycles    =   2
     number of bfgs steps    =   1

     enthalpy           old  =     -62.1623784350 Ry
     enthalpy           new  =     -62.9839117964 Ry

     CASE: enthalpy          _new < enthalpy          _old

     new trust radius        =       0.0464100916 bohr
ibrav =      6
 celldm(1) =      6.55524654
 celldm(3) =      1.75455929
Input lattice vectors:
     1.13893106     0.00000000     0.00000000
     0.00000000     1.13893106     0.00000000
     0.00000000     0.00000000     1.99832207
New lattice vectors in INITIAL alat:
     1.13893106     0.00000000     0.00000000
     0.00000000     1.13893106     0.00000000
     0.00000000     0.00000000     1.99832207
New lattice vectors in NEW alat (for information only):
     1.00000000     0.00000000     0.00000000
     0.00000000     1.00000000     0.00000000
     0.00000000     0.00000000     1.75455929
Discrepancy in bohr =     0.000000    0.000000    0.000000
     new conv_thr            =       0.0000000006 Ry

     new unit-cell volume =    494.23687 a.u.^3 (    73.23835 Ang^3 )
     density =      3.97808 g/cm^3

CELL_PARAMETERS (alat=  5.75561312)
   1.138931059   0.000000000   0.000000000
   0.000000000   1.138931059   0.000000000
   0.000000000   0.000000000   1.998322071

ATOMIC_POSITIONS (crystal)
Si            0.0000000000        0.5000000000        0.2097285542
Si            0.0000000000        0.5000000000        0.7902714458
Si            0.5000000000        0.0000000000        0.2097285542
Si            0.5000000000        0.0000000000        0.7902714458
Si            0.0000000000        0.0000000000        0.5000000000
Si            0.5000000000        0.5000000000        0.5000000000
Li            0.0000000000        0.0000000000        0.0000000000



     Writing config-only to output data dir ./output/SiLi.save/
     NEW-OLD atomic charge density approx. for the potential
     extrapolated charge   27.40566, renormalised to   27.00000

     total cpu time spent up to now is       20.0 secs

     Self-consistent Calculation

     iteration #  1     ecut=    80.00 Ry     beta= 0.70
     Davidson diagonalization with overlap
     ethr =  1.00E-06,  avg # of iterations =  6.8

     total cpu time spent up to now is       21.0 secs

     total energy              =     -64.66641844 Ry
     estimated scf accuracy    <       0.00022635 Ry

     iteration #  2     ecut=    80.00 Ry     beta= 0.70
     Davidson diagonalization with overlap
     ethr =  8.38E-07,  avg # of iterations =  3.6

     total cpu time spent up to now is       21.8 secs

     total energy              =     -64.66682414 Ry
     estimated scf accuracy    <       0.00071994 Ry

     iteration #  3     ecut=    80.00 Ry     beta= 0.70
     Davidson diagonalization with overlap
     ethr =  8.38E-07,  avg # of iterations =  2.4

     total cpu time spent up to now is       22.3 secs

     total energy              =     -64.66687789 Ry
     estimated scf accuracy    <       0.00015613 Ry

     iteration #  4     ecut=    80.00 Ry     beta= 0.70
     Davidson diagonalization with overlap
     ethr =  5.78E-07,  avg # of iterations =  1.7

     total cpu time spent up to now is       22.8 secs

     total energy              =     -64.66687150 Ry
     estimated scf accuracy    <       0.00006726 Ry

     iteration #  5     ecut=    80.00 Ry     beta= 0.70
     Davidson diagonalization with overlap
     ethr =  2.49E-07,  avg # of iterations =  1.5

     total cpu time spent up to now is       23.2 secs

     total energy              =     -64.66687094 Ry
     estimated scf accuracy    <       0.00001158 Ry

     iteration #  6     ecut=    80.00 Ry     beta= 0.70
     Davidson diagonalization with overlap
     ethr =  4.29E-08,  avg # of iterations =  2.4

     total cpu time spent up to now is       23.8 secs

     total energy              =     -64.66687364 Ry
     estimated scf accuracy    <       0.00000006 Ry

     iteration #  7     ecut=    80.00 Ry     beta= 0.70
     Davidson diagonalization with overlap
     ethr =  2.17E-10,  avg # of iterations =  5.2

     total cpu time spent up to now is       24.6 secs

     total energy              =     -64.66687373 Ry
     estimated scf accuracy    <       0.00000011 Ry

     iteration #  8     ecut=    80.00 Ry     beta= 0.70
     Davidson diagonalization with overlap
     ethr =  2.17E-10,  avg # of iterations =  2.2

     total cpu time spent up to now is       25.2 secs

     total energy              =     -64.66687375 Ry
     estimated scf accuracy    <          6.5E-09 Ry

     iteration #  9     ecut=    80.00 Ry     beta= 0.70
     Davidson diagonalization with overlap
     ethr =  2.41E-11,  avg # of iterations =  2.0

     total cpu time spent up to now is       25.7 secs

     total energy              =     -64.66687375 Ry
     estimated scf accuracy    <          6.6E-10 Ry

     iteration # 10     ecut=    80.00 Ry     beta= 0.70
     Davidson diagonalization with overlap
     ethr =  2.43E-12,  avg # of iterations =  2.8

     total cpu time spent up to now is       26.2 secs

     End of self-consistent calculation

          k = 0.0000 0.0000 0.0000 (  4089 PWs)   bands (ev):

   -32.1036  -2.8280   0.5440   3.0406   7.7017   7.7017   9.4765  10.3997
    10.9847  10.9847  11.4509  12.5043  12.5043  12.5718  12.9072  13.5247
    14.1340  18.5799

          k = 0.0000 0.0000 0.1251 (  4081 PWs)   bands (ev):

   -32.1035  -2.7313  -0.0184   4.1467   7.8528   7.8528   9.1213   9.6752
    10.1088  10.1088  10.4722  11.6707  12.6697  13.8818  13.8818  15.3266
    16.3987  18.7170

          k = 0.0000 0.0000-0.2502 (  4036 PWs)   bands (ev):

   -32.1030  -2.6152  -0.4475   6.0824   6.7051   8.0693   8.0693   9.5006
     9.5006  10.0207  10.4411  10.9352  12.6634  15.8034  15.8034  16.4687
    16.8406  16.8406

          k = 0.0000 0.1254 0.0000 (  4067 PWs)   bands (ev):

   -32.1027  -2.5869   0.7847   3.2391   5.5973   7.9264   8.9192   9.9440
    10.4673  11.2086  11.7868  12.4830  12.7154  13.6101  13.6354  14.5903
    15.9030  15.9289

          k = 0.0000 0.1254 0.1251 (  4068 PWs)   bands (ev):

   -32.1027  -2.4888   0.2129   4.3524   5.7300   8.0776   8.0877   9.3345
    10.3029  10.3315  11.2824  12.5750  13.3891  14.0876  14.3557  16.0404
    16.1879  16.4089

          k = 0.0000 0.1254-0.2502 (  4060 PWs)   bands (ev):

   -32.1026  -2.3705  -0.2214   5.8886   6.3576   6.8246   7.5859   8.2944
     9.7230  10.4378  11.6228  12.7949  14.1658  14.3249  14.7760  15.9801
    16.2442  16.8827

          k = 0.0000 0.2509 0.0000 (  4062 PWs)   bands (ev):

   -32.1012  -1.8657   1.5037   3.0727   3.8713   6.4625   8.1362   8.6000
    10.8854  11.8801  12.4561  13.0818  13.7005  13.7954  14.3854  15.4904
    16.2435  16.4873

          k = 0.0000 0.2509 0.1251 (  4071 PWs)   bands (ev):

   -32.1013  -1.7634   0.9033   3.2267   4.9081   5.7926   8.7517   9.2307
    10.0897  10.9869  10.9939  13.4928  13.5865  14.7661  14.8397  15.6012
    15.8803  16.3409

          k = 0.0000 0.2509-0.2502 (  4052 PWs)   bands (ev):

   -32.1010  -1.6387   0.4546   3.3892   5.1292   7.0335   7.4923   8.9701
    10.3849  10.9343  10.9919  12.2904  13.7154  14.1071  15.1963  16.0061
    16.5392  17.0648

          k = 0.0000 0.3763 0.0000 (  4056 PWs)   bands (ev):

   -32.0999  -0.6707   0.9885   2.6849   4.3835   4.7905   6.4441   9.7139
    11.3224  11.9275  12.9926  13.1670  13.5011  14.4138  14.5945  15.2609
    15.5625  15.7639

          k = 0.0000 0.3763 0.1251 (  4066 PWs)   bands (ev):

   -32.1000  -0.5617   1.0985   2.0632   3.6377   6.0799   7.5431   9.8695
    10.9661  11.4446  11.7167  12.1115  13.1249  13.8126  13.9530  14.9794
    15.8713  16.1995

          k = 0.0000 0.3763-0.2502 (  4068 PWs)   bands (ev):

   -32.1000  -0.4273   1.2601   1.5641   3.1757   8.1433   8.3337   9.7368
     9.8825  10.0966  11.4270  11.6819  12.5460  13.2897  14.0718  14.7070
    15.9656  17.6896

          k = 0.1254 0.1254 0.0000 (  4071 PWs)   bands (ev):

   -32.1021  -2.3462   1.0250   3.4381   5.6533   6.0129   8.9413   9.3998
     9.8159  11.6976  12.0704  12.4069  13.0141  13.3616  14.5056  15.6498
    15.9568  17.0289

          k = 0.1254 0.1254 0.1251 (  4072 PWs)   bands (ev):

   -32.1021  -2.2467   0.4438   4.5588   5.8281   6.0939   8.0964   8.5252
     9.5538  11.5357  12.5678  12.6901  13.0973  13.9466  14.8837  15.3502
    16.0481  16.6751

          k = 0.1254 0.1254-0.2502 (  4048 PWs)   bands (ev):

   -32.1018  -2.1262   0.0044   6.0966   6.1402   6.6390   6.9980   7.3848
     8.2231  12.8014  13.0220  13.1055  14.1072  14.1502  14.5615  14.6413
    14.8146  15.8174

          k = 0.1254 0.2509 0.0000 (  4065 PWs)   bands (ev):

   -32.1006  -1.6261   1.7430   3.3027   4.0630   6.5092   6.6896   8.2444
     9.8814  11.1920  12.0157  12.7334  13.3208  14.4360  14.6435  16.3691
    16.6653  16.7171

          k = 0.1254 0.2509 0.1251 (  4064 PWs)   bands (ev):

   -32.1005  -1.5224   1.1330   3.4565   5.1203   5.9518   6.6984   8.6773
     9.8574  10.3317  11.6122  13.0365  13.3167  13.9058  15.0811  16.0913
    16.5094  17.0963

          k = 0.1254 0.2509-0.2502 (  4060 PWs)   bands (ev):

   -32.1005  -1.3954   0.6791   3.6249   5.3190   6.8086   7.3097   7.5943
     8.4582  11.6992  11.9020  12.1103  13.3747  13.8743  15.0901  15.2469
    16.0796  16.8741

          k = 0.1254 0.3763 0.0000 (  4076 PWs)   bands (ev):

   -32.0995  -0.4331   1.2228   2.9223   4.6183   4.9842   6.5219   7.7405
     9.2753  11.0061  12.6183  12.8507  13.8085  14.0115  14.3583  15.4616
    15.5413  17.1723

          k = 0.1254 0.3763 0.1251 (  4056 PWs)   bands (ev):

   -32.0993  -0.3226   1.3352   2.2890   3.8567   6.2615   7.5893   7.8572
     9.3539  10.3806  11.2563  12.0645  12.7401  14.2407  14.9677  15.7869
    16.2306  17.0402

          k = 0.1254 0.3763-0.2502 (  4062 PWs)   bands (ev):

   -32.0993  -0.1857   1.4992   1.7871   3.3837   7.9126   8.4073   8.4092
     8.9915   9.7230  10.2285  10.8675  11.5909  14.9351  16.1867  16.2660
    16.4820  17.1244

          k = 0.2509 0.2509 0.0000 (  4062 PWs)   bands (ev):

   -32.0990  -0.9095   2.4577   3.8072   4.2043   4.6716   7.1619   7.6553
     7.9849   8.8731  10.7740  12.2248  13.4213  13.6713  16.1918  16.6991
    17.2871  18.1012

          k = 0.2509 0.2509 0.1251 (  4068 PWs)   bands (ev):

   -32.0991  -0.8015   1.8181   3.9900   4.3209   5.7209   6.2669   6.9383
     8.9315   9.8447  10.7016  11.4881  11.9960  15.1479  15.4338  16.1026
    17.2442  17.5884

          k = 0.2509 0.2509-0.2502 (  4058 PWs)   bands (ev):

   -32.0991  -0.6677   1.3492   4.2772   4.3861   5.5240   6.5189   7.9190
     8.0743   9.3264  11.2868  11.8227  12.8404  12.8798  14.4871  17.4716
    17.4870  17.6200

          k = 0.2509 0.3763 0.0000 (  4085 PWs)   bands (ev):

   -32.0981   0.2772   1.9196   3.6308   5.1629   5.3171   5.5066   6.8555
     7.0152   8.5779  10.2065  11.0592  12.2080  14.4707  16.1946  16.7616
    17.3454  19.0180

          k = 0.2509 0.3763 0.1251 (  4079 PWs)   bands (ev):

   -32.0981   0.3922   2.0407   2.9587   4.4724   5.3795   6.6629   7.0110
     7.3578   8.9152   9.6234  11.5516  12.2759  13.7415  14.0347  16.9004
    18.3443  18.3605

          k = 0.2509 0.3763-0.2502 (  4086 PWs)   bands (ev):

   -32.0982   0.5369   2.2145   2.4487   3.9833   5.4979   7.1026   7.1276
     8.1149   9.2057  10.1172  10.9116  10.9409  13.9584  14.8941  15.6178
    16.1535  18.6206

          k = 0.3763 0.3763 0.0000 (  4068 PWs)   bands (ev):

   -32.0969   1.4490   2.8637   3.3378   4.7092   4.7872   6.2746   6.4674
     6.7302   7.0615   8.1623  10.0002  10.8186  15.5363  17.1292  17.3275
    17.6889  18.2676

          k = 0.3763 0.3763 0.1251 (  4075 PWs)   bands (ev):

   -32.0969   1.5731   3.0503   3.3792   4.0316   4.9286   5.3254   5.9406
     6.9123   8.4800   8.9436  10.7962  11.4604  13.6239  14.4363  15.6304
    16.6703  20.5154

          k = 0.3763 0.3763-0.2502 (  4076 PWs)   bands (ev):

   -32.0969   1.7329   3.3467   3.4518   3.5101   4.5689   5.0491   5.7499
     6.7121  10.2884  10.4292  10.9519  11.9915  12.0424  13.7027  13.7741
    14.8598  22.5744

     the Fermi energy is    13.9462 ev

!    total energy              =     -64.66687376 Ry
     estimated scf accuracy    <          2.8E-11 Ry
     smearing contrib. (-TS)   =      -0.00125336 Ry
     internal energy E=F+TS    =     -64.66562040 Ry

     The total energy is F=E-TS. E is the sum of the following terms:
     one-electron contribution =      27.25681183 Ry
     hartree contribution      =       3.72589926 Ry
     xc contribution           =     -23.55579070 Ry
     ewald contribution        =     -72.09254078 Ry

     convergence has been achieved in  10 iterations

     Forces acting on atoms (cartesian axes, Ry/au):

     atom    1 type  1   force =     0.00000000    0.00000000    0.00472726
     atom    2 type  1   force =     0.00000000    0.00000000   -0.00472726
     atom    3 type  1   force =     0.00000000    0.00000000    0.00472726
     atom    4 type  1   force =     0.00000000    0.00000000   -0.00472726
     atom    5 type  1   force =     0.00000000    0.00000000    0.00000000
     atom    6 type  1   force =     0.00000000    0.00000000    0.00000000
     atom    7 type  2   force =     0.00000000    0.00000000    0.00000000
     The non-local contrib.  to forces
     atom    1 type  1   force =     0.00000000    0.00000000    0.07451262
     atom    2 type  1   force =     0.00000000    0.00000000   -0.07451262
     atom    3 type  1   force =     0.00000000    0.00000000    0.07451262
     atom    4 type  1   force =     0.00000000    0.00000000   -0.07451262
     atom    5 type  1   force =     0.00000000    0.00000000    0.00000000
     atom    6 type  1   force =     0.00000000    0.00000000    0.00000000
     atom    7 type  2   force =     0.00000000    0.00000000    0.00000000
     The ionic contribution  to forces
     atom    1 type  1   force =    -0.00000000   -0.00000000   -0.37912935
     atom    2 type  1   force =    -0.00000000   -0.00000000    0.37912935
     atom    3 type  1   force =    -0.00000000   -0.00000000   -0.37912935
     atom    4 type  1   force =    -0.00000000   -0.00000000    0.37912935
     atom    5 type  1   force =    -0.00000000   -0.00000000   -0.00000000
     atom    6 type  1   force =    -0.00000000   -0.00000000   -0.00000000
     atom    7 type  2   force =    -0.00000000   -0.00000000   -0.00000000
     The local contribution  to forces
     atom    1 type  1   force =    -0.00000000   -0.00000000    0.31165260
     atom    2 type  1   force =     0.00000000   -0.00000000   -0.31165260
     atom    3 type  1   force =    -0.00000000    0.00000000    0.31165260
     atom    4 type  1   force =    -0.00000000    0.00000000   -0.31165260
     atom    5 type  1   force =     0.00000000    0.00000000   -0.00000000
     atom    6 type  1   force =    -0.00000000   -0.00000000   -0.00000000
     atom    7 type  2   force =     0.00000000    0.00000000    0.00000000
     The core correction contribution to forces
     atom    1 type  1   force =    -0.00000000    0.00000000   -0.00231388
     atom    2 type  1   force =     0.00000000    0.00000000    0.00231388
     atom    3 type  1   force =     0.00000000    0.00000000   -0.00231388
     atom    4 type  1   force =     0.00000000   -0.00000000    0.00231388
     atom    5 type  1   force =     0.00000000    0.00000000   -0.00000000
     atom    6 type  1   force =     0.00000000    0.00000000    0.00000000
     atom    7 type  2   force =     0.00000000    0.00000000    0.00000000
     The Hubbard contrib.    to forces
     atom    1 type  1   force =     0.00000000    0.00000000    0.00000000
     atom    2 type  1   force =     0.00000000    0.00000000    0.00000000
     atom    3 type  1   force =     0.00000000    0.00000000    0.00000000
     atom    4 type  1   force =     0.00000000    0.00000000    0.00000000
     atom    5 type  1   force =     0.00000000    0.00000000    0.00000000
     atom    6 type  1   force =     0.00000000    0.00000000    0.00000000
     atom    7 type  2   force =     0.00000000    0.00000000    0.00000000
     The SCF correction term to forces
     atom    1 type  1   force =    -0.00000000    0.00000000    0.00000526
     atom    2 type  1   force =    -0.00000000    0.00000000   -0.00000526
     atom    3 type  1   force =     0.00000000   -0.00000000    0.00000526
     atom    4 type  1   force =     0.00000000    0.00000000   -0.00000526
     atom    5 type  1   force =     0.00000000   -0.00000000    0.00000000
     atom    6 type  1   force =    -0.00000000    0.00000000    0.00000000
     atom    7 type  2   force =    -0.00000000   -0.00000000    0.00000000

     Total force =     0.009455     Total SCF correction =     0.000011


     Computing stress (Cartesian axis) and pressure

          total   stress  (Ry/bohr**3)                   (kbar)     P=      522.46
   0.00344680   0.00000000   0.00000000          507.04        0.00        0.00
   0.00000000   0.00344680   0.00000000            0.00      507.04        0.00
   0.00000000   0.00000000   0.00376112            0.00        0.00      553.28

     Energy error            =      3.1E-03 Ry
     Gradient error          =      4.7E-03 Ry/Bohr
     Cell gradient error     =      5.3E+01 kbar

     number of scf cycles    =   3
     number of bfgs steps    =   2

     enthalpy           old  =     -62.9839117964 Ry
     enthalpy           new  =     -62.9869967804 Ry

     CASE: enthalpy          _new < enthalpy          _old

     new trust radius        =       0.0694141884 bohr
ibrav =      6
 celldm(1) =      6.54946888
 celldm(3) =      1.78352293
Input lattice vectors:
     1.13792723     0.00000000     0.00000000
     0.00000000     1.13792723     0.00000000
     0.00000000     0.00000000     2.02951931
New lattice vectors in INITIAL alat:
     1.13792723     0.00000000     0.00000000
     0.00000000     1.13792723     0.00000000
     0.00000000     0.00000000     2.02951931
New lattice vectors in NEW alat (for information only):
     1.00000000     0.00000000     0.00000000
     0.00000000     1.00000000     0.00000000
     0.00000000     0.00000000     1.78352293
Discrepancy in bohr =     0.000000    0.000000    0.000000
     new conv_thr            =       0.0000000005 Ry

     new unit-cell volume =    501.06832 a.u.^3 (    74.25066 Ang^3 )
     density =      3.92385 g/cm^3

CELL_PARAMETERS (alat=  5.75561312)
   1.137927229   0.000000000   0.000000000
   0.000000000   1.137927229   0.000000000
   0.000000000   0.000000000   2.029519311

ATOMIC_POSITIONS (crystal)
Si            0.0000000000        0.5000000000        0.2109012442
Si            0.0000000000        0.5000000000        0.7890987558
Si            0.5000000000        0.0000000000        0.2109012442
Si            0.5000000000        0.0000000000        0.7890987558
Si            0.0000000000        0.0000000000        0.5000000000
Si            0.5000000000        0.5000000000        0.5000000000
Li            0.0000000000        0.0000000000        0.0000000000



     Writing config-only to output data dir ./output/SiLi.save/
     NEW-OLD atomic charge density approx. for the potential
     extrapolated charge   27.36800, renormalised to   27.00000

     total cpu time spent up to now is       28.2 secs

     Self-consistent Calculation

     iteration #  1     ecut=    80.00 Ry     beta= 0.70
     Davidson diagonalization with overlap
     ethr =  1.00E-06,  avg # of iterations =  7.9

     total cpu time spent up to now is       29.3 secs

     total energy              =     -64.69184453 Ry
     estimated scf accuracy    <       0.00028052 Ry

     iteration #  2     ecut=    80.00 Ry     beta= 0.70
     Davidson diagonalization with overlap
     ethr =  1.04E-06,  avg # of iterations =  3.7

     total cpu time spent up to now is       30.0 secs

     total energy              =     -64.69213003 Ry
     estimated scf accuracy    <       0.00106792 Ry

     iteration #  3     ecut=    80.00 Ry     beta= 0.70
     Davidson diagonalization with overlap
     ethr =  1.04E-06,  avg # of iterations =  3.0

     total cpu time spent up to now is       30.6 secs

     total energy              =     -64.69224077 Ry
     estimated scf accuracy    <       0.00014053 Ry

     iteration #  4     ecut=    80.00 Ry     beta= 0.70
     Davidson diagonalization with overlap
     ethr =  5.20E-07,  avg # of iterations =  2.0

     total cpu time spent up to now is       31.0 secs

     total energy              =     -64.69224397 Ry
     estimated scf accuracy    <       0.00004768 Ry

     iteration #  5     ecut=    80.00 Ry     beta= 0.70
     Davidson diagonalization with overlap
     ethr =  1.77E-07,  avg # of iterations =  1.7

     total cpu time spent up to now is       31.5 secs

     total energy              =     -64.69224676 Ry
     estimated scf accuracy    <       0.00000486 Ry

     iteration #  6     ecut=    80.00 Ry     beta= 0.70
     Davidson diagonalization with overlap
     ethr =  1.80E-08,  avg # of iterations =  3.0

     total cpu time spent up to now is       32.0 secs

     total energy              =     -64.69224809 Ry
     estimated scf accuracy    <       0.00000012 Ry

     iteration #  7     ecut=    80.00 Ry     beta= 0.70
     Davidson diagonalization with overlap
     ethr =  4.30E-10,  avg # of iterations =  4.2

     total cpu time spent up to now is       32.7 secs

     total energy              =     -64.69224813 Ry
     estimated scf accuracy    <       0.00000008 Ry

     iteration #  8     ecut=    80.00 Ry     beta= 0.70
     Davidson diagonalization with overlap
     ethr =  3.07E-10,  avg # of iterations =  2.1

     total cpu time spent up to now is       33.2 secs

     total energy              =     -64.69224815 Ry
     estimated scf accuracy    <       0.00000002 Ry

     iteration #  9     ecut=    80.00 Ry     beta= 0.70
     Davidson diagonalization with overlap
     ethr =  6.40E-11,  avg # of iterations =  1.3

     total cpu time spent up to now is       33.6 secs

     total energy              =     -64.69224815 Ry
     estimated scf accuracy    <          1.2E-09 Ry

     iteration # 10     ecut=    80.00 Ry     beta= 0.70
     Davidson diagonalization with overlap
     ethr =  4.47E-12,  avg # of iterations =  3.2

     total cpu time spent up to now is       34.2 secs

     End of self-consistent calculation

          k = 0.0000 0.0000 0.0000 (  4089 PWs)   bands (ev):

   -32.2576  -2.9562   0.3169   2.8861   7.6117   7.6117   9.4180  10.2724
    10.7853  10.7853  10.9695  12.3862  12.3862  12.5529  12.7054  13.1163
    13.8737  18.4918

          k = 0.0000 0.0000 0.1232 (  4081 PWs)   bands (ev):

   -32.2575  -2.8682  -0.1914   3.9197   7.7508   7.7508   8.7498   9.6032
     9.9852   9.9852  10.3297  11.6296  12.5162  13.6707  13.6707  15.0984
    15.8514  18.6169

          k = 0.0000 0.0000-0.2464 (  4036 PWs)   bands (ev):

   -32.2568  -2.7641  -0.5859   5.6838   6.5041   7.9446   7.9446   9.4217
     9.4217   9.9086  10.3073  10.9344  12.5174  15.4296  15.4296  16.2493
    16.6699  16.6699

          k = 0.0000 0.1255 0.0000 (  4067 PWs)   bands (ev):

   -32.2567  -2.7142   0.5582   3.0879   5.4984   7.8369   8.7150   9.8798
    10.3540  11.0096  11.2787  12.3962  12.5988  13.2352  13.4265  14.4859
    15.7035  15.8201

          k = 0.0000 0.1255 0.1232 (  4068 PWs)   bands (ev):

   -32.2567  -2.6250   0.0415   4.1288   5.6200   7.9632   7.9762   8.9629
    10.1948  10.2086  11.1580  12.4717  13.1856  13.8790  14.2583  15.8327
    15.9450  15.9771

          k = 0.0000 0.1255-0.2464 (  4060 PWs)   bands (ev):

   -32.2566  -2.5189  -0.3579   5.7264   5.9914   6.6399   7.4888   8.1702
     9.6448  10.3165  11.5687  12.6775  13.9339  14.0814  14.5586  15.6274
    16.1122  16.7365

          k = 0.0000 0.2511 0.0000 (  4062 PWs)   bands (ev):

   -32.2553  -1.9904   1.2795   2.9687   3.7240   6.2509   8.0341   8.5122
    10.7859  11.6823  11.9476  12.9959  13.4955  13.5848  14.1718  15.3602
    16.0864  16.3244

          k = 0.0000 0.2511 0.1232 (  4071 PWs)   bands (ev):

   -32.2553  -1.8972   0.7370   3.1082   4.7055   5.6363   8.6519   9.0237
     9.7655  10.8679  10.8736  13.3725  13.3967  14.5094  14.5617  15.4312
    15.7457  16.2514

          k = 0.0000 0.2511-0.2464 (  4052 PWs)   bands (ev):

   -32.2551  -1.7855   0.3239   3.2533   5.0312   6.6385   7.2962   8.8471
    10.3093  10.7728  10.8856  11.9275  13.6005  13.9136  15.1134  15.8836
    16.2825  16.4296

          k = 0.0000 0.3766 0.0000 (  4056 PWs)   bands (ev):

   -32.2539  -0.7909   0.8744   2.4654   4.1642   4.6634   6.3140   9.6303
    11.2365  11.8330  12.7974  13.0051  13.0430  14.2999  14.3991  14.7700
    15.3261  15.4104

          k = 0.0000 0.3766 0.1232 (  4066 PWs)   bands (ev):

   -32.2541  -0.6916   0.9751   1.9028   3.4883   5.8681   7.3451   9.7735
    10.6333  11.3505  11.5288  11.9919  12.8190  13.6818  13.8067  14.7992
    15.6590  16.0201

          k = 0.0000 0.3766-0.2464 (  4068 PWs)   bands (ev):

   -32.2541  -0.5713   1.1191   1.4450   3.0597   7.7600   8.1478   9.5019
     9.5856   9.9760  11.3611  11.5635  12.3927  13.1974  13.9398  14.5604
    15.8313  17.3233

          k = 0.1255 0.1255 0.0000 (  4071 PWs)   bands (ev):

   -32.2561  -2.4726   0.7993   3.2901   5.5682   5.9001   8.7504   9.1786
     9.7455  11.5473  11.5522  12.3422  12.8817  13.1641  14.2325  15.4733
    15.8719  16.8359

          k = 0.1255 0.1255 0.1232 (  4072 PWs)   bands (ev):

   -32.2561  -2.3821   0.2740   4.3383   5.7300   5.9735   7.9919   8.3754
     9.1780  11.3579  12.4903  12.5041  12.9676  13.8359  14.7725  15.1633
    15.7809  16.3305

          k = 0.1255 0.1255-0.2464 (  4048 PWs)   bands (ev):

   -32.2558  -2.2740  -0.1302   5.9519   5.9698   6.2968   6.8134   7.3264
     8.0936  12.6836  12.9372  12.9779  13.9628  14.0447  14.2110  14.2510
    14.6646  15.7141

          k = 0.1255 0.2511 0.0000 (  4065 PWs)   bands (ev):

   -32.2546  -1.7499   1.5195   3.2000   3.9196   6.4140   6.4795   8.1437
     9.6736  11.0959  11.8654  12.2180  13.2362  14.0792  14.4435  16.2926
    16.4636  16.5815

          k = 0.1255 0.2511 0.1232 (  4064 PWs)   bands (ev):

   -32.2546  -1.6554   0.9683   3.3395   4.9190   5.8090   6.5818   8.5531
     9.5749  10.0629  11.4747  12.8079  13.2119  13.7646  14.7584  15.8979
    16.3818  16.6977

          k = 0.1255 0.2511-0.2464 (  4060 PWs)   bands (ev):

   -32.2546  -1.5417   0.5502   3.4896   5.2267   6.6491   6.9473   7.4147
     8.3548  11.5616  11.7357  11.7565  13.2764  13.7224  14.7213  15.0994
    15.9500  16.7457

          k = 0.1255 0.3766 0.0000 (  4076 PWs)   bands (ev):

   -32.2536  -0.5523   1.1097   2.7035   4.3997   4.8603   6.4085   7.6338
     9.1800  10.8028  12.4150  12.6963  13.3007  13.8266  14.2468  15.0273
    15.3093  16.8504

          k = 0.1255 0.3766 0.1232 (  4056 PWs)   bands (ev):

   -32.2533  -0.4517   1.2126   2.1304   3.7101   6.0557   7.4277   7.7293
     9.2450  10.2142  10.9249  11.8836  12.4033  14.0566  14.7866  15.5648
    16.0941  16.8732

          k = 0.1255 0.3766-0.2464 (  4062 PWs)   bands (ev):

   -32.2534  -0.3292   1.3588   1.6697   3.2713   7.7418   8.0842   8.2398
     8.8979   9.5726   9.8323  10.6875  11.4693  14.8078  15.8151  16.1309
    16.3577  16.9712

          k = 0.2511 0.2511 0.0000 (  4062 PWs)   bands (ev):

   -32.2531  -1.0306   2.2365   3.7201   4.0903   4.5329   6.9701   7.4243
     7.9078   8.7752  10.5783  12.0217  12.9047  13.4590  15.8560  16.6296
    17.1727  17.6384

          k = 0.2511 0.2511 0.1232 (  4068 PWs)   bands (ev):

   -32.2532  -0.9321   1.6584   3.8896   4.1922   5.5272   6.1590   6.7651
     8.8178   9.6441  10.3678  11.2997  11.7399  14.7816  15.1969  15.7772
    17.1324  17.4266

          k = 0.2511 0.2511-0.2464 (  4058 PWs)   bands (ev):

   -32.2532  -0.8124   1.2262   4.1463   4.2497   5.4639   6.3868   7.5474
     7.9025   9.1738  11.1547  11.6351  12.4621  12.4804  14.2898  17.1186
    17.3556  17.4805

          k = 0.2511 0.3766 0.0000 (  4085 PWs)   bands (ev):

   -32.2523   0.1608   1.8104   3.4146   5.0658   5.1016   5.3975   6.7543
     6.8975   8.3669   9.9985  10.8775  12.0370  13.9619  15.6823  16.3677
    17.1032  18.5557

          k = 0.2511 0.3766 0.1232 (  4079 PWs)   bands (ev):

   -32.2522   0.2657   1.9211   2.8066   4.3404   5.2577   6.5036   6.8831
     7.2231   8.6885   9.4425  11.2584  11.9657  13.4323  13.7082  16.5278
    17.9436  18.2446

          k = 0.2511 0.3766-0.2464 (  4086 PWs)   bands (ev):

   -32.2523   0.3951   2.0758   2.3372   3.8845   5.3675   6.9734   7.0271
     8.0090   8.8121   9.9199  10.5104  10.7348  13.5711  14.6874  15.2266
    15.9472  18.5051

          k = 0.3766 0.3766 0.0000 (  4068 PWs)   bands (ev):

   -32.2510   1.3383   2.7754   3.2126   4.5777   4.6094   6.0780   6.3605
     6.4956   6.9809   7.9476   9.8170  10.6039  15.0363  16.6149  16.8354
    17.2538  17.8405

          k = 0.3766 0.3766 0.1232 (  4075 PWs)   bands (ev):

   -32.2511   1.4514   2.9486   3.2501   3.8961   4.8044   5.2146   5.7795
     6.7814   8.2504   8.7380  10.5255  11.2115  13.2356  14.0281  15.2659
    16.2840  19.9815

          k = 0.3766 0.3766-0.2464 (  4076 PWs)   bands (ev):

   -32.2511   1.5941   3.2137   3.3135   3.4127   4.5070   4.9164   5.6058
     6.6070   9.8995  10.2204  10.7543  11.6048  11.6330  13.3037  13.5621
    14.6237  22.4354

     the Fermi energy is    13.7227 ev

!    total energy              =     -64.69224815 Ry
     estimated scf accuracy    <          6.5E-12 Ry
     smearing contrib. (-TS)   =      -0.00014144 Ry
     internal energy E=F+TS    =     -64.69210670 Ry

     The total energy is F=E-TS. E is the sum of the following terms:
     one-electron contribution =      26.79929165 Ry
     hartree contribution      =       3.74157223 Ry
     xc contribution           =     -23.49152542 Ry
     ewald contribution        =     -71.74144516 Ry

     convergence has been achieved in  10 iterations

     Forces acting on atoms (cartesian axes, Ry/au):

     atom    1 type  1   force =     0.00000000    0.00000000    0.00127257
     atom    2 type  1   force =     0.00000000    0.00000000   -0.00127257
     atom    3 type  1   force =     0.00000000    0.00000000    0.00127257
     atom    4 type  1   force =     0.00000000    0.00000000   -0.00127257
     atom    5 type  1   force =     0.00000000    0.00000000    0.00000000
     atom    6 type  1   force =     0.00000000    0.00000000    0.00000000
     atom    7 type  2   force =     0.00000000    0.00000000    0.00000000
     The non-local contrib.  to forces
     atom    1 type  1   force =     0.00000000    0.00000000    0.07743099
     atom    2 type  1   force =     0.00000000    0.00000000   -0.07743099
     atom    3 type  1   force =     0.00000000    0.00000000    0.07743099
     atom    4 type  1   force =     0.00000000    0.00000000   -0.07743099
     atom    5 type  1   force =     0.00000000    0.00000000    0.00000000
     atom    6 type  1   force =     0.00000000    0.00000000    0.00000000
     atom    7 type  2   force =     0.00000000    0.00000000    0.00000000
     The ionic contribution  to forces
     atom    1 type  1   force =    -0.00000000   -0.00000000   -0.45494362
     atom    2 type  1   force =    -0.00000000   -0.00000000    0.45494362
     atom    3 type  1   force =    -0.00000000   -0.00000000   -0.45494362
     atom    4 type  1   force =    -0.00000000   -0.00000000    0.45494362
     atom    5 type  1   force =    -0.00000000   -0.00000000   -0.00000000
     atom    6 type  1   force =    -0.00000000   -0.00000000   -0.00000000
     atom    7 type  2   force =    -0.00000000   -0.00000000   -0.00000000
     The local contribution  to forces
     atom    1 type  1   force =    -0.00000000   -0.00000000    0.38122133
     atom    2 type  1   force =    -0.00000000   -0.00000000   -0.38122133
     atom    3 type  1   force =    -0.00000000   -0.00000000    0.38122133
     atom    4 type  1   force =    -0.00000000    0.00000000   -0.38122133
     atom    5 type  1   force =    -0.00000000    0.00000000   -0.00000000
     atom    6 type  1   force =    -0.00000000   -0.00000000   -0.00000000
     atom    7 type  2   force =     0.00000000    0.00000000   -0.00000000
     The core correction contribution to forces
     atom    1 type  1   force =     0.00000000   -0.00000000   -0.00243422
     atom    2 type  1   force =    -0.00000000    0.00000000    0.00243422
     atom    3 type  1   force =    -0.00000000    0.00000000   -0.00243422
     atom    4 type  1   force =     0.00000000    0.00000000    0.00243422
     atom    5 type  1   force =     0.00000000   -0.00000000   -0.00000000
     atom    6 type  1   force =     0.00000000    0.00000000    0.00000000
     atom    7 type  2   force =     0.00000000    0.00000000    0.00000000
     The Hubbard contrib.    to forces
     atom    1 type  1   force =     0.00000000    0.00000000    0.00000000
     atom    2 type  1   force =     0.00000000    0.00000000    0.00000000
     atom    3 type  1   force =     0.00000000    0.00000000    0.00000000
     atom    4 type  1   force =     0.00000000    0.00000000    0.00000000
     atom    5 type  1   force =     0.00000000    0.00000000    0.00000000
     atom    6 type  1   force =     0.00000000    0.00000000    0.00000000
     atom    7 type  2   force =     0.00000000    0.00000000    0.00000000
     The SCF correction term to forces
     atom    1 type  1   force =     0.00000000   -0.00000000   -0.00000191
     atom    2 type  1   force =    -0.00000000    0.00000000    0.00000191
     atom    3 type  1   force =    -0.00000000    0.00000000   -0.00000191
     atom    4 type  1   force =     0.00000000   -0.00000000    0.00000191
     atom    5 type  1   force =    -0.00000000    0.00000000   -0.00000000
     atom    6 type  1   force =     0.00000000    0.00000000   -0.00000000
     atom    7 type  2   force =     0.00000000   -0.00000000    0.00000000

     Total force =     0.002545     Total SCF correction =     0.000004


     Computing stress (Cartesian axis) and pressure

          total   stress  (Ry/bohr**3)                   (kbar)     P=      489.81
   0.00323923   0.00000000   0.00000000          476.51        0.00        0.00
   0.00000000   0.00323923   0.00000000            0.00      476.51        0.00
   0.00000000   0.00000000   0.00351057            0.00        0.00      516.42

     Energy error            =      2.2E-03 Ry
     Gradient error          =      1.3E-03 Ry/Bohr
     Cell gradient error     =      2.3E+01 kbar

     number of scf cycles    =   4
     number of bfgs steps    =   3

     enthalpy           old  =     -62.9869967804 Ry
     enthalpy           new  =     -62.9891515307 Ry

     CASE: enthalpy          _new < enthalpy          _old

     new trust radius        =       0.0628179668 bohr
ibrav =      6
 celldm(1) =      6.52365032
 celldm(3) =      1.81570618
Input lattice vectors:
     1.13344142     0.00000000     0.00000000
     0.00000000     1.13344142     0.00000000
     0.00000000     0.00000000     2.05799660
New lattice vectors in INITIAL alat:
     1.13344142     0.00000000     0.00000000
     0.00000000     1.13344142     0.00000000
     0.00000000     0.00000000     2.05799660
New lattice vectors in NEW alat (for information only):
     1.00000000     0.00000000     0.00000000
     0.00000000     1.00000000     0.00000000
     0.00000000     0.00000000     1.81570618
Discrepancy in bohr =     0.000000    0.000000    0.000000
     new conv_thr            =       0.0000000001 Ry

     new unit-cell volume =    504.10104 a.u.^3 (    74.70007 Ang^3 )
     density =      3.90024 g/cm^3

CELL_PARAMETERS (alat=  5.75561312)
   1.133441422   0.000000000   0.000000000
   0.000000000   1.133441422   0.000000000
   0.000000000   0.000000000   2.057996596

ATOMIC_POSITIONS (crystal)
Si            0.0000000000        0.5000000000        0.2116727922
Si            0.0000000000        0.5000000000        0.7883272078
Si            0.5000000000        0.0000000000        0.2116727922
Si            0.5000000000        0.0000000000        0.7883272078
Si            0.0000000000        0.0000000000        0.5000000000
Si            0.5000000000        0.5000000000        0.5000000000
Li            0.0000000000        0.0000000000        0.0000000000



     Writing config-only to output data dir ./output/SiLi.save/
     NEW-OLD atomic charge density approx. for the potential
     extrapolated charge   27.16238, renormalised to   27.00000

     total cpu time spent up to now is       36.1 secs

     Self-consistent Calculation

     iteration #  1     ecut=    80.00 Ry     beta= 0.70
     Davidson diagonalization with overlap
     c_bands:  1 eigenvalues not converged
     ethr =  1.00E-06,  avg # of iterations =  8.4

     total cpu time spent up to now is       37.2 secs

     total energy              =     -64.70338551 Ry
     estimated scf accuracy    <       0.00013171 Ry

     iteration #  2     ecut=    80.00 Ry     beta= 0.70
     Davidson diagonalization with overlap
     ethr =  4.88E-07,  avg # of iterations =  3.5

     total cpu time spent up to now is       37.8 secs

     total energy              =     -64.70340618 Ry
     estimated scf accuracy    <       0.00052709 Ry

     iteration #  3     ecut=    80.00 Ry     beta= 0.70
     Davidson diagonalization with overlap
     ethr =  4.88E-07,  avg # of iterations =  2.9

     total cpu time spent up to now is       38.3 secs

     total energy              =     -64.70347673 Ry
     estimated scf accuracy    <       0.00002814 Ry

     iteration #  4     ecut=    80.00 Ry     beta= 0.70
     Davidson diagonalization with overlap
     ethr =  1.04E-07,  avg # of iterations =  2.0

     total cpu time spent up to now is       38.8 secs

     total energy              =     -64.70348123 Ry
     estimated scf accuracy    <       0.00000292 Ry

     iteration #  5     ecut=    80.00 Ry     beta= 0.70
     Davidson diagonalization with overlap
     ethr =  1.08E-08,  avg # of iterations =  2.6

     total cpu time spent up to now is       39.3 secs

     total energy              =     -64.70348165 Ry
     estimated scf accuracy    <       0.00000014 Ry

     iteration #  6     ecut=    80.00 Ry     beta= 0.70
     Davidson diagonalization with overlap
     ethr =  5.04E-10,  avg # of iterations =  4.0

     total cpu time spent up to now is       40.0 secs

     total energy              =     -64.70348171 Ry
     estimated scf accuracy    <       0.00000003 Ry

     iteration #  7     ecut=    80.00 Ry     beta= 0.70
     Davidson diagonalization with overlap
     ethr =  9.90E-11,  avg # of iterations =  2.0

     total cpu time spent up to now is       40.5 secs

     total energy              =     -64.70348171 Ry
     estimated scf accuracy    <          2.3E-09 Ry

     iteration #  8     ecut=    80.00 Ry     beta= 0.70
     Davidson diagonalization with overlap
     ethr =  8.42E-12,  avg # of iterations =  3.1

     total cpu time spent up to now is       41.0 secs

     total energy              =     -64.70348171 Ry
[...]
        k(   20) = (   0.1277514   0.3832543   0.1186643), wk =   0.1632653
        k(   21) = (   0.1277514   0.3832543  -0.2373286), wk =   0.0816327
        k(   22) = (   0.2555029   0.2555029   0.0000000), wk =   0.0408163
        k(   23) = (   0.2555029   0.2555029   0.1186643), wk =   0.0816327
        k(   24) = (   0.2555029   0.2555029  -0.2373286), wk =   0.0408163
        k(   25) = (   0.2555029   0.3832543   0.0000000), wk =   0.0816327
        k(   26) = (   0.2555029   0.3832543   0.1186643), wk =   0.1632653
        k(   27) = (   0.2555029   0.3832543  -0.2373286), wk =   0.0816327
        k(   28) = (   0.3832543   0.3832543   0.0000000), wk =   0.0408163
        k(   29) = (   0.3832543   0.3832543   0.1186643), wk =   0.0816327
        k(   30) = (   0.3832543   0.3832543  -0.2373286), wk =   0.0408163

     Dense  grid:    48589 G-vectors     FFT dimensions: (  40,  40,  72)

     Estimated max dynamical RAM per process >      23.97 MB

     Estimated total dynamical RAM >     191.76 MB

     Initial potential from superposition of free atoms

     starting charge      26.9918, renormalised to      27.0000
     Starting wfcs are   26 randomized atomic wfcs

     total cpu time spent up to now is       88.3 secs

     Self-consistent Calculation

     iteration #  1     ecut=    80.00 Ry     beta= 0.70
     Davidson diagonalization with overlap
     c_bands:  1 eigenvalues not converged
     c_bands:  1 eigenvalues not converged
     c_bands:  2 eigenvalues not converged
     c_bands:  1 eigenvalues not converged
     c_bands:  1 eigenvalues not converged
     c_bands:  2 eigenvalues not converged
     c_bands:  2 eigenvalues not converged
     c_bands:  1 eigenvalues not converged
     c_bands:  1 eigenvalues not converged
     c_bands:  1 eigenvalues not converged
     c_bands:  2 eigenvalues not converged
     c_bands:  1 eigenvalues not converged
     c_bands:  1 eigenvalues not converged
     c_bands:  2 eigenvalues not converged
     c_bands:  3 eigenvalues not converged
     c_bands:  1 eigenvalues not converged
     c_bands:  2 eigenvalues not converged
     c_bands:  1 eigenvalues not converged
     c_bands:  1 eigenvalues not converged
     c_bands:  1 eigenvalues not converged
     ethr =  1.00E-06,  avg # of iterations = 19.1

     total cpu time spent up to now is       91.0 secs

     total energy              =     -64.57099623 Ry
     estimated scf accuracy    <       0.24288000 Ry

     iteration #  2     ecut=    80.00 Ry     beta= 0.70
     Davidson diagonalization with overlap
     ethr =  9.00E-04,  avg # of iterations =  3.5

     total cpu time spent up to now is       91.8 secs

     total energy              =     -64.44062341 Ry
     estimated scf accuracy    <       1.86024522 Ry

     iteration #  3     ecut=    80.00 Ry     beta= 0.70
     Davidson diagonalization with overlap
     ethr =  9.00E-04,  avg # of iterations =  3.2

     total cpu time spent up to now is       92.6 secs

     total energy              =     -64.69841217 Ry
     estimated scf accuracy    <       0.00632212 Ry

     iteration #  4     ecut=    80.00 Ry     beta= 0.70
     Davidson diagonalization with overlap
     ethr =  2.34E-05,  avg # of iterations =  4.7

     total cpu time spent up to now is       93.4 secs

     total energy              =     -64.70020070 Ry
     estimated scf accuracy    <       0.00169648 Ry

     iteration #  5     ecut=    80.00 Ry     beta= 0.70
     Davidson diagonalization with overlap
     ethr =  6.28E-06,  avg # of iterations =  2.6

     total cpu time spent up to now is       94.0 secs

     total energy              =     -64.70036685 Ry
     estimated scf accuracy    <       0.00008022 Ry

     iteration #  6     ecut=    80.00 Ry     beta= 0.70
     Davidson diagonalization with overlap
     c_bands:  1 eigenvalues not converged
     ethr =  2.97E-07,  avg # of iterations =  4.7

     total cpu time spent up to now is       94.8 secs

     total energy              =     -64.70039561 Ry
     estimated scf accuracy    <       0.00000696 Ry

     iteration #  7     ecut=    80.00 Ry     beta= 0.70
     Davidson diagonalization with overlap
     ethr =  2.58E-08,  avg # of iterations =  2.2

     total cpu time spent up to now is       95.4 secs

     total energy              =     -64.70039698 Ry
     estimated scf accuracy    <       0.00000005 Ry

     iteration #  8     ecut=    80.00 Ry     beta= 0.70
     Davidson diagonalization with overlap
     ethr =  2.03E-10,  avg # of iterations =  5.3

     total cpu time spent up to now is       96.3 secs

     total energy              =     -64.70039706 Ry
     estimated scf accuracy    <       0.00000002 Ry

     iteration #  9     ecut=    80.00 Ry     beta= 0.70
     Davidson diagonalization with overlap
     ethr =  8.41E-11,  avg # of iterations =  2.1

     total cpu time spent up to now is       97.0 secs

     total energy              =     -64.70039707 Ry
     estimated scf accuracy    <          1.1E-09 Ry

     iteration # 10     ecut=    80.00 Ry     beta= 0.70
     Davidson diagonalization with overlap
     ethr =  4.05E-12,  avg # of iterations =  2.8

     total cpu time spent up to now is       97.6 secs

     total energy              =     -64.70039707 Ry
     estimated scf accuracy    <          2.4E-10 Ry

     iteration # 11     ecut=    80.00 Ry     beta= 0.70
     Davidson diagonalization with overlap
     ethr =  8.85E-13,  avg # of iterations =  2.3

     total cpu time spent up to now is       98.2 secs

     End of self-consistent calculation

          k = 0.0000 0.0000 0.0000 (  6055 PWs)   bands (ev):

   -32.2273  -2.9975   0.0016   2.6165   7.9249   7.9249   9.9360  10.0232
    10.6592  10.8217  10.8217  12.2476  12.4152  12.4152  12.7927  13.0252
    14.0661  18.7226

          k = 0.0000 0.0000 0.1187 (  6043 PWs)   bands (ev):

   -32.2273  -2.9234  -0.4140   3.5022   8.0494   8.0494   8.0501  10.0915
    10.1255  10.1255  10.7055  12.1337  12.6491  13.5374  13.5374  14.7100
    15.2558  18.5354

          k = 0.0000 0.0000-0.2373 (  6026 PWs)   bands (ev):

   -32.2273  -2.8371  -0.7471   4.8975   6.1864   8.2202   8.2202   9.6234
     9.6234  10.3251  10.6920  11.5308  12.6848  14.9560  14.9560  16.3368
    16.6772  16.6772

          k = 0.0000 0.1278 0.0000 (  6067 PWs)   bands (ev):

   -32.2265  -2.7465   0.2520   2.8312   5.7608   8.1571   8.6875  10.2216
    10.3174  10.5738  11.0528  12.4127  12.6375  12.9302  13.5796  14.7281
    15.8889  16.3616

          k = 0.0000 0.1278 0.1187 (  6063 PWs)   bands (ev):

   -32.2265  -2.6711  -0.1710   3.7249   5.8654   8.0703   8.2731   8.2817
    10.3559  10.6285  11.2374  12.9246  13.3188  13.7573  14.5286  14.8868
    15.7295  16.4702

          k = 0.0000 0.1278-0.2373 (  6046 PWs)   bands (ev):

   -32.2265  -2.5831  -0.5089   5.1349   6.0262   6.3545   7.6453   8.4526
     9.8537  10.7108  11.9673  13.1382  13.4375  14.4018  14.5628  15.1711
    16.6140  16.8185

          k = 0.0000 0.2555 0.0000 (  6080 PWs)   bands (ev):

   -32.2248  -1.9956   1.0003   3.1261   3.5214   6.1470   8.0485   8.8534
    11.0024  11.2302  11.7455  12.8643  13.2045  13.9102  14.3568  15.4718
    15.8939  16.5751

          k = 0.0000 0.2555 0.1187 (  6065 PWs)   bands (ev):

   -32.2248  -1.9165   0.5547   3.2681   4.3641   5.6210   8.6749   8.9784
     9.3448  11.0433  11.2708  13.3730  13.8367  14.2209  14.4925  15.2426
    16.0109  16.7537

          k = 0.0000 0.2555-0.2373 (  6048 PWs)   bands (ev):

   -32.2248  -1.8234   0.2035   3.3903   5.1068   5.8891   7.0275   9.1504
    10.5405  10.6672  10.9968  11.8832  14.0179  14.0458  15.4568  15.8335
    16.4998  17.3732

          k = 0.0000 0.3833 0.0000 (  6082 PWs)   bands (ev):

   -32.2234  -0.7515   0.9750   2.2323   3.9844   4.5051   6.2165  10.0081
    11.6550  12.1132  12.2706  12.8951  13.1173  13.9215  14.4025  14.5381
    15.1627  15.3505

          k = 0.0000 0.3833 0.1187 (  6081 PWs)   bands (ev):

   -32.2234  -0.6666   1.0593   1.7700   3.4191   5.5555   7.1040  10.0642
    10.1360  11.3408  11.7490  12.2073  12.9290  13.9082  14.2485  14.9809
    15.5824  16.0312

          k = 0.0000 0.3833-0.2373 (  6082 PWs)   bands (ev):

   -32.2234  -0.5656   1.1829   1.3764   3.0530   7.0645   7.9265   8.8518
     9.5042  10.3140  11.6374  11.9486  12.8600  13.4783  14.4872  14.8064
    16.1168  16.9079

          k = 0.1278 0.1278 0.0000 (  6073 PWs)   bands (ev):

   -32.2257  -2.4959   0.5020   3.0461   5.8604   6.1454   8.7189   9.1778
     9.9045  10.5865  11.4437  12.6204  12.8963  13.3837  14.4319  15.6777
    16.1474  16.3532

          k = 0.1278 0.1278 0.1187 (  6051 PWs)   bands (ev):

   -32.2257  -2.4192   0.0715   3.9476   6.0016   6.2078   8.1653   8.4142
     8.4930  11.3419  12.3550  13.0190  13.4017  14.2211  15.0835  15.1316
    15.3190  15.9990

          k = 0.1278 0.1278-0.2373 (  6048 PWs)   bands (ev):

   -32.2257  -2.3295  -0.2710   5.3719   6.2030   6.3304   6.5379   7.5759
     8.1646  13.0113  13.1674  13.2307  13.8248  13.9278  14.2428  14.5080
    14.9228  16.0241

          k = 0.1278 0.2555 0.0000 (  6073 PWs)   bands (ev):

   -32.2240  -1.7461   1.2492   3.3682   3.7300   6.3835   6.7084   8.1694
     9.6814  11.2747  11.3742  11.8854  13.4260  13.7561  14.6095  16.1293
    16.6595  16.6988

          k = 0.1278 0.2555 0.1187 (  6054 PWs)   bands (ev):

   -32.2240  -1.6658   0.7961   3.5088   4.5879   5.8258   6.8402   8.5959
     9.0955   9.8416  11.8437  12.6023  13.4959  13.9854  14.5564  15.7127
    16.2015  16.8438

          k = 0.1278 0.2555-0.2373 (  6060 PWs)   bands (ev):

   -32.2240  -1.5709   0.4403   3.6347   5.3221   6.1195   6.9852   7.1798
     8.5089  11.1781  11.6911  11.9938  13.5435  14.1369  14.3088  15.2227
    16.1799  17.3092

          k = 0.1278 0.3833 0.0000 (  6068 PWs)   bands (ev):

   -32.2226  -0.5039   1.2194   2.4792   4.2284   4.7174   6.3589   7.9238
     9.5357  10.8468  12.3221  12.6067  12.6579  13.5858  14.1811  14.6287
    15.2528  16.5653

          k = 0.1278 0.3833 0.1187 (  6084 PWs)   bands (ev):

   -32.2226  -0.4178   1.3058   2.0081   3.6531   5.7625   7.2568   8.0035
     9.5084  10.2913  10.4737  11.8197  12.0550  13.9830  15.1732  15.4606
    16.3682  17.1048

          k = 0.1278 0.3833-0.2373 (  6080 PWs)   bands (ev):

   -32.2226  -0.3150   1.4309   1.6118   3.2780   7.2716   8.0636   8.1354
     9.0188   9.2092   9.8963  10.6241  11.6398  15.2751  15.4465  16.3112
    16.9041  17.0594

          k = 0.2555 0.2555 0.0000 (  6065 PWs)   bands (ev):

   -32.2223  -0.9998   1.9929   3.9568   4.1980   4.4417   6.8874   7.3673
     8.0027   9.1127  10.3671  11.8939  12.2052  13.1869  15.3464  16.7244
    16.9165  17.0214

          k = 0.2555 0.2555 0.1187 (  6066 PWs)   bands (ev):

   -32.2223  -0.9158   1.5168   4.1050   4.3658   5.2352   6.2807   6.7121
     9.0240   9.5447   9.9401  11.0969  11.6679  14.3051  15.0282  15.3048
    16.9222  17.7485

          k = 0.2555 0.2555-0.2373 (  6068 PWs)   bands (ev):

   -32.2223  -0.8156   1.1476   4.3204   4.4125   5.6642   6.3889   6.8552
     7.7265   9.4817  11.2955  11.5584  11.8659  11.9618  14.1339  16.7018
    17.5799  17.9757

          k = 0.2555 0.3833 0.0000 (  6077 PWs)   bands (ev):

   -32.2210   0.2362   1.9482   3.2165   4.9553   5.2929   5.3482   6.8277
     7.0593   8.3397  10.0208  10.7220  11.9379  13.0963  14.8657  15.6055
    16.6522  17.9243

          k = 0.2555 0.3833 0.1187 (  6075 PWs)   bands (ev):

   -32.2210   0.3261   2.0415   2.7169   4.3343   5.4711   6.3270   7.1158
     7.2394   8.5111   9.4708  10.8324  11.5450  12.9897  13.4006  16.0167
    17.2925  18.3064

          k = 0.2555 0.3833-0.2373 (  6074 PWs)   bands (ev):

   -32.2210   0.4348   2.1728   2.3124   3.9370   5.5728   7.1440   7.1786
     8.0668   8.2012   9.7937   9.8776  10.5798  13.0542  14.5324  14.7374
    15.8406  19.1580

          k = 0.3833 0.3833 0.0000 (  6069 PWs)   bands (ev):

   -32.2196   1.4594   2.9816   3.3625   4.4242   4.8459   5.9622   6.3216
     6.4067   7.0418   7.9004   9.5865  10.3885  14.2182  15.9014  16.0374
    16.4298  17.0523

          k = 0.3833 0.3833 0.1187 (  6065 PWs)   bands (ev):

   -32.2196   1.5564   3.1333   3.3903   3.8781   4.9996   5.3046   5.7167
     6.7863   8.0557   8.6033  10.1300  10.9060  12.6754  13.4685  14.7180
    15.7362  18.9967

          k = 0.3833 0.3833-0.2373 (  6072 PWs)   bands (ev):

   -32.2196   1.6760   3.3562   3.4466   3.4510   4.6765   5.1063   5.5740
     6.7025   9.2746  10.0308  10.6268  10.9818  11.0806  12.7413  13.3321
    14.4028  21.6800

     the Fermi energy is    13.6676 ev

!    total energy              =     -64.70039707 Ry
     estimated scf accuracy    <          6.8E-13 Ry
     smearing contrib. (-TS)   =       0.00078895 Ry
     internal energy E=F+TS    =     -64.70118602 Ry

     The total energy is F=E-TS. E is the sum of the following terms:
     one-electron contribution =      26.76128954 Ry
     hartree contribution      =       3.72182467 Ry
     xc contribution           =     -23.48763153 Ry
     ewald contribution        =     -71.69666871 Ry

     convergence has been achieved in  11 iterations

     Forces acting on atoms (cartesian axes, Ry/au):

     atom    1 type  1   force =     0.00000000    0.00000000    0.00001568
     atom    2 type  1   force =     0.00000000    0.00000000   -0.00001568
     atom    3 type  1   force =     0.00000000    0.00000000    0.00001568
     atom    4 type  1   force =     0.00000000    0.00000000   -0.00001568
     atom    5 type  1   force =     0.00000000    0.00000000    0.00000000
     atom    6 type  1   force =     0.00000000    0.00000000    0.00000000
     atom    7 type  2   force =     0.00000000    0.00000000    0.00000000
     The non-local contrib.  to forces
     atom    1 type  1   force =     0.00000000    0.00000000    0.09225285
     atom    2 type  1   force =     0.00000000    0.00000000   -0.09225285
     atom    3 type  1   force =     0.00000000    0.00000000    0.09225285
     atom    4 type  1   force =     0.00000000    0.00000000   -0.09225285
     atom    5 type  1   force =     0.00000000    0.00000000    0.00000000
     atom    6 type  1   force =     0.00000000    0.00000000    0.00000000
     atom    7 type  2   force =     0.00000000    0.00000000    0.00000000
     The ionic contribution  to forces
     atom    1 type  1   force =    -0.00000000    0.00000000   -0.42436517
     atom    2 type  1   force =    -0.00000000    0.00000000    0.42436517
     atom    3 type  1   force =     0.00000000   -0.00000000   -0.42436517
     atom    4 type  1   force =     0.00000000   -0.00000000    0.42436517
     atom    5 type  1   force =    -0.00000000   -0.00000000    0.00000000
     atom    6 type  1   force =     0.00000000    0.00000000   -0.00000000
     atom    7 type  2   force =    -0.00000000   -0.00000000   -0.00000000
     The local contribution  to forces
     atom    1 type  1   force =    -0.00000000   -0.00000000    0.33566186
     atom    2 type  1   force =     0.00000000   -0.00000000   -0.33566186
     atom    3 type  1   force =    -0.00000000    0.00000000    0.33566186
     atom    4 type  1   force =    -0.00000000   -0.00000000   -0.33566186
     atom    5 type  1   force =    -0.00000000    0.00000000    0.00000000
     atom    6 type  1   force =    -0.00000000   -0.00000000   -0.00000000
     atom    7 type  2   force =    -0.00000000   -0.00000000    0.00000000
     The core correction contribution to forces
     atom    1 type  1   force =    -0.00000000   -0.00000000   -0.00353468
     atom    2 type  1   force =    -0.00000000   -0.00000000    0.00353468
     atom    3 type  1   force =    -0.00000000    0.00000000   -0.00353468
     atom    4 type  1   force =    -0.00000000    0.00000000    0.00353468
     atom    5 type  1   force =     0.00000000   -0.00000000    0.00000000
     atom    6 type  1   force =    -0.00000000   -0.00000000   -0.00000000
     atom    7 type  2   force =     0.00000000    0.00000000    0.00000000
     The Hubbard contrib.    to forces
     atom    1 type  1   force =     0.00000000    0.00000000    0.00000000
     atom    2 type  1   force =     0.00000000    0.00000000    0.00000000
     atom    3 type  1   force =     0.00000000    0.00000000    0.00000000
     atom    4 type  1   force =     0.00000000    0.00000000    0.00000000
     atom    5 type  1   force =     0.00000000    0.00000000    0.00000000
     atom    6 type  1   force =     0.00000000    0.00000000    0.00000000
     atom    7 type  2   force =     0.00000000    0.00000000    0.00000000
     The SCF correction term to forces
     atom    1 type  1   force =    -0.00000000    0.00000000    0.00000081
     atom    2 type  1   force =     0.00000000   -0.00000000   -0.00000081
     atom    3 type  1   force =     0.00000000    0.00000000    0.00000081
     atom    4 type  1   force =     0.00000000    0.00000000   -0.00000081
     atom    5 type  1   force =     0.00000000   -0.00000000    0.00000000
     atom    6 type  1   force =    -0.00000000   -0.00000000    0.00000000
     atom    7 type  2   force =    -0.00000000    0.00000000   -0.00000000

     Total force =     0.000031     Total SCF correction =     0.000002


     Computing stress (Cartesian axis) and pressure

          total   stress  (Ry/bohr**3)                   (kbar)     P=      503.06
   0.00341410   0.00000000   0.00000000          502.23        0.00        0.00
   0.00000000   0.00341410   0.00000000            0.00      502.23        0.00
   0.00000000   0.00000000   0.00343100            0.00        0.00      504.72


     Writing all to output data dir ./output/SiLi.save/

     init_run     :      1.68s CPU      2.00s WALL (       2 calls)
     electrons    :     68.81s CPU     73.23s WALL (      13 calls)
     update_pot   :      3.73s CPU      3.78s WALL (      11 calls)
     forces       :      3.32s CPU      3.43s WALL (      13 calls)
     stress       :     16.82s CPU     17.47s WALL (      13 calls)

     Called by init_run:
     wfcinit      :      0.54s CPU      0.55s WALL (       2 calls)
     potinit      :      0.38s CPU      0.58s WALL (       2 calls)
     hinit0       :      0.72s CPU      0.81s WALL (       2 calls)

     Called by electrons:
     c_bands      :     61.07s CPU     64.14s WALL (     115 calls)
     sum_band     :      6.80s CPU      7.19s WALL (     115 calls)
     v_of_rho     :      0.95s CPU      1.82s WALL (     125 calls)
     mix_rho      :      0.09s CPU      0.25s WALL (     115 calls)

     Called by c_bands:
     init_us_2    :      1.42s CPU      1.55s WALL (    7740 calls)
     init_us_2:cp :      1.41s CPU      1.54s WALL (    7740 calls)
     cegterg      :     55.38s CPU     56.93s WALL (    3450 calls)

     Called by *egterg:
     cdiaghg      :      5.34s CPU      5.49s WALL (   15467 calls)
     h_psi        :     43.75s CPU     44.99s WALL (   15947 calls)
     g_psi        :      0.23s CPU      0.23s WALL (   12437 calls)

     Called by h_psi:
     h_psi:calbec :      5.21s CPU      5.35s WALL (   15947 calls)
     vloc_psi     :     33.79s CPU     34.79s WALL (   15947 calls)
     add_vuspsi   :      4.57s CPU      4.67s WALL (   15947 calls)

     General routines
     calbec       :      6.16s CPU      6.32s WALL (   17897 calls)
     fft          :      1.36s CPU      2.58s WALL (    1576 calls)
     ffts         :      0.04s CPU      0.12s WALL (     115 calls)
     fftw         :     34.34s CPU     35.35s WALL (  424952 calls)

     Parallel routines

     PWSCF        :   1m34.68s CPU   1m40.64s WALL


   This run was terminated on:   3:44: 0  30Dec2024            

=------------------------------------------------------------------------------=
   JOB DONE.
=------------------------------------------------------------------------------=
