
     Program PWSCF v.7.2 starts on 27Dec2024 at 15:51:13 

     This program is part of the open-source Quantum ESPRESSO suite
     for quantum simulation of materials; please cite
         "P. Giannozzi et al., J. Phys.:Condens. Matter 21 395502 (2009);
         "P. Giannozzi et al., J. Phys.:Condens. Matter 29 465901 (2017);
         "P. Giannozzi et al., J. Chem. Phys. 152 154105 (2020);
          URL http://www.quantum-espresso.org", 
     in publications or presentations arising from this work. More details at
     http://www.quantum-espresso.org/quote

     Parallel version (MPI & OpenMP), running on       8 processor cores
     Number of MPI processes:                 8
     Threads/MPI process:                     1

     MPI processes distributed on     1 nodes
     481661 MiB available memory on the printing compute node when the environment starts

     Waiting for input...
     Reading input from standard input

     Current dimensions of program PWSCF are:
     Max number of different atomic species (ntypx) = 10
     Max number of k-points (npk) =  40000
     Max angular momentum in pseudopotentials (lmaxx) =  4

     R & G space division:  proc/nbgrp/npool/nimage =       8
     Subspace diagonalization in iterative solution of the eigenvalue problem:
     a serial algorithm will be used


     Parallelization info
     --------------------
     sticks:   dense  smooth     PW     G-vecs:    dense   smooth      PW
     Min         118     118     34                 6474     6474    1022
     Max         119     119     35                 6483     6483    1031
     Sum         949     949    277                51831    51831    8217

     Using Slab Decomposition



     bravais-lattice index     =            6
     lattice parameter (alat)  =       6.0927  a.u.
     unit-cell volume          =     534.6668 (a.u.)^3
     number of atoms/cell      =            6
     number of atomic types    =            2
     number of electrons       =        20.00
     number of Kohn-Sham states=           14
     kinetic-energy cutoff     =      80.0000  Ry
     charge density cutoff     =     320.0000  Ry
     scf convergence threshold =      1.0E-08
     mixing beta               =       0.7000
     number of iterations used =            8  plain     mixing
     energy convergence thresh.=      1.0E-04
     force convergence thresh. =      1.0E-03
     press convergence thresh. =      1.0E+00
     Exchange-correlation= PBE
                           (   1   4   3   4   0   0   0)
     nstep                     =           50


     celldm(1)=   6.092734  celldm(2)=   0.000000  celldm(3)=   2.363996
     celldm(4)=   0.000000  celldm(5)=   0.000000  celldm(6)=   0.000000

     crystal axes: (cart. coord. in units of alat)
               a(1) = (   1.000000   0.000000   0.000000 )  
               a(2) = (   0.000000   1.000000   0.000000 )  
               a(3) = (   0.000000   0.000000   2.363996 )  

     reciprocal axes: (cart. coord. in units 2 pi/alat)
               b(1) = (  1.000000  0.000000  0.000000 )  
               b(2) = (  0.000000  1.000000  0.000000 )  
               b(3) = (  0.000000  0.000000  0.423013 )  


     PseudoPot. # 1 for Li read from file:
     ../pseudo/Li_ONCV_PBE_sr.upf
     MD5 check sum: 50ff420e78310ffa21704f3361e624a4
     Pseudo is Norm-conserving, Zval =  3.0
     Generated using ONCVPSP code by D. R. Hamann
     Using radial grid of 1944 points,  4 beta functions with: 
                l(1) =   0
                l(2) =   0
                l(3) =   1
                l(4) =   1

     PseudoPot. # 2 for Si read from file:
     ../pseudo/Si_ONCV_PBE_sr.upf
     MD5 check sum: e543d271109d17c80368dfa7c482276d
     Pseudo is Norm-conserving + core correction, Zval =  4.0
     Generated using ONCVPSP code by D. R. Hamann
     Using radial grid of 1510 points,  6 beta functions with: 
                l(1) =   0
                l(2) =   0
                l(3) =   1
                l(4) =   1
                l(5) =   2
                l(6) =   2

     atomic species   valence    mass     pseudopotential
        Li             3.00     6.94100     Li( 1.00)
        Si             4.00    28.08550     Si( 1.00)

     16 Sym. Ops., with inversion, found ( 8 have fractional translation)



   Cartesian axes

     site n.     atom                  positions (alat units)
         1           Li  tau(   1) = (   0.0000000   0.5000000   0.9982185  )
         2           Li  tau(   2) = (   0.5000000   0.0000000   1.3657773  )
         3           Li  tau(   3) = (   0.0000000   0.5000000   1.9053286  )
         4           Li  tau(   4) = (   0.5000000   0.0000000   0.4586672  )
         5           Si  tau(   5) = (   0.0000000   0.5000000   0.3023551  )
         6           Si  tau(   6) = (   0.5000000   0.0000000   2.0616407  )

     number of k points=    30  Marzari-Vanderbilt smearing, width (Ry)=  0.0200
                       cart. coord. in units 2pi/alat
        k(    1) = (   0.0000000   0.0000000   0.0000000), wk =   0.0104167
        k(    2) = (   0.0000000   0.0000000   0.1410042), wk =   0.0208333
        k(    3) = (   0.0000000   0.1250000   0.0000000), wk =   0.0416667
        k(    4) = (   0.0000000   0.1250000   0.1410042), wk =   0.0833333
        k(    5) = (   0.0000000   0.2500000   0.0000000), wk =   0.0416667
        k(    6) = (   0.0000000   0.2500000   0.1410042), wk =   0.0833333
        k(    7) = (   0.0000000   0.3750000   0.0000000), wk =   0.0416667
        k(    8) = (   0.0000000   0.3750000   0.1410042), wk =   0.0833333
        k(    9) = (   0.0000000  -0.5000000   0.0000000), wk =   0.0208333
        k(   10) = (   0.0000000  -0.5000000   0.1410042), wk =   0.0416667
        k(   11) = (   0.1250000   0.1250000   0.0000000), wk =   0.0416667
        k(   12) = (   0.1250000   0.1250000   0.1410042), wk =   0.0833333
        k(   13) = (   0.1250000   0.2500000   0.0000000), wk =   0.0833333
        k(   14) = (   0.1250000   0.2500000   0.1410042), wk =   0.1666667
        k(   15) = (   0.1250000   0.3750000   0.0000000), wk =   0.0833333
        k(   16) = (   0.1250000   0.3750000   0.1410042), wk =   0.1666667
        k(   17) = (   0.1250000  -0.5000000   0.0000000), wk =   0.0416667
        k(   18) = (   0.1250000  -0.5000000   0.1410042), wk =   0.0833333
        k(   19) = (   0.2500000   0.2500000   0.0000000), wk =   0.0416667
        k(   20) = (   0.2500000   0.2500000   0.1410042), wk =   0.0833333
        k(   21) = (   0.2500000   0.3750000   0.0000000), wk =   0.0833333
        k(   22) = (   0.2500000   0.3750000   0.1410042), wk =   0.1666667
        k(   23) = (   0.2500000  -0.5000000   0.0000000), wk =   0.0416667
        k(   24) = (   0.2500000  -0.5000000   0.1410042), wk =   0.0833333
        k(   25) = (   0.3750000   0.3750000   0.0000000), wk =   0.0416667
        k(   26) = (   0.3750000   0.3750000   0.1410042), wk =   0.0833333
        k(   27) = (   0.3750000  -0.5000000   0.0000000), wk =   0.0416667
        k(   28) = (   0.3750000  -0.5000000   0.1410042), wk =   0.0833333
        k(   29) = (  -0.5000000  -0.5000000   0.0000000), wk =   0.0104167
        k(   30) = (  -0.5000000  -0.5000000   0.1410042), wk =   0.0208333

     Dense  grid:    51831 G-vectors     FFT dimensions: (  36,  36,  90)

     Estimated max dynamical RAM per process >      22.37 MB

     Estimated total dynamical RAM >     178.98 MB

     Initial potential from superposition of free atoms

     starting charge      19.9805, renormalised to      20.0000
     Starting wfcs are   16 randomized atomic wfcs

     total cpu time spent up to now is        1.4 secs

     Self-consistent Calculation

     iteration #  1     ecut=    80.00 Ry     beta= 0.70
     Davidson diagonalization with overlap
     ethr =  1.00E-02,  avg # of iterations =  4.3

     Threshold (ethr) on eigenvalues was too large:
     Diagonalizing with lowered threshold

     Davidson diagonalization with overlap
     ethr =  2.07E-04,  avg # of iterations =  3.8

     total cpu time spent up to now is        3.0 secs

     total energy              =     -74.39063946 Ry
     estimated scf accuracy    <       0.04136204 Ry

     iteration #  2     ecut=    80.00 Ry     beta= 0.70
     Davidson diagonalization with overlap
     ethr =  2.07E-04,  avg # of iterations =  2.2

     total cpu time spent up to now is        3.7 secs

     total energy              =     -74.39221282 Ry
     estimated scf accuracy    <       0.02548825 Ry

     iteration #  3     ecut=    80.00 Ry     beta= 0.70
     Davidson diagonalization with overlap
     ethr =  1.27E-04,  avg # of iterations =  2.3

     total cpu time spent up to now is        4.3 secs

     total energy              =     -74.39005167 Ry
     estimated scf accuracy    <       0.10901720 Ry

     iteration #  4     ecut=    80.00 Ry     beta= 0.70
     Davidson diagonalization with overlap
     ethr =  1.27E-04,  avg # of iterations =  2.0

     total cpu time spent up to now is        4.9 secs

     total energy              =     -74.40112462 Ry
     estimated scf accuracy    <       0.00040327 Ry

     iteration #  5     ecut=    80.00 Ry     beta= 0.70
     Davidson diagonalization with overlap
     ethr =  2.02E-06,  avg # of iterations =  3.8

     total cpu time spent up to now is        5.6 secs

     total energy              =     -74.40117562 Ry
     estimated scf accuracy    <       0.00002457 Ry

     iteration #  6     ecut=    80.00 Ry     beta= 0.70
     Davidson diagonalization with overlap
     ethr =  1.23E-07,  avg # of iterations =  2.2

     total cpu time spent up to now is        6.2 secs

     total energy              =     -74.40118059 Ry
     estimated scf accuracy    <       0.00000064 Ry

     iteration #  7     ecut=    80.00 Ry     beta= 0.70
     Davidson diagonalization with overlap
     ethr =  3.19E-09,  avg # of iterations =  3.4

     total cpu time spent up to now is        6.8 secs

     total energy              =     -74.40118074 Ry
     estimated scf accuracy    <       0.00000003 Ry

     iteration #  8     ecut=    80.00 Ry     beta= 0.70
     Davidson diagonalization with overlap
     ethr =  1.68E-10,  avg # of iterations =  2.8

     total cpu time spent up to now is        7.5 secs

     End of self-consistent calculation

          k = 0.0000 0.0000 0.0000 (  6481 PWs)   bands (ev):

   -40.6824 -40.6048 -40.0686 -40.0667  -5.4209  -2.1065   1.1011   5.3150
     6.1090   6.1090   6.2202   8.6240   8.6240   9.6122

          k = 0.0000 0.0000 0.1410 (  6493 PWs)   bands (ev):

   -40.6824 -40.6048 -40.0688 -40.0665  -5.4199  -2.1445   1.4742   3.7870
     6.1365   6.1365   8.3366   8.4675   8.4675   9.6743

          k = 0.0000 0.1250 0.0000 (  6477 PWs)   bands (ev):

   -40.6788 -40.6071 -40.0678 -40.0660  -5.2382  -2.0015   1.2624   4.5621
     5.2353   6.3057   6.4684   7.6954   8.8006   9.1877

          k = 0.0000 0.1250 0.1410 (  6464 PWs)   bands (ev):

   -40.6788 -40.6071 -40.0680 -40.0659  -5.2372  -2.0377   1.6279   3.7839
     4.7803   6.3329   7.0967   8.5189   8.6487   9.5756

          k = 0.0000 0.2500 0.0000 (  6447 PWs)   bands (ev):

   -40.6690 -40.6141 -40.0658 -40.0645  -4.6979  -1.7756   1.7279   2.5639
     4.5075   6.8789   6.8903   7.0297   7.5688   9.2863

          k = 0.0000 0.2500 0.1410 (  6461 PWs)   bands (ev):

   -40.6690 -40.6141 -40.0659 -40.0643  -4.6963  -1.8031   2.0249   2.4991
     4.3035   5.4199   6.9165   7.9571   9.0864   9.1532

          k = 0.0000 0.3750 0.0000 (  6464 PWs)   bands (ev):

   -40.6551 -40.6253 -40.0637 -40.0630  -3.8318  -1.8711   1.4240   2.2431
     3.4680   5.5728   7.3852   7.7001   7.8368   9.7299

          k = 0.0000 0.3750 0.1410 (  6460 PWs)   bands (ev):

   -40.6551 -40.6253 -40.0638 -40.0629  -3.8296  -1.8783   1.3403   2.3158
     3.8457   5.1102   6.7961   7.8605   8.1446   9.6655

          k = 0.0000-0.5000 0.0000 (  6482 PWs)   bands (ev):

   -40.6396 -40.6396 -40.0626 -40.0626  -2.7508  -2.7508   1.6700   1.6700
     4.0973   4.0973   7.8883   7.8883   9.0248   9.0248

          k = 0.0000-0.5000 0.1410 (  6460 PWs)   bands (ev):

   -40.6396 -40.6396 -40.0626 -40.0626  -2.7488  -2.7488   1.5954   1.5954
     4.4530   4.4530   7.0414   7.0414   9.0379   9.0379

          k = 0.1250 0.1250 0.0000 (  6465 PWs)   bands (ev):

   -40.6755 -40.6093 -40.0670 -40.0654  -5.0544  -1.8865   1.4260   4.4521
     5.0167   5.2608   6.7516   7.0680   8.6747   9.6643

          k = 0.1250 0.1250 0.1410 (  6474 PWs)   bands (ev):

   -40.6755 -40.6093 -40.0671 -40.0652  -5.0531  -1.9216   1.7865   3.8813
     4.4846   5.3426   6.8682   7.6313   8.8723  10.2659

          k = 0.1250 0.2500 0.0000 (  6461 PWs)   bands (ev):

   -40.6664 -40.6157 -40.0650 -40.0638  -4.5103  -1.6277   1.8994   2.6522
     4.6637   5.2871   6.5219   7.1074   8.0152   8.6921

          k = 0.1250 0.2500 0.1410 (  6460 PWs)   bands (ev):

   -40.6664 -40.6157 -40.0652 -40.0637  -4.5086  -1.6557   2.1986   2.6142
     4.3218   5.3155   5.5604   7.8456   8.4054   9.2498

          k = 0.1250 0.3750 0.0000 (  6460 PWs)   bands (ev):

   -40.6534 -40.6259 -40.0630 -40.0623  -3.6378  -1.6750   1.5049   2.4284
     3.5627   5.4926   6.4435   7.0797   8.0111   8.3053

          k = 0.1250 0.3750 0.1410 (  6457 PWs)   bands (ev):

   -40.6534 -40.6259 -40.0631 -40.0623  -3.6353  -1.6829   1.4295   2.4955
     3.9190   5.2344   5.8737   7.3700   8.0593   8.1956

          k = 0.1250-0.5000 0.0000 (  6480 PWs)   bands (ev):

   -40.6391 -40.6391 -40.0619 -40.0619  -2.5478  -2.5478   1.7841   1.7841
     4.2056   4.2056   7.2923   7.2923   7.8898   7.8898

          k = 0.1250-0.5000 0.1410 (  6450 PWs)   bands (ev):

   -40.6391 -40.6391 -40.0619 -40.0619  -2.5455  -2.5455   1.7075   1.7075
     4.5791   4.5791   6.7336   6.7336   7.7325   7.7325

          k = 0.2500 0.2500 0.0000 (  6480 PWs)   bands (ev):

   -40.6591 -40.6203 -40.0632 -40.0622  -3.9550  -1.2559   2.3995   2.5160
     3.7756   5.0692   5.1737   7.6813   7.7623   8.5536

          k = 0.2500 0.2500 0.1410 (  6457 PWs)   bands (ev):

   -40.6591 -40.6203 -40.0633 -40.0621  -3.9526  -1.2825   2.5518   2.6983
     3.5419   4.9455   5.0390   6.5764   8.4353   8.8716

          k = 0.2500 0.3750 0.0000 (  6466 PWs)   bands (ev):

   -40.6489 -40.6279 -40.0612 -40.0607  -3.0627  -1.1127   1.6333   2.9759
     3.7807   4.0315   5.6042   6.3909   6.9379   7.9674

          k = 0.2500 0.3750 0.1410 (  6454 PWs)   bands (ev):

   -40.6489 -40.6279 -40.0613 -40.0607  -3.0593  -1.1228   1.6016   3.0092
     3.8172   4.2389   5.3786   5.9928   7.2791   7.9877

          k = 0.2500-0.5000 0.0000 (  6464 PWs)   bands (ev):

   -40.6378 -40.6378 -40.0602 -40.0602  -1.9458  -1.9458   2.0460   2.0460
     4.3232   4.3232   5.3875   5.3875   7.2733   7.2733

          k = 0.2500-0.5000 0.1410 (  6448 PWs)   bands (ev):

   -40.6378 -40.6378 -40.0602 -40.0602  -1.9424  -1.9424   1.9755   1.9755
     4.6160   4.6160   5.2559   5.2559   7.1710   7.1710

          k = 0.3750 0.3750 0.0000 (  6450 PWs)   bands (ev):

   -40.6428 -40.6314 -40.0594 -40.0591  -2.1362  -0.4323   1.2955   3.2521
     3.3758   3.9664   3.9953   6.4469   6.6905   6.7509

          k = 0.3750 0.3750 0.1410 (  6444 PWs)   bands (ev):

   -40.6428 -40.6314 -40.0594 -40.0591  -2.1310  -0.4435   1.3329   3.0615
     3.3994   3.7237   4.3912   6.0350   6.9615   7.5937

          k = 0.3750-0.5000 0.0000 (  6444 PWs)   bands (ev):

   -40.6366 -40.6366 -40.0585 -40.0585  -0.9788  -0.9788   1.8391   1.8391
     3.5784   3.5784   5.1906   5.1906   6.5675   6.5675

          k = 0.3750-0.5000 0.1410 (  6462 PWs)   bands (ev):

   -40.6366 -40.6366 -40.0585 -40.0585  -0.9737  -0.9737   1.8521   1.8521
     3.4090   3.4090   5.2987   5.2987   7.0464   7.0464

          k =-0.5000-0.5000 0.0000 (  6456 PWs)   bands (ev):

   -40.6360 -40.6360 -40.0578 -40.0578  -0.0339  -0.0339   0.8838   0.8838
     3.5579   3.5579   5.2538   5.2538   6.3142   6.3142

          k =-0.5000-0.5000 0.1410 (  6476 PWs)   bands (ev):

   -40.6360 -40.6360 -40.0578 -40.0578  -0.0334  -0.0334   0.9217   0.9217
     3.3107   3.3107   5.2538   5.2538   7.1636   7.1636

     the Fermi energy is     5.3465 ev

!    total energy              =     -74.40118075 Ry
     estimated scf accuracy    <          1.6E-09 Ry
     smearing contrib. (-TS)   =      -0.00338651 Ry
     internal energy E=F+TS    =     -74.39779424 Ry

     The total energy is F=E-TS. E is the sum of the following terms:
     one-electron contribution =     -26.61148027 Ry
     hartree contribution      =      14.08903357 Ry
     xc contribution           =     -19.88844021 Ry
     ewald contribution        =     -41.98690733 Ry

     convergence has been achieved in   8 iterations

     Forces acting on atoms (cartesian axes, Ry/au):

     atom    1 type  1   force =     0.00000000    0.00000000    0.00929619
     atom    2 type  1   force =     0.00000000    0.00000000   -0.00929619
     atom    3 type  1   force =     0.00000000    0.00000000   -0.04692810
     atom    4 type  1   force =     0.00000000    0.00000000    0.04692810
     atom    5 type  2   force =     0.00000000    0.00000000   -0.09101622
     atom    6 type  2   force =     0.00000000    0.00000000    0.09101622
     The non-local contrib.  to forces
     atom    1 type  1   force =     0.00000000    0.00000000    0.02293951
     atom    2 type  1   force =     0.00000000    0.00000000   -0.02293951
     atom    3 type  1   force =     0.00000000    0.00000000   -0.02452542
     atom    4 type  1   force =     0.00000000    0.00000000    0.02452542
     atom    5 type  2   force =     0.00000000    0.00000000   -0.16392190
     atom    6 type  2   force =     0.00000000    0.00000000    0.16392190
     The ionic contribution  to forces
     atom    1 type  1   force =    -0.00000000    0.00000000    0.76511953
     atom    2 type  1   force =     0.00000000   -0.00000000   -0.76511953
     atom    3 type  1   force =    -0.00000000   -0.00000000   -1.20052924
     atom    4 type  1   force =     0.00000000   -0.00000000    1.20052924
     atom    5 type  2   force =    -0.00000000    0.00000000    0.51123211
     atom    6 type  2   force =    -0.00000000   -0.00000000   -0.51123211
     The local contribution  to forces
     atom    1 type  1   force =     0.00000000    0.00000000   -0.77876832
     atom    2 type  1   force =     0.00000000    0.00000000    0.77876832
     atom    3 type  1   force =    -0.00000000    0.00000000    1.17809149
     atom    4 type  1   force =     0.00000000    0.00000000   -1.17809149
     atom    5 type  2   force =     0.00000000   -0.00000000   -0.44821828
     atom    6 type  2   force =     0.00000000   -0.00000000    0.44821828
     The core correction contribution to forces
     atom    1 type  1   force =     0.00000000    0.00000000    0.00000000
     atom    2 type  1   force =     0.00000000    0.00000000    0.00000000
     atom    3 type  1   force =     0.00000000    0.00000000    0.00000000
     atom    4 type  1   force =     0.00000000    0.00000000    0.00000000
     atom    5 type  2   force =    -0.00000000   -0.00000000    0.00993378
     atom    6 type  2   force =     0.00000000   -0.00000000   -0.00993378
     The Hubbard contrib.    to forces
     atom    1 type  1   force =     0.00000000    0.00000000    0.00000000
     atom    2 type  1   force =     0.00000000    0.00000000    0.00000000
     atom    3 type  1   force =     0.00000000    0.00000000    0.00000000
     atom    4 type  1   force =     0.00000000    0.00000000    0.00000000
     atom    5 type  2   force =     0.00000000    0.00000000    0.00000000
     atom    6 type  2   force =     0.00000000    0.00000000    0.00000000
     The SCF correction term to forces
     atom    1 type  1   force =     0.00000000   -0.00000000    0.00000547
     atom    2 type  1   force =     0.00000000    0.00000000   -0.00000547
     atom    3 type  1   force =     0.00000000   -0.00000000    0.00003508
     atom    4 type  1   force =     0.00000000   -0.00000000   -0.00003508
     atom    5 type  2   force =     0.00000000    0.00000000   -0.00004193
     atom    6 type  2   force =     0.00000000    0.00000000    0.00004193

     Total force =     0.145414     Total SCF correction =     0.000078


     Computing stress (Cartesian axis) and pressure

          total   stress  (Ry/bohr**3)                   (kbar)     P=      125.30
   0.00080656   0.00000000   0.00000000          118.65        0.00        0.00
   0.00000000   0.00080656   0.00000000            0.00      118.65        0.00
   0.00000000   0.00000000   0.00094221            0.00        0.00      138.60


     BFGS Geometry Optimization
     Energy error            =      0.0E+00 Ry
     Gradient error          =      9.1E-02 Ry/Bohr
     Cell gradient error     =      3.8E+02 kbar

     number of scf cycles    =   1
     number of bfgs steps    =   0

     enthalpy           new  =     -72.5838850935 Ry

     new trust radius        =       0.2997156969 bohr
ibrav =      6
 celldm(1) =      5.69786722
 celldm(3) =      2.37256887
Input lattice vectors:
     0.93519062     0.00000000     0.00000000
     0.00000000     0.93519062     0.00000000
     0.00000000     0.00000000     2.21880415
New lattice vectors in INITIAL alat:
     0.93519062     0.00000000     0.00000000
     0.00000000     0.93519062     0.00000000
     0.00000000     0.00000000     2.21880415
New lattice vectors in NEW alat (for information only):
     1.00000000     0.00000000     0.00000000
     0.00000000     1.00000000     0.00000000
     0.00000000     0.00000000     2.37256887
Discrepancy in bohr =     0.000000    0.000000    0.000000
     new conv_thr            =       0.0000000100 Ry

     new unit-cell volume =    438.89012 a.u.^3 (    65.03681 Ang^3 )
     density =      2.14305 g/cm^3

CELL_PARAMETERS (alat=  6.09273351)
   0.935190620   0.000000000   0.000000000
   0.000000000   0.935190620   0.000000000
   0.000000000   0.000000000   2.218804150

ATOMIC_POSITIONS (crystal)
Li            0.0000000000        0.5000000000        0.4229044256
Li            0.5000000000        0.0000000000        0.5770955744
Li            0.0000000000        0.5000000000        0.8027198276
Li            0.5000000000        0.0000000000        0.1972801724
Si            0.0000000000        0.5000000000        0.1215808321
Si            0.5000000000        0.0000000000        0.8784191679



     Writing config-only to output data dir ./output/LiSi.save/
     NEW-OLD atomic charge density approx. for the potential
     extrapolated charge   15.63975, renormalised to   20.00000

     total cpu time spent up to now is        9.9 secs

     Self-consistent Calculation

     iteration #  1     ecut=    80.00 Ry     beta= 0.70
     Davidson diagonalization with overlap
     ethr =  1.00E-06,  avg # of iterations = 11.3

     total cpu time spent up to now is       11.6 secs

     total energy              =     -72.87789805 Ry
     estimated scf accuracy    <       1.39136045 Ry

     iteration #  2     ecut=    80.00 Ry     beta= 0.70
     Davidson diagonalization with overlap
     ethr =  6.96E-03,  avg # of iterations =  5.4

     total cpu time spent up to now is       12.6 secs

     total energy              =     -72.31956253 Ry
     estimated scf accuracy    <      25.98579484 Ry

     iteration #  3     ecut=    80.00 Ry     beta= 0.70
     Davidson diagonalization with overlap
     ethr =  6.96E-03,  avg # of iterations =  4.3

     total cpu time spent up to now is       13.3 secs

     total energy              =     -74.23357657 Ry
     estimated scf accuracy    <       1.19605965 Ry

     iteration #  4     ecut=    80.00 Ry     beta= 0.70
     Davidson diagonalization with overlap
     ethr =  5.98E-03,  avg # of iterations =  1.3

     total cpu time spent up to now is       13.8 secs

     total energy              =     -74.28336837 Ry
     estimated scf accuracy    <       0.15805515 Ry

     iteration #  5     ecut=    80.00 Ry     beta= 0.70
     Davidson diagonalization with overlap
     ethr =  7.90E-04,  avg # of iterations =  2.5

     total cpu time spent up to now is       14.3 secs

     total energy              =     -74.28948975 Ry
     estimated scf accuracy    <       0.02696496 Ry

     iteration #  6     ecut=    80.00 Ry     beta= 0.70
     Davidson diagonalization with overlap
     ethr =  1.35E-04,  avg # of iterations =  3.1

     total cpu time spent up to now is       14.9 secs

     total energy              =     -74.29061142 Ry
     estimated scf accuracy    <       0.00414267 Ry

     iteration #  7     ecut=    80.00 Ry     beta= 0.70
     Davidson diagonalization with overlap
     ethr =  2.07E-05,  avg # of iterations =  3.5

     total cpu time spent up to now is       15.6 secs

     total energy              =     -74.29112979 Ry
     estimated scf accuracy    <       0.00000799 Ry

     iteration #  8     ecut=    80.00 Ry     beta= 0.70
     Davidson diagonalization with overlap
     ethr =  4.00E-08,  avg # of iterations =  5.3

     total cpu time spent up to now is       16.4 secs

     total energy              =     -74.29114977 Ry
     estimated scf accuracy    <       0.00001171 Ry

     iteration #  9     ecut=    80.00 Ry     beta= 0.70
     Davidson diagonalization with overlap
     ethr =  4.00E-08,  avg # of iterations =  1.9

     total cpu time spent up to now is       17.0 secs

     total energy              =     -74.29115104 Ry
     estimated scf accuracy    <       0.00000362 Ry

     iteration # 10     ecut=    80.00 Ry     beta= 0.70
     Davidson diagonalization with overlap
     ethr =  1.81E-08,  avg # of iterations =  1.7

     total cpu time spent up to now is       17.5 secs

     total energy              =     -74.29115164 Ry
     estimated scf accuracy    <       0.00000209 Ry

     iteration # 11     ecut=    80.00 Ry     beta= 0.70
     Davidson diagonalization with overlap
     ethr =  1.05E-08,  avg # of iterations =  1.0

     total cpu time spent up to now is       18.0 secs

     total energy              =     -74.29115181 Ry
     estimated scf accuracy    <       0.00000001 Ry

     iteration # 12     ecut=    80.00 Ry     beta= 0.70
     Davidson diagonalization with overlap
     ethr =  7.38E-11,  avg # of iterations =  3.5

     total cpu time spent up to now is       18.7 secs

     total energy              =     -74.29115181 Ry
     estimated scf accuracy    <       0.00000001 Ry

     iteration # 13     ecut=    80.00 Ry     beta= 0.70
     Davidson diagonalization with overlap
     ethr =  5.64E-11,  avg # of iterations =  1.1

     total cpu time spent up to now is       19.1 secs

     End of self-consistent calculation

          k = 0.0000 0.0000 0.0000 (  6481 PWs)   bands (ev):

   -38.8070 -38.6572 -38.3615 -38.3574  -5.0570  -0.6473   2.3853   7.2426
     7.9058   7.9058   8.1483  10.9200  11.1522  11.1522

          k = 0.0000 0.0000 0.1502 (  6493 PWs)   bands (ev):

   -38.8069 -38.6572 -38.3622 -38.3566  -5.0578  -0.6828   2.7416   5.5571
     7.9343   7.9343  10.6391  10.9325  10.9325  10.9490

          k = 0.0000 0.1337 0.0000 (  6477 PWs)   bands (ev):

   -38.7998 -38.6612 -38.3598 -38.3561  -4.8452  -0.5298   2.5526   6.0361
     7.1372   8.1329   8.3206   9.9652  11.3703  11.4784

          k = 0.0000 0.1337 0.1502 (  6464 PWs)   bands (ev):

   -38.7997 -38.6613 -38.3606 -38.3553  -4.8458  -0.5644   2.9039   5.5588
     6.1862   8.1611   9.2196  11.0024  11.1548  11.6172

          k = 0.0000 0.2673 0.0000 (  6447 PWs)   bands (ev):

   -38.7799 -38.6736 -38.3557 -38.3531  -4.2153  -0.2876   3.0320   3.6825
     6.2914   8.5279   8.8123   9.1925  10.0093  11.9961

          k = 0.0000 0.2673 0.1502 (  6461 PWs)   bands (ev):

   -38.7799 -38.6736 -38.3565 -38.3523  -4.2155  -0.3144   3.3188   3.6569
     5.9670   7.2553   8.8395  10.4658  11.3193  11.7981

          k = 0.0000 0.4010 0.0000 (  6464 PWs)   bands (ev):

   -38.7519 -38.6942 -38.3515 -38.3502  -3.1900  -0.5709   2.4831   3.5495
     5.1240   7.2050   9.5987   9.9332  10.0728  12.6427

          k = 0.0000 0.4010 0.1502 (  6460 PWs)   bands (ev):

   -38.7519 -38.6942 -38.3520 -38.3497  -3.1892  -0.5743   2.4109   3.6349
     5.4841   6.6794   9.1298   9.9587  10.4901  12.5463

          k = 0.0000-0.5347 0.0000 (  6482 PWs)   bands (ev):

   -38.7215 -38.7215 -38.3494 -38.3494  -1.8492  -1.8492   2.9417   2.9417
     5.6749   5.6749  10.2188  10.2188  13.1755  13.1755

          k = 0.0000-0.5347 0.1502 (  6460 PWs)   bands (ev):

   -38.7215 -38.7215 -38.3494 -38.3494  -1.8471  -1.8471   2.8728   2.8728
     5.9897   5.9897   9.3325   9.3325  11.4601  11.4601

          k = 0.1337 0.1337 0.0000 (  6465 PWs)   bands (ev):

   -38.7931 -38.6649 -38.3581 -38.3548  -4.6322  -0.3985   2.7239   5.7561
     6.8103   7.1686   8.5063   9.1201  11.3929  12.2407

          k = 0.1337 0.1337 0.1502 (  6474 PWs)   bands (ev):

   -38.7930 -38.6650 -38.3590 -38.3540  -4.6327  -0.4330   3.0736   5.7108
     5.7876   6.9310   8.8638   9.9435  11.6083  13.2332

          k = 0.1337 0.2673 0.0000 (  6461 PWs)   bands (ev):

   -38.7745 -38.6763 -38.3540 -38.3517  -3.9987  -0.1097   3.2167   3.7488
     6.4703   7.0053   8.5114   8.8045  10.2868  11.5024

          k = 0.1337 0.2673 0.1502 (  6460 PWs)   bands (ev):

   -38.7745 -38.6763 -38.3548 -38.3509  -3.9986  -0.1387   3.5062   3.7507
     6.0533   7.0727   7.2068  10.2253  10.8813  11.7486

          k = 0.1337 0.4010 0.0000 (  6460 PWs)   bands (ev):

   -38.7485 -38.6952 -38.3498 -38.3487  -2.9670  -0.3316   2.5617   3.7618
     5.2179   7.1321   8.3370   9.1744  10.2732  10.8613

          k = 0.1337 0.4010 0.1502 (  6457 PWs)   bands (ev):

   -38.7485 -38.6952 -38.3504 -38.3482  -2.9657  -0.3360   2.4935   3.8477
     5.5502   6.8202   7.7729   9.5372  10.4782  10.6336

          k = 0.1337-0.5347 0.0000 (  6480 PWs)   bands (ev):

   -38.7203 -38.7203 -38.3478 -38.3478  -1.6154  -1.6154   3.0826   3.0826
     5.7754   5.7754   9.4252   9.4252  10.1511  10.1511

          k = 0.1337-0.5347 0.1502 (  6450 PWs)   bands (ev):

   -38.7203 -38.7203 -38.3478 -38.3478  -1.6127  -1.6127   3.0063   3.0063
     6.1211   6.1211   8.9090   8.9090   9.9103   9.9103

          k = 0.2673 0.2673 0.0000 (  6480 PWs)   bands (ev):

   -38.7598 -38.6845 -38.3500 -38.3483  -3.3543   0.3437   3.4766   3.7532
     5.3232   6.8683   7.0611   9.5022   9.8361  10.2375

          k = 0.2673 0.2673 0.1502 (  6457 PWs)   bands (ev):

   -38.7598 -38.6845 -38.3507 -38.3476  -3.3533   0.3116   3.5105   4.0726
     5.1721   6.5856   6.6642   8.9765  10.8647  11.0816

          k = 0.2673 0.4010 0.0000 (  6466 PWs)   bands (ev):

   -38.7392 -38.6984 -38.3459 -38.3450  -2.3035   0.3774   2.6487   4.3955
     5.4211   5.5356   7.6479   8.1307   8.8816  10.3114

          k = 0.2673 0.4010 0.1502 (  6454 PWs)   bands (ev):

   -38.7392 -38.6984 -38.3463 -38.3446  -2.3008   0.3696   2.6127   4.4684
     5.3946   5.7682   7.1127   8.0286   9.3853  10.2418

          k = 0.2673-0.5347 0.0000 (  6464 PWs)   bands (ev):

   -38.7175 -38.7175 -38.3439 -38.3439  -0.9195  -0.9195   3.4285   3.4285
     5.8469   5.8469   7.2093   7.2093   9.3356   9.3356

          k = 0.2673-0.5347 0.1502 (  6448 PWs)   bands (ev):

   -38.7175 -38.7175 -38.3439 -38.3439  -0.9148  -0.9148   3.3388   3.3388
     6.2023   6.2023   7.0104   7.0104   9.2790   9.2790

          k = 0.4010 0.4010 0.0000 (  6450 PWs)   bands (ev):

   -38.7269 -38.7048 -38.3418 -38.3414  -1.2206   1.3849   2.0673   4.6240
     5.2947   5.4417   5.4632   8.2029   8.3450   8.8204

          k = 0.4010 0.4010 0.1502 (  6444 PWs)   bands (ev):

   -38.7269 -38.7048 -38.3420 -38.3411  -1.2150   1.3653   2.1027   4.4516
     5.1654   5.3120   5.8581   7.7279   9.1681   9.3941

          k = 0.4010-0.5347 0.0000 (  6444 PWs)   bands (ev):

   -38.7146 -38.7146 -38.3400 -38.3400   0.2170   0.2170   3.2887   3.2887
     4.9833   4.9833   6.8659   6.8659   8.3397   8.3397

          k = 0.4010-0.5347 0.1502 (  6462 PWs)   bands (ev):

   -38.7146 -38.7146 -38.3400 -38.3400   0.2270   0.2270   3.2835   3.2835
     4.8115   4.8115   6.9807   6.9807   8.9492   8.9492

          k =-0.5347-0.5347 0.0000 (  6456 PWs)   bands (ev):

   -38.7134 -38.7134 -38.3384 -38.3384   1.5944   1.5944   1.8983   1.8983
     4.9905   4.9905   6.9993   6.9993   7.8441   7.8441

          k =-0.5347-0.5347 0.1502 (  6476 PWs)   bands (ev):

   -38.7134 -38.7134 -38.3384 -38.3384   1.6302   1.6302   1.9002   1.9002
     4.6877   4.6877   6.9928   6.9928   8.9000   8.9000

     the Fermi energy is     7.0674 ev

!    total energy              =     -74.29115181 Ry
     estimated scf accuracy    <          2.2E-10 Ry
     smearing contrib. (-TS)   =      -0.00278039 Ry
     internal energy E=F+TS    =     -74.28837142 Ry

     The total energy is F=E-TS. E is the sum of the following terms:
     one-electron contribution =     -22.58253340 Ry
     hartree contribution      =      13.44202243 Ry
     xc contribution           =     -20.28129235 Ry
     ewald contribution        =     -44.86656810 Ry

     convergence has been achieved in  13 iterations

     Forces acting on atoms (cartesian axes, Ry/au):

     atom    1 type  1   force =     0.00000000    0.00000000    0.01595562
     atom    2 type  1   force =     0.00000000    0.00000000   -0.01595562
     atom    3 type  1   force =     0.00000000    0.00000000   -0.08893162
     atom    4 type  1   force =     0.00000000    0.00000000    0.08893162
     atom    5 type  2   force =     0.00000000    0.00000000   -0.10225320
     atom    6 type  2   force =     0.00000000    0.00000000    0.10225320
     The non-local contrib.  to forces
     atom    1 type  1   force =     0.00000000    0.00000000    0.01895118
     atom    2 type  1   force =     0.00000000    0.00000000   -0.01895118
     atom    3 type  1   force =     0.00000000    0.00000000   -0.02248826
     atom    4 type  1   force =     0.00000000    0.00000000    0.02248826
     atom    5 type  2   force =     0.00000000    0.00000000   -0.15725236
     atom    6 type  2   force =     0.00000000    0.00000000    0.15725236
     The ionic contribution  to forces
     atom    1 type  1   force =    -0.00000000    0.00000000    0.80556660
     atom    2 type  1   force =     0.00000000   -0.00000000   -0.80556660
     atom    3 type  1   force =    -0.00000000   -0.00000000   -1.47516201
     atom    4 type  1   force =     0.00000000   -0.00000000    1.47516201
     atom    5 type  2   force =    -0.00000000    0.00000000    0.70170362
     atom    6 type  2   force =     0.00000000    0.00000000   -0.70170362
     The local contribution  to forces
     atom    1 type  1   force =     0.00000000    0.00000000   -0.80855728
     atom    2 type  1   force =     0.00000000   -0.00000000    0.80855728
     atom    3 type  1   force =     0.00000000    0.00000000    1.40870203
     atom    4 type  1   force =     0.00000000   -0.00000000   -1.40870203
     atom    5 type  2   force =     0.00000000    0.00000000   -0.65535103
     atom    6 type  2   force =     0.00000000   -0.00000000    0.65535103
     The core correction contribution to forces
     atom    1 type  1   force =     0.00000000    0.00000000    0.00000000
     atom    2 type  1   force =     0.00000000    0.00000000    0.00000000
     atom    3 type  1   force =     0.00000000    0.00000000    0.00000000
     atom    4 type  1   force =     0.00000000    0.00000000    0.00000000
     atom    5 type  2   force =     0.00000000   -0.00000000    0.00866168
     atom    6 type  2   force =    -0.00000000    0.00000000   -0.00866168
     The Hubbard contrib.    to forces
     atom    1 type  1   force =     0.00000000    0.00000000    0.00000000
     atom    2 type  1   force =     0.00000000    0.00000000    0.00000000
     atom    3 type  1   force =     0.00000000    0.00000000    0.00000000
     atom    4 type  1   force =     0.00000000    0.00000000    0.00000000
     atom    5 type  2   force =     0.00000000    0.00000000    0.00000000
     atom    6 type  2   force =     0.00000000    0.00000000    0.00000000
     The SCF correction term to forces
     atom    1 type  1   force =     0.00000000    0.00000000   -0.00000488
     atom    2 type  1   force =     0.00000000    0.00000000    0.00000488
     atom    3 type  1   force =     0.00000000    0.00000000    0.00001661
     atom    4 type  1   force =    -0.00000000   -0.00000000   -0.00001661
     atom    5 type  2   force =     0.00000000   -0.00000000   -0.00001511
     atom    6 type  2   force =     0.00000000   -0.00000000    0.00001511

     Total force =     0.192972     Total SCF correction =     0.000032


     Computing stress (Cartesian axis) and pressure

          total   stress  (Ry/bohr**3)                   (kbar)     P=      310.44
   0.00200534   0.00000000   0.00000000          295.00        0.00        0.00
   0.00000000   0.00200534   0.00000000            0.00      295.00        0.00
   0.00000000   0.00000000   0.00232029            0.00        0.00      341.33

     Energy error            =      2.2E-01 Ry
     Gradient error          =      1.0E-01 Ry/Bohr
     Cell gradient error     =      2.1E+02 kbar

     number of scf cycles    =   2
     number of bfgs steps    =   1

     enthalpy           old  =     -72.5838850935 Ry
     enthalpy           new  =     -72.7993946199 Ry

     CASE: enthalpy          _new < enthalpy          _old

     new trust radius        =       0.3323426465 bohr
ibrav =      6
 celldm(1) =      5.24591711
 celldm(3) =      2.41372407
Input lattice vectors:
     0.86101207     0.00000000     0.00000000
     0.00000000     0.86101207     0.00000000
     0.00000000     0.00000000     2.07824556
New lattice vectors in INITIAL alat:
     0.86101207     0.00000000     0.00000000
     0.00000000     0.86101207     0.00000000
     0.00000000     0.00000000     2.07824556
New lattice vectors in NEW alat (for information only):
     1.00000000     0.00000000     0.00000000
     0.00000000     1.00000000     0.00000000
     0.00000000     0.00000000     2.41372407
Discrepancy in bohr =     0.000000    0.000000    0.000000
     new conv_thr            =       0.0000000100 Ry

     new unit-cell volume =    348.45917 a.u.^3 (    51.63632 Ang^3 )
     density =      2.69921 g/cm^3

CELL_PARAMETERS (alat=  6.09273351)
   0.861012073   0.000000000   0.000000000
   0.000000000   0.861012073   0.000000000
   0.000000000   0.000000000   2.078245565

ATOMIC_POSITIONS (crystal)
Li            0.0000000000        0.5000000000        0.4251197967
Li            0.5000000000        0.0000000000        0.5748802033
Li            0.0000000000        0.5000000000        0.7904388196
Li            0.5000000000        0.0000000000        0.2095611804
Si            0.0000000000        0.5000000000        0.1069537176
Si            0.5000000000        0.0000000000        0.8930462824



     Writing config-only to output data dir ./output/LiSi.save/
     NEW-OLD atomic charge density approx. for the potential

     negative rho (up, down):  8.680E-06 0.000E+00
     extrapolated charge   14.81472, renormalised to   20.00000

     total cpu time spent up to now is       21.5 secs

     Self-consistent Calculation

     iteration #  1     ecut=    80.00 Ry     beta= 0.70
     Davidson diagonalization with overlap
     ethr =  1.00E-06,  avg # of iterations = 12.8

     total cpu time spent up to now is       23.4 secs

     total energy              =     -72.17092388 Ry
     estimated scf accuracy    <       1.95664289 Ry

     iteration #  2     ecut=    80.00 Ry     beta= 0.70
     Davidson diagonalization with overlap
     ethr =  9.78E-03,  avg # of iterations =  5.3

     total cpu time spent up to now is       24.3 secs

     total energy              =     -71.46998418 Ry
     estimated scf accuracy    <      32.04776177 Ry

     iteration #  3     ecut=    80.00 Ry     beta= 0.70
     Davidson diagonalization with overlap
     ethr =  9.78E-03,  avg # of iterations =  4.1

     total cpu time spent up to now is       25.0 secs

     total energy              =     -73.97137831 Ry
     estimated scf accuracy    <       1.28517354 Ry

     iteration #  4     ecut=    80.00 Ry     beta= 0.70
     Davidson diagonalization with overlap
     ethr =  6.43E-03,  avg # of iterations =  1.7

     total cpu time spent up to now is       25.5 secs

     total energy              =     -74.05955086 Ry
     estimated scf accuracy    <       0.05841678 Ry

     iteration #  5     ecut=    80.00 Ry     beta= 0.70
     Davidson diagonalization with overlap
     ethr =  2.92E-04,  avg # of iterations =  4.1

     total cpu time spent up to now is       26.1 secs

     total energy              =     -74.07065074 Ry
     estimated scf accuracy    <       0.00159686 Ry

     iteration #  6     ecut=    80.00 Ry     beta= 0.70
     Davidson diagonalization with overlap
     ethr =  7.98E-06,  avg # of iterations =  3.6

     total cpu time spent up to now is       26.8 secs

     total energy              =     -74.07068849 Ry
     estimated scf accuracy    <       0.00639522 Ry

     iteration #  7     ecut=    80.00 Ry     beta= 0.70
     Davidson diagonalization with overlap
     ethr =  7.98E-06,  avg # of iterations =  2.0

     total cpu time spent up to now is       27.4 secs

     total energy              =     -74.07138937 Ry
     estimated scf accuracy    <       0.00002240 Ry

     iteration #  8     ecut=    80.00 Ry     beta= 0.70
     Davidson diagonalization with overlap
     ethr =  1.12E-07,  avg # of iterations =  3.0

     total cpu time spent up to now is       27.9 secs

     total energy              =     -74.07139346 Ry
     estimated scf accuracy    <       0.00000196 Ry

     iteration #  9     ecut=    80.00 Ry     beta= 0.70
     Davidson diagonalization with overlap
     ethr =  9.82E-09,  avg # of iterations =  1.9

     total cpu time spent up to now is       28.5 secs

     total energy              =     -74.07139384 Ry
     estimated scf accuracy    <       0.00000008 Ry

     iteration # 10     ecut=    80.00 Ry     beta= 0.70
     Davidson diagonalization with overlap
     ethr =  3.96E-10,  avg # of iterations =  2.7

     total cpu time spent up to now is       29.1 secs

     End of self-consistent calculation

          k = 0.0000 0.0000 0.0000 (  6481 PWs)   bands (ev):

   -36.3911 -36.1347 -36.0781 -36.0061  -4.7807   1.5098   4.5293   9.8987
     9.9976  10.4841  10.4841  12.6288  14.9181  14.9181

          k = 0.0000 0.0000 0.1604 (  6493 PWs)   bands (ev):

   -36.3902 -36.1406 -36.0713 -36.0079  -4.7821   1.4984   4.8495   7.7719
    10.5095  10.5095  12.6463  12.8954  14.5887  14.5887

          k = 0.0000 0.1452 0.0000 (  6477 PWs)   bands (ev):

   -36.3737 -36.1293 -36.0755 -36.0165  -4.5255   1.6439   4.6830   7.9235
     9.7609  10.2377  10.7454  13.3031  14.4141  15.1885

          k = 0.0000 0.1452 0.1604 (  6464 PWs)   bands (ev):

   -36.3730 -36.1346 -36.0692 -36.0183  -4.5268   1.6308   5.0008   7.8879
     7.9524  10.7704  12.1740  13.4422  14.7294  14.8636

          k = 0.0000 0.2904 0.0000 (  6447 PWs)   bands (ev):

   -36.3257 -36.1179 -36.0699 -36.0454  -3.7635   1.9037   5.0695   5.1102
     8.8294  10.4740  11.5298  12.3072  13.3316  15.9961

          k = 0.0000 0.2904 0.1604 (  6461 PWs)   bands (ev):

   -36.3251 -36.1211 -36.0653 -36.0473  -3.7645   1.8914   5.0513   5.3967
     8.1480   9.9358  11.5537  13.8691  14.1326  15.3455

          k = 0.0000 0.4355 0.0000 (  6464 PWs)   bands (ev):

   -36.2577 -36.1267 -36.0717 -36.0665  -2.5087   1.1231   3.9804   5.4769
     7.6194   9.5025  12.7050  12.8380  13.0574  15.9563

          k = 0.0000 0.4355 0.1604 (  6460 PWs)   bands (ev):

   -36.2574 -36.1270 -36.0744 -36.0637  -2.5088   1.1267   3.9350   5.5536
     7.9382   8.9112  12.4261  12.8601  13.6573  15.5975

          k = 0.0000-0.5807 0.0000 (  6482 PWs)   bands (ev):

   -36.1847 -36.1847 -36.0691 -36.0691  -0.8035  -0.8035   4.7667   4.7667
     8.0625   8.0625  13.3558  13.3558  16.2305  16.2305

          k = 0.0000-0.5807 0.1604 (  6460 PWs)   bands (ev):

   -36.1846 -36.1846 -36.0692 -36.0692  -0.8017  -0.8017   4.7184   4.7184
     8.3043   8.3043  12.4799  12.4799  14.6875  14.6875

          k = 0.1452 0.1452 0.0000 (  6465 PWs)   bands (ev):

   -36.3574 -36.1244 -36.0728 -36.0256  -4.2694   1.7958   4.8449   7.5140
     8.9628   9.7905  10.7039  12.1762  15.0840  15.4420

          k = 0.1452 0.1452 0.1604 (  6474 PWs)   bands (ev):

   -36.3568 -36.1290 -36.0671 -36.0274  -4.2707   1.7799   5.1658   7.5391
     8.0316   9.0525  11.8306  12.9481  15.1722  16.3304

          k = 0.1452 0.2904 0.0000 (  6461 PWs)   bands (ev):

   -36.3125 -36.1147 -36.0670 -36.0501  -3.5053   2.1201   5.1369   5.2989
     9.0364   9.1564  11.1100  11.3943  13.1770  15.8080

          k = 0.1452 0.2904 0.1604 (  6460 PWs)   bands (ev):

   -36.3120 -36.1174 -36.0629 -36.0521  -3.5061   2.1025   5.1304   5.6015
     8.3216   9.2445   9.8849  13.4010  14.1071  15.5042

          k = 0.1452 0.4355 0.0000 (  6460 PWs)   bands (ev):

   -36.2492 -36.1273 -36.0687 -36.0631  -2.2472   1.4031   4.0925   5.7203
     7.7101   9.3680  10.9658  12.1292  13.1113  14.4514

          k = 0.1452 0.4355 0.1604 (  6457 PWs)   bands (ev):

   -36.2489 -36.1275 -36.0714 -36.0606  -2.2469   1.4065   4.0418   5.8071
     8.0113   8.9785  10.4650  12.4655  13.5868  14.3400

          k = 0.1452-0.5807 0.0000 (  6480 PWs)   bands (ev):

   -36.1816 -36.1816 -36.0652 -36.0652  -0.5367  -0.5367   4.9644   4.9644
     8.1311   8.1311  12.3406  12.3406  13.2081  13.2081

          k = 0.1452-0.5807 0.1604 (  6450 PWs)   bands (ev):

   -36.1815 -36.1815 -36.0653 -36.0653  -0.5342  -0.5342   4.9025   4.9025
     8.4182   8.4182  11.9916  11.9916  12.7421  12.7421

          k = 0.2904 0.2904 0.0000 (  6480 PWs)   bands (ev):

   -36.2764 -36.1125 -36.0605 -36.0599  -2.7353   2.6851   4.7793   5.8364
     7.2198   9.4368   9.7808  11.8838  12.2228  13.8613

          k = 0.2904 0.2904 0.1604 (  6457 PWs)   bands (ev):

   -36.2760 -36.1135 -36.0631 -36.0566  -2.7354   2.6536   4.8063   6.1657
     7.2052   8.8222   9.0632  12.5064  13.5092  14.2702

          k = 0.2904 0.4355 0.0000 (  6466 PWs)   bands (ev):

   -36.2264 -36.1318 -36.0608 -36.0553  -1.4694   2.2272   4.2842   6.4383
     7.4852   7.8847  10.5095  10.6488  11.5577  13.2769

          k = 0.2904 0.4355 0.1604 (  6454 PWs)   bands (ev):

   -36.2262 -36.1319 -36.0629 -36.0534  -1.4678   2.2313   4.2299   6.5548
     7.5031   8.0406   9.4472  11.1174  12.1357  13.4612

          k = 0.2904-0.5807 0.0000 (  6464 PWs)   bands (ev):

   -36.1742 -36.1742 -36.0557 -36.0557   0.2509   0.2509   5.5050   5.5050
     8.0321   8.0321   9.7413   9.7413  12.3201  12.3201

          k = 0.2904-0.5807 0.1604 (  6448 PWs)   bands (ev):

   -36.1741 -36.1741 -36.0558 -36.0558   0.2559   0.2559   5.3968   5.3968
     8.4045   8.4045   9.5594   9.5594  12.1850  12.1850

          k = 0.4355 0.4355 0.0000 (  6450 PWs)   bands (ev):

   -36.1962 -36.1445 -36.0515 -36.0480  -0.1996   3.1219   3.9861   6.3833
     7.4575   7.7572   8.1975  10.4553  10.5587  11.9881

          k = 0.4355 0.4355 0.1604 (  6444 PWs)   bands (ev):

   -36.1960 -36.1444 -36.0526 -36.0470  -0.1945   3.1503   3.9493   6.2659
     7.3647   7.8813   8.2031  10.0152  11.7660  12.3953

          k = 0.4355-0.5807 0.0000 (  6444 PWs)   bands (ev):

   -36.1668 -36.1668 -36.0462 -36.0462   1.4920   1.4920   5.6608   5.6608
     6.9279   6.9279   9.2192   9.2192  10.8629  10.8629

          k = 0.4355-0.5807 0.1604 (  6462 PWs)   bands (ev):

   -36.1667 -36.1667 -36.0462 -36.0462   1.5046   1.5046   5.6223   5.6223
     6.7782   6.7782   9.3736   9.3736  11.5618  11.5618

          k =-0.5807-0.5807 0.0000 (  6456 PWs)   bands (ev):

   -36.1637 -36.1637 -36.0422 -36.0422   2.5685   2.5685   4.4596   4.4596
     7.1947   7.1947   9.4702   9.4702   9.8623   9.8623

          k =-0.5807-0.5807 0.1604 (  6476 PWs)   bands (ev):

   -36.1636 -36.1636 -36.0423 -36.0423   2.5975   2.5975   4.4658   4.4658
     6.7955   6.7955   9.4424   9.4424  11.1813  11.1813

     the Fermi energy is     9.4241 ev

!    total energy              =     -74.07139386 Ry
     estimated scf accuracy    <          1.3E-10 Ry
     smearing contrib. (-TS)   =      -0.00030035 Ry
     internal energy E=F+TS    =     -74.07109351 Ry

     The total energy is F=E-TS. E is the sum of the following terms:
     one-electron contribution =     -17.13519966 Ry
     hartree contribution      =      12.57405442 Ry
     xc contribution           =     -20.82250450 Ry
     ewald contribution        =     -48.68744377 Ry

     convergence has been achieved in  10 iterations

     Forces acting on atoms (cartesian axes, Ry/au):

     atom    1 type  1   force =     0.00000000    0.00000000    0.00106147
     atom    2 type  1   force =     0.00000000    0.00000000   -0.00106147
     atom    3 type  1   force =     0.00000000    0.00000000   -0.14502057
     atom    4 type  1   force =     0.00000000    0.00000000    0.14502057
     atom    5 type  2   force =     0.00000000    0.00000000   -0.05294375
     atom    6 type  2   force =     0.00000000    0.00000000    0.05294375
     The non-local contrib.  to forces
     atom    1 type  1   force =     0.00000000    0.00000000    0.01262886
     atom    2 type  1   force =     0.00000000    0.00000000   -0.01262886
     atom    3 type  1   force =     0.00000000    0.00000000   -0.01562602
     atom    4 type  1   force =     0.00000000    0.00000000    0.01562602
     atom    5 type  2   force =     0.00000000    0.00000000   -0.07133555
     atom    6 type  2   force =     0.00000000    0.00000000    0.07133555
     The ionic contribution  to forces
     atom    1 type  1   force =    -0.00000000    0.00000000    0.71292415
     atom    2 type  1   force =     0.00000000   -0.00000000   -0.71292415
     atom    3 type  1   force =    -0.00000000   -0.00000000   -1.83645760
     atom    4 type  1   force =     0.00000000   -0.00000000    1.83645760
     atom    5 type  2   force =    -0.00000000    0.00000000    0.99389095
     atom    6 type  2   force =     0.00000000   -0.00000000   -0.99389095
     The local contribution  to forces
     atom    1 type  1   force =     0.00000000    0.00000000   -0.72449372
     atom    2 type  1   force =     0.00000000    0.00000000    0.72449372
     atom    3 type  1   force =     0.00000000    0.00000000    1.70705870
     atom    4 type  1   force =     0.00000000    0.00000000   -1.70705870
     atom    5 type  2   force =     0.00000000    0.00000000   -0.97677794
     atom    6 type  2   force =     0.00000000   -0.00000000    0.97677794
     The core correction contribution to forces
     atom    1 type  1   force =     0.00000000    0.00000000    0.00000000
     atom    2 type  1   force =     0.00000000    0.00000000    0.00000000
     atom    3 type  1   force =     0.00000000    0.00000000    0.00000000
     atom    4 type  1   force =     0.00000000    0.00000000    0.00000000
     atom    5 type  2   force =    -0.00000000   -0.00000000    0.00128096
     atom    6 type  2   force =     0.00000000   -0.00000000   -0.00128096
     The Hubbard contrib.    to forces
     atom    1 type  1   force =     0.00000000    0.00000000    0.00000000
     atom    2 type  1   force =     0.00000000    0.00000000    0.00000000
     atom    3 type  1   force =     0.00000000    0.00000000    0.00000000
     atom    4 type  1   force =     0.00000000    0.00000000    0.00000000
     atom    5 type  2   force =     0.00000000    0.00000000    0.00000000
     atom    6 type  2   force =     0.00000000    0.00000000    0.00000000
     The SCF correction term to forces
     atom    1 type  1   force =     0.00000000    0.00000000    0.00000218
     atom    2 type  1   force =    -0.00000000    0.00000000   -0.00000218
     atom    3 type  1   force =     0.00000000    0.00000000    0.00000435
     atom    4 type  1   force =     0.00000000    0.00000000   -0.00000435
     atom    5 type  2   force =    -0.00000000   -0.00000000   -0.00000217
     atom    6 type  2   force =     0.00000000   -0.00000000    0.00000217

     Total force =     0.218335     Total SCF correction =     0.000008


     Computing stress (Cartesian axis) and pressure

          total   stress  (Ry/bohr**3)                   (kbar)     P=      703.11
   0.00461070   0.00000000   0.00000000          678.26        0.00        0.00
   0.00000000   0.00461070   0.00000000            0.00      678.26        0.00
   0.00000000   0.00000000   0.00511751            0.00        0.00      752.81

     Energy error            =      8.8E-02 Ry
     Gradient error          =      1.5E-01 Ry/Bohr
     Cell gradient error     =      2.5E+02 kbar

     number of scf cycles    =   3
     number of bfgs steps    =   2

     enthalpy           old  =     -72.7993946199 Ry
     enthalpy           new  =     -72.8870052275 Ry

     CASE: enthalpy          _new < enthalpy          _old

     new trust radius        =       0.0929017966 bohr
ibrav =      6
 celldm(1) =      5.30749059
 celldm(3) =      2.43311596
Input lattice vectors:
     0.87111813     0.00000000     0.00000000
     0.00000000     0.87111813     0.00000000
     0.00000000     0.00000000     2.11953142
New lattice vectors in INITIAL alat:
     0.87111813     0.00000000     0.00000000
     0.00000000     0.87111813     0.00000000
     0.00000000     0.00000000     2.11953142
New lattice vectors in NEW alat (for information only):
     1.00000000     0.00000000     0.00000000
     0.00000000     1.00000000     0.00000000
     0.00000000     0.00000000     2.43311596
Discrepancy in bohr =     0.000000    0.000000    0.000000
     new conv_thr            =       0.0000000100 Ry

     new unit-cell volume =    363.77304 a.u.^3 (    53.90560 Ang^3 )
     density =      2.58558 g/cm^3

CELL_PARAMETERS (alat=  6.09273351)
   0.871118126   0.000000000   0.000000000
   0.000000000   0.871118126   0.000000000
   0.000000000   0.000000000   2.119531416

ATOMIC_POSITIONS (crystal)
Li            0.0000000000        0.5000000000        0.4252216454
Li            0.5000000000        0.0000000000        0.5747783546
Li            0.0000000000        0.5000000000        0.7831018779
Li            0.5000000000        0.0000000000        0.2168981221
Si            0.0000000000        0.5000000000        0.1037126085
Si            0.5000000000        0.0000000000        0.8962873915



     Writing config-only to output data dir ./output/LiSi.save/
     NEW-OLD atomic charge density approx. for the potential
     extrapolated charge   20.84113, renormalised to   20.00000

     total cpu time spent up to now is       31.4 secs

     Self-consistent Calculation

     iteration #  1     ecut=    80.00 Ry     beta= 0.70
     Davidson diagonalization with overlap
     ethr =  1.00E-06,  avg # of iterations =  8.2

     total cpu time spent up to now is       32.7 secs

     total energy              =     -73.99077986 Ry
     estimated scf accuracy    <       0.19707157 Ry

     iteration #  2     ecut=    80.00 Ry     beta= 0.70
     Davidson diagonalization with overlap
     ethr =  9.85E-04,  avg # of iterations =  3.7

     total cpu time spent up to now is       33.4 secs

     total energy              =     -73.88972570 Ry
     estimated scf accuracy    <       3.64540101 Ry

     iteration #  3     ecut=    80.00 Ry     beta= 0.70
     Davidson diagonalization with overlap
     ethr =  9.85E-04,  avg # of iterations =  2.8

     total cpu time spent up to now is       34.0 secs

     total energy              =     -74.16785885 Ry
     estimated scf accuracy    <       0.09133481 Ry

     iteration #  4     ecut=    80.00 Ry     beta= 0.70
     Davidson diagonalization with overlap
     ethr =  4.57E-04,  avg # of iterations =  1.3

     total cpu time spent up to now is       34.5 secs

     total energy              =     -74.16805126 Ry
     estimated scf accuracy    <       0.02935768 Ry

     iteration #  5     ecut=    80.00 Ry     beta= 0.70
     Davidson diagonalization with overlap
     ethr =  1.47E-04,  avg # of iterations =  1.6

     total cpu time spent up to now is       35.0 secs

     total energy              =     -74.16617402 Ry
     estimated scf accuracy    <       0.01269565 Ry

     iteration #  6     ecut=    80.00 Ry     beta= 0.70
     Davidson diagonalization with overlap
     ethr =  6.35E-05,  avg # of iterations =  2.4

     total cpu time spent up to now is       35.5 secs

     total energy              =     -74.16738625 Ry
     estimated scf accuracy    <       0.00018746 Ry

     iteration #  7     ecut=    80.00 Ry     beta= 0.70
     Davidson diagonalization with overlap
     ethr =  9.37E-07,  avg # of iterations =  4.8

     total cpu time spent up to now is       36.2 secs

     total energy              =     -74.16743940 Ry
     estimated scf accuracy    <       0.00004144 Ry

     iteration #  8     ecut=    80.00 Ry     beta= 0.70
     Davidson diagonalization with overlap
     ethr =  2.07E-07,  avg # of iterations =  1.1

     total cpu time spent up to now is       36.7 secs

     total energy              =     -74.16744013 Ry
     estimated scf accuracy    <       0.00000669 Ry

     iteration #  9     ecut=    80.00 Ry     beta= 0.70
     Davidson diagonalization with overlap
     ethr =  3.34E-08,  avg # of iterations =  1.6

     total cpu time spent up to now is       37.2 secs

     total energy              =     -74.16744069 Ry
     estimated scf accuracy    <       0.00000012 Ry

     iteration # 10     ecut=    80.00 Ry     beta= 0.70
     Davidson diagonalization with overlap
     ethr =  6.07E-10,  avg # of iterations =  3.7

     total cpu time spent up to now is       37.8 secs

     total energy              =     -74.16744073 Ry
     estimated scf accuracy    <       0.00000013 Ry

     iteration # 11     ecut=    80.00 Ry     beta= 0.70
     Davidson diagonalization with overlap
     ethr =  6.07E-10,  avg # of iterations =  1.1

     total cpu time spent up to now is       38.3 secs

     End of self-consistent calculation

          k = 0.0000 0.0000 0.0000 (  6481 PWs)   bands (ev):

   -36.7787 -36.5277 -36.4584 -36.4175  -5.1070   1.1141   4.2521   9.2776
     9.4070  10.0227  10.0227  12.2321  14.4465  14.4465

          k = 0.0000 0.0000 0.1573 (  6493 PWs)   bands (ev):

   -36.7783 -36.5306 -36.4543 -36.4192  -5.1080   1.0994   4.6055   7.1815
    10.0453  10.0453  12.2371  12.2479  14.1262  14.1262

          k = 0.0000 0.1435 0.0000 (  6477 PWs)   bands (ev):

   -36.7631 -36.5242 -36.4565 -36.4256  -4.8512   1.2586   4.3990   7.4816
     9.1690   9.6742  10.2787  12.8616  13.8718  15.0803

          k = 0.0000 0.1435 0.1573 (  6464 PWs)   bands (ev):

   -36.7627 -36.5267 -36.4527 -36.4274  -4.8522   1.2422   4.7475   7.2951
     7.5285  10.3009  11.6925  12.8981  14.1374  14.3955

          k = 0.0000 0.2870 0.0000 (  6447 PWs)   bands (ev):

   -36.7198 -36.5204 -36.4527 -36.4455  -4.0876   1.5648   4.6165   4.8022
     8.3602   9.9669  11.0468  11.7775  12.7300  14.9054

          k = 0.0000 0.2870 0.1573 (  6461 PWs)   bands (ev):

   -36.7195 -36.5215 -36.4504 -36.4469  -4.0883   1.5488   4.6067   5.1058
     7.5973   9.5607  11.0680  13.2908  13.5057  14.6900

          k = 0.0000 0.4305 0.0000 (  6464 PWs)   bands (ev):

   -36.6587 -36.5405 -36.4571 -36.4508  -2.8294   0.8328   3.5045   5.1024
     7.2530   9.1167  12.1016  12.3266  12.3630  15.4042

          k = 0.0000 0.4305 0.1573 (  6460 PWs)   bands (ev):

   -36.6585 -36.5406 -36.4589 -36.4491  -2.8293   0.8352   3.4624   5.1819
     7.5509   8.5278  11.8267  12.3462  12.9787  15.0571

          k = 0.0000-0.5740 0.0000 (  6482 PWs)   bands (ev):

   -36.5934 -36.5934 -36.4537 -36.4537  -1.1163  -1.1163   4.3329   4.3329
     7.7205   7.7205  12.6827  12.6827  14.1123  14.1123

          k = 0.0000-0.5740 0.1573 (  6460 PWs)   bands (ev):

   -36.5934 -36.5934 -36.4537 -36.4537  -1.1146  -1.1146   4.2878   4.2878
     7.9680   7.9680  11.8276  11.8276  14.1296  14.1296

          k = 0.1435 0.1435 0.0000 (  6465 PWs)   bands (ev):

   -36.7484 -36.5214 -36.4546 -36.4323  -4.5949   1.4176   4.5543   7.1615
     8.3732   9.2020  10.1594  11.8033  14.5048  14.8754

          k = 0.1435 0.1435 0.1573 (  6474 PWs)   bands (ev):

   -36.7480 -36.5234 -36.4511 -36.4341  -4.5958   1.3987   4.9035   7.1841
     7.4447   8.4977  11.4617  12.3550  14.6040  15.7155

          k = 0.1435 0.2870 0.0000 (  6461 PWs)   bands (ev):

   -36.7080 -36.5200 -36.4504 -36.4475  -3.8298   1.7778   4.7249   4.9851
     8.5702   8.6301  10.5818  10.9395  12.5958  15.1754

          k = 0.1435 0.2870 0.1573 (  6460 PWs)   bands (ev):

   -36.7077 -36.5208 -36.4504 -36.4469  -3.8303   1.7571   4.7223   5.3050
     7.7661   8.7365   9.5247  12.8316  13.5154  14.8688

          k = 0.1435 0.4305 0.0000 (  6460 PWs)   bands (ev):

   -36.6511 -36.5415 -36.4542 -36.4480  -2.5691   1.1081   3.6378   5.3429
     7.3519   8.9679  10.4365  11.5965  12.4416  13.8739

          k = 0.1435 0.4305 0.1573 (  6457 PWs)   bands (ev):

   -36.6510 -36.5416 -36.4559 -36.4465  -2.5687   1.1103   3.5905   5.4321
     7.6442   8.5748   9.9620  11.8681  12.9591  13.7597

          k = 0.1435-0.5740 0.0000 (  6480 PWs)   bands (ev):

   -36.5907 -36.5907 -36.4503 -36.4503  -0.8519  -0.8519   4.5385   4.5385
     7.7899   7.7899  11.7993  11.7993  12.5982  12.5982

          k = 0.1435-0.5740 0.1573 (  6450 PWs)   bands (ev):

   -36.5907 -36.5907 -36.4503 -36.4503  -0.8496  -0.8496   4.4815   4.4815
     8.0798   8.0798  11.4485  11.4485  12.1195  12.1195

          k = 0.2870 0.2870 0.0000 (  6480 PWs)   bands (ev):

   -36.6756 -36.5249 -36.4498 -36.4453  -3.0604   2.3408   4.4929   5.5028
     6.5946   9.1272   9.2366  11.3172  11.7081  13.2898

          k = 0.2870 0.2870 0.1573 (  6457 PWs)   bands (ev):

   -36.6754 -36.5252 -36.4520 -36.4430  -3.0603   2.3078   4.5173   5.8450
     6.5875   8.2739   8.7571  11.9491  12.9588  13.6984

          k = 0.2870 0.4305 0.0000 (  6466 PWs)   bands (ev):

   -36.6308 -36.5462 -36.4468 -36.4414  -1.7941   1.9222   3.9093   6.0529
     6.9547   7.5574  10.0416  10.1629  11.0277  12.6635

          k = 0.2870 0.4305 0.1573 (  6454 PWs)   bands (ev):

   -36.6307 -36.5462 -36.4481 -36.4402  -1.7925   1.9249   3.8561   6.1732
     6.9793   7.7231   8.9653  10.5975  11.6032  12.9157

          k = 0.2870-0.5740 0.0000 (  6464 PWs)   bands (ev):

   -36.5842 -36.5842 -36.4421 -36.4421  -0.0690  -0.0690   5.1108   5.1108
     7.6602   7.6602   9.2225   9.2225  11.8376  11.8376

          k = 0.2870-0.5740 0.1573 (  6448 PWs)   bands (ev):

   -36.5842 -36.5842 -36.4421 -36.4421  -0.0645  -0.0645   5.0119   5.0119
     8.0156   8.0156   9.0700   9.0700  11.6348  11.6348

          k = 0.4305 0.4305 0.0000 (  6450 PWs)   bands (ev):

   -36.6039 -36.5578 -36.4385 -36.4353  -0.5246   2.8730   3.5968   5.8403
     7.0715   7.4829   7.6861   9.9810  10.0178  11.5177

          k = 0.4305 0.4305 0.1573 (  6444 PWs)   bands (ev):

   -36.6038 -36.5577 -36.4392 -36.4347  -0.5201   2.8987   3.5653   5.7337
     7.0942   7.4656   7.7083   9.4903  11.2557  11.9061

          k = 0.4305-0.5740 0.0000 (  6444 PWs)   bands (ev):

   -36.5777 -36.5777 -36.4339 -36.4339   1.1803   1.1803   5.2621   5.2621
     6.5111   6.5111   8.7836   8.7836  10.3529  10.3529

          k = 0.4305-0.5740 0.1573 (  6462 PWs)   bands (ev):

   -36.5776 -36.5776 -36.4339 -36.4339   1.1911   1.1911   5.2371   5.2371
     6.3625   6.3625   8.9127   8.9127  11.0393  11.0393

          k =-0.5740-0.5740 0.0000 (  6456 PWs)   bands (ev):

   -36.5750 -36.5750 -36.4305 -36.4305   2.3320   2.3320   3.9238   3.9238
     6.9319   6.9319   8.8877   8.8877   9.4016   9.4016

          k =-0.5740-0.5740 0.1573 (  6476 PWs)   bands (ev):

   -36.5749 -36.5749 -36.4305 -36.4305   2.3581   2.3581   3.9288   3.9288
     6.5367   6.5367   8.8642   8.8642  10.6843  10.6843

     the Fermi energy is     8.9573 ev

!    total energy              =     -74.16744074 Ry
     estimated scf accuracy    <          6.9E-10 Ry
     smearing contrib. (-TS)   =      -0.00042598 Ry
     internal energy E=F+TS    =     -74.16701477 Ry

     The total energy is F=E-TS. E is the sum of the following terms:
     one-electron contribution =     -17.74460853 Ry
     hartree contribution      =      12.52156862 Ry
     xc contribution           =     -20.71054472 Ry
     ewald contribution        =     -48.23343013 Ry

     convergence has been achieved in  11 iterations

     Forces acting on atoms (cartesian axes, Ry/au):

     atom    1 type  1   force =     0.00000000    0.00000000   -0.01083666
     atom    2 type  1   force =     0.00000000    0.00000000    0.01083666
     atom    3 type  1   force =     0.00000000    0.00000000   -0.11106949
     atom    4 type  1   force =     0.00000000    0.00000000    0.11106949
     atom    5 type  2   force =     0.00000000    0.00000000   -0.05068727
     atom    6 type  2   force =     0.00000000    0.00000000    0.05068727
     The non-local contrib.  to forces
     atom    1 type  1   force =     0.00000000    0.00000000    0.00793707
     atom    2 type  1   force =     0.00000000    0.00000000   -0.00793707
     atom    3 type  1   force =     0.00000000    0.00000000   -0.01489241
     atom    4 type  1   force =     0.00000000    0.00000000    0.01489241
     atom    5 type  2   force =     0.00000000    0.00000000   -0.07641608
     atom    6 type  2   force =     0.00000000    0.00000000    0.07641608
     The ionic contribution  to forces
     atom    1 type  1   force =    -0.00000000   -0.00000000    0.62085551
     atom    2 type  1   force =    -0.00000000   -0.00000000   -0.62085551
     atom    3 type  1   force =    -0.00000000   -0.00000000   -1.67167425
     atom    4 type  1   force =    -0.00000000   -0.00000000    1.67167425
     atom    5 type  2   force =    -0.00000000   -0.00000000    0.88922992
     atom    6 type  2   force =     0.00000000   -0.00000000   -0.88922992
     The local contribution  to forces
     atom    1 type  1   force =     0.00000000    0.00000000   -0.63964850
     atom    2 type  1   force =     0.00000000    0.00000000    0.63964850
     atom    3 type  1   force =     0.00000000    0.00000000    1.57550078
     atom    4 type  1   force =     0.00000000    0.00000000   -1.57550078
     atom    5 type  2   force =     0.00000000    0.00000000   -0.86525497
     atom    6 type  2   force =    -0.00000000   -0.00000000    0.86525497
     The core correction contribution to forces
     atom    1 type  1   force =     0.00000000    0.00000000    0.00000000
     atom    2 type  1   force =     0.00000000    0.00000000    0.00000000
     atom    3 type  1   force =     0.00000000    0.00000000    0.00000000
     atom    4 type  1   force =     0.00000000    0.00000000    0.00000000
     atom    5 type  2   force =    -0.00000000   -0.00000000    0.00175683
     atom    6 type  2   force =    -0.00000000   -0.00000000   -0.00175683
     The Hubbard contrib.    to forces
     atom    1 type  1   force =     0.00000000    0.00000000    0.00000000
     atom    2 type  1   force =     0.00000000    0.00000000    0.00000000
     atom    3 type  1   force =     0.00000000    0.00000000    0.00000000
     atom    4 type  1   force =     0.00000000    0.00000000    0.00000000
     atom    5 type  2   force =     0.00000000    0.00000000    0.00000000
     atom    6 type  2   force =     0.00000000    0.00000000    0.00000000
     The SCF correction term to forces
     atom    1 type  1   force =     0.00000000   -0.00000000    0.00001925
     atom    2 type  1   force =     0.00000000   -0.00000000   -0.00001925
     atom    3 type  1   force =     0.00000000   -0.00000000   -0.00000361
     atom    4 type  1   force =    -0.00000000   -0.00000000    0.00000361
     atom    5 type  2   force =    -0.00000000   -0.00000000   -0.00000297
     atom    6 type  2   force =    -0.00000000   -0.00000000    0.00000297

     Total force =     0.173338     Total SCF correction =     0.000028


     Computing stress (Cartesian axis) and pressure

          total   stress  (Ry/bohr**3)                   (kbar)     P=      588.54
   0.00390920   0.00000000   0.00000000          575.06        0.00        0.00
   0.00000000   0.00390920   0.00000000            0.00      575.06        0.00
   0.00000000   0.00000000   0.00418414            0.00        0.00      615.51

     Energy error            =      4.4E-02 Ry
     Gradient error          =      1.1E-01 Ry/Bohr
     Cell gradient error     =      1.2E+02 kbar

     number of scf cycles    =   4
     number of bfgs steps    =   3

     enthalpy           old  =     -72.8870052275 Ry
     enthalpy           new  =     -72.9310013128 Ry

     CASE: enthalpy          _new < enthalpy          _old

     new trust radius        =       0.1042220938 bohr
ibrav =      6
 celldm(1) =      5.30540137
 celldm(3) =      2.45152215
Input lattice vectors:
     0.87077522     0.00000000     0.00000000
     0.00000000     0.87077522     0.00000000
     0.00000000     0.00000000     2.13472474
New lattice vectors in INITIAL alat:
     0.87077522     0.00000000     0.00000000
     0.00000000     0.87077522     0.00000000
     0.00000000     0.00000000     2.13472474
New lattice vectors in NEW alat (for information only):
     1.00000000     0.00000000     0.00000000
     0.00000000     1.00000000     0.00000000
     0.00000000     0.00000000     2.45152215
Discrepancy in bohr =     0.000000    0.000000    0.000000
     new conv_thr            =       0.0000000100 Ry

     new unit-cell volume =    366.09227 a.u.^3 (    54.24928 Ang^3 )
     density =      2.56920 g/cm^3

CELL_PARAMETERS (alat=  6.09273351)
   0.870775222   0.000000000   0.000000000
   0.000000000   0.870775222   0.000000000
   0.000000000   0.000000000   2.134724742

ATOMIC_POSITIONS (crystal)
Li            0.0000000000        0.5000000000        0.4249382123
Li            0.5000000000        0.0000000000        0.5750617877
Li            0.0000000000        0.5000000000        0.7750312420
Li            0.5000000000        0.0000000000        0.2249687580
Si            0.0000000000        0.5000000000        0.0990985273
Si            0.5000000000        0.0000000000        0.9009014727



     Writing config-only to output data dir ./output/LiSi.save/
     NEW-OLD atomic charge density approx. for the potential
     extrapolated charge   20.12658, renormalised to   20.00000

     total cpu time spent up to now is       40.6 secs

     Self-consistent Calculation

     iteration #  1     ecut=    80.00 Ry     beta= 0.70
     Davidson diagonalization with overlap
     ethr =  1.00E-06,  avg # of iterations =  7.0

     total cpu time spent up to now is       41.8 secs

     total energy              =     -74.18470035 Ry
     estimated scf accuracy    <       0.02317669 Ry

     iteration #  2     ecut=    80.00 Ry     beta= 0.70
     Davidson diagonalization with overlap
     ethr =  1.16E-04,  avg # of iterations =  3.1

     total cpu time spent up to now is       42.4 secs

     total energy              =     -74.15993313 Ry
     estimated scf accuracy    <       0.42189479 Ry

     iteration #  3     ecut=    80.00 Ry     beta= 0.70
     Davidson diagonalization with overlap
     ethr =  1.16E-04,  avg # of iterations =  2.6

     total cpu time spent up to now is       43.0 secs

     total energy              =     -74.20252431 Ry
     estimated scf accuracy    <       0.00206586 Ry

     iteration #  4     ecut=    80.00 Ry     beta= 0.70
     Davidson diagonalization with overlap
     ethr =  1.03E-05,  avg # of iterations =  3.1

     total cpu time spent up to now is       43.6 secs

     total energy              =     -74.20279541 Ry
     estimated scf accuracy    <       0.00002262 Ry

     iteration #  5     ecut=    80.00 Ry     beta= 0.70
     Davidson diagonalization with overlap
     ethr =  1.13E-07,  avg # of iterations =  3.9

     total cpu time spent up to now is       44.2 secs

     total energy              =     -74.20280508 Ry
     estimated scf accuracy    <       0.00000247 Ry

     iteration #  6     ecut=    80.00 Ry     beta= 0.70
     Davidson diagonalization with overlap
     ethr =  1.23E-08,  avg # of iterations =  2.2

     total cpu time spent up to now is       44.7 secs

     total energy              =     -74.20280564 Ry
     estimated scf accuracy    <       0.00000061 Ry

     iteration #  7     ecut=    80.00 Ry     beta= 0.70
     Davidson diagonalization with overlap
     ethr =  3.04E-09,  avg # of iterations =  1.1

     total cpu time spent up to now is       45.2 secs

     total energy              =     -74.20280565 Ry
     estimated scf accuracy    <       0.00000013 Ry

     iteration #  8     ecut=    80.00 Ry     beta= 0.70
     Davidson diagonalization with overlap
     ethr =  6.60E-10,  avg # of iterations =  1.2

     total cpu time spent up to now is       45.7 secs

     total energy              =     -74.20280566 Ry
     estimated scf accuracy    <       0.00000001 Ry

     iteration #  9     ecut=    80.00 Ry     beta= 0.70
     Davidson diagonalization with overlap
     ethr =  5.48E-11,  avg # of iterations =  2.4

     total cpu time spent up to now is       46.2 secs

     End of self-consistent calculation

          k = 0.0000 0.0000 0.0000 (  6481 PWs)   bands (ev):

   -36.7725 -36.5592 -36.4918 -36.4187  -5.3435   1.0606   4.3486   9.1187
     9.2312   9.9577   9.9577  12.0980  14.5739  14.5739

          k = 0.0000 0.0000 0.1561 (  6493 PWs)   bands (ev):

   -36.7720 -36.5619 -36.4890 -36.4193  -5.3443   1.0482   4.7219   7.0213
     9.9777   9.9777  12.0350  12.1115  14.2394  14.2394

          k = 0.0000 0.1436 0.0000 (  6477 PWs)   bands (ev):

   -36.7564 -36.5533 -36.4907 -36.4291  -5.0825   1.2176   4.4877   7.3350
     9.0324   9.5360  10.2129  12.9496  13.7530  15.0131

          k = 0.0000 0.1436 0.1561 (  6464 PWs)   bands (ev):

   -36.7559 -36.5558 -36.4881 -36.4297  -5.0832   1.2033   4.8547   7.1040
     7.4340  10.2325  11.6654  12.8217  14.0099  14.5102

          k = 0.0000 0.2871 0.0000 (  6447 PWs)   bands (ev):

   -36.7117 -36.5386 -36.4892 -36.4596  -4.3028   1.5724   4.4031   4.8636
     8.3168   9.8683  10.9786  11.7524  12.6422  14.8030

          k = 0.0000 0.2871 0.1561 (  6461 PWs)   bands (ev):

   -36.7113 -36.5404 -36.4872 -36.4601  -4.3033   1.5566   4.4007   5.1761
     7.4674   9.6252  10.9972  13.1554  13.4248  14.5892

          k = 0.0000 0.4307 0.0000 (  6464 PWs)   bands (ev):

   -36.6482 -36.5280 -36.5013 -36.4909  -3.0166   0.7903   3.3275   5.0910
     7.2865   9.1286  12.0022  12.1689  12.2544  15.4243

          k = 0.0000 0.4307 0.1561 (  6460 PWs)   bands (ev):

   -36.6480 -36.5284 -36.5022 -36.4899  -3.0164   0.7926   3.2907   5.1704
     7.5467   8.5557  11.7473  12.2715  12.8250  15.0071

          k = 0.0000-0.5742 0.0000 (  6482 PWs)   bands (ev):

   -36.5791 -36.5791 -36.4989 -36.4989  -1.2576  -1.2576   4.2476   4.2476
     7.7684   7.7684  12.5155  12.5155  14.0346  14.0346

          k = 0.0000-0.5742 0.1561 (  6460 PWs)   bands (ev):

   -36.5790 -36.5790 -36.4989 -36.4989  -1.2560  -1.2560   4.2068   4.2068
     8.0123   8.0123  11.6983  11.6983  14.0496  14.0496

          k = 0.1436 0.1436 0.0000 (  6465 PWs)   bands (ev):

   -36.7413 -36.5478 -36.4895 -36.4384  -4.8211   1.3866   4.6355   7.0747
     8.1456   9.0705  10.0857  11.9212  14.4068  14.9352

          k = 0.1436 0.1436 0.1561 (  6474 PWs)   bands (ev):

   -36.7409 -36.5500 -36.4871 -36.4390  -4.8217   1.3697   5.0022   7.0944
     7.2693   8.3459  11.5644  12.2670  14.6064  15.6310

          k = 0.1436 0.2871 0.0000 (  6461 PWs)   bands (ev):

   -36.6995 -36.5339 -36.4875 -36.4658  -4.0405   1.7881   4.5426   5.0409
     8.4647   8.5307  10.5134  10.9645  12.4900  15.2179

          k = 0.1436 0.2871 0.1561 (  6460 PWs)   bands (ev):

   -36.6991 -36.5355 -36.4858 -36.4663  -4.0408   1.7677   4.5445   5.3708
     7.6219   8.6131   9.6006  12.7792  13.4337  14.8447

          k = 0.1436 0.4307 0.0000 (  6460 PWs)   bands (ev):

   -36.6403 -36.5272 -36.5003 -36.4886  -2.7529   1.0647   3.4825   5.3318
     7.3914   8.9486  10.3276  11.5531  12.2722  13.8271

          k = 0.1436 0.4307 0.1561 (  6457 PWs)   bands (ev):

   -36.6401 -36.5274 -36.5013 -36.4876  -2.7525   1.0670   3.4398   5.4216
     7.6550   8.5746   9.8810  11.7623  12.8460  13.7316

          k = 0.1436-0.5742 0.0000 (  6480 PWs)   bands (ev):

   -36.5763 -36.5763 -36.4956 -36.4956  -0.9916  -0.9916   4.4647   4.4647
     7.8353   7.8353  11.7057  11.7057  12.4813  12.4813

          k = 0.1436-0.5742 0.1561 (  6450 PWs)   bands (ev):

   -36.5762 -36.5762 -36.4957 -36.4957  -0.9895  -0.9895   4.4126   4.4126
     8.1207   8.1207  11.4086  11.4086  11.9458  11.9458

          k = 0.2871 0.2871 0.0000 (  6480 PWs)   bands (ev):

   -36.6659 -36.5235 -36.4843 -36.4832  -3.2576   2.3671   4.4056   5.5395
     6.3183   9.1556   9.2353  11.2255  11.6053  13.2773

          k = 0.2871 0.2871 0.1561 (  6457 PWs)   bands (ev):

   -36.6656 -36.5245 -36.4841 -36.4827  -3.2574   2.3342   4.4270   5.8933
     6.3180   8.1601   8.8492  11.9547  12.8710  13.6250

          k = 0.2871 0.4307 0.0000 (  6466 PWs)   bands (ev):

   -36.6190 -36.5295 -36.4952 -36.4833  -1.9673   1.8741   3.8389   6.0405
     6.7702   7.6210   9.9764  10.1619  10.9417  12.5327

          k = 0.2871 0.4307 0.1561 (  6454 PWs)   bands (ev):

   -36.6189 -36.5295 -36.4961 -36.4826  -1.9658   1.8775   3.7850   6.1668
     6.7996   7.7818   8.9102  10.5535  11.5360  12.8843

          k = 0.2871-0.5742 0.0000 (  6464 PWs)   bands (ev):

   -36.5695 -36.5695 -36.4878 -36.4878  -0.2030  -0.2030   5.0797   5.0797
     7.6542   7.6542   9.1109   9.1109  11.8614  11.8614

          k = 0.2871-0.5742 0.1561 (  6448 PWs)   bands (ev):

   -36.5695 -36.5695 -36.4878 -36.4878  -0.1990  -0.1990   4.9862   4.9862
     7.9881   7.9881   8.9988   8.9988  11.5800  11.5800

          k = 0.4307 0.4307 0.0000 (  6450 PWs)   bands (ev):

   -36.5907 -36.5413 -36.4864 -36.4791  -0.6780   2.7866   3.6155   5.6267
     7.0399   7.5849   7.6380   9.8760   9.8975  11.5720

          k = 0.4307 0.4307 0.1561 (  6444 PWs)   bands (ev):

   -36.5906 -36.5413 -36.4869 -36.4788  -0.6741   2.8093   3.5868   5.5302
     7.1796   7.4288   7.6555   9.3833  11.1661  11.9528

          k = 0.4307-0.5742 0.0000 (  6444 PWs)   bands (ev):

   -36.5628 -36.5628 -36.4799 -36.4799   1.0605   1.0605   5.2394   5.2394
     6.4373   6.4373   8.7479   8.7479  10.2993  10.2993

          k = 0.4307-0.5742 0.1561 (  6462 PWs)   bands (ev):

   -36.5628 -36.5628 -36.4800 -36.4800   1.0699   1.0699   5.2237   5.2237
     6.2855   6.2855   8.8749   8.8749  10.9818  10.9818

          k =-0.5742-0.5742 0.0000 (  6456 PWs)   bands (ev):

   -36.5600 -36.5600 -36.4766 -36.4766   2.2460   2.2460   3.7929   3.7929
     7.0317   7.0317   8.7699   8.7699   9.2959   9.2959

          k =-0.5742-0.5742 0.1561 (  6476 PWs)   bands (ev):

   -36.5600 -36.5600 -36.4767 -36.4767   2.2691   2.2691   3.7976   3.7976
     6.6198   6.6198   8.7466   8.7466  10.5942  10.5942

     the Fermi energy is     8.9115 ev

!    total energy              =     -74.20280566 Ry
     estimated scf accuracy    <          5.6E-09 Ry
     smearing contrib. (-TS)   =      -0.00064406 Ry
     internal energy E=F+TS    =     -74.20216160 Ry

[...]
     MD5 check sum: e543d271109d17c80368dfa7c482276d
     Pseudo is Norm-conserving + core correction, Zval =  4.0
     Generated using ONCVPSP code by D. R. Hamann
     Using radial grid of 1510 points,  6 beta functions with: 
                l(1) =   0
                l(2) =   0
                l(3) =   1
                l(4) =   1
                l(5) =   2
                l(6) =   2

     atomic species   valence    mass     pseudopotential
        Li             3.00     6.94100     Li( 1.00)
        Si             4.00    28.08550     Si( 1.00)

     16 Sym. Ops., with inversion, found ( 8 have fractional translation)



   Cartesian axes

     site n.     atom                  positions (alat units)
         1           Li  tau(   1) = (   0.0000000   0.4326513   0.9057171  )
         2           Li  tau(   2) = (   0.4326513   0.0000000   1.2980827  )
         3           Li  tau(   3) = (   0.0000000   0.4326513   1.6361596  )
         4           Li  tau(   4) = (   0.4326513   0.0000000   0.5676402  )
         5           Si  tau(   5) = (   0.0000000   0.4326513   0.1999083  )
         6           Si  tau(   6) = (   0.4326513   0.0000000   2.0038915  )

     number of k points=    30  Marzari-Vanderbilt smearing, width (Ry)=  0.0200
                       cart. coord. in units 2pi/alat
        k(    1) = (   0.0000000   0.0000000   0.0000000), wk =   0.0104167
        k(    2) = (   0.0000000   0.0000000   0.1512539), wk =   0.0208333
        k(    3) = (   0.0000000   0.1444581   0.0000000), wk =   0.0416667
        k(    4) = (   0.0000000   0.1444581   0.1512539), wk =   0.0833333
        k(    5) = (   0.0000000   0.2889163   0.0000000), wk =   0.0416667
        k(    6) = (   0.0000000   0.2889163   0.1512539), wk =   0.0833333
        k(    7) = (   0.0000000   0.4333744   0.0000000), wk =   0.0416667
        k(    8) = (   0.0000000   0.4333744   0.1512539), wk =   0.0833333
        k(    9) = (   0.0000000  -0.5778325   0.0000000), wk =   0.0208333
        k(   10) = (   0.0000000  -0.5778325   0.1512539), wk =   0.0416667
        k(   11) = (   0.1444581   0.1444581   0.0000000), wk =   0.0416667
        k(   12) = (   0.1444581   0.1444581   0.1512539), wk =   0.0833333
        k(   13) = (   0.1444581   0.2889163   0.0000000), wk =   0.0833333
        k(   14) = (   0.1444581   0.2889163   0.1512539), wk =   0.1666667
        k(   15) = (   0.1444581   0.4333744   0.0000000), wk =   0.0833333
        k(   16) = (   0.1444581   0.4333744   0.1512539), wk =   0.1666667
        k(   17) = (   0.1444581  -0.5778325   0.0000000), wk =   0.0416667
        k(   18) = (   0.1444581  -0.5778325   0.1512539), wk =   0.0833333
        k(   19) = (   0.2889163   0.2889163   0.0000000), wk =   0.0416667
        k(   20) = (   0.2889163   0.2889163   0.1512539), wk =   0.0833333
        k(   21) = (   0.2889163   0.4333744   0.0000000), wk =   0.0833333
        k(   22) = (   0.2889163   0.4333744   0.1512539), wk =   0.1666667
        k(   23) = (   0.2889163  -0.5778325   0.0000000), wk =   0.0416667
        k(   24) = (   0.2889163  -0.5778325   0.1512539), wk =   0.0833333
        k(   25) = (   0.4333744   0.4333744   0.0000000), wk =   0.0416667
        k(   26) = (   0.4333744   0.4333744   0.1512539), wk =   0.0833333
        k(   27) = (   0.4333744  -0.5778325   0.0000000), wk =   0.0416667
        k(   28) = (   0.4333744  -0.5778325   0.1512539), wk =   0.0833333
        k(   29) = (  -0.5778325  -0.5778325   0.0000000), wk =   0.0104167
        k(   30) = (  -0.5778325  -0.5778325   0.1512539), wk =   0.0208333

     Dense  grid:    35985 G-vectors     FFT dimensions: (  32,  32,  80)

     Estimated max dynamical RAM per process >      19.14 MB

     Estimated total dynamical RAM >     153.15 MB

     Initial potential from superposition of free atoms

     starting charge      19.9805, renormalised to      20.0000
     Starting wfcs are   16 randomized atomic wfcs

     total cpu time spent up to now is      116.8 secs

     Self-consistent Calculation

     iteration #  1     ecut=    80.00 Ry     beta= 0.70
     Davidson diagonalization with overlap
     c_bands:  1 eigenvalues not converged
     c_bands:  1 eigenvalues not converged
     c_bands:  1 eigenvalues not converged
     c_bands:  1 eigenvalues not converged
     c_bands:  1 eigenvalues not converged
     ethr =  1.00E-06,  avg # of iterations = 16.5

     total cpu time spent up to now is      118.0 secs

     total energy              =     -73.86901925 Ry
     estimated scf accuracy    <       0.57064867 Ry

     iteration #  2     ecut=    80.00 Ry     beta= 0.70
     Davidson diagonalization with overlap
     ethr =  2.85E-03,  avg # of iterations =  3.9

     total cpu time spent up to now is      118.4 secs

     total energy              =     -73.69355458 Ry
     estimated scf accuracy    <       6.86338151 Ry

     iteration #  3     ecut=    80.00 Ry     beta= 0.70
     Davidson diagonalization with overlap
     ethr =  2.85E-03,  avg # of iterations =  3.1

     total cpu time spent up to now is      118.8 secs

     total energy              =     -74.26185044 Ry
     estimated scf accuracy    <       0.04458911 Ry

     iteration #  4     ecut=    80.00 Ry     beta= 0.70
     Davidson diagonalization with overlap
     ethr =  2.23E-04,  avg # of iterations =  3.7

     total cpu time spent up to now is      119.2 secs

     total energy              =     -74.27262294 Ry
     estimated scf accuracy    <       0.01794875 Ry

     iteration #  5     ecut=    80.00 Ry     beta= 0.70
     Davidson diagonalization with overlap
     ethr =  8.97E-05,  avg # of iterations =  1.0

     total cpu time spent up to now is      119.5 secs

     total energy              =     -74.27380414 Ry
     estimated scf accuracy    <       0.00051131 Ry

     iteration #  6     ecut=    80.00 Ry     beta= 0.70
     Davidson diagonalization with overlap
     ethr =  2.56E-06,  avg # of iterations =  4.0

     total cpu time spent up to now is      119.9 secs

     total energy              =     -74.27389493 Ry
     estimated scf accuracy    <       0.00000751 Ry

     iteration #  7     ecut=    80.00 Ry     beta= 0.70
     Davidson diagonalization with overlap
     ethr =  3.76E-08,  avg # of iterations =  3.0

     total cpu time spent up to now is      120.2 secs

     total energy              =     -74.27389766 Ry
     estimated scf accuracy    <       0.00001429 Ry

     iteration #  8     ecut=    80.00 Ry     beta= 0.70
     Davidson diagonalization with overlap
     ethr =  3.76E-08,  avg # of iterations =  1.7

     total cpu time spent up to now is      120.5 secs

     total energy              =     -74.27389905 Ry
     estimated scf accuracy    <       0.00000001 Ry

     iteration #  9     ecut=    80.00 Ry     beta= 0.70
     Davidson diagonalization with overlap
     ethr =  5.06E-11,  avg # of iterations =  4.3

     total cpu time spent up to now is      121.0 secs

     total energy              =     -74.27389906 Ry
     estimated scf accuracy    <          1.6E-09 Ry

     iteration # 10     ecut=    80.00 Ry     beta= 0.70
     Davidson diagonalization with overlap
     ethr =  8.18E-12,  avg # of iterations =  1.4

     total cpu time spent up to now is      121.3 secs

     End of self-consistent calculation

          k = 0.0000 0.0000 0.0000 (  4551 PWs)   bands (ev):

   -36.9508 -36.9001 -36.5363 -36.3935  -5.8308   0.6154   4.5899   7.9904
     9.3923  10.1129  10.1129  11.9822  14.9638  14.9638

          k = 0.0000 0.0000 0.1513 (  4522 PWs)   bands (ev):

   -36.9502 -36.9007 -36.5363 -36.3936  -5.8310   0.6126   4.9791   6.5307
    10.1282  10.1282  11.5328  11.9912  14.5852  14.5852

          k = 0.0000 0.1445 0.0000 (  4539 PWs)   bands (ev):

   -36.9382 -36.8925 -36.5354 -36.4022  -5.5539   0.8196   4.7127   7.2589
     8.0405   9.7112  10.3685  13.0536  13.6950  14.7728

          k = 0.0000 0.1445 0.1513 (  4522 PWs)   bands (ev):

   -36.9376 -36.8932 -36.5354 -36.4022  -5.5541   0.8150   5.0940   6.6290
     7.3572  10.3835  11.5492  12.7266  13.7556  14.8610

          k = 0.0000 0.2889 0.0000 (  4525 PWs)   bands (ev):

   -36.9062 -36.8740 -36.5315 -36.4268  -4.7265   1.3753   4.0763   5.0355
     7.8527  10.0068  11.1353  11.2061  12.2795  14.7966

          k = 0.0000 0.2889 0.1513 (  4517 PWs)   bands (ev):

   -36.9058 -36.8745 -36.5315 -36.4268  -4.7266   1.3659   4.0804   5.3539
     7.0211   9.8250  11.1493  12.4828  12.9801  14.4890

          k = 0.0000 0.4334 0.0000 (  4489 PWs)   bands (ev):

   -36.8710 -36.8555 -36.5204 -36.4618  -3.3594   0.7963   2.8001   5.0948
     7.2125   9.2369  11.0627  11.5259  12.4118  15.6552

          k = 0.0000 0.4334 0.1513 (  4515 PWs)   bands (ev):

   -36.8707 -36.8557 -36.5204 -36.4618  -3.3591   0.7983   2.7791   5.1621
     7.3661   8.6523  11.1571  12.0013  12.4246  15.1179

          k = 0.0000-0.5778 0.0000 (  4508 PWs)   bands (ev):

   -36.8515 -36.8515 -36.4966 -36.4966  -1.4771  -1.4771   3.9933   3.9933
     7.8227   7.8227  11.5728  11.5728  14.1890  14.1890

          k = 0.0000-0.5778 0.1513 (  4502 PWs)   bands (ev):

   -36.8515 -36.8515 -36.4966 -36.4966  -1.4758  -1.4758   3.9643   3.9643
     8.0577   8.0577  10.9435  10.9435  14.1999  14.1999

          k = 0.1445 0.1445 0.0000 (  4519 PWs)   bands (ev):

   -36.9267 -36.8856 -36.5340 -36.4098  -5.2771   1.0285   4.8437   7.0992
     7.9828   8.1462  10.2908  12.2100  14.1511  14.8188

          k = 0.1445 0.1445 0.1513 (  4533 PWs)   bands (ev):

   -36.9261 -36.8862 -36.5339 -36.4098  -5.2773   1.0217   5.2230   6.7761
     7.1138   8.2134  11.8175  12.0609  14.4567  15.5203

          k = 0.1445 0.2889 0.0000 (  4523 PWs)   bands (ev):

   -36.8976 -36.8685 -36.5288 -36.4314  -4.4503   1.6034   4.2855   5.1965
     8.0806   8.4034  10.6234  10.7630  12.1471  14.9956

          k = 0.1445 0.2889 0.1513 (  4521 PWs)   bands (ev):

   -36.8972 -36.8689 -36.5288 -36.4313  -4.4502   1.5906   4.2916   5.5315
     7.1792   8.5607   9.7861  12.5370  13.0381  14.5387

          k = 0.1445 0.4334 0.0000 (  4505 PWs)   bands (ev):

   -36.8659 -36.8517 -36.5166 -36.4623  -3.0841   1.0715   3.0077   5.3343
     7.3410   9.0678  10.2155  10.9159  11.7465  13.9827

          k = 0.1445 0.4334 0.1513 (  4510 PWs)   bands (ev):

   -36.8656 -36.8519 -36.5166 -36.4622  -3.0836   1.0737   2.9813   5.4129
     7.5061   8.6410   9.8941  11.2204  12.1978  13.8619

          k = 0.1445-0.5778 0.0000 (  4494 PWs)   bands (ev):

   -36.8483 -36.8483 -36.4937 -36.4937  -1.2032  -1.2032   4.2344   4.2344
     7.8935   7.8935  11.6115  11.6115  11.8653  11.8653

          k = 0.1445-0.5778 0.1513 (  4480 PWs)   bands (ev):

   -36.8483 -36.8483 -36.4937 -36.4937  -1.2016  -1.2016   4.1965   4.1965
     8.1663   8.1663  11.0270  11.0270  11.7069  11.7069

          k = 0.2889 0.2889 0.0000 (  4525 PWs)   bands (ev):

   -36.8763 -36.8553 -36.5205 -36.4445  -3.6251   2.2522   4.3964   5.6449
     5.9165   8.6507   9.4636  11.2068  11.3124  13.3986

          k = 0.2889 0.2889 0.1513 (  4515 PWs)   bands (ev):

   -36.8759 -36.8556 -36.5205 -36.4445  -3.6247   2.2284   4.4124   5.9136
     6.0074   7.7543   9.0415  12.0311  12.5953  13.6678

          k = 0.2889 0.4334 0.0000 (  4506 PWs)   bands (ev):

   -36.8532 -36.8427 -36.5064 -36.4644  -2.2625   1.8802   3.5775   6.0326
     6.5892   7.6669   9.7863  10.0318  10.9487  12.1702

          k = 0.2889 0.4334 0.1513 (  4505 PWs)   bands (ev):

   -36.8531 -36.8429 -36.5064 -36.4644  -2.2614   1.8841   3.5339   6.1554
     6.6182   7.8140   8.7397  10.6573  11.2232  12.6810

          k = 0.2889-0.5778 0.0000 (  4484 PWs)   bands (ev):

   -36.8404 -36.8404 -36.4868 -36.4868  -0.3891  -0.3891   4.9392   4.9392
     7.7527   7.7527   8.9201   8.9201  11.7853  11.7853

          k = 0.2889-0.5778 0.1513 (  4496 PWs)   bands (ev):

   -36.8404 -36.8404 -36.4868 -36.4868  -0.3861  -0.3861   4.8651   4.8651
     8.0752   8.0752   8.8595   8.8595  11.2203  11.2203

          k = 0.4334 0.4334 0.0000 (  4488 PWs)   bands (ev):

   -36.8399 -36.8344 -36.4929 -36.4699  -0.9103   2.7617   3.7353   5.1486
     7.0027   7.6557   7.7785   9.5608   9.6185  11.6935

          k = 0.4334 0.4334 0.1513 (  4493 PWs)   bands (ev):

   -36.8398 -36.8345 -36.4929 -36.4699  -0.9075   2.7789   3.7118   5.0786
     7.3367   7.3478   7.7103   9.1115  10.8673  11.9688

          k = 0.4334-0.5778 0.0000 (  4474 PWs)   bands (ev):

   -36.8326 -36.8326 -36.4798 -36.4798   0.9267   0.9267   5.3037   5.3037
     6.2794   6.2794   8.6030   8.6030  10.2055  10.2055

          k = 0.4334-0.5778 0.1513 (  4494 PWs)   bands (ev):

   -36.8326 -36.8326 -36.4798 -36.4798   0.9335   0.9335   5.2965   5.2965
     6.1402   6.1402   8.7607   8.7607  10.8214  10.8214

          k =-0.5778-0.5778 0.0000 (  4468 PWs)   bands (ev):

   -36.8293 -36.8293 -36.4769 -36.4769   2.2162   2.2162   3.6461   3.6461
     7.2138   7.2138   8.5333   8.5333   8.9732   8.9732

          k =-0.5778-0.5778 0.1513 (  4496 PWs)   bands (ev):

   -36.8293 -36.8293 -36.4769 -36.4769   2.2338   2.2338   3.6500   3.6500
     6.7653   6.7653   8.5113   8.5113  10.2875  10.2875

     the Fermi energy is     8.7884 ev

!    total energy              =     -74.27389906 Ry
     estimated scf accuracy    <          6.5E-11 Ry
     smearing contrib. (-TS)   =      -0.00134501 Ry
     internal energy E=F+TS    =     -74.27255406 Ry

     The total energy is F=E-TS. E is the sum of the following terms:
     one-electron contribution =     -16.78191214 Ry
     hartree contribution      =      11.84539482 Ry
     xc contribution           =     -20.63160701 Ry
     ewald contribution        =     -48.70442973 Ry

     convergence has been achieved in  10 iterations

     Forces acting on atoms (cartesian axes, Ry/au):

     atom    1 type  1   force =     0.00000000    0.00000000   -0.00013834
     atom    2 type  1   force =     0.00000000    0.00000000    0.00013834
     atom    3 type  1   force =     0.00000000    0.00000000    0.00002598
     atom    4 type  1   force =     0.00000000    0.00000000   -0.00002598
     atom    5 type  2   force =     0.00000000    0.00000000   -0.00013849
     atom    6 type  2   force =     0.00000000    0.00000000    0.00013849
     The non-local contrib.  to forces
     atom    1 type  1   force =     0.00000000    0.00000000   -0.03287129
     atom    2 type  1   force =     0.00000000    0.00000000    0.03287129
     atom    3 type  1   force =     0.00000000    0.00000000    0.00836136
     atom    4 type  1   force =     0.00000000    0.00000000   -0.00836136
     atom    5 type  2   force =     0.00000000    0.00000000   -0.05675286
     atom    6 type  2   force =     0.00000000    0.00000000    0.05675286
     The ionic contribution  to forces
     atom    1 type  1   force =    -0.00000000   -0.00000000    0.57366836
     atom    2 type  1   force =    -0.00000000   -0.00000000   -0.57366836
     atom    3 type  1   force =    -0.00000000    0.00000000   -0.83851096
     atom    4 type  1   force =     0.00000000   -0.00000000    0.83851096
     atom    5 type  2   force =    -0.00000000   -0.00000000    0.51532313
     atom    6 type  2   force =     0.00000000   -0.00000000   -0.51532313
     The local contribution  to forces
     atom    1 type  1   force =    -0.00000000    0.00000000   -0.54093176
     atom    2 type  1   force =     0.00000000    0.00000000    0.54093176
     atom    3 type  1   force =    -0.00000000    0.00000000    0.83016898
     atom    4 type  1   force =     0.00000000    0.00000000   -0.83016898
     atom    5 type  2   force =     0.00000000   -0.00000000   -0.45883154
     atom    6 type  2   force =     0.00000000   -0.00000000    0.45883154
     The core correction contribution to forces
     atom    1 type  1   force =     0.00000000    0.00000000    0.00000000
     atom    2 type  1   force =     0.00000000    0.00000000    0.00000000
     atom    3 type  1   force =     0.00000000    0.00000000    0.00000000
     atom    4 type  1   force =     0.00000000    0.00000000    0.00000000
     atom    5 type  2   force =     0.00000000   -0.00000000    0.00012845
     atom    6 type  2   force =    -0.00000000   -0.00000000   -0.00012845
     The Hubbard contrib.    to forces
     atom    1 type  1   force =     0.00000000    0.00000000    0.00000000
     atom    2 type  1   force =     0.00000000    0.00000000    0.00000000
     atom    3 type  1   force =     0.00000000    0.00000000    0.00000000
     atom    4 type  1   force =     0.00000000    0.00000000    0.00000000
     atom    5 type  2   force =     0.00000000    0.00000000    0.00000000
     atom    6 type  2   force =     0.00000000    0.00000000    0.00000000
     The SCF correction term to forces
     atom    1 type  1   force =     0.00000000    0.00000000   -0.00000365
     atom    2 type  1   force =    -0.00000000   -0.00000000    0.00000365
     atom    3 type  1   force =    -0.00000000    0.00000000    0.00000660
     atom    4 type  1   force =    -0.00000000    0.00000000   -0.00000660
     atom    5 type  2   force =    -0.00000000   -0.00000000   -0.00000566
     atom    6 type  2   force =     0.00000000   -0.00000000    0.00000566

     Total force =     0.000279     Total SCF correction =     0.000013


     Computing stress (Cartesian axis) and pressure

          total   stress  (Ry/bohr**3)                   (kbar)     P=      499.88
   0.00340012   0.00000000   0.00000000          500.18        0.00        0.00
   0.00000000   0.00340012   0.00000000            0.00      500.18        0.00
   0.00000000   0.00000000   0.00339409            0.00        0.00      499.29


     Writing all to output data dir ./output/LiSi.save/

     init_run     :      1.45s CPU      1.77s WALL (       2 calls)
     electrons    :     79.89s CPU     85.11s WALL (      16 calls)
     update_pot   :      7.65s CPU      7.74s WALL (      14 calls)
     forces       :      5.25s CPU      5.38s WALL (      16 calls)
     stress       :     20.77s CPU     21.97s WALL (      16 calls)

     Called by init_run:
     wfcinit      :      0.33s CPU      0.34s WALL (       2 calls)
     potinit      :      0.43s CPU      0.61s WALL (       2 calls)
     hinit0       :      0.63s CPU      0.70s WALL (       2 calls)

     Called by electrons:
     c_bands      :     68.70s CPU     72.11s WALL (     142 calls)
     sum_band     :      9.67s CPU     10.21s WALL (     142 calls)
     v_of_rho     :      1.52s CPU      2.54s WALL (     155 calls)
     mix_rho      :      0.14s CPU      0.26s WALL (     142 calls)

     Called by c_bands:
     init_us_2    :      2.18s CPU      2.35s WALL (    9540 calls)
     init_us_2:cp :      2.16s CPU      2.34s WALL (    9540 calls)
     cegterg      :     63.26s CPU     65.01s WALL (    4260 calls)

     Called by *egterg:
     cdiaghg      :      3.39s CPU      3.53s WALL (   16573 calls)
     h_psi        :     52.90s CPU     54.32s WALL (   17143 calls)
     g_psi        :      0.30s CPU      0.31s WALL (   12823 calls)

     Called by h_psi:
     h_psi:calbec :      4.18s CPU      4.29s WALL (   17143 calls)
     vloc_psi     :     44.94s CPU     46.14s WALL (   17143 calls)
     add_vuspsi   :      3.56s CPU      3.64s WALL (   17143 calls)

     General routines
     calbec       :      5.21s CPU      5.35s WALL (   19543 calls)
     fft          :      1.36s CPU      2.68s WALL (    1951 calls)
     ffts         :      0.09s CPU      0.14s WALL (     142 calls)
     fftw         :     46.20s CPU     47.41s WALL (  390006 calls)

     Parallel routines

     PWSCF        :   1m55.36s CPU   2m 2.71s WALL


   This run was terminated on:  15:53:16  27Dec2024            

=------------------------------------------------------------------------------=
   JOB DONE.
=------------------------------------------------------------------------------=
