
     Program PWSCF v.7.2 starts on 26Dec2024 at 19:15:13 

     This program is part of the open-source Quantum ESPRESSO suite
     for quantum simulation of materials; please cite
         "P. Giannozzi et al., J. Phys.:Condens. Matter 21 395502 (2009);
         "P. Giannozzi et al., J. Phys.:Condens. Matter 29 465901 (2017);
         "P. Giannozzi et al., J. Chem. Phys. 152 154105 (2020);
          URL http://www.quantum-espresso.org", 
     in publications or presentations arising from this work. More details at
     http://www.quantum-espresso.org/quote

     Parallel version (MPI & OpenMP), running on       8 processor cores
     Number of MPI processes:                 8
     Threads/MPI process:                     1

     MPI processes distributed on     1 nodes
     481802 MiB available memory on the printing compute node when the environment starts

     Waiting for input...
     Reading input from standard input

     Current dimensions of program PWSCF are:
     Max number of different atomic species (ntypx) = 10
     Max number of k-points (npk) =  40000
     Max angular momentum in pseudopotentials (lmaxx) =  4

     R & G space division:  proc/nbgrp/npool/nimage =       8
     Subspace diagonalization in iterative solution of the eigenvalue problem:
     a serial algorithm will be used


     Parallelization info
     --------------------
     sticks:   dense  smooth     PW     G-vecs:    dense   smooth      PW
     Min         217     217     65                 4690     4690     788
     Max         218     218     66                 4691     4691     791
     Sum        1737    1737    527                37521    37521    6319

     Using Slab Decomposition



     bravais-lattice index     =            5
     lattice parameter (alat)  =      10.7814  a.u.
     unit-cell volume          =     389.2737 (a.u.)^3
     number of atoms/cell      =            3
     number of atomic types    =            2
     number of electrons       =        11.00
     number of Kohn-Sham states=           10
     kinetic-energy cutoff     =      80.0000  Ry
     charge density cutoff     =     320.0000  Ry
     scf convergence threshold =      1.0E-08
     mixing beta               =       0.7000
     number of iterations used =            8  plain     mixing
     energy convergence thresh.=      1.0E-04
     force convergence thresh. =      1.0E-03
     press convergence thresh. =      1.0E+00
     Exchange-correlation= PBE
                           (   1   4   3   4   0   0   0)
     nstep                     =           50


     celldm(1)=  10.781376  celldm(2)=   0.000000  celldm(3)=   0.000000
     celldm(4)=   0.807946  celldm(5)=   0.000000  celldm(6)=   0.000000

     crystal axes: (cart. coord. in units of alat)
               a(1) = (   0.309882  -0.178910   0.933790 )  
               a(2) = (   0.000000   0.357821   0.933790 )  
               a(3) = (  -0.309882  -0.178910   0.933790 )  

     reciprocal axes: (cart. coord. in units 2 pi/alat)
               b(1) = (  1.613518 -0.931565  0.356968 )  
               b(2) = (  0.000000  1.863130  0.356968 )  
               b(3) = ( -1.613518 -0.931565  0.356968 )  


     PseudoPot. # 1 for Li read from file:
     ../pseudo/Li_ONCV_PBE_sr.upf
     MD5 check sum: 50ff420e78310ffa21704f3361e624a4
     Pseudo is Norm-conserving, Zval =  3.0
     Generated using ONCVPSP code by D. R. Hamann
     Using radial grid of 1944 points,  4 beta functions with: 
                l(1) =   0
                l(2) =   0
                l(3) =   1
                l(4) =   1

     PseudoPot. # 2 for Si read from file:
     ../pseudo/Si_ONCV_PBE_sr.upf
     MD5 check sum: e543d271109d17c80368dfa7c482276d
     Pseudo is Norm-conserving + core correction, Zval =  4.0
     Generated using ONCVPSP code by D. R. Hamann
     Using radial grid of 1510 points,  6 beta functions with: 
                l(1) =   0
                l(2) =   0
                l(3) =   1
                l(4) =   1
                l(5) =   2
                l(6) =   2

     atomic species   valence    mass     pseudopotential
        Li             3.00     6.94100     Li( 1.00)
        Si             4.00    28.08550     Si( 1.00)

     12 Sym. Ops., with inversion, found



   Cartesian axes

     site n.     atom                  positions (alat units)
         1           Li  tau(   1) = (   0.0000000  -0.0000000   1.4006854  )
         2           Si  tau(   2) = (   0.0000000  -0.0000000   0.7280940  )
         3           Si  tau(   3) = (   0.0000000  -0.0000000   2.0732768  )

     number of k points=    44  Marzari-Vanderbilt smearing, width (Ry)=  0.0200
                       cart. coord. in units 2pi/alat
        k(    1) = (   0.0000000   0.0000000   0.0000000), wk =   0.0058309
        k(    2) = (  -0.2305025  -0.1330807   0.0509954), wk =   0.0349854
        k(    3) = (  -0.4610051  -0.2661614   0.1019909), wk =   0.0349854
        k(    4) = (  -0.6915076  -0.3992421   0.1529863), wk =   0.0349854
        k(    5) = (  -0.2305025   0.1330807   0.1019909), wk =   0.0349854
        k(    6) = (  -0.4610051  -0.0000000   0.1529863), wk =   0.0699708
        k(    7) = (  -0.6915076  -0.1330807   0.2039818), wk =   0.0699708
        k(    8) = (   0.6915076   0.6654035  -0.1019909), wk =   0.0699708
        k(    9) = (   0.4610051   0.5323228  -0.0509954), wk =   0.0699708
        k(   10) = (   0.2305025   0.3992421   0.0000000), wk =   0.0349854
        k(   11) = (  -0.4610051   0.2661614   0.2039818), wk =   0.0349854
        k(   12) = (  -0.6915076   0.1330807   0.2549772), wk =   0.0699708
        k(   13) = (   0.6915076   0.9315649  -0.0509954), wk =   0.0699708
        k(   14) = (   0.4610051   0.7984842   0.0000000), wk =   0.0349854
        k(   15) = (  -0.6915076   0.3992421   0.3059727), wk =   0.0349854
        k(   16) = (   0.6915076   1.1977263   0.0000000), wk =   0.0349854
        k(   17) = (   0.0000000  -0.0000000   0.1529863), wk =   0.0116618
        k(   18) = (  -0.2305025  -0.1330807   0.2039818), wk =   0.0349854
        k(   19) = (  -0.4610051  -0.2661614   0.2549772), wk =   0.0349854
        k(   20) = (   0.9220101   0.5323228  -0.0509954), wk =   0.0349854
        k(   21) = (   0.6915076   0.3992421   0.0000000), wk =   0.0349854
        k(   22) = (   0.4610051   0.2661614   0.0509954), wk =   0.0349854
        k(   23) = (  -0.2305025   0.1330807   0.2549772), wk =   0.0349854
        k(   24) = (  -0.4610051  -0.0000000   0.3059727), wk =   0.0699708
        k(   25) = (   0.9220101   0.7984842   0.0000000), wk =   0.0699708
        k(   26) = (   0.6915076   0.6654035   0.0509954), wk =   0.0699708
        k(   27) = (   0.4610051   0.5323228   0.1019909), wk =   0.0699708
        k(   28) = (  -0.4610051   0.2661614   0.3569681), wk =   0.0349854
        k(   29) = (   0.9220101   1.0646456   0.0509954), wk =   0.0699708
        k(   30) = (   0.6915076   0.9315649   0.1019909), wk =   0.0699708
        k(   31) = (   0.4610051   0.7984842   0.1529863), wk =   0.0699708
        k(   32) = (   0.9220101  -0.5323228  -0.2549772), wk =   0.0349854
        k(   33) = (   0.6915076  -0.6654035  -0.2039818), wk =   0.0699708
        k(   34) = (   0.6915076  -0.3992421  -0.1529863), wk =   0.0349854
        k(   35) = (   0.0000000  -0.0000000   0.3059727), wk =   0.0116618
        k(   36) = (  -0.2305025  -0.1330807   0.3569681), wk =   0.0349854
        k(   37) = (   1.1525127   0.6654035   0.0509954), wk =   0.0349854
        k(   38) = (   0.9220101   0.5323228   0.1019909), wk =   0.0349854
        k(   39) = (  -0.2305025   0.1330807   0.4079635), wk =   0.0349854
        k(   40) = (   1.1525127   0.9315649   0.1019909), wk =   0.0699708
        k(   41) = (   0.9220101   0.7984842   0.1529863), wk =   0.0699708
        k(   42) = (   1.1525127  -0.6654035  -0.2039818), wk =   0.0349854
        k(   43) = (  -0.0000000  -0.0000000   0.4589590), wk =   0.0116618
        k(   44) = (   1.3830152   0.7984842   0.1529863), wk =   0.0349854

     Dense  grid:    37521 G-vectors     FFT dimensions: (  64,  64,  64)

     Estimated max dynamical RAM per process >      20.65 MB

     Estimated total dynamical RAM >     165.19 MB

     Initial potential from superposition of free atoms

     starting charge      10.9942, renormalised to      11.0000
     Starting wfcs are   10 randomized atomic wfcs

     total cpu time spent up to now is        2.3 secs

     Self-consistent Calculation

     iteration #  1     ecut=    80.00 Ry     beta= 0.70
     Davidson diagonalization with overlap
     ethr =  1.00E-02,  avg # of iterations =  5.9

     Threshold (ethr) on eigenvalues was too large:
     Diagonalizing with lowered threshold

     Davidson diagonalization with overlap
     ethr =  5.29E-04,  avg # of iterations =  3.0

     total cpu time spent up to now is        4.7 secs

     total energy              =     -31.13536477 Ry
     estimated scf accuracy    <       0.06321469 Ry

     iteration #  2     ecut=    80.00 Ry     beta= 0.70
     Davidson diagonalization with overlap
     ethr =  5.75E-04,  avg # of iterations =  2.3

     total cpu time spent up to now is        5.6 secs

     total energy              =     -31.14965330 Ry
     estimated scf accuracy    <       0.07627854 Ry

     iteration #  3     ecut=    80.00 Ry     beta= 0.70
     Davidson diagonalization with overlap
     ethr =  5.75E-04,  avg # of iterations =  2.0

     total cpu time spent up to now is        6.4 secs

     total energy              =     -31.16359092 Ry
     estimated scf accuracy    <       0.00012238 Ry

     iteration #  4     ecut=    80.00 Ry     beta= 0.70
     Davidson diagonalization with overlap
     ethr =  1.11E-06,  avg # of iterations =  7.3

     total cpu time spent up to now is        7.9 secs

     total energy              =     -31.16369380 Ry
     estimated scf accuracy    <       0.00008538 Ry

     iteration #  5     ecut=    80.00 Ry     beta= 0.70
     Davidson diagonalization with overlap
     ethr =  7.76E-07,  avg # of iterations =  2.0

     total cpu time spent up to now is        8.7 secs

     total energy              =     -31.16371392 Ry
     estimated scf accuracy    <       0.00000217 Ry

     iteration #  6     ecut=    80.00 Ry     beta= 0.70
     Davidson diagonalization with overlap
     ethr =  1.97E-08,  avg # of iterations =  1.9

     total cpu time spent up to now is        9.5 secs

     total energy              =     -31.16371438 Ry
     estimated scf accuracy    <       0.00000002 Ry

     iteration #  7     ecut=    80.00 Ry     beta= 0.70
     Davidson diagonalization with overlap
     ethr =  2.04E-10,  avg # of iterations =  3.8

     total cpu time spent up to now is       10.4 secs

     End of self-consistent calculation

          k = 0.0000 0.0000 0.0000 (  4721 PWs)   bands (ev):

   -41.0601  -5.1653  -1.6056   1.2128   7.6115   7.6115   8.8045   8.8045
     9.9070  11.2440

          k =-0.2305-0.1331 0.0510 (  4734 PWs)   bands (ev):

   -41.0596  -4.8822  -1.4211   1.5107   5.6475   7.1175   7.5596   8.1163
     9.3242  10.9572

          k =-0.4610-0.2662 0.1020 (  4713 PWs)   bands (ev):

   -41.0583  -4.0468  -1.0187   2.3931   3.1157   5.3610   6.4293   7.0562
     7.7734  10.1826

          k =-0.6915-0.3992 0.1530 (  4703 PWs)   bands (ev):

   -41.0573  -2.7323  -1.3113   1.9687   3.3648   4.0282   5.8255   6.1277
     6.3443   9.5051

          k =-0.2305 0.1331 0.1020 (  4727 PWs)   bands (ev):

   -41.0596  -4.8557  -1.5612   1.6970   5.9153   6.8108   6.9865   8.6525
     9.6018  10.7116

          k =-0.4610-0.0000 0.1530 (  4706 PWs)   bands (ev):

   -41.0587  -4.2709  -1.3303   2.3676   4.1153   5.4353   6.0734   7.0815
     9.0989  11.7176

          k =-0.6915-0.1331 0.2040 (  4706 PWs)   bands (ev):

   -41.0576  -3.1614  -1.0987   2.2047   3.4892   4.2862   5.0234   5.6953
     7.3232  11.5093

          k = 0.6915 0.6654-0.1020 (  4709 PWs)   bands (ev):

   -41.0571  -1.9551  -1.6683   2.1194   3.1647   3.7968   4.3634   5.6031
     6.5850  11.1554

          k = 0.4610 0.5323-0.0510 (  4704 PWs)   bands (ev):

   -41.0576  -3.3133  -0.6206   2.4258   2.7137   4.1100   4.9347   5.3842
     8.3174  11.4045

          k = 0.2305 0.3992 0.0000 (  4705 PWs)   bands (ev):

   -41.0587  -4.3539  -0.9332   1.8383   4.0897   5.7201   6.1321   6.5011
     9.5184  11.8439

          k =-0.4610 0.2662 0.2040 (  4710 PWs)   bands (ev):

   -41.0583  -3.9617  -1.2894   2.4275   3.5788   4.7235   5.7379   8.4365
     9.1122   9.7439

          k =-0.6915 0.1331 0.2550 (  4695 PWs)   bands (ev):

   -41.0576  -3.1462  -0.9906   2.1249   2.5541   4.0921   5.4087   6.8820
     8.3911  10.9715

          k = 0.6915 0.9316-0.0510 (  4713 PWs)   bands (ev):

   -41.0569  -1.9601  -1.1129   1.9760   2.0465   3.1796   4.8848   6.4175
     6.6438  10.9918

          k = 0.4610 0.7985 0.0000 (  4694 PWs)   bands (ev):

   -41.0569  -2.1844  -0.8699   2.2567   2.8204   3.1084   3.6421   5.1402
     7.8679  11.2008

          k =-0.6915 0.3992 0.3060 (  4681 PWs)   bands (ev):

   -41.0573  -2.7433  -0.7990   1.3165   1.5502   5.1395   5.7364   8.3898
     8.6868   9.2179

          k = 0.6915 1.1977 0.0000 (  4684 PWs)   bands (ev):

   -41.0571  -2.2395  -0.7281   1.1304   1.4445   3.9840   6.3532   6.9889
     7.8895   9.9820

          k = 0.0000-0.0000 0.1530 (  4748 PWs)   bands (ev):

   -41.0601  -5.0829  -2.0212   1.8023   7.6132   7.6132   8.7291   8.7291
     9.4939  11.1908

          k =-0.2305-0.1331 0.2040 (  4729 PWs)   bands (ev):

   -41.0596  -4.7442  -2.0258   2.4029   5.4961   7.4301   7.6942   7.9552
     8.6841  11.3212

          k =-0.4610-0.2662 0.2550 (  4706 PWs)   bands (ev):

   -41.0583  -3.8461  -1.6907   2.8579   3.5865   5.8936   6.4541   7.0165
     7.0224  10.3741

          k = 0.9220 0.5323-0.0510 (  4694 PWs)   bands (ev):

   -41.0573  -2.4527  -1.7087   1.5454   3.7412   5.1165   5.2535   5.7785
     6.7918   9.4749

          k = 0.6915 0.3992 0.0000 (  4695 PWs)   bands (ev):

   -41.0573  -2.8758  -0.8914   2.0015   2.4190   3.9117   5.6245   7.0309
     7.0455   9.3848

          k = 0.4610 0.2662 0.0510 (  4708 PWs)   bands (ev):

   -41.0583  -4.0864  -0.7840   1.9309   3.4836   4.7262   6.0000   7.7546
     8.6558   9.9438

          k =-0.2305 0.1331 0.2550 (  4725 PWs)   bands (ev):

   -41.0596  -4.6680  -2.2645   2.7758   6.0797   6.6444   6.6840   8.9228
     8.9986  10.7455

          k =-0.4610-0.0000 0.3060 (  4719 PWs)   bands (ev):

   -41.0587  -4.0322  -2.0564   3.3918   4.2821   4.9433   6.4744   7.6998
     8.1538  11.5047

          k = 0.9220 0.7985 0.0000 (  4702 PWs)   bands (ev):

   -41.0576  -2.8697  -1.6626   1.9799   3.6719   4.7053   5.4994   6.5005
     6.6343  11.2478

          k = 0.6915 0.6654 0.0510 (  4679 PWs)   bands (ev):

   -41.0571  -2.1238  -1.3121   1.6396   2.4686   4.1057   5.1533   5.4723
     7.5805  10.8790

          k = 0.4610 0.5323 0.1020 (  4699 PWs)   bands (ev):

   -41.0576  -3.3072  -0.5376   1.9746   2.9272   3.7711   4.9476   6.0402
     8.8738  11.1644

          k =-0.4610 0.2662 0.3570 (  4705 PWs)   bands (ev):

   -41.0583  -3.6898  -2.0108   3.2322   3.3297   5.5341   5.6523   8.3999
     8.7548   9.6944

          k = 0.9220 1.0646 0.0510 (  4695 PWs)   bands (ev):

   -41.0576  -2.8549  -1.6143   2.1677   2.6078   4.4689   6.2372   7.0296
     7.8751  10.5885

          k = 0.6915 0.9316 0.1020 (  4698 PWs)   bands (ev):

   -41.0569  -1.7326  -1.3487   1.6691   1.8872   3.7338   4.7779   6.5827
     7.1174  10.3140

          k = 0.4610 0.7985 0.1530 (  4704 PWs)   bands (ev):

   -41.0569  -2.1257  -0.9350   2.2338   2.5128   2.8936   4.2047   5.5956
     7.3523  11.6133

          k = 0.9220-0.5323-0.2550 (  4687 PWs)   bands (ev):

   -41.0573  -2.5067  -1.3550   1.1833   2.1246   5.1710   6.2631   8.0124
     8.2480   9.0741

          k = 0.6915-0.6654-0.2040 (  4691 PWs)   bands (ev):

   -41.0571  -2.2129  -0.9271   1.2637   1.7620   4.0577   5.9039   6.3087
     8.1271  10.5117

          k = 0.6915-0.3992-0.1530 (  4687 PWs)   bands (ev):

   -41.0573  -2.8753  -0.6014   1.4718   1.7889   4.7197   5.2917   7.8154
     8.1958   9.2601

          k = 0.0000-0.0000 0.3060 (  4745 PWs)   bands (ev):

   -41.0601  -4.8477  -2.7662   3.0600   7.6242   7.6242   8.2860   8.5607
     8.5607  11.2887

          k =-0.2305-0.1331 0.3570 (  4710 PWs)   bands (ev):

   -41.0596  -4.4649  -2.7611   3.7312   5.5047   7.0865   7.3991   8.1010
     8.1979  11.4536

          k = 1.1525 0.6654 0.0510 (  4702 PWs)   bands (ev):

   -41.0583  -3.5247  -2.3405   2.8170   4.8974   5.4565   6.0162   7.1344
     7.7139  10.0610

          k = 0.9220 0.5323 0.1020 (  4702 PWs)   bands (ev):

   -41.0573  -2.2544  -1.8432   1.2461   2.9964   5.3854   5.7718   6.6341
     7.5541   9.2840

          k =-0.2305 0.1331 0.4080 (  4718 PWs)   bands (ev):

   -41.0596  -4.3609  -2.9595   4.1366   5.7925   6.6346   7.0155   7.5650
     8.9620  11.0400

          k = 1.1525 0.9316 0.1020 (  4713 PWs)   bands (ev):

   -41.0587  -3.7098  -2.6681   4.0205   4.3475   5.3024   6.8064   7.0655
     7.9474  11.3269

          k = 0.9220 0.7985 0.1530 (  4699 PWs)   bands (ev):

   -41.0576  -2.6115  -2.0045   1.9741   3.1327   5.0000   5.9553   6.6523
     7.5252  10.5158

          k = 1.1525-0.6654-0.2040 (  4698 PWs)   bands (ev):

   -41.0583  -3.3865  -2.5397   2.9482   4.2989   5.7458   6.2221   7.2046
     8.4013   9.7895

          k =-0.0000-0.0000 0.4590 (  4720 PWs)   bands (ev):

   -41.0601  -4.5415  -3.3726   4.4489   6.8249   7.6428   7.6428   8.4238
     8.4238  11.5482

          k = 1.3830 0.7985 0.1530 (  4723 PWs)   bands (ev):

   -41.0596  -4.1955  -3.2305   4.8597   5.6586   6.4935   6.7849   7.6536
     8.5998  11.4481

     the Fermi energy is     4.8232 ev

!    total energy              =     -31.16371440 Ry
     estimated scf accuracy    <          4.3E-09 Ry
     smearing contrib. (-TS)   =      -0.00062349 Ry
     internal energy E=F+TS    =     -31.16309091 Ry

     The total energy is F=E-TS. E is the sum of the following terms:
     one-electron contribution =      -3.38355772 Ry
     hartree contribution      =       4.05247202 Ry
     xc contribution           =      -9.20273551 Ry
     ewald contribution        =     -22.62926970 Ry

     convergence has been achieved in   7 iterations

     Forces acting on atoms (cartesian axes, Ry/au):

     atom    1 type  1   force =     0.00000000   -0.00000000    0.00000000
     atom    2 type  2   force =     0.00000000    0.00000000    0.07412444
     atom    3 type  2   force =    -0.00000000   -0.00000000   -0.07412444
     The non-local contrib.  to forces
     atom    1 type  1   force =    -0.00000000   -0.00000000   -0.00000000
     atom    2 type  2   force =     0.00000000    0.00000000    0.13859362
     atom    3 type  2   force =    -0.00000000   -0.00000000   -0.13859362
     The ionic contribution  to forces
     atom    1 type  1   force =     0.00000000    0.00000000    0.00000000
     atom    2 type  2   force =    -0.00000000    0.00000000    0.71431197
     atom    3 type  2   force =     0.00000000   -0.00000000   -0.71431197
     The local contribution  to forces
     atom    1 type  1   force =    -0.00000000    0.00000000   -0.00000000
     atom    2 type  2   force =    -0.00000000   -0.00000000   -0.77017299
     atom    3 type  2   force =    -0.00000000    0.00000000    0.77017299
     The core correction contribution to forces
     atom    1 type  1   force =     0.00000000    0.00000000    0.00000000
     atom    2 type  2   force =    -0.00000000   -0.00000000   -0.00867762
     atom    3 type  2   force =     0.00000000    0.00000000    0.00867762
     The Hubbard contrib.    to forces
     atom    1 type  1   force =     0.00000000    0.00000000    0.00000000
     atom    2 type  2   force =     0.00000000    0.00000000    0.00000000
     atom    3 type  2   force =     0.00000000    0.00000000    0.00000000
     The SCF correction term to forces
     atom    1 type  1   force =    -0.00000000   -0.00000000   -0.00000000
     atom    2 type  2   force =     0.00000000    0.00000000    0.00006947
     atom    3 type  2   force =    -0.00000000   -0.00000000   -0.00006947

     Total force =     0.104828     Total SCF correction =     0.000098


     Computing stress (Cartesian axis) and pressure

          total   stress  (Ry/bohr**3)                   (kbar)     P=      -59.54
  -0.00036269  -0.00000000  -0.00000000          -53.35       -0.00       -0.00
   0.00000000  -0.00036269  -0.00000000            0.00      -53.35       -0.00
   0.00000000  -0.00000000  -0.00048881            0.00       -0.00      -71.91


     BFGS Geometry Optimization
     Energy error            =      0.0E+00 Ry
     Gradient error          =      7.4E-02 Ry/Bohr
     Cell gradient error     =      5.7E+02 kbar

     number of scf cycles    =   1
     number of bfgs steps    =   0

     enthalpy           new  =     -29.8406001108 Ry

     new trust radius        =       0.3835261026 bohr
ibrav =      5
 celldm(1) =      9.73785464
 celldm(4) =      0.80677566
Input lattice vectors:
     0.28074047    -0.16208559     0.84303187
    -0.00000000     0.32417118     0.84303187
    -0.28074047    -0.16208559     0.84303187
New lattice vectors in INITIAL alat:
     0.28074047    -0.16208559     0.84303187
     0.00000000     0.32417118     0.84303187
    -0.28074047    -0.16208559     0.84303187
New lattice vectors in NEW alat (for information only):
     0.31082499    -0.17945489     0.93337226
     0.00000000     0.35890978     0.93337226
    -0.31082499    -0.17945489     0.93337226
Discrepancy in bohr =     0.000000    0.000000    0.000000
     new conv_thr            =       0.0000000100 Ry

     new unit-cell volume =    288.44779 a.u.^3 (    42.74355 Ang^3 )
     density =      2.45183 g/cm^3

CELL_PARAMETERS (alat= 10.78137571)
   0.280740474  -0.162085588   0.843031874
   0.000000000   0.324171176   0.843031874
  -0.280740474  -0.162085588   0.843031874

ATOMIC_POSITIONS (crystal)
Li            0.5000000000        0.5000000000        0.5000000000
Si            0.2623605680        0.2623605680        0.2623605680
Si            0.7376394320        0.7376394320        0.7376394320



     Writing config-only to output data dir ./output/LiSi.save/
     NEW-OLD atomic charge density approx. for the potential
     extrapolated charge    7.15701, renormalised to   11.00000

     total cpu time spent up to now is       12.1 secs

     Self-consistent Calculation

     iteration #  1     ecut=    80.00 Ry     beta= 0.70
     Davidson diagonalization with overlap
     c_bands:  1 eigenvalues not converged
     c_bands:  1 eigenvalues not converged
     ethr =  1.00E-06,  avg # of iterations = 13.2

     total cpu time spent up to now is       14.8 secs

     total energy              =     -30.79533867 Ry
     estimated scf accuracy    <       0.35345996 Ry

     iteration #  2     ecut=    80.00 Ry     beta= 0.70
     Davidson diagonalization with overlap
     ethr =  3.21E-03,  avg # of iterations =  3.2

     total cpu time spent up to now is       15.8 secs

     total energy              =     -31.09959835 Ry
     estimated scf accuracy    <       1.00467138 Ry

     iteration #  3     ecut=    80.00 Ry     beta= 0.70
     Davidson diagonalization with overlap
     ethr =  3.21E-03,  avg # of iterations =  2.0

     total cpu time spent up to now is       16.6 secs

     total energy              =     -31.17434375 Ry
     estimated scf accuracy    <       0.08014610 Ry

     iteration #  4     ecut=    80.00 Ry     beta= 0.70
     Davidson diagonalization with overlap
     ethr =  7.29E-04,  avg # of iterations =  2.0

     total cpu time spent up to now is       17.3 secs

     total energy              =     -31.18230316 Ry
     estimated scf accuracy    <       0.00515701 Ry

     iteration #  5     ecut=    80.00 Ry     beta= 0.70
     Davidson diagonalization with overlap
     ethr =  4.69E-05,  avg # of iterations =  3.8

     total cpu time spent up to now is       18.3 secs

     total energy              =     -31.18400598 Ry
     estimated scf accuracy    <       0.00002333 Ry

     iteration #  6     ecut=    80.00 Ry     beta= 0.70
     Davidson diagonalization with overlap
     ethr =  2.12E-07,  avg # of iterations =  5.2

     total cpu time spent up to now is       19.4 secs

     total energy              =     -31.18404303 Ry
     estimated scf accuracy    <       0.00000059 Ry

     iteration #  7     ecut=    80.00 Ry     beta= 0.70
     Davidson diagonalization with overlap
     ethr =  5.35E-09,  avg # of iterations =  2.4

     total cpu time spent up to now is       20.2 secs

     total energy              =     -31.18404319 Ry
     estimated scf accuracy    <       0.00000008 Ry

     iteration #  8     ecut=    80.00 Ry     beta= 0.70
     Davidson diagonalization with overlap
     ethr =  7.56E-10,  avg # of iterations =  1.8

     total cpu time spent up to now is       20.9 secs

     End of self-consistent calculation

          k = 0.0000 0.0000 0.0000 (  4721 PWs)   bands (ev):

   -38.1995  -4.0941   0.9152   3.1350  11.5983  11.5983  13.3122  13.3122
    14.8563  14.8568

          k =-0.2544-0.1469 0.0565 (  4734 PWs)   bands (ev):

   -38.1974  -3.7344   1.1589   3.5137   8.8910  10.7503  11.5687  12.1370
    13.8426  14.5358

          k =-0.5089-0.2938 0.1130 (  4713 PWs)   bands (ev):

   -38.1927  -2.6615   1.7636   4.5668   5.5322   8.6983   9.7492  10.6321
    11.9727  13.3261

          k =-0.7633-0.4407 0.1695 (  4703 PWs)   bands (ev):

   -38.1890  -0.9106   1.2617   3.8617   6.1365   6.9547   9.3005   9.3644
     9.7232  12.3298

          k =-0.2544 0.1469 0.1130 (  4727 PWs)   bands (ev):

   -38.1974  -3.7050   0.9047   3.8366   9.2415  10.3232  10.7581  13.0037
    14.0085  14.4889

          k =-0.5089-0.0000 0.1695 (  4706 PWs)   bands (ev):

   -38.1940  -2.9589   1.2057   4.7789   6.8268   8.4409   9.4123  10.7898
    13.8407  15.4884

          k =-0.7633-0.1469 0.2259 (  4706 PWs)   bands (ev):

   -38.1898  -1.5070   1.6763   4.1530   6.2008   7.1324   8.0533   8.8375
    11.0916  15.1904

          k = 0.7633 0.7345-0.1130 (  4709 PWs)   bands (ev):

   -38.1879   0.2587   0.5920   4.1418   6.1283   6.2680   7.1675   8.6910
    10.0523  14.8137

          k = 0.5089 0.5876-0.0565 (  4704 PWs)   bands (ev):

   -38.1898  -1.6815   2.5813   4.3522   4.9362   6.9337   7.5738   8.8002
    12.5036  15.1085

          k = 0.2544 0.4407 0.0000 (  4705 PWs)   bands (ev):

   -38.1940  -3.0522   1.9556   3.8198   6.8312   8.6323   9.6763   9.9687
    14.4795  15.7366

          k =-0.5089 0.2938 0.2259 (  4710 PWs)   bands (ev):

   -38.1927  -2.5568   1.2190   5.1045   5.9618   7.7299   8.8675  12.6789
    12.7519  13.8809

          k =-0.7633 0.1469 0.2824 (  4695 PWs)   bands (ev):

   -38.1898  -1.4643   1.7298   4.4343   4.9709   6.5104   8.4635  10.5991
    12.5841  14.5566

          k = 0.7633 1.0283-0.0565 (  4713 PWs)   bands (ev):

   -38.1875   0.2404   1.7093   3.8960   3.9554   5.6422   8.0977   9.6818
    10.1871  14.7409

          k = 0.5089 0.8814 0.0000 (  4694 PWs)   bands (ev):

   -38.1875  -0.0852   2.0908   4.1345   4.9300   5.6429   6.2233   8.3675
    11.8361  14.9072

          k =-0.7633 0.4407 0.3389 (  4681 PWs)   bands (ev):

   -38.1890  -0.8310   1.9846   3.0181   3.9597   8.0949   8.8723  11.7616
    12.7582  13.4120

          k = 0.7633 1.3221 0.0000 (  4684 PWs)   bands (ev):

   -38.1879  -0.0154   2.0410   3.1836   3.2501   6.4005   9.8352  10.8304
    11.7216  13.1746

          k = 0.0000-0.0000 0.1695 (  4748 PWs)   bands (ev):

   -38.1995  -4.0052   0.2344   4.0459  11.5608  11.5608  13.2055  13.2055
    14.7399  14.9803

          k =-0.2544-0.1469 0.2259 (  4729 PWs)   bands (ev):

   -38.1974  -3.5850   0.2094   4.8467   8.6615  11.0820  11.6483  12.3729
    13.1494  14.8508

          k =-0.5089-0.2938 0.2824 (  4706 PWs)   bands (ev):

   -38.1927  -2.4399   0.7072   5.1904   6.3322   9.7113   9.7557  10.6201
    10.7713  13.3054

          k = 1.0177 0.5876-0.0565 (  4694 PWs)   bands (ev):

   -38.1890  -0.5906   0.7558   3.3255   6.9825   8.0605   8.5651   8.8965
    10.2717  12.2947

          k = 0.7633 0.4407 0.0000 (  4695 PWs)   bands (ev):

   -38.1890  -1.0623   1.8473   4.1273   4.7204   6.6467   8.7081  10.6054
    11.0104  12.2755

          k = 0.5089 0.2938 0.0565 (  4708 PWs)   bands (ev):

   -38.1927  -2.7029   2.2003   3.9772   5.8250   7.8793   9.2065  11.5910
    12.7533  13.5170

          k =-0.2544 0.1469 0.2824 (  4725 PWs)   bands (ev):

   -38.1974  -3.5034  -0.1196   5.3768   9.4186  10.0825  10.4216  13.4636
    13.7044  14.1336

          k =-0.5089-0.0000 0.3389 (  4719 PWs)   bands (ev):

   -38.1940  -2.6990   0.1678   6.4104   6.8597   7.9465   9.8435  11.7659
    12.4823  15.0646

          k = 1.0177 0.8814 0.0000 (  4702 PWs)   bands (ev):

   -38.1898  -1.1776   0.8246   3.9962   6.4778   7.7714   8.8344   9.6747
    10.1540  14.8538

          k = 0.7633 0.7345 0.0565 (  4679 PWs)   bands (ev):

   -38.1879   0.0781   1.0688   3.5770   5.1068   6.5404   7.9845   8.9412
    11.3510  14.4822

          k = 0.5089 0.5876 0.1130 (  4699 PWs)   bands (ev):

   -38.1898  -1.6659   2.7582   3.9397   5.0849   6.2828   7.8068   9.5299
    13.4008  14.8072

          k =-0.5089 0.2938 0.3954 (  4705 PWs)   bands (ev):

   -38.1927  -2.2575   0.2159   5.6742   6.5058   8.5440   8.7541  12.4971
    12.9953  13.3545

          k = 1.0177 1.1752 0.0565 (  4695 PWs)   bands (ev):

   -38.1898  -1.1254   0.7984   4.2914   5.3675   7.0896   9.5510  10.9278
    11.8570  14.2346

          k = 0.7633 1.0283 0.1130 (  4698 PWs)   bands (ev):

   -38.1875   0.5575   1.3597   3.4902   3.8184   6.2793   8.0000  10.0502
    10.7853  13.7354

          k = 0.5089 0.8814 0.1695 (  4704 PWs)   bands (ev):

   -38.1875  -0.0004   1.9868   4.0713   4.7227   5.1699   7.1495   8.7958
    11.0818  15.4792

          k = 1.0177-0.5876-0.2824 (  4687 PWs)   bands (ev):

   -38.1890  -0.5131   1.0494   2.9324   4.8430   8.1336   9.6763  11.4622
    12.3473  12.4660

          k = 0.7633-0.7345-0.2259 (  4691 PWs)   bands (ev):

   -38.1879   0.0019   1.6605   3.1400   4.0158   6.4681   9.1366   9.9036
    12.1936  14.1511

          k = 0.7633-0.4407-0.1695 (  4687 PWs)   bands (ev):

   -38.1890  -1.0306   2.4460   3.3513   3.8980   7.5410   8.2877  11.7178
    12.0326  12.7094

          k = 0.0000-0.0000 0.3389 (  4745 PWs)   bands (ev):

   -38.1994  -3.7618  -0.7593   5.7245  11.4947  11.4947  12.8727  12.9397
    12.9397  15.5283

          k =-0.2544-0.1469 0.3954 (  4710 PWs)   bands (ev):

   -38.1974  -3.2998  -0.7356   6.6144   8.6026  10.6239  12.0188  12.2675
    12.3454  14.6967

          k = 1.2721 0.7345 0.0565 (  4702 PWs)   bands (ev):

   -38.1927  -2.1098  -0.1370   5.1990   8.0380   9.2102   9.3608  10.8823
    11.5711  12.7933

          k = 1.0177 0.5876 0.1130 (  4702 PWs)   bands (ev):

   -38.1890  -0.2986   0.5160   2.9897   6.0291   8.4032   8.8904  10.3614
    11.3302  12.0737

          k =-0.2544 0.1469 0.4519 (  4718 PWs)   bands (ev):

   -38.1974  -3.2019  -0.9665   7.1420   9.1156  10.0521  10.8746  11.6387
    13.6865  14.3302

          k = 1.2721 1.0283 0.1130 (  4713 PWs)   bands (ev):

   -38.1940  -2.3886  -0.5597   6.9828   7.2847   8.3462  10.5237  10.9508
    11.9860  14.8473

          k = 1.0177 0.8814 0.1695 (  4699 PWs)   bands (ev):

   -38.1898  -0.9098   0.3763   4.0514   5.9276   7.8781   9.4964  10.2249
    11.2341  13.9950

          k = 1.2721-0.7345-0.2259 (  4698 PWs)   bands (ev):

   -38.1927  -1.9789  -0.3750   5.3654   7.8028   8.8691   9.5056  11.1883
    12.6025  12.6541

          k = 0.0000-0.0000 0.5084 (  4720 PWs)   bands (ev):

   -38.1994  -3.4838  -1.4472   7.4483  10.9079  11.4573  11.4573  12.7316
    12.7316  16.4676

          k = 1.5266 0.8814 0.1695 (  4723 PWs)   bands (ev):

   -38.1974  -3.0665  -1.2443   8.0635   8.7522  10.2361  10.6764  11.5839
    13.0607  14.7536

     the Fermi energy is     7.8386 ev

!    total energy              =     -31.18404321 Ry
     estimated scf accuracy    <          1.2E-09 Ry
     smearing contrib. (-TS)   =      -0.00122882 Ry
     internal energy E=F+TS    =     -31.18281439 Ry

     The total energy is F=E-TS. E is the sum of the following terms:
     one-electron contribution =      -0.15379587 Ry
     hartree contribution      =       3.63804349 Ry
     xc contribution           =      -9.55665914 Ry
     ewald contribution        =     -25.11040287 Ry

     convergence has been achieved in   8 iterations

     Forces acting on atoms (cartesian axes, Ry/au):

     atom    1 type  1   force =    -0.00000000   -0.00000000    0.00000000
     atom    2 type  2   force =    -0.00000000   -0.00000000    0.11326229
     atom    3 type  2   force =     0.00000000   -0.00000000   -0.11326229
     The non-local contrib.  to forces
     atom    1 type  1   force =    -0.00000000   -0.00000000    0.00000000
     atom    2 type  2   force =    -0.00000000    0.00000000    0.17611426
     atom    3 type  2   force =     0.00000000    0.00000000   -0.17611426
     The ionic contribution  to forces
     atom    1 type  1   force =     0.00000000    0.00000000    0.00000000
     atom    2 type  2   force =    -0.00000000    0.00000000    0.67871172
     atom    3 type  2   force =     0.00000000   -0.00000000   -0.67871172
     The local contribution  to forces
     atom    1 type  1   force =     0.00000000    0.00000000   -0.00000000
     atom    2 type  2   force =    -0.00000000   -0.00000000   -0.73119017
     atom    3 type  2   force =     0.00000000    0.00000000    0.73119017
     The core correction contribution to forces
     atom    1 type  1   force =     0.00000000    0.00000000    0.00000000
     atom    2 type  2   force =     0.00000000   -0.00000000   -0.01035851
     atom    3 type  2   force =    -0.00000000    0.00000000    0.01035851
     The Hubbard contrib.    to forces
     atom    1 type  1   force =     0.00000000    0.00000000    0.00000000
     atom    2 type  2   force =     0.00000000    0.00000000    0.00000000
     atom    3 type  2   force =     0.00000000    0.00000000    0.00000000
     The SCF correction term to forces
     atom    1 type  1   force =     0.00000000   -0.00000000   -0.00000000
     atom    2 type  2   force =     0.00000000    0.00000000   -0.00001502
     atom    3 type  2   force =    -0.00000000   -0.00000000    0.00001502

     Total force =     0.160177     Total SCF correction =     0.000021


     Computing stress (Cartesian axis) and pressure

          total   stress  (Ry/bohr**3)                   (kbar)     P=       71.75
   0.00051720   0.00000000   0.00000000           76.08        0.00        0.00
  -0.00000000   0.00051720   0.00000000           -0.00       76.08        0.00
  -0.00000000   0.00000000   0.00042882           -0.00        0.00       63.08

     Energy error            =      3.6E-01 Ry
     Gradient error          =      1.1E-01 Ry/Bohr
     Cell gradient error     =      4.4E+02 kbar

     number of scf cycles    =   2
     number of bfgs steps    =   1

     enthalpy           old  =     -29.8406001108 Ry
     enthalpy           new  =     -30.2036290936 Ry

     CASE: enthalpy          _new < enthalpy          _old

     new trust radius        =       0.5485265194 bohr
ibrav =      5
 celldm(1) =      8.17273851
 celldm(4) =      0.80440774
Input lattice vectors:
     0.23705780    -0.13686539     0.70689430
     0.00000000     0.27373077     0.70689430
    -0.23705780    -0.13686539     0.70689430
New lattice vectors in INITIAL alat:
     0.23705780    -0.13686539     0.70689430
     0.00000000     0.27373077     0.70689430
    -0.23705780    -0.13686539     0.70689430
New lattice vectors in NEW alat (for information only):
     0.31272373    -0.18055113     0.93252623
     0.00000000     0.36110225     0.93252623
    -0.31272373    -0.18055113     0.93252623
Discrepancy in bohr =     0.000000    0.000000    0.000000
     new conv_thr            =       0.0000000100 Ry

     new unit-cell volume =    172.45514 a.u.^3 (    25.55522 Ang^3 )
     density =      4.10092 g/cm^3

CELL_PARAMETERS (alat= 10.78137571)
   0.237057803  -0.136865386   0.706894296
   0.000000000   0.273730772   0.706894296
  -0.237057803  -0.136865386   0.706894296

ATOMIC_POSITIONS (crystal)
Li            0.5000000000        0.5000000000        0.5000000000
Si            0.2701976318        0.2701976318        0.2701976318
Si            0.7298023682        0.7298023682        0.7298023682



     Writing config-only to output data dir ./output/LiSi.save/
     NEW-OLD atomic charge density approx. for the potential

     negative rho (up, down):  1.902E-01 0.000E+00
     extrapolated charge    3.60534, renormalised to   11.00000

     total cpu time spent up to now is       22.4 secs

     Self-consistent Calculation

     iteration #  1     ecut=    80.00 Ry     beta= 0.70
     Davidson diagonalization with overlap
     c_bands:  1 eigenvalues not converged
     c_bands:  1 eigenvalues not converged
     c_bands:  1 eigenvalues not converged
     ethr =  1.00E-06,  avg # of iterations = 14.3

     negative rho (up, down):  1.314E-02 0.000E+00

     total cpu time spent up to now is       25.2 secs

     total energy              =     -29.85614928 Ry
     estimated scf accuracy    <       2.49868094 Ry

     iteration #  2     ecut=    80.00 Ry     beta= 0.70
     Davidson diagonalization with overlap
     ethr =  1.00E-02,  avg # of iterations =  2.6

     negative rho (up, down):  1.568E-04 0.000E+00

     total cpu time spent up to now is       26.1 secs

     total energy              =     -30.53339842 Ry
     estimated scf accuracy    <       1.73622013 Ry

     iteration #  3     ecut=    80.00 Ry     beta= 0.70
     Davidson diagonalization with overlap
     ethr =  1.00E-02,  avg # of iterations =  2.0

     total cpu time spent up to now is       26.8 secs

     total energy              =     -30.87384777 Ry
     estimated scf accuracy    <       0.12351467 Ry

     iteration #  4     ecut=    80.00 Ry     beta= 0.70
     Davidson diagonalization with overlap
     ethr =  1.12E-03,  avg # of iterations =  1.5

     total cpu time spent up to now is       27.4 secs

     total energy              =     -30.88614807 Ry
     estimated scf accuracy    <       0.00104500 Ry

     iteration #  5     ecut=    80.00 Ry     beta= 0.70
     Davidson diagonalization with overlap
     ethr =  9.50E-06,  avg # of iterations =  5.6

     total cpu time spent up to now is       28.5 secs

     total energy              =     -30.88674358 Ry
     estimated scf accuracy    <       0.00011457 Ry

     iteration #  6     ecut=    80.00 Ry     beta= 0.70
     Davidson diagonalization with overlap
     ethr =  1.04E-06,  avg # of iterations =  2.3

     total cpu time spent up to now is       29.2 secs

     total energy              =     -30.88675398 Ry
     estimated scf accuracy    <       0.00000613 Ry

     iteration #  7     ecut=    80.00 Ry     beta= 0.70
     Davidson diagonalization with overlap
     ethr =  5.57E-08,  avg # of iterations =  2.2

     total cpu time spent up to now is       30.0 secs

     total energy              =     -30.88675602 Ry
     estimated scf accuracy    <       0.00000029 Ry

     iteration #  8     ecut=    80.00 Ry     beta= 0.70
     Davidson diagonalization with overlap
     ethr =  2.68E-09,  avg # of iterations =  2.4

     total cpu time spent up to now is       30.7 secs

     End of self-consistent calculation

          k = 0.0000 0.0000 0.0000 (  4721 PWs)   bands (ev):

   -32.2521  -1.6262   6.2610   8.5981  20.6254  20.6254  22.0686  22.0686
    24.4178  24.4178

          k =-0.3013-0.1740 0.0674 (  4734 PWs)   bands (ev):

   -32.2376  -1.1253   6.6056   9.0071  16.4233  18.7269  20.3973  21.3005
    22.0296  24.7800

          k =-0.6026-0.3479 0.1347 (  4713 PWs)   bands (ev):

   -32.2051   0.3758   7.5211   9.5897  12.2080  16.3335  17.0809  19.1395
    20.1965  22.4596

          k =-0.9039-0.5219 0.2021 (  4703 PWs)   bands (ev):

   -32.1790   2.8589   6.2573   8.7797  12.8969  14.2851  16.2778  17.5387
    17.9872  19.7244

          k =-0.3013 0.1740 0.1347 (  4727 PWs)   bands (ev):

   -32.2376  -1.1043   6.2330   9.5062  16.7516  18.2064  19.5797  21.6019
    22.6025  25.2940

          k =-0.6026-0.0000 0.2021 (  4706 PWs)   bands (ev):

   -32.2140  -0.0775   6.6345  10.5391  13.9667  14.7106  17.2033  19.7818
    24.0453  24.5207

          k =-0.9039-0.1740 0.2695 (  4706 PWs)   bands (ev):

   -32.1847   1.9548   7.5672   8.7120  12.8481  13.6762  14.8148  17.3428
    20.0647  23.6701

          k = 0.9039 0.8698-0.1347 (  4709 PWs)   bands (ev):

   -32.1717   4.6763   5.0058   9.2325  12.1233  13.2067  14.0887  16.5802
    18.6590  23.2627

          k = 0.6026 0.6959-0.0674 (  4704 PWs)   bands (ev):

   -32.1848   1.8112   8.5845   9.0951  11.5576  13.1445  13.8202  17.6500
    21.8639  23.8019

          k = 0.3013 0.5219 0.0000 (  4705 PWs)   bands (ev):

   -32.2142  -0.1494   7.7495   9.1864  13.8949  14.8804  17.0424  19.2261
    24.3926  24.8215

          k =-0.6026 0.3479 0.2695 (  4710 PWs)   bands (ev):

   -32.2049   0.4668   6.5472  11.0171  12.1901  15.4227  16.1122  19.8159
    21.9804  24.7604

          k =-0.9039 0.1740 0.3368 (  4695 PWs)   bands (ev):

   -32.1846   2.0181   7.1996   9.4050  11.8433  12.4542  15.7500  19.5276
    22.1282  22.5738

          k = 0.9039 1.2177-0.0674 (  4713 PWs)   bands (ev):

   -32.1684   4.5487   7.4564   8.2696   8.9144  12.0513  16.1642  17.5324
    18.9711  23.6832

          k = 0.6026 1.0438 0.0000 (  4694 PWs)   bands (ev):

   -32.1685   4.2113   7.5904   8.5044  10.7278  11.5110  13.1102  17.0333
    20.9763  23.9454

          k =-0.9039 0.5219 0.4042 (  4681 PWs)   bands (ev):

   -32.1787   3.0490   6.9315   7.3017  11.5143  15.0476  15.9866  18.4537
    22.3109  23.0351

          k = 0.9039 1.5657 0.0000 (  4684 PWs)   bands (ev):

   -32.1715   4.6220   5.8728   7.8517  10.7752  11.9004  18.1143  20.1193
    20.3067  20.5850

          k =-0.0000-0.0000 0.2021 (  4748 PWs)   bands (ev):

   -32.2519  -1.5683   5.3714   9.8643  20.3965  20.3965  22.4204  22.4204
    23.8638  23.8638

          k =-0.3013-0.1740 0.2695 (  4729 PWs)   bands (ev):

   -32.2373  -1.0240   5.3764  10.8182  16.1147  18.9454  20.9217  21.3513
    22.2714  24.3185

          k =-0.6026-0.3479 0.3368 (  4706 PWs)   bands (ev):

   -32.2049   0.5406   6.1298  10.2543  13.6348  17.0640  17.5675  19.1700
    19.8882  20.6453

          k = 1.2053 0.6959-0.0674 (  4694 PWs)   bands (ev):

   -32.1789   3.1100   5.9421   7.9608  14.3437  15.6887  15.9773  16.1508
    18.5038  19.5351

          k = 0.9039 0.5219 0.0000 (  4695 PWs)   bands (ev):

   -32.1790   2.7548   6.5534   9.4370  11.3134  13.6949  15.7874  18.8312
    18.8989  20.7145

          k = 0.6026 0.3479 0.0674 (  4708 PWs)   bands (ev):

   -32.2051   0.3470   7.8985   9.6063  11.7747  15.5419  16.5324  20.0983
    20.3108  24.2218

          k =-0.3013 0.1740 0.3368 (  4725 PWs)   bands (ev):

   -32.2372  -0.9716   4.9811  11.5948  16.7128  17.8703  19.6037  21.0630
    24.0141  24.3199

          k =-0.6026-0.0000 0.4042 (  4719 PWs)   bands (ev):

   -32.2137   0.1035   5.3967  12.2282  14.1246  14.6975  17.7879  20.9767
    22.6628  23.4526

          k = 1.2053 1.0438 0.0000 (  4702 PWs)   bands (ev):

   -32.1845   2.2013   6.4597   8.7601  12.4435  15.3899  16.6523  17.3040
    19.0288  22.9074

          k = 0.9039 0.8698 0.0674 (  4679 PWs)   bands (ev):

   -32.1717   4.6413   5.2720   8.7074  11.7065  12.6489  14.8071  17.7226
    19.9755  22.7192

          k = 0.6026 0.6959 0.1347 (  4699 PWs)   bands (ev):

   -32.1848   1.8358   8.2021   9.9757  10.8338  12.3457  14.5255  18.3419
    23.0181  23.6624

          k =-0.6026 0.3479 0.4715 (  4705 PWs)   bands (ev):

   -32.2046   0.6754   5.4500  11.0104  14.2152  15.9622  16.0739  19.2114
    23.2696  23.7574

          k = 1.2053 1.3917 0.0674 (  4695 PWs)   bands (ev):

   -32.1844   2.2650   6.2700   9.0978  11.8699  13.7955  17.3683  20.1917
    20.9846  21.6802

          k = 0.9039 1.2177 0.1347 (  4698 PWs)   bands (ev):

   -32.1684   4.8109   7.2799   7.9991   8.4597  12.6626  16.2555  18.5259
    19.4151  22.1024

          k = 0.6026 1.0438 0.2021 (  4704 PWs)   bands (ev):

   -32.1685   4.3030   7.5886   8.3521  10.1881  11.3156  14.4749  17.1398
    19.9849  24.6446

          k = 1.2053-0.6959-0.3368 (  4687 PWs)   bands (ev):

   -32.1786   3.3025   6.1957   7.1801  12.4227  15.0949  17.2201  17.9377
    21.2190  21.6956

          k = 0.9039-0.8698-0.2695 (  4691 PWs)   bands (ev):

   -32.1716   4.6250   5.6555   8.1213  11.1577  11.9611  16.7608  18.7753
    21.2465  21.9426

          k = 0.9039-0.5219-0.2021 (  4687 PWs)   bands (ev):

   -32.1788   2.8287   6.7975   8.6118  11.0332  14.3991  15.2904  18.9544
    20.4480  22.5615

          k =-0.0000-0.0000 0.4042 (  4745 PWs)   bands (ev):

   -32.2514  -1.4254   4.2426  12.1267  20.0855  20.0855  21.5718  22.4427
    22.4427  24.2285

          k =-0.3013-0.1740 0.4715 (  4710 PWs)   bands (ev):

   -32.2369  -0.8565   4.3356  13.1249  15.9664  18.4847  20.6583  21.8431
    22.1312  23.5965

          k = 1.5066 0.8698 0.0674 (  4702 PWs)   bands (ev):

   -32.2046   0.7479   5.1871  10.5236  15.7014  16.5132  18.2692  18.8357
    19.8441  20.3695

          k = 1.2053 0.6959 0.1347 (  4702 PWs)   bands (ev):

   -32.1787   3.3466   5.7910   7.4385  13.7461  15.4274  15.9857  18.5559
    19.2063  19.9040

          k =-0.3013 0.1740 0.5389 (  4718 PWs)   bands (ev):

   -32.2368  -0.8072   4.1062  13.9616  16.2641  17.8073  19.7551  20.5598
    22.4571  24.8492

          k = 1.5066 1.2177 0.1347 (  4713 PWs)   bands (ev):

   -32.2134   0.2752   4.6737  13.0046  13.8492  16.0662  18.6186  20.3553
    21.3654  23.2473

          k = 1.2053 1.0438 0.2021 (  4699 PWs)   bands (ev):

   -32.1844   2.3665   5.9614   8.8814  12.1000  15.0250  17.9490  18.8560
    19.6965  21.6183

          k = 1.5066-0.8698-0.2695 (  4698 PWs)   bands (ev):

   -32.2045   0.8192   4.9340  10.7557  16.1020  16.2841  17.2814  18.2144
    21.1054  22.0523

          k = 0.0000-0.0000 0.6063 (  4720 PWs)   bands (ev):

   -32.2510  -1.2947   3.5825  14.5436  18.7278  19.9189  19.9189  22.1471
    22.1471  25.6234

          k = 1.8079 1.0438 0.2021 (  4723 PWs)   bands (ev):

   -32.2366  -0.7487   3.8660  15.2372  15.7172  18.0254  18.9285  21.6381
    22.4475  23.3466

     the Fermi energy is    14.7530 ev

!    total energy              =     -30.88675611 Ry
     estimated scf accuracy    <          6.5E-10 Ry
     smearing contrib. (-TS)   =      -0.00027493 Ry
     internal energy E=F+TS    =     -30.88648117 Ry

     The total energy is F=E-TS. E is the sum of the following terms:
     one-electron contribution =       6.46355041 Ry
     hartree contribution      =       3.07015634 Ry
     xc contribution           =     -10.42700200 Ry
     ewald contribution        =     -29.99318592 Ry

     convergence has been achieved in   8 iterations

     Forces acting on atoms (cartesian axes, Ry/au):

     atom    1 type  1   force =     0.00000000    0.00000000    0.00000000
     atom    2 type  2   force =    -0.00000000   -0.00000000    0.00492601
     atom    3 type  2   force =     0.00000000   -0.00000000   -0.00492601
     The non-local contrib.  to forces
     atom    1 type  1   force =     0.00000000    0.00000000   -0.00000000
     atom    2 type  2   force =    -0.00000000   -0.00000000    0.03489945
     atom    3 type  2   force =     0.00000000    0.00000000   -0.03489945
     The ionic contribution  to forces
     atom    1 type  1   force =     0.00000000    0.00000000    0.00000000
     atom    2 type  2   force =    -0.00000000    0.00000000    0.11899767
     atom    3 type  2   force =    -0.00000000   -0.00000000   -0.11899767
     The local contribution  to forces
     atom    1 type  1   force =    -0.00000000    0.00000000   -0.00000000
     atom    2 type  2   force =    -0.00000000   -0.00000000   -0.15228591
     atom    3 type  2   force =     0.00000000    0.00000000    0.15228591
     The core correction contribution to forces
     atom    1 type  1   force =     0.00000000    0.00000000    0.00000000
     atom    2 type  2   force =     0.00000000   -0.00000000    0.00333395
     atom    3 type  2   force =    -0.00000000    0.00000000   -0.00333395
     The Hubbard contrib.    to forces
     atom    1 type  1   force =     0.00000000    0.00000000    0.00000000
     atom    2 type  2   force =     0.00000000    0.00000000    0.00000000
     atom    3 type  2   force =     0.00000000    0.00000000    0.00000000
     The SCF correction term to forces
     atom    1 type  1   force =     0.00000000   -0.00000000    0.00000000
     atom    2 type  2   force =     0.00000000    0.00000000   -0.00001915
     atom    3 type  2   force =    -0.00000000   -0.00000000    0.00001915

     Total force =     0.006966     Total SCF correction =     0.000027


     Computing stress (Cartesian axis) and pressure

          total   stress  (Ry/bohr**3)                   (kbar)     P=     1155.14
   0.00709683  -0.00000000   0.00000000         1043.98       -0.00        0.00
  -0.00000000   0.00709683   0.00000000           -0.00     1043.98        0.00
   0.00000000   0.00000000   0.00936371            0.00        0.00     1377.45

     Energy error            =      9.7E-02 Ry
     Gradient error          =      4.9E-03 Ry/Bohr
     Cell gradient error     =      8.8E+02 kbar

     number of scf cycles    =   3
     number of bfgs steps    =   2

     enthalpy           old  =     -30.2036290936 Ry
     enthalpy           new  =     -30.3005929868 Ry

     CASE: enthalpy          _new < enthalpy          _old

     new trust radius        =       0.2887211220 bohr
ibrav =      5
 celldm(1) =      9.04453574
 celldm(4) =      0.81209735
Input lattice vectors:
     0.25713640    -0.14845777     0.78460216
    -0.00000000     0.29691553     0.78460216
    -0.25713640    -0.14845777     0.78460216
New lattice vectors in INITIAL alat:
     0.25713640    -0.14845777     0.78460216
     0.00000000     0.29691553     0.78460216
    -0.25713640    -0.14845777     0.78460216
New lattice vectors in NEW alat (for information only):
     0.30651480    -0.17696640     0.93527085
     0.00000000     0.35393281     0.93527085
    -0.30651480    -0.17696640     0.93527085
Discrepancy in bohr =     0.000000    0.000000    0.000000
     new conv_thr            =       0.0000000005 Ry

     new unit-cell volume =    225.21109 a.u.^3 (    33.37284 Ang^3 )
     density =      3.14028 g/cm^3

CELL_PARAMETERS (alat= 10.78137571)
   0.257136396  -0.148457767   0.784602159
   0.000000000   0.296915534   0.784602159
  -0.257136396  -0.148457767   0.784602159

ATOMIC_POSITIONS (crystal)
Li            0.5000000000        0.5000000000        0.5000000000
Si            0.2681159885        0.2681159885        0.2681159885
Si            0.7318840115        0.7318840115        0.7318840115



     Writing config-only to output data dir ./output/LiSi.save/
     NEW-OLD atomic charge density approx. for the potential
     extrapolated charge   13.57541, renormalised to   11.00000

     total cpu time spent up to now is       32.1 secs

     Self-consistent Calculation

     iteration #  1     ecut=    80.00 Ry     beta= 0.70
     Davidson diagonalization with overlap
     c_bands:  1 eigenvalues not converged
     ethr =  1.00E-06,  avg # of iterations = 11.4

     total cpu time spent up to now is       34.5 secs

     total energy              =     -31.08791059 Ry
     estimated scf accuracy    <       0.00824963 Ry

     iteration #  2     ecut=    80.00 Ry     beta= 0.70
     Davidson diagonalization with overlap
     ethr =  7.50E-05,  avg # of iterations =  3.6

     total cpu time spent up to now is       35.5 secs

     total energy              =     -31.13742540 Ry
     estimated scf accuracy    <       0.03898820 Ry

     iteration #  3     ecut=    80.00 Ry     beta= 0.70
     Davidson diagonalization with overlap
     ethr =  7.50E-05,  avg # of iterations =  2.0

     total cpu time spent up to now is       36.2 secs

     total energy              =     -31.13690873 Ry
     estimated scf accuracy    <       0.01069922 Ry

     iteration #  4     ecut=    80.00 Ry     beta= 0.70
     Davidson diagonalization with overlap
     ethr =  7.50E-05,  avg # of iterations =  1.0

     total cpu time spent up to now is       36.9 secs

     total energy              =     -31.13367447 Ry
     estimated scf accuracy    <       0.00549439 Ry

     iteration #  5     ecut=    80.00 Ry     beta= 0.70
     Davidson diagonalization with overlap
     ethr =  4.99E-05,  avg # of iterations =  2.0

     total cpu time spent up to now is       37.6 secs

     total energy              =     -31.13492909 Ry
     estimated scf accuracy    <       0.00025244 Ry

     iteration #  6     ecut=    80.00 Ry     beta= 0.70
     Davidson diagonalization with overlap
     ethr =  2.29E-06,  avg # of iterations =  3.0

     total cpu time spent up to now is       38.3 secs

     total energy              =     -31.13497511 Ry
     estimated scf accuracy    <       0.00000106 Ry

     iteration #  7     ecut=    80.00 Ry     beta= 0.70
     Davidson diagonalization with overlap
     ethr =  9.63E-09,  avg # of iterations =  3.9

     total cpu time spent up to now is       39.2 secs

     total energy              =     -31.13497645 Ry
     estimated scf accuracy    <       0.00000047 Ry

     iteration #  8     ecut=    80.00 Ry     beta= 0.70
     Davidson diagonalization with overlap
     ethr =  4.26E-09,  avg # of iterations =  1.0

     total cpu time spent up to now is       39.8 secs

     total energy              =     -31.13497639 Ry
     estimated scf accuracy    <       0.00000012 Ry

     iteration #  9     ecut=    80.00 Ry     beta= 0.70
     Davidson diagonalization with overlap
     ethr =  1.08E-09,  avg # of iterations =  2.0

     total cpu time spent up to now is       40.5 secs

     total energy              =     -31.13497642 Ry
     estimated scf accuracy    <          9.3E-09 Ry

     iteration # 10     ecut=    80.00 Ry     beta= 0.70
     Davidson diagonalization with overlap
     ethr =  8.48E-11,  avg # of iterations =  1.2

     total cpu time spent up to now is       41.1 secs

     End of self-consistent calculation

          k = 0.0000 0.0000 0.0000 (  4721 PWs)   bands (ev):

   -35.4416  -3.1989   3.1263   5.3729  15.6948  15.6948  18.0943  18.0943
    18.5052  18.5052

          k =-0.2778-0.1604 0.0607 (  4734 PWs)   bands (ev):

   -35.4359  -2.7638   3.4432   5.7801  12.2575  14.3646  15.7508  16.5044
    17.5567  19.1265

          k =-0.5556-0.3208 0.1214 (  4713 PWs)   bands (ev):

   -35.4230  -1.4612   4.2935   6.7111   8.2764  12.2006  12.9888  14.6597
    16.0385  16.7771

          k =-0.8334-0.4811 0.1821 (  4703 PWs)   bands (ev):

   -35.4126   0.6915   3.5828   5.8057   9.0044  10.1680  12.2995  13.0351
    13.6759  15.1904

          k =-0.2778 0.1604 0.1214 (  4727 PWs)   bands (ev):

   -35.4359  -2.7405   3.1498   6.1664  12.5594  13.9418  14.9295  17.3614
    17.5567  19.4020

          k =-0.5556-0.0000 0.1821 (  4706 PWs)   bands (ev):

   -35.4265  -1.8464   3.5608   7.2160   9.8578  11.1882  13.0966  14.8192
    18.7729  19.3553

          k =-0.8334-0.1604 0.2428 (  4706 PWs)   bands (ev):

   -35.4149  -0.0841   4.3776   6.0459   9.2228   9.6633  11.1301  12.5507
    15.0324  18.8537

          k = 0.8334 0.8019-0.1214 (  4709 PWs)   bands (ev):

   -35.4097   2.2270   2.5581   6.2616   8.8718   9.3092   9.9562  12.0702
    13.7707  18.4752

          k = 0.5556 0.6415-0.0607 (  4704 PWs)   bands (ev):

   -35.4149  -0.2300   5.5662   6.1258   7.5928   9.6651  10.3107  12.7828
    16.6400  18.8515

          k = 0.2778 0.4811 0.0000 (  4705 PWs)   bands (ev):

   -35.4266  -1.9225   4.4537   6.0782   9.8420  11.3449  13.1164  14.2171
    19.5850  19.7234

          k =-0.5556 0.3208 0.2428 (  4710 PWs)   bands (ev):

   -35.4229  -1.3716   3.5713   7.8419   8.3099  11.2282  12.1701  15.8011
    17.0069  18.6804

          k =-0.8334 0.1604 0.3035 (  4695 PWs)   bands (ev):

   -35.4149  -0.0353   4.2551   6.4860   8.1790   8.8675  11.5623  14.5347
    16.8309  18.1400

          k = 0.8334 1.1227-0.0607 (  4713 PWs)   bands (ev):

   -35.4084   2.1216   4.4128   5.7309   6.0817   8.3490  11.4963  13.0183
    13.9112  18.3708

          k = 0.5556 0.9623 0.0000 (  4694 PWs)   bands (ev):

   -35.4085   1.8121   4.6908   5.9911   7.3647   8.1180   9.0776  12.1085
    15.7193  18.5758

          k =-0.8334 0.4811 0.3642 (  4681 PWs)   bands (ev):

   -35.4126   0.8157   4.3390   4.6521   7.2532  11.2527  11.9118  14.5161
    17.2564  17.4626

          k = 0.8334 1.4434 0.0000 (  4684 PWs)   bands (ev):

   -35.4097   2.0198   3.6314   5.2343   6.6135   8.7423  13.2440  14.8364
    15.6618  16.1981

          k =-0.0000-0.0000 0.1821 (  4748 PWs)   bands (ev):

   -35.4416  -3.1310   2.3862   6.4016  15.6024  15.6024  18.1429  18.1429
    18.4333  18.4333

          k =-0.2778-0.1604 0.2428 (  4729 PWs)   bands (ev):

   -35.4358  -2.6490   2.4103   7.2831  12.0032  14.5615  16.1398  16.7819
    17.3665  18.6904

          k =-0.5556-0.3208 0.3035 (  4706 PWs)   bands (ev):

   -35.4229  -1.2866   3.1094   7.3767   9.3241  12.9809  13.3423  14.6701
    15.0250  16.0521

          k = 1.1111 0.6415-0.0607 (  4694 PWs)   bands (ev):

   -35.4126   0.9429   3.1907   5.1733  10.2205  11.3067  11.8779  12.0416
    14.1108  15.1414

          k = 0.8334 0.4811 0.0000 (  4695 PWs)   bands (ev):

   -35.4126   0.5716   4.0140   6.3733   7.3848   9.7554  11.8775  14.4485
    14.9015  15.2487

          k = 0.5556 0.3208 0.0607 (  4708 PWs)   bands (ev):

   -35.4230  -1.4936   4.7391   6.3603   8.2192  11.4088  12.5223  15.6421
    15.9881  18.1887

          k =-0.2778 0.1604 0.3035 (  4725 PWs)   bands (ev):

   -35.4358  -2.5889   2.0679   7.9014  12.6067  13.6715  14.7450  16.9811
    18.3100  18.7475

          k =-0.5556-0.0000 0.3642 (  4719 PWs)   bands (ev):

   -35.4265  -1.6497   2.4721   8.9115  10.0377  10.8236  13.4985  15.8578
    17.0424  18.7668

          k = 1.1111 0.9623 0.0000 (  4702 PWs)   bands (ev):

   -35.4149   0.1669   3.4293   6.0137   9.1907  10.9273  12.3618  12.7554
    14.0809  18.3419

          k = 0.8334 0.8019 0.0607 (  4679 PWs)   bands (ev):

   -35.4097   2.0868   2.9541   5.7777   8.1807   8.8904  10.8692  12.8554
    14.9676  18.1131

          k = 0.5556 0.6415 0.1214 (  4699 PWs)   bands (ev):

   -35.4149  -0.2114   5.4597   6.4539   7.2889   8.9356  10.7330  13.4574
    17.8793  18.5136

          k =-0.5556 0.3208 0.4248 (  4705 PWs)   bands (ev):

   -35.4229  -1.1485   2.5611   7.9636   9.8209  11.8019  12.0458  15.3921
    17.3944  18.2384

          k = 1.1111 1.2830 0.0607 (  4695 PWs)   bands (ev):

   -35.4148   0.2182   3.3326   6.3013   8.4683   9.8074  12.7456  15.0179
    15.8545  17.3949

          k = 0.8334 1.1227 0.1214 (  4698 PWs)   bands (ev):

   -35.4084   2.3690   4.1495   5.5061   5.7224   8.9538  11.5253  13.6984
    14.3826  17.0543

          k = 0.5556 0.9623 0.1821 (  4704 PWs)   bands (ev):

   -35.4085   1.8958   4.6241   5.8637   7.1073   7.6931  10.2491  12.3410
    14.8799  19.1345

          k = 1.1111-0.6415-0.3035 (  4687 PWs)   bands (ev):

   -35.4125   1.0706   3.4464   4.6492   8.1431  11.2931  13.0121  13.9885
    16.0385  16.7556

          k = 0.8334-0.8019-0.2428 (  4691 PWs)   bands (ev):

   -35.4097   2.0304   3.4040   5.3589   7.1082   8.7783  12.3336  13.8350
    16.0524  17.4642

          k = 0.8334-0.4811-0.1821 (  4687 PWs)   bands (ev):

   -35.4126   0.6197   4.3799   5.7043   6.8207  10.4975  11.4571  14.9778
    15.7398  16.8955

          k =-0.0000-0.0000 0.3642 (  4745 PWs)   bands (ev):

   -35.4415  -2.9586   1.3822   8.2652  15.4434  15.4434  16.6632  17.6203
    17.6203  19.2936

          k =-0.2778-0.1604 0.4248 (  4710 PWs)   bands (ev):

   -35.4357  -2.4518   1.4761   9.2350  11.8783  14.1932  16.0841  16.8014
    16.9068  18.2166

          k = 1.3889 0.8019 0.0607 (  4702 PWs)   bands (ev):

   -35.4229  -1.0605   2.2754   7.5348  11.0984  12.5129  13.4590  14.6383
    15.3911  15.6579

          k = 1.1111 0.6415 0.1214 (  4702 PWs)   bands (ev):

   -35.4126   1.1559   3.0329   4.7872   9.3774  11.5742  12.0280  13.8666
    14.8278  15.2794

          k =-0.2778 0.1604 0.4855 (  4718 PWs)   bands (ev):

   -35.4357  -2.3920   1.2661   9.8617  12.2653  13.6253  15.1186  15.5707
    17.7664  18.8289

          k = 1.3889 1.1227 0.1214 (  4713 PWs)   bands (ev):

   -35.4264  -1.4536   1.8059   9.6527  10.3672  11.2932  14.1990  15.1586
    16.1135  18.6604

          k = 1.1111 0.9623 0.1821 (  4699 PWs)   bands (ev):

   -35.4148   0.3358   3.0048   6.1047   8.7913  10.8586  13.0399  14.0035
    14.7800  17.3212

          k = 1.3889-0.8019-0.2428 (  4698 PWs)   bands (ev):

   -35.4228  -0.9832   2.0591   7.7195  11.4090  12.1649  12.7328  14.6298
    15.9068  17.0192

          k = 0.0000-0.0000 0.5462 (  4720 PWs)   bands (ev):

   -35.4414  -2.7924   0.7645  10.1416  14.3984  15.3466  15.3466  17.3090
    17.3090  20.5209

          k = 1.6667 0.9623 0.1821 (  4723 PWs)   bands (ev):

   -35.4357  -2.3184   1.0360  10.8798  11.7794  13.8107  14.5267  16.1113
    17.8576  18.0731

     the Fermi energy is    10.8725 ev

!    total energy              =     -31.13497643 Ry
     estimated scf accuracy    <          2.2E-10 Ry
     smearing contrib. (-TS)   =      -0.00077891 Ry
     internal energy E=F+TS    =     -31.13419752 Ry

     The total energy is F=E-TS. E is the sum of the following terms:
     one-electron contribution =       2.97030492 Ry
     hartree contribution      =       3.27459993 Ry
     xc contribution           =      -9.93849080 Ry
     ewald contribution        =     -27.44061157 Ry

     convergence has been achieved in  10 iterations

     Forces acting on atoms (cartesian axes, Ry/au):

     atom    1 type  1   force =     0.00000000   -0.00000000   -0.00000000
     atom    2 type  2   force =     0.00000000   -0.00000000    0.09265768
     atom    3 type  2   force =    -0.00000000   -0.00000000   -0.09265768
     The non-local contrib.  to forces
     atom    1 type  1   force =    -0.00000000   -0.00000000   -0.00000000
     atom    2 type  2   force =    -0.00000000    0.00000000    0.14013441
     atom    3 type  2   force =    -0.00000000    0.00000000   -0.14013441
     The ionic contribution  to forces
     atom    1 type  1   force =    -0.00000000    0.00000000    0.00000000
     atom    2 type  2   force =    -0.00000000    0.00000000    0.30090399
     atom    3 type  2   force =    -0.00000000   -0.00000000   -0.30090399
     The local contribution  to forces
     atom    1 type  1   force =     0.00000000    0.00000000   -0.00000000
     atom    2 type  2   force =     0.00000000   -0.00000000   -0.34246107
     atom    3 type  2   force =    -0.00000000    0.00000000    0.34246107
     The core correction contribution to forces
     atom    1 type  1   force =     0.00000000    0.00000000    0.00000000
     atom    2 type  2   force =     0.00000000   -0.00000000   -0.00593087
     atom    3 type  2   force =     0.00000000    0.00000000    0.00593087
     The Hubbard contrib.    to forces
     atom    1 type  1   force =     0.00000000    0.00000000    0.00000000
     atom    2 type  2   force =     0.00000000    0.00000000    0.00000000
     atom    3 type  2   force =     0.00000000    0.00000000    0.00000000
     The SCF correction term to forces
     atom    1 type  1   force =    -0.00000000    0.00000000    0.00000000
     atom    2 type  2   force =    -0.00000000    0.00000000    0.00001123
     atom    3 type  2   force =     0.00000000   -0.00000000   -0.00001123

     Total force =     0.131038     Total SCF correction =     0.000016


     Computing stress (Cartesian axis) and pressure

          total   stress  (Ry/bohr**3)                   (kbar)     P=      376.36
   0.00232227  -0.00000000  -0.00000000          341.62       -0.00       -0.00
   0.00000000   0.00232227   0.00000000            0.00      341.62        0.00
  -0.00000000   0.00000000   0.00303071           -0.00        0.00      445.83

     Energy error            =      6.9E-02 Ry
     Gradient error          =      9.3E-02 Ry/Bohr
     Cell gradient error     =      1.6E+02 kbar

     number of scf cycles    =   4
     number of bfgs steps    =   3

     enthalpy           old  =     -30.3005929868 Ry
     enthalpy           new  =     -30.3694994971 Ry

     CASE: enthalpy          _new < enthalpy          _old

     new trust radius        =       0.0646217461 bohr
ibrav =      5
 celldm(1) =      8.99073745
 celldm(4) =      0.81786853
Input lattice vectors:
     0.25165099    -0.14529076     0.78164859
     0.00000000     0.29058153     0.78164859
    -0.25165099    -0.14529076     0.78164859
New lattice vectors in INITIAL alat:
     0.25165099    -0.14529076     0.78164859
     0.00000000     0.29058153     0.78164859
    -0.25165099    -0.14529076     0.78164859
New lattice vectors in NEW alat (for information only):
     0.30177100    -0.17422757     0.93732546
     0.00000000     0.34845513     0.93732546
    -0.30177100    -0.17422757     0.93732546
Discrepancy in bohr =     0.000000    0.000000    0.000000
     new conv_thr            =       0.0000000093 Ry

     new unit-cell volume =    214.89286 a.u.^3 (    31.84384 Ang^3 )
     density =      3.29106 g/cm^3

CELL_PARAMETERS (alat= 10.78137571)
   0.251650985  -0.145290764   0.781648590
   0.000000000   0.290581528   0.781648590
  -0.251650985  -0.145290764   0.781648590

ATOMIC_POSITIONS (crystal)
Li            0.5000000000        0.5000000000        0.5000000000
Si            0.2706624303        0.2706624303        0.2706624303
Si            0.7293375697        0.7293375697        0.7293375697



     Writing config-only to output data dir ./output/LiSi.save/
     NEW-OLD atomic charge density approx. for the potential
     extrapolated charge   10.47211, renormalised to   11.00000

     total cpu time spent up to now is       42.6 secs

     Self-consistent Calculation

     iteration #  1     ecut=    80.00 Ry     beta= 0.70
     Davidson diagonalization with overlap
     ethr =  1.00E-06,  avg # of iterations =  8.9

     total cpu time spent up to now is       44.4 secs

     total energy              =     -31.11574039 Ry
     estimated scf accuracy    <       0.00062563 Ry

     iteration #  2     ecut=    80.00 Ry     beta= 0.70
     Davidson diagonalization with overlap
     ethr =  5.69E-06,  avg # of iterations =  3.1

     total cpu time spent up to now is       45.3 secs

     total energy              =     -31.11760503 Ry
     estimated scf accuracy    <       0.00089059 Ry

     iteration #  3     ecut=    80.00 Ry     beta= 0.70
     Davidson diagonalization with overlap
     ethr =  5.69E-06,  avg # of iterations =  1.4

     total cpu time spent up to now is       45.9 secs

     total energy              =     -31.11765144 Ry
     estimated scf accuracy    <       0.00014645 Ry

     iteration #  4     ecut=    80.00 Ry     beta= 0.70
     Davidson diagonalization with overlap
     ethr =  1.33E-06,  avg # of iterations =  1.0

     total cpu time spent up to now is       46.5 secs

     total energy              =     -31.11760776 Ry
     estimated scf accuracy    <       0.00009987 Ry

     iteration #  5     ecut=    80.00 Ry     beta= 0.70
     Davidson diagonalization with overlap
     ethr =  9.08E-07,  avg # of iterations =  1.9

     total cpu time spent up to now is       47.2 secs

     total energy              =     -31.11762310 Ry
     estimated scf accuracy    <       0.00000038 Ry

     iteration #  6     ecut=    80.00 Ry     beta= 0.70
     Davidson diagonalization with overlap
     ethr =  3.50E-09,  avg # of iterations =  4.0

     total cpu time spent up to now is       48.0 secs

     total energy              =     -31.11762363 Ry
     estimated scf accuracy    <       0.00000002 Ry

     iteration #  7     ecut=    80.00 Ry     beta= 0.70
     Davidson diagonalization with overlap
     ethr =  1.60E-10,  avg # of iterations =  2.1

     total cpu time spent up to now is       48.8 secs

     total energy              =     -31.11762361 Ry
     estimated scf accuracy    <       0.00000006 Ry

     iteration #  8     ecut=    80.00 Ry     beta= 0.70
     Davidson diagonalization with overlap
     ethr =  1.60E-10,  avg # of iterations =  2.0

     total cpu time spent up to now is       49.5 secs

     End of self-consistent calculation

          k = 0.0000 0.0000 0.0000 (  4721 PWs)   bands (ev):

   -34.8162  -3.1376   3.4087   5.8883  16.6007  16.6007  19.0044  19.0044
    19.6765  19.6765

          k =-0.2838-0.1639 0.0609 (  4734 PWs)   bands (ev):

   -34.8091  -2.6815   3.7643   6.2829  12.9854  15.1266  16.7868  17.6808
    18.2604  20.3152

          k =-0.5677-0.3277 0.1218 (  4713 PWs)   bands (ev):

   -34.7931  -1.3161   4.7334   7.1421   8.8323  13.0446  13.6411  15.7841
    16.6806  17.6991

          k =-0.8515-0.4916 0.1828 (  4703 PWs)   bands (ev):

   -34.7803   0.9418   4.0202   6.2003   9.5392  10.8899  12.8879  13.7294
    14.7914  15.8103

          k =-0.2838 0.1639 0.1218 (  4727 PWs)   bands (ev):

   -34.8091  -2.6624   3.5043   6.6395  13.2291  14.7663  16.0513  18.0740
    18.6823  20.3815

          k =-0.5677-0.0000 0.1828 (  4706 PWs)   bands (ev):

   -34.7975  -1.7303   3.9916   7.6633  10.5363  11.7110  14.0537  15.7874
    19.8042  20.2190

          k =-0.8515-0.1639 0.2437 (  4706 PWs)   bands (ev):

   -34.7832   0.1113   4.9726   6.3804   9.8222  10.1293  11.8417  13.4199
    15.8956  19.6151

          k = 0.8515 0.8194-0.1218 (  4709 PWs)   bands (ev):

   -34.7768   2.5566   2.9129   6.7307   9.4203   9.8813  10.6156  12.7622
    14.6310  19.2402

          k = 0.5677 0.6555-0.0609 (  4704 PWs)   bands (ev):

   -34.7832  -0.0118   6.1714   6.3842   8.1784  10.1637  11.0274  13.7618
    17.4342  19.6513

          k = 0.2838 0.4916 0.0000 (  4705 PWs)   bands (ev):

   -34.7976  -1.7937   4.7932   6.6127  10.5112  11.8488  14.0269  15.2753
    20.4022  20.8099

          k =-0.5677 0.3277 0.2437 (  4710 PWs)   bands (ev):

   -34.7931  -1.2410   4.0380   8.2749   8.8086  12.1509  12.9456  16.4083
    18.0193  19.6095

          k =-0.8515 0.1639 0.3046 (  4695 PWs)   bands (ev):

   -34.7832   0.1536   4.7990   6.8267   9.0082   9.3137  12.1627  15.4195
    17.7441  18.8955

          k = 0.8515 1.1471-0.0609 (  4713 PWs)   bands (ev):

   -34.7752   2.4145   4.9687   6.0596   6.5922   8.9832  12.1574  13.6536
    14.7186  18.9692

          k = 0.5677 0.9832 0.0000 (  4694 PWs)   bands (ev):

   -34.7752   2.1503   5.1335   6.3321   8.0027   8.6340   9.6623  12.9717
    16.4209  19.2154

          k =-0.8515 0.4916 0.3655 (  4681 PWs)   bands (ev):

   -34.7803   1.0532   4.6682   5.1173   8.0421  12.0045  12.4561  15.0613
    18.0718  18.2437

          k = 0.8515 1.4749 0.0000 (  4684 PWs)   bands (ev):

   -34.7767   2.3699   3.8013   5.7960   7.4644   9.1733  13.8137  15.6690
    16.5686  16.7418

          k = 0.0000-0.0000 0.1828 (  4748 PWs)   bands (ev):

   -34.8161  -3.0826   2.7543   6.8392  16.5113  16.5113  19.0515  19.0515
    19.6169  19.6169

          k =-0.2838-0.1639 0.2437 (  4729 PWs)   bands (ev):

   -34.8090  -2.5881   2.8297   7.6998  12.7507  15.2694  17.3785  17.7191
    18.0949  19.6889

          k =-0.5677-0.3277 0.3046 (  4706 PWs)   bands (ev):

   -34.7931  -1.1723   3.6246   7.8035   9.8553  13.6333  14.1158  15.7974
    15.9838  16.5652

          k = 1.1354 0.6555-0.0609 (  4694 PWs)   bands (ev):

   -34.7803   1.1480   3.7156   5.5511  10.8006  12.0667  12.4473  12.6976
    15.1599  15.7309

          k = 0.8515 0.4916 0.0000 (  4695 PWs)   bands (ev):

   -34.7803   0.8410   4.3556   6.8630   7.8963  10.5130  12.5641  15.4454
    15.4662  16.0027

          k = 0.5677 0.3277 0.0609 (  4708 PWs)   bands (ev):

   -34.7931  -1.3431   5.1084   6.9036   8.6880  12.3206  13.2628  16.6128
    16.6792  19.2336

          k =-0.2838 0.1639 0.3046 (  4725 PWs)   bands (ev):

   -34.8090  -2.5401   2.5127   8.3030  13.2360  14.5180  15.9209  17.5867
    19.0619  19.9324

          k =-0.5677-0.0000 0.3655 (  4719 PWs)   bands (ev):

   -34.7975  -1.5711   2.9795   9.3070  10.7212  11.3971  14.4256  16.6960
    17.9787  19.5580

          k = 1.1354 0.9832 0.0000 (  4702 PWs)   bands (ev):

   -34.7831   0.3146   4.0610   6.3905   9.7323  11.5497  13.0398  13.3953
    15.0140  19.0314

          k = 0.8515 0.8194 0.0609 (  4679 PWs)   bands (ev):

   -34.7768   2.4403   3.2425   6.3177   8.8993   9.2964  11.4683  13.7744
    15.5982  18.8725

          k = 0.5677 0.6555 0.1218 (  4699 PWs)   bands (ev):

   -34.7832   0.0048   5.8697   6.9780   7.7946   9.5633  11.3676  14.4160
    18.7082  19.3333

          k =-0.5677 0.3277 0.4264 (  4705 PWs)   bands (ev):

   -34.7930  -1.0616   3.1035   8.3842  10.3891  12.6212  12.8298  15.9266
    18.1655  19.3269

          k = 1.1354 1.3110 0.0609 (  4695 PWs)   bands (ev):

   -34.7831   0.3564   3.9555   6.6524   9.1745  10.4033  13.2623  15.8990
    16.6496  18.0773

          k = 0.8515 1.1471 0.1218 (  4698 PWs)   bands (ev):

   -34.7752   2.6094   4.7949   5.9240   6.1273   9.5523  12.2523  14.4677
    15.0190  17.5895

          k = 0.5677 0.9832 0.1828 (  4704 PWs)   bands (ev):

   -34.7752   2.2234   5.1001   6.2021   7.6286   8.3295  10.8534  13.1149
    15.6484  19.6900

          k = 1.1354-0.6555-0.3046 (  4687 PWs)   bands (ev):

   -34.7803   1.2567   4.0048   4.9810   8.9132  12.0419  13.5635  14.4988
    16.5831  17.7295

          k = 0.8515-0.8194-0.2437 (  4691 PWs)   bands (ev):

   -34.7768   2.3836   3.6177   5.9321   7.8951   9.1941  12.9181  14.7521
    16.6766  18.1092

          k = 0.8515-0.4916-0.1828 (  4687 PWs)   bands (ev):

   -34.7803   0.8851   4.6280   6.2380   7.5062  11.1404  12.1933  15.5430
    16.7115  17.5778

          k = 0.0000-0.0000 0.3655 (  4745 PWs)   bands (ev):

   -34.8160  -2.9466   1.8353   8.6359  16.3535  16.3535  17.1066  18.6655
    18.6655  20.3489

          k =-0.2838-0.1639 0.4264 (  4710 PWs)   bands (ev):

   -34.8089  -2.4334   1.9712   9.5956  12.6000  14.9768  16.6228  17.9576
    17.9888  19.0794

          k = 1.4192 0.8194 0.0609 (  4702 PWs)   bands (ev):

   -34.7930  -0.9947   2.8521   8.0017  11.5514  13.2519  14.3374  15.3931
    15.8758  16.7052

          k = 1.1354 0.6555 0.1218 (  4702 PWs)   bands (ev):

   -34.7803   1.3141   3.6229   5.1484  10.0855  12.2988  12.6751  14.3794
    15.3613  16.2634

          k =-0.2838 0.1639 0.4874 (  4718 PWs)   bands (ev):

   -34.8089  -2.3881   1.7806  10.2133  12.8897  14.4729  15.8831  16.5317
    18.5303  20.0686

          k = 1.4192 1.1471 0.1218 (  4713 PWs)   bands (ev):

   -34.7974  -1.4204   2.3734  10.1694  11.0477  11.7008  15.0513  15.9336
    17.0289  19.5211

          k = 1.1354 0.9832 0.1828 (  4699 PWs)   bands (ev):

   -34.7831   0.4436   3.6693   6.4837   9.4045  11.5020  13.6009  14.8654
    15.4179  18.0046

          k = 1.4192-0.8194-0.2437 (  4698 PWs)   bands (ev):

   -34.7930  -0.9364   2.6546   8.1797  11.9990  12.9394  13.4268  15.1527
    16.6463  18.0467

          k = 0.0000-0.0000 0.5483 (  4720 PWs)   bands (ev):

   -34.8159  -2.8214   1.2774  10.4432  14.8753  16.2551  16.2551  18.3800
    18.3800  21.5291

          k = 1.7030 0.9832 0.1828 (  4723 PWs)   bands (ev):

   -34.8089  -2.3336   1.5754  11.1815  12.4126  14.6412  15.1602  17.2608
    18.7792  19.0465

     the Fermi energy is    11.4462 ev

!    total energy              =     -31.11762362 Ry
     estimated scf accuracy    <          3.3E-10 Ry
     smearing contrib. (-TS)   =      -0.00043550 Ry
     internal energy E=F+TS    =     -31.11718812 Ry

     The total energy is F=E-TS. E is the sum of the following terms:
     one-electron contribution =       3.63483531 Ry
     hartree contribution      =       3.19097365 Ry
     xc contribution           =     -10.02741116 Ry
     ewald contribution        =     -27.91558592 Ry

     convergence has been achieved in   8 iterations

     Forces acting on atoms (cartesian axes, Ry/au):

     atom    1 type  1   force =     0.00000000   -0.00000000   -0.00000000
     atom    2 type  2   force =     0.00000000    0.00000000    0.05952568
     atom    3 type  2   force =    -0.00000000   -0.00000000   -0.05952568
     The non-local contrib.  to forces
     atom    1 type  1   force =     0.00000000    0.00000000    0.00000000
     atom    2 type  2   force =    -0.00000000    0.00000000    0.10820871
     atom    3 type  2   force =    -0.00000000    0.00000000   -0.10820871
     The ionic contribution  to forces
     atom    1 type  1   force =    -0.00000000    0.00000000    0.00000000
     atom    2 type  2   force =    -0.00000000    0.00000000    0.08413227
     atom    3 type  2   force =    -0.00000000   -0.00000000   -0.08413227
     The local contribution  to forces
     atom    1 type  1   force =     0.00000000    0.00000000   -0.00000000
     atom    2 type  2   force =     0.00000000   -0.00000000   -0.12975421
     atom    3 type  2   force =    -0.00000000    0.00000000    0.12975421
     The core correction contribution to forces
     atom    1 type  1   force =     0.00000000    0.00000000    0.00000000
     atom    2 type  2   force =     0.00000000   -0.00000000   -0.00304144
     atom    3 type  2   force =    -0.00000000    0.00000000    0.00304144
     The Hubbard contrib.    to forces
     atom    1 type  1   force =     0.00000000    0.00000000    0.00000000
     atom    2 type  2   force =     0.00000000    0.00000000    0.00000000
     atom    3 type  2   force =     0.00000000    0.00000000    0.00000000
     The SCF correction term to forces
     atom    1 type  1   force =     0.00000000   -0.00000000    0.00000000
     atom    2 type  2   force =    -0.00000000   -0.00000000   -0.00001965
     atom    3 type  2   force =     0.00000000    0.00000000    0.00001965

     Total force =     0.084182     Total SCF correction =     0.000028


     Computing stress (Cartesian axis) and pressure

          total   stress  (Ry/bohr**3)                   (kbar)     P=      477.62
   0.00284607   0.00000000   0.00000000          418.67        0.00        0.00
   0.00000000   0.00284607   0.00000000            0.00      418.67        0.00
   0.00000000   0.00000000   0.00404820            0.00        0.00      595.51

     Energy error            =      1.8E-02 Ry
     Gradient error          =      6.0E-02 Ry/Bohr
     Cell gradient error     =      9.6E+01 kbar

     number of scf cycles    =   5
     number of bfgs steps    =   4

     enthalpy           old  =     -30.3694994971 Ry
     enthalpy           new  =     -30.3872176383 Ry

     CASE: enthalpy          _new < enthalpy          _old

     new trust radius        =       0.0965677245 bohr
ibrav =      5
 celldm(1) =      9.12235664
 celldm(4) =      0.83298782
Input lattice vectors:
     0.24450736    -0.14116639     0.79762788
    -0.00000000     0.28233278     0.79762788
    -0.24450736    -0.14116639     0.79762788
New lattice vectors in INITIAL alat:
[...]
                l(5) =   2
                l(6) =   2

     atomic species   valence    mass     pseudopotential
        Li             3.00     6.94100     Li( 1.00)
        Si             4.00    28.08550     Si( 1.00)

     12 Sym. Ops., with inversion, found



   Cartesian axes

     site n.     atom                  positions (alat units)
         1           Li  tau(   1) = (   0.0000000  -0.0000000   1.5504054  )
         2           Si  tau(   2) = (   0.0000000  -0.0000000   0.8477096  )
         3           Si  tau(   3) = (  -0.0000000  -0.0000000   2.2531012  )

     number of k points=    44  Marzari-Vanderbilt smearing, width (Ry)=  0.0200
                       cart. coord. in units 2pi/alat
        k(    1) = (   0.0000000   0.0000000   0.0000000), wk =   0.0058309
        k(    2) = (  -0.3371268  -0.1946402   0.0460709), wk =   0.0349854
        k(    3) = (  -0.6742536  -0.3892805   0.0921418), wk =   0.0349854
        k(    4) = (  -1.0113804  -0.5839207   0.1382127), wk =   0.0349854
        k(    5) = (  -0.3371268   0.1946402   0.0921418), wk =   0.0349854
        k(    6) = (  -0.6742536  -0.0000000   0.1382127), wk =   0.0699708
        k(    7) = (  -1.0113804  -0.1946402   0.1842836), wk =   0.0699708
        k(    8) = (   1.0113804   0.9732012  -0.0921418), wk =   0.0699708
        k(    9) = (   0.6742536   0.7785610  -0.0460709), wk =   0.0699708
        k(   10) = (   0.3371268   0.5839207   0.0000000), wk =   0.0349854
        k(   11) = (  -0.6742536   0.3892805   0.1842836), wk =   0.0349854
        k(   12) = (  -1.0113804   0.1946402   0.2303545), wk =   0.0699708
        k(   13) = (   1.0113804   1.3624817  -0.0460709), wk =   0.0699708
        k(   14) = (   0.6742536   1.1678415   0.0000000), wk =   0.0349854
        k(   15) = (  -1.0113804   0.5839207   0.2764254), wk =   0.0349854
        k(   16) = (   1.0113804   1.7517622   0.0000000), wk =   0.0349854
        k(   17) = (   0.0000000  -0.0000000   0.1382127), wk =   0.0116618
        k(   18) = (  -0.3371268  -0.1946402   0.1842836), wk =   0.0349854
        k(   19) = (  -0.6742536  -0.3892805   0.2303545), wk =   0.0349854
        k(   20) = (   1.3485072   0.7785610  -0.0460709), wk =   0.0349854
        k(   21) = (   1.0113804   0.5839207   0.0000000), wk =   0.0349854
        k(   22) = (   0.6742536   0.3892805   0.0460709), wk =   0.0349854
        k(   23) = (  -0.3371268   0.1946402   0.2303545), wk =   0.0349854
        k(   24) = (  -0.6742536   0.0000000   0.2764254), wk =   0.0699708
        k(   25) = (   1.3485072   1.1678415   0.0000000), wk =   0.0699708
        k(   26) = (   1.0113804   0.9732012   0.0460709), wk =   0.0699708
        k(   27) = (   0.6742536   0.7785610   0.0921418), wk =   0.0699708
        k(   28) = (  -0.6742536   0.3892805   0.3224963), wk =   0.0349854
        k(   29) = (   1.3485072   1.5571219   0.0460709), wk =   0.0699708
        k(   30) = (   1.0113804   1.3624817   0.0921418), wk =   0.0699708
        k(   31) = (   0.6742536   1.1678415   0.1382127), wk =   0.0699708
        k(   32) = (   1.3485072  -0.7785610  -0.2303545), wk =   0.0349854
        k(   33) = (   1.0113804  -0.9732012  -0.1842836), wk =   0.0699708
        k(   34) = (   1.0113804  -0.5839207  -0.1382127), wk =   0.0349854
        k(   35) = (   0.0000000  -0.0000000   0.2764254), wk =   0.0116618
        k(   36) = (  -0.3371268  -0.1946402   0.3224963), wk =   0.0349854
        k(   37) = (   1.6856340   0.9732012   0.0460709), wk =   0.0349854
        k(   38) = (   1.3485072   0.7785610   0.0921418), wk =   0.0349854
        k(   39) = (  -0.3371268   0.1946402   0.3685672), wk =   0.0349854
        k(   40) = (   1.6856340   1.3624817   0.0921418), wk =   0.0699708
        k(   41) = (   1.3485072   1.1678415   0.1382127), wk =   0.0699708
        k(   42) = (   1.6856340  -0.9732012  -0.1842836), wk =   0.0349854
        k(   43) = (   0.0000000   0.0000000   0.4146381), wk =   0.0116618
        k(   44) = (   2.0227607   1.1678415   0.1382127), wk =   0.0349854

     Dense  grid:    19467 G-vectors     FFT dimensions: (  72,  72,  72)

     Estimated max dynamical RAM per process >      18.35 MB

     Estimated total dynamical RAM >     146.82 MB

     Initial potential from superposition of free atoms

     starting charge      10.9942, renormalised to      11.0000
     Starting wfcs are   10 randomized atomic wfcs

     total cpu time spent up to now is      138.0 secs

     Self-consistent Calculation

     iteration #  1     ecut=    80.00 Ry     beta= 0.70
     Davidson diagonalization with overlap
     c_bands:  1 eigenvalues not converged
     c_bands:  1 eigenvalues not converged
     c_bands:  1 eigenvalues not converged
     c_bands:  1 eigenvalues not converged
     c_bands:  1 eigenvalues not converged
     c_bands:  1 eigenvalues not converged
     c_bands:  1 eigenvalues not converged
     c_bands:  1 eigenvalues not converged
     c_bands:  1 eigenvalues not converged
     c_bands:  1 eigenvalues not converged
     c_bands:  1 eigenvalues not converged
     c_bands:  2 eigenvalues not converged
     c_bands:  1 eigenvalues not converged
     c_bands:  1 eigenvalues not converged
     c_bands:  1 eigenvalues not converged
     c_bands:  3 eigenvalues not converged
     c_bands:  1 eigenvalues not converged
     ethr =  1.00E-06,  avg # of iterations = 18.5

     total cpu time spent up to now is      141.5 secs

     total energy              =     -31.04113086 Ry
     estimated scf accuracy    <       0.19952001 Ry

     iteration #  2     ecut=    80.00 Ry     beta= 0.70
     Davidson diagonalization with overlap
     ethr =  1.81E-03,  avg # of iterations =  2.8

     total cpu time spent up to now is      142.5 secs

     total energy              =     -30.94122269 Ry
     estimated scf accuracy    <       1.36287123 Ry

     iteration #  3     ecut=    80.00 Ry     beta= 0.70
     Davidson diagonalization with overlap
     ethr =  1.81E-03,  avg # of iterations =  2.1

     total cpu time spent up to now is      143.4 secs

     total energy              =     -31.16076241 Ry
     estimated scf accuracy    <       0.00225906 Ry

     iteration #  4     ecut=    80.00 Ry     beta= 0.70
     Davidson diagonalization with overlap
     ethr =  2.05E-05,  avg # of iterations =  4.0

     total cpu time spent up to now is      144.4 secs

     total energy              =     -31.16125661 Ry
     estimated scf accuracy    <       0.00027738 Ry

     iteration #  5     ecut=    80.00 Ry     beta= 0.70
     Davidson diagonalization with overlap
     ethr =  2.52E-06,  avg # of iterations =  2.5

     total cpu time spent up to now is      145.2 secs

     total energy              =     -31.16130290 Ry
     estimated scf accuracy    <       0.00000085 Ry

     iteration #  6     ecut=    80.00 Ry     beta= 0.70
     Davidson diagonalization with overlap
     ethr =  7.77E-09,  avg # of iterations =  3.6

     total cpu time spent up to now is      146.1 secs

     total energy              =     -31.16130388 Ry
     estimated scf accuracy    <       0.00000012 Ry

     iteration #  7     ecut=    80.00 Ry     beta= 0.70
     Davidson diagonalization with overlap
     ethr =  1.05E-09,  avg # of iterations =  1.6

     total cpu time spent up to now is      146.9 secs

     total energy              =     -31.16130389 Ry
     estimated scf accuracy    <          6.6E-09 Ry

     iteration #  8     ecut=    80.00 Ry     beta= 0.70
     Davidson diagonalization with overlap
     ethr =  5.97E-11,  avg # of iterations =  2.1

     total cpu time spent up to now is      147.7 secs

     End of self-consistent calculation

          k = 0.0000 0.0000 0.0000 (  2473 PWs)   bands (ev):

   -33.2529  -3.9239  -0.2665   4.7841  12.6953  16.2562  25.4858  25.4858
    25.5510  25.5510

          k =-0.3371-0.1946 0.0461 (  2446 PWs)   bands (ev):

   -33.2233  -3.2601   0.3949   5.3281  13.1756  16.4868  19.0867  21.9581
    22.2636  24.6071

          k =-0.6743-0.3893 0.0921 (  2443 PWs)   bands (ev):

   -33.1565  -1.2830   2.3403   6.9518  12.1852  13.9763  16.0592  18.1212
    20.0578  20.5153

          k =-1.0114-0.5839 0.1382 (  2425 PWs)   bands (ev):

   -33.1026   1.9562   5.2726   6.6689   9.3302  10.4598  14.1775  17.4911
    18.9578  20.1268

          k =-0.3371 0.1946 0.0921 (  2447 PWs)   bands (ev):

   -33.2233  -3.2595   0.3853   5.3730  12.9393  16.7384  19.1403  21.9300
    22.1914  24.8647

          k =-0.6743-0.0000 0.1382 (  2455 PWs)   bands (ev):

   -33.1751  -1.9367   1.6714   6.5271  13.4147  15.7671  16.2534  17.1699
    19.0987  21.1633

          k =-1.0114-0.1946 0.1843 (  2431 PWs)   bands (ev):

   -33.1147   0.6796   4.1597   8.5562  10.0086  12.6178  13.7958  16.1186
    16.6035  18.2385

          k = 1.0114 0.9732-0.0921 (  2422 PWs)   bands (ev):

   -33.0878   4.3738   4.5719   7.8160   8.1633  11.7674  12.9959  13.6127
    16.2999  19.3052

          k = 0.6743 0.7786-0.0461 (  2426 PWs)   bands (ev):

   -33.1147   0.6658   4.2604   8.3266   9.9178  12.5330  14.0850  16.4148
    17.2947  18.1441

          k = 0.3371 0.5839 0.0000 (  2459 PWs)   bands (ev):

   -33.1751  -1.9410   1.7138   6.3623  14.2477  15.7701  16.2610  16.3534
    18.9033  21.1935

          k =-0.6743 0.3893 0.1843 (  2443 PWs)   bands (ev):

   -33.1565  -1.2761   2.2796   7.1783  12.0411  14.0434  14.8982  19.4447
    19.9136  21.3791

          k =-1.0114 0.1946 0.2304 (  2427 PWs)   bands (ev):

   -33.1147   0.6876   4.1005   8.9285   9.7286  12.5345  13.9579  14.9653
    18.0247  19.2122

          k = 1.0114 1.3625-0.0461 (  2429 PWs)   bands (ev):

   -33.0812   3.8957   6.8497   8.1781   8.6148  11.4913  11.8846  12.5975
    15.1501  17.3950

          k = 0.6743 1.1678 0.0000 (  2418 PWs)   bands (ev):

   -33.0812   3.8552   6.9565   8.2223   9.0437  10.7729  11.0631  12.9081
    15.8092  18.1559

          k =-1.0114 0.5839 0.2764 (  2424 PWs)   bands (ev):

   -33.1026   1.9859   5.0975   6.7202   9.4378  10.6152  14.9383  16.2909
    18.6322  18.7690

          k = 1.0114 1.7518 0.0000 (  2430 PWs)   bands (ev):

   -33.0878   4.5141   4.5154   7.1567   8.5758  11.9870  13.1452  14.6616
    15.9662  18.3355

          k = 0.0000-0.0000 0.1382 (  2456 PWs)   bands (ev):

   -33.2529  -3.9237  -0.2871   4.9018  12.0809  17.0998  25.4248  25.4248
    25.5934  25.5934

          k =-0.3371-0.1946 0.1843 (  2453 PWs)   bands (ev):

   -33.2233  -3.2576   0.3515   5.5433  12.1979  17.7986  19.1020  22.0371
    22.2877  24.5350

          k =-0.6743-0.3893 0.2304 (  2440 PWs)   bands (ev):

   -33.1565  -1.2717   2.2449   7.3355  11.8424  13.4126  15.9471  19.3095
    20.0571  20.2328

          k = 1.3485 0.7786-0.0461 (  2418 PWs)   bands (ev):

   -33.1026   1.9802   5.1859   6.4945  10.0047  10.6310  13.2605  16.8942
    18.9289  21.3313

          k = 1.0114 0.5839 0.0000 (  2423 PWs)   bands (ev):

   -33.1026   1.9477   5.2690   6.9121   8.7860  10.4880  15.0634  17.9523
    18.5067  18.9044

          k = 0.6743 0.3893 0.0461 (  2442 PWs)   bands (ev):

   -33.1565  -1.2849   2.3567   6.8906  12.2345  14.5047  15.2464  18.3276
    19.9894  21.0146

          k =-0.3371 0.1946 0.2304 (  2447 PWs)   bands (ev):

   -33.2233  -3.2564   0.3308   5.6547  11.8497  18.0955  19.3389  22.0096
    22.1308  24.6370

          k =-0.6743 0.0000 0.2764 (  2445 PWs)   bands (ev):

   -33.1751  -1.9269   1.5806   6.9404  12.2088  15.7149  16.2779  18.2053
    19.4866  21.4637

          k = 1.3485 1.1678 0.0000 (  2429 PWs)   bands (ev):

   -33.1147   0.7010   4.0181   8.9813  10.0841  12.8015  13.1826  15.2364
    16.8534  18.4203

          k = 1.0114 0.9732 0.0461 (  2426 PWs)   bands (ev):

   -33.0878   4.4198   4.5524   7.5194   8.3660  11.8363  13.3532  13.5439
    16.4296  18.3426

          k = 0.6743 0.7786 0.0921 (  2428 PWs)   bands (ev):

   -33.1147   0.6692   4.2316   8.4584   9.8239  12.5227  14.1033  15.7975
    18.1003  18.5913

          k =-0.6743 0.3893 0.3225 (  2444 PWs)   bands (ev):

   -33.1565  -1.2629   2.1744   7.6748  11.5202  13.3360  15.1870  19.8823
    20.0398  22.0053

          k = 1.3485 1.5571 0.0461 (  2424 PWs)   bands (ev):

   -33.1147   0.7076   3.9747   9.4725   9.6841  12.5140  13.5521  14.5619
    17.7593  18.8994

          k = 1.0114 1.3625 0.0921 (  2432 PWs)   bands (ev):

   -33.0812   3.9194   6.7825   8.1676   8.4659  11.8776  12.1297  12.8347
    14.6555  16.4352

          k = 0.6743 1.1678 0.1382 (  2423 PWs)   bands (ev):

   -33.0812   3.8674   6.9259   8.2050   8.8742  11.0778  11.2434  12.7965
    15.6370  18.0987

          k = 1.3485-0.7786-0.2304 (  2432 PWs)   bands (ev):

   -33.1026   2.0048   5.0442   6.5478   9.9852  10.9079  13.4959  16.3311
    18.7797  19.6279

          k = 1.0114-0.9732-0.1843 (  2422 PWs)   bands (ev):

   -33.0878   4.4818   4.5285   7.2598   8.5182  11.9315  13.2592  14.1359
    16.3874  17.7917

          k = 1.0114-0.5839-0.1382 (  2419 PWs)   bands (ev):

   -33.1026   1.9606   5.1929   6.9220   8.8561  10.5355  15.7400  16.8118
    18.1393  18.8203

          k = 0.0000-0.0000 0.2764 (  2459 PWs)   bands (ev):

   -33.2529  -3.9234  -0.3319   5.1910  11.0718  18.8083  25.3565  25.3565
    25.6156  25.6158

          k =-0.3371-0.1946 0.3225 (  2445 PWs)   bands (ev):

   -33.2233  -3.2539   0.2907   5.8994  11.1774  18.7924  19.9377  22.0507
    22.2403  24.6934

          k = 1.6856 0.9732 0.0461 (  2433 PWs)   bands (ev):

   -33.1565  -1.2593   2.1484   7.8405  11.2609  13.1376  15.7077  19.7824
    19.9881  21.1743

          k = 1.3485 0.7786 0.0921 (  2426 PWs)   bands (ev):

   -33.1026   2.0022   5.0793   6.4664  10.1428  11.2066  12.6825  16.4879
    18.8469  20.7386

          k =-0.3371 0.1946 0.3686 (  2446 PWs)   bands (ev):

   -33.2233  -3.2529   0.2749   6.0054  10.9419  18.7745  20.4074  22.1204
    22.1627  24.3982

          k = 1.6856 1.3625 0.0921 (  2439 PWs)   bands (ev):

   -33.1751  -1.9189   1.5119   7.3440  11.3884  15.6732  16.2983  18.8673
    19.4007  22.7271

          k = 1.3485 1.1678 0.1382 (  2430 PWs)   bands (ev):

   -33.1147   0.7137   3.9401   9.3519  10.0263  12.6297  13.1071  14.7150
    17.3193  18.5624

          k = 1.6856-0.9732-0.1843 (  2440 PWs)   bands (ev):

   -33.1565  -1.2554   2.1186   8.0344  11.0502  13.1132  15.4573  19.9127
    19.9231  22.1620

          k = 0.0000 0.0000 0.4146 (  2456 PWs)   bands (ev):

   -33.2529  -3.9231  -0.3665   5.4574  10.3959  20.5594  24.2468  25.3205
    25.3205  25.6114

          k = 2.0228 1.1678 0.1382 (  2450 PWs)   bands (ev):

   -33.2233  -3.2518   0.2577   6.1327  10.6669  18.8498  21.3263  21.9662
    22.1658  24.1456

     the Fermi energy is    12.5321 ev

!    total energy              =     -31.16130389 Ry
     estimated scf accuracy    <          5.5E-11 Ry
     smearing contrib. (-TS)   =      -0.00056076 Ry
     internal energy E=F+TS    =     -31.16074313 Ry

     The total energy is F=E-TS. E is the sum of the following terms:
     one-electron contribution =       4.93838962 Ry
     hartree contribution      =       2.92690854 Ry
     xc contribution           =     -10.17014561 Ry
     ewald contribution        =     -28.85589568 Ry

     convergence has been achieved in   8 iterations

     Forces acting on atoms (cartesian axes, Ry/au):

     atom    1 type  1   force =     0.00000000    0.00000000    0.00000000
     atom    2 type  2   force =    -0.00000000   -0.00000000    0.00007489
     atom    3 type  2   force =     0.00000000    0.00000000   -0.00007489
     The non-local contrib.  to forces
     atom    1 type  1   force =    -0.00000000    0.00000000    0.00000000
     atom    2 type  2   force =    -0.00000000   -0.00000000    0.11905524
     atom    3 type  2   force =     0.00000000    0.00000000   -0.11905524
     The ionic contribution  to forces
     atom    1 type  1   force =    -0.00000000   -0.00000000    0.00000000
     atom    2 type  2   force =     0.00000000    0.00000000   -0.14892243
     atom    3 type  2   force =     0.00000000   -0.00000000    0.14892243
     The local contribution  to forces
     atom    1 type  1   force =    -0.00000000    0.00000000    0.00000000
     atom    2 type  2   force =    -0.00000000   -0.00000000    0.03537861
     atom    3 type  2   force =     0.00000000    0.00000000   -0.03537861
     The core correction contribution to forces
     atom    1 type  1   force =     0.00000000    0.00000000    0.00000000
     atom    2 type  2   force =    -0.00000000    0.00000000   -0.00544831
     atom    3 type  2   force =     0.00000000   -0.00000000    0.00544831
     The Hubbard contrib.    to forces
     atom    1 type  1   force =     0.00000000    0.00000000    0.00000000
     atom    2 type  2   force =     0.00000000    0.00000000    0.00000000
     atom    3 type  2   force =     0.00000000    0.00000000    0.00000000
     The SCF correction term to forces
     atom    1 type  1   force =    -0.00000000    0.00000000   -0.00000000
     atom    2 type  2   force =     0.00000000   -0.00000000    0.00001177
     atom    3 type  2   force =    -0.00000000    0.00000000   -0.00001177

     Total force =     0.000106     Total SCF correction =     0.000017
     SCF correction compared to forces is large: reduce conv_thr to get better values


     Computing stress (Cartesian axis) and pressure

          total   stress  (Ry/bohr**3)                   (kbar)     P=      500.37
   0.00339993  -0.00000000  -0.00000000          500.15       -0.00       -0.00
  -0.00000000   0.00339993   0.00000000           -0.00      500.15        0.00
   0.00000000   0.00000000   0.00340456            0.00        0.00      500.83


     Writing all to output data dir ./output/LiSi.save/

     init_run     :      1.79s CPU      3.04s WALL (       2 calls)
     electrons    :    104.95s CPU    120.19s WALL (      18 calls)
     update_pot   :      6.11s CPU      6.19s WALL (      16 calls)
     forces       :      3.99s CPU      4.07s WALL (      18 calls)
     stress       :     13.61s CPU     14.33s WALL (      18 calls)

     Called by init_run:
     wfcinit      :      0.65s CPU      1.55s WALL (       2 calls)
     potinit      :      0.30s CPU      0.49s WALL (       2 calls)
     hinit0       :      0.80s CPU      0.86s WALL (       2 calls)

     Called by electrons:
     c_bands      :     89.16s CPU    101.39s WALL (     134 calls)
     sum_band     :     13.43s CPU     15.18s WALL (     134 calls)
     v_of_rho     :      2.51s CPU      3.20s WALL (     149 calls)
     mix_rho      :      0.11s CPU      0.16s WALL (     134 calls)

     Called by c_bands:
     init_us_2    :      1.75s CPU      1.98s WALL (   13464 calls)
     init_us_2:cp :      1.73s CPU      1.97s WALL (   13464 calls)
     cegterg      :     85.55s CPU     95.55s WALL (    5896 calls)

     Called by *egterg:
     cdiaghg      :      2.65s CPU      2.97s WALL (   24386 calls)
     h_psi        :     79.37s CPU     89.55s WALL (   25310 calls)
     g_psi        :      0.22s CPU      0.24s WALL (   19326 calls)

     Called by h_psi:
     h_psi:calbec :      2.00s CPU      2.30s WALL (   25310 calls)
     vloc_psi     :     75.61s CPU     85.24s WALL (   25310 calls)
     add_vuspsi   :      1.58s CPU      1.78s WALL (   25310 calls)

     General routines
     calbec       :      2.44s CPU      2.75s WALL (   29270 calls)
     fft          :      1.69s CPU      2.53s WALL (    1941 calls)
     ffts         :      0.11s CPU      0.14s WALL (     134 calls)
     fftw         :     75.57s CPU     85.24s WALL (  412910 calls)

     Parallel routines

     PWSCF        :   2m10.75s CPU   2m28.85s WALL


   This run was terminated on:  19:17:42  26Dec2024            

=------------------------------------------------------------------------------=
   JOB DONE.
=------------------------------------------------------------------------------=
