
     Program PWSCF v.7.2 starts on 27Dec2024 at 13: 3:36 

     This program is part of the open-source Quantum ESPRESSO suite
     for quantum simulation of materials; please cite
         "P. Giannozzi et al., J. Phys.:Condens. Matter 21 395502 (2009);
         "P. Giannozzi et al., J. Phys.:Condens. Matter 29 465901 (2017);
         "P. Giannozzi et al., J. Chem. Phys. 152 154105 (2020);
          URL http://www.quantum-espresso.org", 
     in publications or presentations arising from this work. More details at
     http://www.quantum-espresso.org/quote

     Parallel version (MPI & OpenMP), running on       8 processor cores
     Number of MPI processes:                 8
     Threads/MPI process:                     1

     MPI processes distributed on     1 nodes
     481350 MiB available memory on the printing compute node when the environment starts

     Waiting for input...
     Reading input from standard input

     Current dimensions of program PWSCF are:
     Max number of different atomic species (ntypx) = 10
     Max number of k-points (npk) =  40000
     Max angular momentum in pseudopotentials (lmaxx) =  4

     R & G space division:  proc/nbgrp/npool/nimage =       8
     Subspace diagonalization in iterative solution of the eigenvalue problem:
     a serial algorithm will be used


     Parallelization info
     --------------------
     sticks:   dense  smooth     PW     G-vecs:    dense   smooth      PW
     Min         144     144     41                 5138     5138     780
     Max         145     145     43                 5145     5145     783
     Sum        1159    1159    337                41147    41147    6257

     Using Slab Decomposition



     bravais-lattice index     =            4
     lattice parameter (alat)  =       7.2718  a.u.
     unit-cell volume          =     425.3772 (a.u.)^3
     number of atoms/cell      =            3
     number of atomic types    =            2
     number of electrons       =        10.00
     number of Kohn-Sham states=            9
     kinetic-energy cutoff     =      80.0000  Ry
     charge density cutoff     =     320.0000  Ry
     scf convergence threshold =      1.0E-08
     mixing beta               =       0.7000
     number of iterations used =            8  plain     mixing
     energy convergence thresh.=      1.0E-04
     force convergence thresh. =      1.0E-03
     press convergence thresh. =      1.0E+00
     Exchange-correlation= PBE
                           (   1   4   3   4   0   0   0)
     nstep                     =           50


     celldm(1)=   7.271788  celldm(2)=   0.000000  celldm(3)=   1.277379
     celldm(4)=   0.000000  celldm(5)=   0.000000  celldm(6)=   0.000000

     crystal axes: (cart. coord. in units of alat)
               a(1) = (   1.000000   0.000000   0.000000 )  
               a(2) = (  -0.500000   0.866025   0.000000 )  
               a(3) = (   0.000000   0.000000   1.277379 )  

     reciprocal axes: (cart. coord. in units 2 pi/alat)
               b(1) = (  1.000000  0.577350 -0.000000 )  
               b(2) = (  0.000000  1.154701  0.000000 )  
               b(3) = (  0.000000 -0.000000  0.782853 )  


     PseudoPot. # 1 for Li read from file:
     ../pseudo/Li_ONCV_PBE_sr.upf
     MD5 check sum: 50ff420e78310ffa21704f3361e624a4
     Pseudo is Norm-conserving, Zval =  3.0
     Generated using ONCVPSP code by D. R. Hamann
     Using radial grid of 1944 points,  4 beta functions with: 
                l(1) =   0
                l(2) =   0
                l(3) =   1
                l(4) =   1

     PseudoPot. # 2 for Si read from file:
     ../pseudo/Si_ONCV_PBE_sr.upf
     MD5 check sum: e543d271109d17c80368dfa7c482276d
     Pseudo is Norm-conserving + core correction, Zval =  4.0
     Generated using ONCVPSP code by D. R. Hamann
     Using radial grid of 1510 points,  6 beta functions with: 
                l(1) =   0
                l(2) =   0
                l(3) =   1
                l(4) =   1
                l(5) =   2
                l(6) =   2

     atomic species   valence    mass     pseudopotential
        Li             3.00     6.94100     Li( 1.00)
        Si             4.00    28.08550     Si( 1.00)

     12 Sym. Ops., with inversion, found



   Cartesian axes

     site n.     atom                  positions (alat units)
         1           Li  tau(   1) = (  -0.0000000   0.5773503   0.3433187  )
         2           Li  tau(   2) = (   0.5000000   0.2886751   0.9340608  )
         3           Si  tau(   3) = (   0.0000000   0.0000000   0.0000000  )

     number of k points=    69  Marzari-Vanderbilt smearing, width (Ry)=  0.0200
                       cart. coord. in units 2pi/alat
        k(    1) = (   0.0000000   0.0000000   0.0000000), wk =   0.0035273
        k(    2) = (   0.0000000   0.0000000   0.1118361), wk =   0.0070547
        k(    3) = (   0.0000000   0.0000000   0.2236722), wk =   0.0070547
        k(    4) = (   0.0000000   0.0000000   0.3355083), wk =   0.0070547
        k(    5) = (   0.0000000   0.1283001   0.0000000), wk =   0.0211640
        k(    6) = (   0.0000000   0.1283001   0.1118361), wk =   0.0211640
        k(    7) = (   0.0000000   0.1283001   0.2236722), wk =   0.0211640
        k(    8) = (   0.0000000   0.1283001   0.3355083), wk =   0.0211640
        k(    9) = (   0.0000000   0.2566001   0.0000000), wk =   0.0211640
        k(   10) = (   0.0000000   0.2566001   0.1118361), wk =   0.0211640
        k(   11) = (   0.0000000   0.2566001   0.2236722), wk =   0.0211640
        k(   12) = (   0.0000000   0.2566001   0.3355083), wk =   0.0211640
        k(   13) = (   0.0000000   0.3849002   0.0000000), wk =   0.0211640
        k(   14) = (   0.0000000   0.3849002   0.1118361), wk =   0.0211640
        k(   15) = (   0.0000000   0.3849002   0.2236722), wk =   0.0211640
        k(   16) = (   0.0000000   0.3849002   0.3355083), wk =   0.0211640
        k(   17) = (   0.0000000   0.5132002   0.0000000), wk =   0.0211640
        k(   18) = (   0.0000000   0.5132002   0.1118361), wk =   0.0211640
        k(   19) = (   0.0000000   0.5132002   0.2236722), wk =   0.0211640
        k(   20) = (   0.0000000   0.5132002   0.3355083), wk =   0.0211640
        k(   21) = (   0.1111111   0.1924501   0.0000000), wk =   0.0211640
        k(   22) = (   0.1111111   0.1924501   0.1118361), wk =   0.0423280
        k(   23) = (   0.1111111   0.1924501   0.2236722), wk =   0.0423280
        k(   24) = (   0.1111111   0.1924501   0.3355083), wk =   0.0423280
        k(   25) = (   0.1111111   0.3207501   0.0000000), wk =   0.0423280
        k(   26) = (   0.1111111   0.3207501   0.1118361), wk =   0.0423280
        k(   27) = (   0.1111111   0.3207501   0.2236722), wk =   0.0423280
        k(   28) = (   0.1111111   0.3207501   0.3355083), wk =   0.0423280
        k(   29) = (   0.1111111   0.4490502   0.0000000), wk =   0.0423280
        k(   30) = (   0.1111111   0.4490502   0.1118361), wk =   0.0423280
        k(   31) = (   0.1111111   0.4490502   0.2236722), wk =   0.0423280
        k(   32) = (   0.1111111   0.4490502   0.3355083), wk =   0.0423280
        k(   33) = (   0.1111111   0.5773503   0.0000000), wk =   0.0211640
        k(   34) = (   0.1111111   0.5773503   0.1118361), wk =   0.0423280
        k(   35) = (   0.1111111   0.5773503   0.2236722), wk =   0.0423280
        k(   36) = (   0.1111111   0.5773503   0.3355083), wk =   0.0423280
        k(   37) = (   0.2222222   0.3849002   0.0000000), wk =   0.0211640
        k(   38) = (   0.2222222   0.3849002   0.1118361), wk =   0.0423280
        k(   39) = (   0.2222222   0.3849002   0.2236722), wk =   0.0423280
        k(   40) = (   0.2222222   0.3849002   0.3355083), wk =   0.0423280
        k(   41) = (   0.2222222   0.5132002   0.0000000), wk =   0.0423280
        k(   42) = (   0.2222222   0.5132002   0.1118361), wk =   0.0423280
        k(   43) = (   0.2222222   0.5132002   0.2236722), wk =   0.0423280
        k(   44) = (   0.2222222   0.5132002   0.3355083), wk =   0.0423280
        k(   45) = (   0.3333333   0.5773503   0.0000000), wk =   0.0070547
        k(   46) = (   0.3333333   0.5773503   0.1118361), wk =   0.0141093
        k(   47) = (   0.3333333   0.5773503   0.2236722), wk =   0.0141093
        k(   48) = (   0.3333333   0.5773503   0.3355083), wk =   0.0141093
        k(   49) = (   0.0000000   0.1283001  -0.1118361), wk =   0.0211640
        k(   50) = (   0.0000000   0.1283001  -0.2236722), wk =   0.0211640
        k(   51) = (   0.0000000   0.1283001  -0.3355083), wk =   0.0211640
        k(   52) = (   0.0000000   0.2566001  -0.1118361), wk =   0.0211640
        k(   53) = (   0.0000000   0.2566001  -0.2236722), wk =   0.0211640
        k(   54) = (   0.0000000   0.2566001  -0.3355083), wk =   0.0211640
        k(   55) = (   0.0000000   0.3849002  -0.1118361), wk =   0.0211640
        k(   56) = (   0.0000000   0.3849002  -0.2236722), wk =   0.0211640
        k(   57) = (   0.0000000   0.3849002  -0.3355083), wk =   0.0211640
        k(   58) = (   0.0000000   0.5132002  -0.1118361), wk =   0.0211640
        k(   59) = (   0.0000000   0.5132002  -0.2236722), wk =   0.0211640
        k(   60) = (   0.0000000   0.5132002  -0.3355083), wk =   0.0211640
        k(   61) = (  -0.1111111   0.3207501  -0.1118361), wk =   0.0423280
        k(   62) = (  -0.1111111   0.3207501  -0.2236722), wk =   0.0423280
        k(   63) = (  -0.1111111   0.3207501  -0.3355083), wk =   0.0423280
        k(   64) = (  -0.1111111   0.4490502  -0.1118361), wk =   0.0423280
        k(   65) = (  -0.1111111   0.4490502  -0.2236722), wk =   0.0423280
        k(   66) = (  -0.1111111   0.4490502  -0.3355083), wk =   0.0423280
        k(   67) = (  -0.2222222   0.5132002  -0.1118361), wk =   0.0423280
        k(   68) = (  -0.2222222   0.5132002  -0.2236722), wk =   0.0423280
        k(   69) = (  -0.2222222   0.5132002  -0.3355083), wk =   0.0423280

     Dense  grid:    41147 G-vectors     FFT dimensions: (  45,  45,  54)

     Estimated max dynamical RAM per process >      21.64 MB

     Estimated total dynamical RAM >     173.08 MB

     Initial potential from superposition of free atoms

     starting charge       9.9903, renormalised to      10.0000
     Starting wfcs are    8 randomized atomic wfcs +    1 random wfcs

     total cpu time spent up to now is        1.2 secs

     Self-consistent Calculation

     iteration #  1     ecut=    80.00 Ry     beta= 0.70
     Davidson diagonalization with overlap
     ethr =  1.00E-02,  avg # of iterations =  6.2

     Threshold (ethr) on eigenvalues was too large:
     Diagonalizing with lowered threshold

     Davidson diagonalization with overlap
     ethr =  3.77E-04,  avg # of iterations =  2.3

     total cpu time spent up to now is        3.3 secs

     total energy              =     -37.20602544 Ry
     estimated scf accuracy    <       0.03663286 Ry

     iteration #  2     ecut=    80.00 Ry     beta= 0.70
     Davidson diagonalization with overlap
     ethr =  3.66E-04,  avg # of iterations =  2.4

     total cpu time spent up to now is        4.2 secs

     total energy              =     -37.21328803 Ry
     estimated scf accuracy    <       0.00870303 Ry

     iteration #  3     ecut=    80.00 Ry     beta= 0.70
     Davidson diagonalization with overlap
     ethr =  8.70E-05,  avg # of iterations =  2.5

     total cpu time spent up to now is        5.0 secs

     total energy              =     -37.21511053 Ry
     estimated scf accuracy    <       0.00030742 Ry

     iteration #  4     ecut=    80.00 Ry     beta= 0.70
     Davidson diagonalization with overlap
     ethr =  3.07E-06,  avg # of iterations =  5.3

     total cpu time spent up to now is        6.1 secs

     total energy              =     -37.21513616 Ry
     estimated scf accuracy    <       0.00000662 Ry

     iteration #  5     ecut=    80.00 Ry     beta= 0.70
     Davidson diagonalization with overlap
     ethr =  6.62E-08,  avg # of iterations =  2.0

     total cpu time spent up to now is        7.0 secs

     total energy              =     -37.21513753 Ry
     estimated scf accuracy    <       0.00000044 Ry

     iteration #  6     ecut=    80.00 Ry     beta= 0.70
     Davidson diagonalization with overlap
     ethr =  4.35E-09,  avg # of iterations =  2.2

     total cpu time spent up to now is        7.9 secs

     total energy              =     -37.21513764 Ry
     estimated scf accuracy    <       0.00000004 Ry

     iteration #  7     ecut=    80.00 Ry     beta= 0.70
     Davidson diagonalization with overlap
     ethr =  3.64E-10,  avg # of iterations =  2.0

     total cpu time spent up to now is        8.7 secs

     End of self-consistent calculation

          k = 0.0000 0.0000 0.0000 (  5181 PWs)   bands (ev):

   -44.1035 -44.0954  -5.7771   1.5120   2.2450   4.2919   4.2919   7.7041
     8.3912

          k = 0.0000 0.0000 0.1118 (  5139 PWs)   bands (ev):

   -44.1032 -44.0957  -5.7438   0.6411   3.3481   4.3171   4.3171   7.7842
     8.3923

          k = 0.0000 0.0000 0.2237 (  5144 PWs)   bands (ev):

   -44.1022 -44.0966  -5.6645  -0.2064   4.3757   4.3757   4.8491   7.9933
     8.3894

          k = 0.0000 0.0000 0.3355 (  5132 PWs)   bands (ev):

   -44.1012 -44.0977  -5.5960  -0.6702   4.4249   4.4249   6.1071   8.2064
     8.3601

          k = 0.0000 0.1283 0.0000 (  5150 PWs)   bands (ev):

   -44.1032 -44.0955  -5.6622   1.5827   2.3944   3.4197   3.9750   7.6081
     8.2217

          k = 0.0000 0.1283 0.1118 (  5149 PWs)   bands (ev):

   -44.1029 -44.0958  -5.6286   0.7423   3.4439   3.4663   4.0150   7.7042
     8.1592

          k = 0.0000 0.1283 0.2237 (  5143 PWs)   bands (ev):

   -44.1020 -44.0967  -5.5490  -0.0980   3.5169   4.0937   4.9288   7.9047
     8.2014

          k = 0.0000 0.1283 0.3355 (  5156 PWs)   bands (ev):

   -44.1010 -44.0977  -5.4802  -0.5598   3.5824   4.1530   6.0777   8.0779
     8.3498

          k = 0.0000 0.2566 0.0000 (  5138 PWs)   bands (ev):

   -44.1023 -44.0959  -5.3321   1.6393   2.0208   2.8486   3.3964   7.1791
     9.1601

          k = 0.0000 0.2566 0.1118 (  5154 PWs)   bands (ev):

   -44.1021 -44.0962  -5.2981   0.9955   1.9492   3.4436   3.8275   7.1161
     8.3179

          k = 0.0000 0.2566 0.2237 (  5143 PWs)   bands (ev):

   -44.1013 -44.0969  -5.2174   0.2034   2.0094   3.5429   5.1344   7.0660
     7.8059

          k = 0.0000 0.2566 0.3355 (  5153 PWs)   bands (ev):

   -44.1005 -44.0977  -5.1477  -0.2444   2.0756   3.6226   5.6909   7.5845
     7.7108

          k = 0.0000 0.3849 0.0000 (  5140 PWs)   bands (ev):

   -44.1012 -44.0965  -4.8511   0.3844   2.1550   2.9199   3.5889   6.5822
     7.8209

          k = 0.0000 0.3849 0.1118 (  5142 PWs)   bands (ev):

   -44.1010 -44.0967  -4.8165   0.3833   1.5781   2.9685   4.4385   6.0408
     7.4166

          k = 0.0000 0.3849 0.2237 (  5151 PWs)   bands (ev):

   -44.1005 -44.0972  -4.7344   0.3152   0.9739   3.0780   4.8999   6.3364
     7.3269

          k = 0.0000 0.3849 0.3355 (  5136 PWs)   bands (ev):

   -44.0999 -44.0978  -4.6636   0.1099   0.8155   3.1708   4.5718   7.2933
     7.6092

          k = 0.0000 0.5132 0.0000 (  5142 PWs)   bands (ev):

   -44.1002 -44.0972  -4.4187  -0.5397   2.4077   2.6648   4.5862   5.7881
     6.6461

          k = 0.0000 0.5132 0.1118 (  5138 PWs)   bands (ev):

   -44.1000 -44.0973  -4.3836  -0.5136   1.9602   2.7125   4.8078   5.5039
     6.9617

          k = 0.0000 0.5132 0.2237 (  5137 PWs)   bands (ev):

   -44.0997 -44.0976  -4.3004  -0.4512   1.3075   2.8255   4.0364   6.7996
     7.1017

          k = 0.0000 0.5132 0.3355 (  5137 PWs)   bands (ev):

   -44.0993 -44.0980  -4.2288  -0.4024   0.9193   2.9250   3.5909   7.0897
     8.0112

          k = 0.1111 0.1925 0.0000 (  5129 PWs)   bands (ev):

   -44.1026 -44.0958  -5.4391   1.7108   2.3850   2.7061   3.3580   8.0135
     8.3255

          k = 0.1111 0.1925 0.1118 (  5141 PWs)   bands (ev):

   -44.1023 -44.0961  -5.4053   0.9389   2.4290   3.3836   3.6837   8.0126
     8.3642

          k = 0.1111 0.1925 0.2237 (  5139 PWs)   bands (ev):

   -44.1015 -44.0968  -5.3250   0.1143   2.5098   3.4824   5.0145   7.9780
     8.2597

          k = 0.1111 0.1925 0.3355 (  5155 PWs)   bands (ev):

   -44.1007 -44.0977  -5.2555  -0.3436   2.5792   3.5632   5.8865   7.8549
     8.0679

          k = 0.1111 0.3208 0.0000 (  5136 PWs)   bands (ev):

   -44.1016 -44.0963  -5.0281   1.0477   1.9497   2.6916   3.2973   7.6294
     8.4682

          k = 0.1111 0.3208 0.1118 (  5141 PWs)   bands (ev):

   -44.1014 -44.0965  -4.9937   0.9897   1.4228   2.6909   4.1478   7.0999
     8.1643

          k = 0.1111 0.3208 0.2237 (  5148 PWs)   bands (ev):

   -44.1008 -44.0971  -4.9122   0.4665   1.2549   2.7825   5.1333   6.7185
     7.9637

          k = 0.1111 0.3208 0.3355 (  5152 PWs)   bands (ev):

   -44.1001 -44.0978  -4.8417   0.0472   1.3025   2.8653   5.2441   6.8796
     7.9984

          k = 0.1111 0.4491 0.0000 (  5142 PWs)   bands (ev):

   -44.1004 -44.0970  -4.5449  -0.0958   2.0601   2.4278   4.1820   6.6092
     7.6082

          k = 0.1111 0.4491 0.1118 (  5144 PWs)   bands (ev):

   -44.1003 -44.0971  -4.5099  -0.0742   1.7792   2.2482   4.8184   5.8410
     7.8179

          k = 0.1111 0.4491 0.2237 (  5134 PWs)   bands (ev):

   -44.0999 -44.0975  -4.4270  -0.0245   1.1355   2.3066   4.6336   6.3276
     7.8555

          k = 0.1111 0.4491 0.3355 (  5145 PWs)   bands (ev):

   -44.0995 -44.0980  -4.3555  -0.0009   0.7645   2.3760   4.2407   6.5069
     7.8883

          k = 0.1111 0.5774 0.0000 (  5150 PWs)   bands (ev):

   -44.0998 -44.0975  -4.2933  -0.5818   1.9947   2.4813   5.2122   5.4572
     7.1206

          k = 0.1111 0.5774 0.1118 (  5139 PWs)   bands (ev):

   -44.0997 -44.0976  -4.2581  -0.5513   2.0203   2.0884   4.7621   5.9958
     7.5443

          k = 0.1111 0.5774 0.2237 (  5139 PWs)   bands (ev):

   -44.0994 -44.0978  -4.1746  -0.4811   1.4406   2.1003   4.1090   6.6301
     7.7181

          k = 0.1111 0.5774 0.3355 (  5131 PWs)   bands (ev):

   -44.0991 -44.0981  -4.1026  -0.4252   1.0501   2.1498   3.7403   6.4396
     7.7951

          k = 0.2222 0.3849 0.0000 (  5138 PWs)   bands (ev):

   -44.1005 -44.0969  -4.5970   0.3528   1.4617   2.3972   4.0367   7.3326
     8.0455

          k = 0.2222 0.3849 0.1118 (  5140 PWs)   bands (ev):

   -44.1004 -44.0971  -4.5621   0.3874   1.3585   2.0144   4.5416   6.8286
     7.6632

          k = 0.2222 0.3849 0.2237 (  5145 PWs)   bands (ev):

   -44.1000 -44.0975  -4.4794   0.4700   0.8802   1.8549   4.8386   6.2908
     7.8255

          k = 0.2222 0.3849 0.3355 (  5136 PWs)   bands (ev):

   -44.0995 -44.0979  -4.4078   0.4831   0.5501   1.8893   4.6922   5.9116
     8.6972

          k = 0.2222 0.5132 0.0000 (  5136 PWs)   bands (ev):

   -44.0995 -44.0977  -4.2281  -0.2128   0.9934   2.5309   5.0493   6.2608
     7.2739

          k = 0.2222 0.5132 0.1118 (  5124 PWs)   bands (ev):

   -44.0994 -44.0978  -4.1927  -0.1821   1.0214   2.1343   5.1562   5.8703
     7.4047

          k = 0.2222 0.5132 0.2237 (  5136 PWs)   bands (ev):

   -44.0992 -44.0980  -4.1089  -0.1075   1.0580   1.5321   4.5920   5.6833
     8.1785

          k = 0.2222 0.5132 0.3355 (  5121 PWs)   bands (ev):

   -44.0990 -44.0982  -4.0366  -0.0434   0.9480   1.3056   4.2004   5.3723
     9.3152

          k = 0.3333 0.5774 0.0000 (  5118 PWs)   bands (ev):

   -44.0986 -44.0986  -4.0866   0.1494   0.1494   2.5986   6.0266   6.0266
     6.3775

          k = 0.3333 0.5774 0.1118 (  5118 PWs)   bands (ev):

   -44.0986 -44.0986  -4.0511   0.1819   0.1819   2.2394   5.5968   5.5968
     7.0157

          k = 0.3333 0.5774 0.2237 (  5109 PWs)   bands (ev):

   -44.0986 -44.0986  -3.9667   0.2594   0.2594   1.6224   4.9476   4.9476
     8.4682

          k = 0.3333 0.5774 0.3355 (  5133 PWs)   bands (ev):

   -44.0986 -44.0986  -3.8940   0.3271   0.3271   1.2229   4.5520   4.5520
    10.1549

          k = 0.0000 0.1283-0.1118 (  5149 PWs)   bands (ev):

   -44.1029 -44.0958  -5.6287   0.7453   3.4189   3.4875   3.9995   7.6318
     8.3968

          k = 0.0000 0.1283-0.2237 (  5143 PWs)   bands (ev):

   -44.1020 -44.0967  -5.5490  -0.0965   3.5281   4.0726   4.9045   7.7582
     8.8354

          k = 0.0000 0.1283-0.3355 (  5156 PWs)   bands (ev):

   -44.1010 -44.0977  -5.4802  -0.5593   3.5880   4.1429   6.0535   7.9421
     8.7133

          k = 0.0000 0.2566-0.1118 (  5154 PWs)   bands (ev):

   -44.1021 -44.0962  -5.2982   1.0312   1.9195   3.4299   3.7411   7.2618
     8.5495

          k = 0.0000 0.2566-0.2237 (  5143 PWs)   bands (ev):

   -44.1013 -44.0969  -5.2176   0.2184   1.9993   3.5239   4.9162   7.3921
     8.0694

          k = 0.0000 0.2566-0.3355 (  5153 PWs)   bands (ev):

   -44.1005 -44.0977  -5.1478  -0.2401   2.0734   3.6133   5.5541   7.5262
     8.2117

          k = 0.0000 0.3849-0.1118 (  5142 PWs)   bands (ev):

   -44.1010 -44.0967  -4.8168   0.4116   1.5711   2.9606   4.0888   6.8453
     7.4610

          k = 0.0000 0.3849-0.2237 (  5151 PWs)   bands (ev):

   -44.1005 -44.0972  -4.7348   0.3759   0.9196   3.0668   4.5105   7.0725
     7.5908

          k = 0.0000 0.3849-0.3355 (  5136 PWs)   bands (ev):

   -44.0999 -44.0978  -4.6638   0.1326   0.7937   3.1653   4.4777   7.2184
     8.2002

          k = 0.0000 0.5132-0.1118 (  5138 PWs)   bands (ev):

   -44.1000 -44.0973  -4.3838  -0.5078   1.9776   2.7099   4.3529   6.4923
     6.6892

          k = 0.0000 0.5132-0.2237 (  5137 PWs)   bands (ev):

   -44.0997 -44.0976  -4.3008  -0.4412   1.3066   2.8219   3.9073   6.9469
     7.4857

          k = 0.0000 0.5132-0.3355 (  5137 PWs)   bands (ev):

   -44.0993 -44.0980  -4.2289  -0.3964   0.9150   2.9232   3.5620   7.0617
     8.2985

          k =-0.1111 0.3208-0.1118 (  5141 PWs)   bands (ev):

   -44.1014 -44.0965  -4.9938   1.0565   1.3560   2.6984   4.0269   7.7938
     7.9707

          k =-0.1111 0.3208-0.2237 (  5148 PWs)   bands (ev):

   -44.1008 -44.0971  -4.9123   0.4974   1.2227   2.7835   4.8824   7.5747
     7.7790

          k =-0.1111 0.3208-0.3355 (  5152 PWs)   bands (ev):

   -44.1001 -44.0978  -4.8418   0.0544   1.2946   2.8651   5.1397   7.0821
     7.9761

          k =-0.1111 0.4491-0.1118 (  5144 PWs)   bands (ev):

   -44.1003 -44.0971  -4.5101  -0.0620   1.7600   2.2805   4.3797   7.0320
     7.4471

          k =-0.1111 0.4491-0.2237 (  5134 PWs)   bands (ev):

   -44.0999 -44.0975  -4.4273  -0.0009   1.1091   2.3201   4.3661   7.0363
     7.7601

          k =-0.1111 0.4491-0.3355 (  5145 PWs)   bands (ev):

   -44.0995 -44.0980  -4.3557   0.0149   0.7469   2.3806   4.1745   6.6222
     7.8472

          k =-0.2222 0.5132-0.1118 (  5124 PWs)   bands (ev):

   -44.0994 -44.0978  -4.1928  -0.1786   1.0142   2.1463   4.9248   6.3527
     7.1527

          k =-0.2222 0.5132-0.2237 (  5136 PWs)   bands (ev):

   -44.0992 -44.0980  -4.1090  -0.1011   1.0367   1.5519   4.5000   5.8142
     8.2118

          k =-0.2222 0.5132-0.3355 (  5121 PWs)   bands (ev):

   -44.0990 -44.0982  -4.0366  -0.0392   0.9329   1.3182   4.1768   5.4006
     9.2956

     the Fermi energy is     2.1275 ev

!    total energy              =     -37.21513764 Ry
     estimated scf accuracy    <          5.1E-10 Ry
     smearing contrib. (-TS)   =      -0.00110627 Ry
     internal energy E=F+TS    =     -37.21403137 Ry

     The total energy is F=E-TS. E is the sum of the following terms:
     one-electron contribution =     -17.83514047 Ry
     hartree contribution      =       8.03102240 Ry
     xc contribution           =      -9.64537400 Ry
     ewald contribution        =     -17.76453930 Ry

     convergence has been achieved in   7 iterations

     Forces acting on atoms (cartesian axes, Ry/au):

     atom    1 type  1   force =     0.00000000    0.00000000    0.00915722
     atom    2 type  1   force =     0.00000000    0.00000000   -0.00915722
     atom    3 type  2   force =     0.00000000   -0.00000000    0.00000000
     The non-local contrib.  to forces
     atom    1 type  1   force =     0.00000000    0.00000000    0.08604122
     atom    2 type  1   force =    -0.00000000   -0.00000000   -0.08604122
     atom    3 type  2   force =     0.00000000    0.00000000    0.00000000
     The ionic contribution  to forces
     atom    1 type  1   force =     0.00000001   -0.00000001    0.75739270
     atom    2 type  1   force =    -0.00000001    0.00000001   -0.75739270
     atom    3 type  2   force =    -0.00000000   -0.00000000   -0.00000000
     The local contribution  to forces
     atom    1 type  1   force =     0.00000072   -0.00000042   -0.83426738
     atom    2 type  1   force =    -0.00000072    0.00000042    0.83426738
     atom    3 type  2   force =     0.00000000    0.00000000   -0.00000000
     The core correction contribution to forces
     atom    1 type  1   force =     0.00000000    0.00000000    0.00000000
     atom    2 type  1   force =     0.00000000    0.00000000    0.00000000
     atom    3 type  2   force =    -0.00000000    0.00000000   -0.00000000
     The Hubbard contrib.    to forces
     atom    1 type  1   force =     0.00000000    0.00000000    0.00000000
     atom    2 type  1   force =     0.00000000    0.00000000    0.00000000
     atom    3 type  2   force =     0.00000000    0.00000000    0.00000000
     The SCF correction term to forces
     atom    1 type  1   force =     0.00000000   -0.00000000   -0.00000931
     atom    2 type  1   force =    -0.00000000    0.00000000    0.00000931
     atom    3 type  2   force =     0.00000000    0.00000000   -0.00000000

     Total force =     0.012950     Total SCF correction =     0.000013


     Computing stress (Cartesian axis) and pressure

          total   stress  (Ry/bohr**3)                   (kbar)     P=      -16.37
  -0.00013760   0.00000000  -0.00000000          -20.24        0.00       -0.00
   0.00000000  -0.00013760  -0.00000000            0.00      -20.24       -0.00
   0.00000000   0.00000000  -0.00005864            0.00        0.00       -8.63


     BFGS Geometry Optimization
     Energy error            =      0.0E+00 Ry
     Gradient error          =      9.2E-03 Ry/Bohr
     Cell gradient error     =      5.2E+02 kbar

     number of scf cycles    =   1
     number of bfgs steps    =   0

     enthalpy           new  =     -35.7693098739 Ry

     new trust radius        =       0.3646991325 bohr
ibrav =      4
 celldm(1) =      6.62886535
 celldm(3) =      1.28014562
Input lattice vectors:
     0.91158670     0.00000000     0.00000000
    -0.45579335     0.78945724     0.00000000
    -0.00000000    -0.00000000     1.16696372
New lattice vectors in INITIAL alat:
     0.91158670     0.00000000     0.00000000
    -0.45579335     0.78945724     0.00000000
     0.00000000     0.00000000     1.16696372
New lattice vectors in NEW alat (for information only):
     1.00000000     0.00000000     0.00000000
    -0.50000000     0.86602540     0.00000000
     0.00000000     0.00000000     1.28014562
Discrepancy in bohr =     0.000000    0.000000    0.000000
     new conv_thr            =       0.0000000100 Ry

     new unit-cell volume =    322.92941 a.u.^3 (    47.85320 Ang^3 )
     density =      1.45630 g/cm^3

CELL_PARAMETERS (alat=  7.27178817)
   0.911586696   0.000000000   0.000000000
  -0.455793348   0.789457236   0.000000000
   0.000000000   0.000000000   1.166963718

ATOMIC_POSITIONS (crystal)
Li            0.3333333300        0.6666666700        0.2697538312
Li            0.6666666700        0.3333333300        0.7302461688
Si            0.0000000000       -0.0000000000        0.0000000000



     Writing config-only to output data dir ./output/LiSi.save/
     NEW-OLD atomic charge density approx. for the potential
     extrapolated charge    6.83064, renormalised to   10.00000

     total cpu time spent up to now is       10.6 secs

     Self-consistent Calculation

     iteration #  1     ecut=    80.00 Ry     beta= 0.70
     Davidson diagonalization with overlap
     c_bands:  1 eigenvalues not converged
     c_bands:  1 eigenvalues not converged
     ethr =  1.00E-06,  avg # of iterations = 12.4

     total cpu time spent up to now is       13.2 secs

     total energy              =     -36.97687119 Ry
     estimated scf accuracy    <       0.17019145 Ry

     iteration #  2     ecut=    80.00 Ry     beta= 0.70
     Davidson diagonalization with overlap
     ethr =  1.70E-03,  avg # of iterations =  2.9

     total cpu time spent up to now is       14.4 secs

     total energy              =     -37.19478060 Ry
     estimated scf accuracy    <       0.15157408 Ry

     iteration #  3     ecut=    80.00 Ry     beta= 0.70
     Davidson diagonalization with overlap
     ethr =  1.52E-03,  avg # of iterations =  1.0

     total cpu time spent up to now is       15.4 secs

     total energy              =     -37.20089095 Ry
     estimated scf accuracy    <       0.01467810 Ry

     iteration #  4     ecut=    80.00 Ry     beta= 0.70
     Davidson diagonalization with overlap
     ethr =  1.47E-04,  avg # of iterations =  2.1

     total cpu time spent up to now is       16.4 secs

     total energy              =     -37.20183928 Ry
     estimated scf accuracy    <       0.00100259 Ry

     iteration #  5     ecut=    80.00 Ry     beta= 0.70
     Davidson diagonalization with overlap
     ethr =  1.00E-05,  avg # of iterations =  4.2

     total cpu time spent up to now is       17.5 secs

     total energy              =     -37.20199995 Ry
     estimated scf accuracy    <       0.00000287 Ry

     iteration #  6     ecut=    80.00 Ry     beta= 0.70
     Davidson diagonalization with overlap
     ethr =  2.87E-08,  avg # of iterations =  3.4

     total cpu time spent up to now is       18.7 secs

     total energy              =     -37.20200281 Ry
     estimated scf accuracy    <       0.00000188 Ry

     iteration #  7     ecut=    80.00 Ry     beta= 0.70
     Davidson diagonalization with overlap
     ethr =  1.88E-08,  avg # of iterations =  1.1

     total cpu time spent up to now is       19.7 secs

     total energy              =     -37.20200291 Ry
     estimated scf accuracy    <       0.00000014 Ry

     iteration #  8     ecut=    80.00 Ry     beta= 0.70
     Davidson diagonalization with overlap
     ethr =  1.38E-09,  avg # of iterations =  2.0

     total cpu time spent up to now is       20.7 secs

     End of self-consistent calculation

          k = 0.0000 0.0000 0.0000 (  5181 PWs)   bands (ev):

   -42.1646 -42.1391  -5.0001   3.0884   3.6902   6.7780   6.7780   9.8448
    11.8061

          k = 0.0000 0.0000 0.1224 (  5139 PWs)   bands (ev):

   -42.1635 -42.1403  -4.9539   1.9286   5.1343   6.8168   6.8168   9.9364
    11.7568

          k = 0.0000 0.0000 0.2448 (  5144 PWs)   bands (ev):

   -42.1604 -42.1433  -4.8423   0.8844   6.9085   6.9085   6.9972  10.1728
    11.5816

          k = 0.0000 0.0000 0.3673 (  5132 PWs)   bands (ev):

   -42.1568 -42.1469  -4.7435   0.3107   6.9870   6.9870   8.6597  10.4075
    11.1845

          k = 0.0000 0.1407 0.0000 (  5150 PWs)   bands (ev):

   -42.1636 -42.1395  -4.8536   3.1589   3.8585   5.6555   6.2677   9.9360
    10.6130

          k = 0.0000 0.1407 0.1224 (  5149 PWs)   bands (ev):

   -42.1625 -42.1405  -4.8068   2.0457   5.1893   5.7574   6.3283  10.0614
    10.5541

          k = 0.0000 0.1407 0.2448 (  5143 PWs)   bands (ev):

   -42.1596 -42.1434  -4.6936   1.0061   5.7493   6.4525   7.1284  10.2987
    10.5943

          k = 0.0000 0.1407 0.3673 (  5156 PWs)   bands (ev):

   -42.1562 -42.1468  -4.5932   0.4323   5.8670   6.5502   8.6166  10.4344
    10.7302

          k = 0.0000 0.2815 0.0000 (  5138 PWs)   bands (ev):

   -42.1607 -42.1405  -4.4256   3.1648   3.8286   4.4953   5.4459   9.5728
    11.9404

          k = 0.0000 0.2815 0.1224 (  5154 PWs)   bands (ev):

   -42.1598 -42.1414  -4.3771   2.3597   3.6855   5.5134   5.7673   9.5456
    10.8025

          k = 0.0000 0.2815 0.2448 (  5143 PWs)   bands (ev):

   -42.1574 -42.1438  -4.2590   1.3514   3.8187   5.6622   7.3749   9.4421
    10.2200

          k = 0.0000 0.2815 0.3673 (  5153 PWs)   bands (ev):

   -42.1545 -42.1466  -4.1536   0.7797   3.9389   5.7876   7.9998   9.9085
    10.3584

          k = 0.0000 0.4222 0.0000 (  5140 PWs)   bands (ev):

   -42.1569 -42.1423  -3.7720   1.6982   3.8834   4.8136   5.3372   8.8038
    10.1763

          k = 0.0000 0.4222 0.1224 (  5142 PWs)   bands (ev):

   -42.1562 -42.1429  -3.7205   1.7234   3.0408   4.8818   6.4745   8.2329
     9.7833

          k = 0.0000 0.4222 0.2448 (  5151 PWs)   bands (ev):

   -42.1545 -42.1446  -3.5935   1.5558   2.3579   5.0410   6.9437   8.6812
     9.7774

          k = 0.0000 0.4222 0.3673 (  5136 PWs)   bands (ev):

   -42.1524 -42.1467  -3.4788   1.1670   2.2943   5.1816   6.4963   9.6447
     9.9009

          k = 0.0000 0.5630 0.0000 (  5142 PWs)   bands (ev):

   -42.1535 -42.1443  -3.1208   0.4578   4.1890   4.4835   6.5607   7.9723
     8.4730

          k = 0.0000 0.5630 0.1224 (  5138 PWs)   bands (ev):

   -42.1531 -42.1447  -3.0641   0.4881   3.5544   4.5504   6.7207   7.7580
     9.1253

          k = 0.0000 0.5630 0.2448 (  5137 PWs)   bands (ev):

   -42.1521 -42.1457  -2.9234   0.5367   2.7031   4.7131   5.8080   9.2592
     9.6157

          k = 0.0000 0.5630 0.3673 (  5137 PWs)   bands (ev):

   -42.1508 -42.1470  -2.7953   0.5484   2.2231   4.8611   5.2856   9.4811
     9.5693

          k = 0.1219 0.2111 0.0000 (  5129 PWs)   bands (ev):

   -42.1616 -42.1402  -4.5658   3.2776   4.0713   4.5339   5.3866  10.6106
    10.9341

          k = 0.1219 0.2111 0.1224 (  5141 PWs)   bands (ev):

   -42.1607 -42.1411  -4.5176   2.2611   4.3834   5.3652   5.6131  10.6061
    10.9990

          k = 0.1219 0.2111 0.2448 (  5139 PWs)   bands (ev):

   -42.1581 -42.1437  -4.4011   1.2393   4.5132   5.5479   7.2255  10.5499
    10.7302

          k = 0.1219 0.2111 0.3673 (  5155 PWs)   bands (ev):

   -42.1550 -42.1467  -4.2975   0.6685   4.6163   5.6647   8.3436  10.2413
    10.5574

          k = 0.1219 0.3519 0.0000 (  5136 PWs)   bands (ev):

   -42.1582 -42.1416  -4.0187   2.5722   3.5516   4.5627   4.9800  10.1697
    10.9929

          k = 0.1219 0.3519 0.1224 (  5141 PWs)   bands (ev):

   -42.1575 -42.1423  -3.9682   2.4979   2.8562   4.5281   6.1148   9.4881
    10.7443

          k = 0.1219 0.3519 0.2448 (  5148 PWs)   bands (ev):

   -42.1555 -42.1443  -3.8447   1.6554   2.8548   4.6313   7.3541   8.9541
    10.4752

          k = 0.1219 0.3519 0.3673 (  5152 PWs)   bands (ev):

   -42.1531 -42.1466  -3.7341   1.0986   2.9618   4.7269   7.4318   9.1433
    10.5109

          k = 0.1219 0.4926 0.0000 (  5142 PWs)   bands (ev):

   -42.1544 -42.1437  -3.3258   1.0687   3.6400   4.2531   6.0308   8.9391
     9.7074

          k = 0.1219 0.4926 0.1224 (  5144 PWs)   bands (ev):

   -42.1540 -42.1442  -3.2710   1.1053   3.2319   3.9935   6.8959   7.9780
    10.2819

          k = 0.1219 0.4926 0.2448 (  5134 PWs)   bands (ev):

   -42.1527 -42.1454  -3.1357   1.1430   2.4486   4.0144   6.6496   8.5877
    10.3327

          k = 0.1219 0.4926 0.3673 (  5145 PWs)   bands (ev):

   -42.1512 -42.1469  -3.0130   1.0887   2.0585   4.0648   6.2002   8.7212
    10.4160

          k = 0.1219 0.6333 0.0000 (  5150 PWs)   bands (ev):

   -42.1524 -42.1451  -2.9191   0.3714   3.5896   4.2823   7.2981   7.5414
     9.0920

          k = 0.1219 0.6333 0.1224 (  5139 PWs)   bands (ev):

   -42.1520 -42.1454  -2.8592   0.3960   3.6161   3.7456   6.7050   8.2862
     9.7153

          k = 0.1219 0.6333 0.2448 (  5139 PWs)   bands (ev):

   -42.1512 -42.1462  -2.7126   0.4480   2.8898   3.6846   5.9972   8.9343
    10.1783

          k = 0.1219 0.6333 0.3673 (  5131 PWs)   bands (ev):

   -42.1502 -42.1472  -2.5796   0.4813   2.3689   3.7133   5.6380   8.6345
    10.3317

          k = 0.2438 0.4222 0.0000 (  5138 PWs)   bands (ev):

   -42.1548 -42.1435  -3.4086   1.7207   2.7910   4.2331   5.8414   9.6215
    10.7024

          k = 0.2438 0.4222 0.1224 (  5140 PWs)   bands (ev):

   -42.1543 -42.1440  -3.3537   1.7605   2.6319   3.7235   6.5225   9.0653
    10.2269

          k = 0.2438 0.4222 0.2448 (  5145 PWs)   bands (ev):

   -42.1529 -42.1453  -3.2200   1.8472   2.0680   3.4502   6.9200   8.4547
    10.4609

          k = 0.2438 0.4222 0.3673 (  5136 PWs)   bands (ev):

   -42.1513 -42.1469  -3.0998   1.5630   1.9581   3.4429   6.7594   8.0334
    11.5275

          k = 0.2438 0.5630 0.0000 (  5136 PWs)   bands (ev):

   -42.1515 -42.1458  -2.8260   0.8541   2.2857   4.3490   7.0295   8.4198
     9.6544

          k = 0.2438 0.5630 0.1224 (  5124 PWs)   bands (ev):

   -42.1512 -42.1460  -2.7657   0.8877   2.2951   3.8086   7.2101   7.9729
     9.9434

          k = 0.2438 0.5630 0.2448 (  5136 PWs)   bands (ev):

   -42.1505 -42.1467  -2.6173   0.9574   2.2781   3.0275   6.5975   7.7853
    10.9588

          k = 0.2438 0.5630 0.3673 (  5121 PWs)   bands (ev):

   -42.1497 -42.1474  -2.4824   1.0032   2.1292   2.6954   6.1831   7.4490
    12.1157

          k = 0.3657 0.6333 0.0000 (  5118 PWs)   bands (ev):

   -42.1484 -42.1484  -2.5842   1.2408   1.2408   4.4244   8.0746   8.0746
     8.7736

          k = 0.3657 0.6333 0.1224 (  5118 PWs)   bands (ev):

   -42.1484 -42.1484  -2.5204   1.2691   1.2691   3.9239   7.6449   7.6449
     9.5969

          k = 0.3657 0.6333 0.2448 (  5109 PWs)   bands (ev):

   -42.1484 -42.1484  -2.3636   1.3359   1.3359   3.0720   6.9701   6.9701
    11.4309

          k = 0.3657 0.6333 0.3673 (  5133 PWs)   bands (ev):

   -42.1484 -42.1484  -2.2206   1.3931   1.3931   2.5109   6.5561   6.5561
    13.8267

          k = 0.0000 0.1407-0.1224 (  5149 PWs)   bands (ev):

   -42.1625 -42.1405  -4.8067   2.0431   5.2339   5.7215   6.3070   9.9439
    10.7893

          k = 0.0000 0.1407-0.2448 (  5143 PWs)   bands (ev):

   -42.1596 -42.1434  -4.6935   1.0048   5.7884   6.4225   7.0941  10.0604
    11.0061

          k = 0.0000 0.1407-0.3673 (  5156 PWs)   bands (ev):

   -42.1562 -42.1468  -4.5931   0.4319   5.8810   6.5352   8.6053  10.2266
    10.9673

          k = 0.0000 0.2815-0.1224 (  5154 PWs)   bands (ev):

   -42.1598 -42.1414  -4.3764   2.3092   3.8353   5.4974   5.5855   9.5749
    11.1038

          k = 0.0000 0.2815-0.2448 (  5143 PWs)   bands (ev):

   -42.1574 -42.1438  -4.2581   1.3331   3.8930   5.6391   7.0824   9.6233
    10.5393

          k = 0.0000 0.2815-0.3673 (  5153 PWs)   bands (ev):

   -42.1545 -42.1467  -4.1531   0.7746   3.9635   5.7758   7.8348   9.8603
    10.7937

          k = 0.0000 0.4222-0.1224 (  5142 PWs)   bands (ev):

   -42.1562 -42.1430  -3.7187   1.6463   3.2325   4.8730   5.9827   8.7709
    10.3113

          k = 0.0000 0.4222-0.2448 (  5151 PWs)   bands (ev):

   -42.1545 -42.1447  -3.5909   1.4392   2.5452   5.0282   6.4684   9.1280
    10.4206

          k = 0.0000 0.4222-0.3673 (  5136 PWs)   bands (ev):

   -42.1524 -42.1467  -3.4775   1.1314   2.3541   5.1750   6.3771   9.5668
     9.9595

          k = 0.0000 0.5630-0.1224 (  5138 PWs)   bands (ev):

   -42.1531 -42.1447  -3.0622   0.4724   3.6471   4.5477   6.2166   8.4222
     9.2628

          k = 0.0000 0.5630-0.2448 (  5137 PWs)   bands (ev):

   -42.1520 -42.1458  -2.9207   0.5101   2.7790   4.7091   5.6376   9.1601
    10.2383

          k = 0.0000 0.5630-0.3673 (  5137 PWs)   bands (ev):

   -42.1507 -42.1470  -2.7939   0.5329   2.2551   4.8590   5.2400   9.4411
     9.5855

          k =-0.1219 0.3519-0.1224 (  5141 PWs)   bands (ev):

   -42.1575 -42.1424  -3.9674   2.3452   3.0824   4.5048   5.9283  10.1120
    10.6960

          k =-0.1219 0.3519-0.2448 (  5148 PWs)   bands (ev):

   -42.1555 -42.1443  -3.8437   1.6108   2.9457   4.6131   6.9975   9.9696
    10.1943

          k =-0.1219 0.3519-0.3673 (  5152 PWs)   bands (ev):

   -42.1531 -42.1467  -3.7335   1.0883   2.9884   4.7193   7.2897   9.3782
    10.5736

          k =-0.1219 0.4926-0.1224 (  5144 PWs)   bands (ev):

   -42.1540 -42.1442  -3.2692   1.0734   3.3565   3.9783   6.2932   9.2557
     9.8726

          k =-0.1219 0.4926-0.2448 (  5134 PWs)   bands (ev):

   -42.1527 -42.1454  -3.1332   1.0831   2.5734   3.9921   6.2993   9.3876
    10.0188

          k =-0.1219 0.4926-0.3673 (  5145 PWs)   bands (ev):

   -42.1512 -42.1469  -3.0116   1.0530   2.1162   4.0549   6.1111   8.8467
    10.3850

          k =-0.2438 0.5630-0.1224 (  5124 PWs)   bands (ev):

   -42.1512 -42.1460  -2.7651   0.8792   2.3068   3.8235   6.9008   8.5487
     9.6409

          k =-0.2438 0.5630-0.2448 (  5136 PWs)   bands (ev):

   -42.1505 -42.1467  -2.6165   0.9418   2.3122   3.0190   6.4726   7.9480
    11.0372

          k =-0.2438 0.5630-0.3673 (  5121 PWs)   bands (ev):

   -42.1497 -42.1474  -2.4820   0.9928   2.1564   2.6812   6.1508   7.4848
    12.2318

     the Fermi energy is     3.8120 ev

!    total energy              =     -37.20200294 Ry
     estimated scf accuracy    <          7.4E-09 Ry
     smearing contrib. (-TS)   =      -0.00095117 Ry
     internal energy E=F+TS    =     -37.20105177 Ry

     The total energy is F=E-TS. E is the sum of the following terms:
     one-electron contribution =     -15.36796487 Ry
     hartree contribution      =       7.48805343 Ry
     xc contribution           =      -9.83611026 Ry
     ewald contribution        =     -19.48503007 Ry

     convergence has been achieved in   8 iterations

     Forces acting on atoms (cartesian axes, Ry/au):

     atom    1 type  1   force =     0.00000000    0.00000000    0.04133906
     atom    2 type  1   force =    -0.00000000   -0.00000000   -0.04133906
     atom    3 type  2   force =     0.00000000    0.00000000    0.00000000
     The non-local contrib.  to forces
     atom    1 type  1   force =    -0.00000000   -0.00000000    0.08866466
     atom    2 type  1   force =     0.00000000    0.00000000   -0.08866466
     atom    3 type  2   force =    -0.00000000    0.00000000    0.00000000
     The ionic contribution  to forces
     atom    1 type  1   force =     0.00000002   -0.00000001    0.90371480
     atom    2 type  1   force =    -0.00000002    0.00000001   -0.90371480
     atom    3 type  2   force =    -0.00000000   -0.00000000   -0.00000000
     The local contribution  to forces
     atom    1 type  1   force =     0.00000065   -0.00000038   -0.95096324
     atom    2 type  1   force =    -0.00000065    0.00000038    0.95096324
     atom    3 type  2   force =     0.00000000    0.00000000    0.00000000
     The core correction contribution to forces
     atom    1 type  1   force =     0.00000000    0.00000000    0.00000000
     atom    2 type  1   force =     0.00000000    0.00000000    0.00000000
     atom    3 type  2   force =     0.00000000    0.00000000    0.00000000
     The Hubbard contrib.    to forces
     atom    1 type  1   force =     0.00000000    0.00000000    0.00000000
     atom    2 type  1   force =     0.00000000    0.00000000    0.00000000
     atom    3 type  2   force =     0.00000000    0.00000000    0.00000000
     The SCF correction term to forces
     atom    1 type  1   force =     0.00000000   -0.00000000   -0.00007716
     atom    2 type  1   force =    -0.00000000    0.00000000    0.00007716
     atom    3 type  2   force =     0.00000000    0.00000000    0.00000000

     Total force =     0.058462     Total SCF correction =     0.000109


     Computing stress (Cartesian axis) and pressure

          total   stress  (Ry/bohr**3)                   (kbar)     P=       73.13
   0.00050851  -0.00000000   0.00000000           74.80       -0.00        0.00
  -0.00000000   0.00050851   0.00000000           -0.00       74.80        0.00
   0.00000000   0.00000000   0.00047436            0.00        0.00       69.78

     Energy error            =      3.4E-01 Ry
     Gradient error          =      4.1E-02 Ry/Bohr
     Cell gradient error     =      4.3E+02 kbar

     number of scf cycles    =   2
     number of bfgs steps    =   1

     enthalpy           old  =     -35.7693098739 Ry
     enthalpy           new  =     -36.1043881851 Ry

     CASE: enthalpy          _new < enthalpy          _old

     new trust radius        =       0.5228711731 bohr
ibrav =      4
 celldm(1) =      5.67089066
 celldm(3) =      1.27869873
Input lattice vectors:
     0.77984817     0.00000000     0.00000000
    -0.38992408     0.67536832     0.00000000
     0.00000000     0.00000000     0.99719086
New lattice vectors in INITIAL alat:
     0.77984817     0.00000000     0.00000000
    -0.38992408     0.67536832     0.00000000
     0.00000000     0.00000000     0.99719086
New lattice vectors in NEW alat (for information only):
     1.00000000     0.00000000     0.00000000
    -0.50000000     0.86602540     0.00000000
     0.00000000     0.00000000     1.27869873
Discrepancy in bohr =     0.000000    0.000000    0.000000
     new conv_thr            =       0.0000000041 Ry

     new unit-cell volume =    201.95411 a.u.^3 (    29.92651 Ang^3 )
     density =      2.32866 g/cm^3

CELL_PARAMETERS (alat=  7.27178817)
   0.779848165   0.000000000   0.000000000
  -0.389924083   0.675368322   0.000000000
   0.000000000   0.000000000   0.997190861

ATOMIC_POSITIONS (crystal)
Li            0.3333333300        0.6666666700        0.2784779314
Li            0.6666666700        0.3333333300        0.7215220686
Si            0.0000000000       -0.0000000000        0.0000000000



     Writing config-only to output data dir ./output/LiSi.save/
     NEW-OLD atomic charge density approx. for the potential

     negative rho (up, down):  3.476E-02 0.000E+00
     extrapolated charge    4.01559, renormalised to   10.00000

     total cpu time spent up to now is       22.5 secs

     Self-consistent Calculation

     iteration #  1     ecut=    80.00 Ry     beta= 0.70
     Davidson diagonalization with overlap
     ethr =  1.00E-06,  avg # of iterations = 13.4

     negative rho (up, down):  8.241E-06 0.000E+00

     total cpu time spent up to now is       25.2 secs

     total energy              =     -36.47985049 Ry
     estimated scf accuracy    <       1.47379785 Ry

     iteration #  2     ecut=    80.00 Ry     beta= 0.70
     Davidson diagonalization with overlap
     ethr =  1.00E-02,  avg # of iterations =  2.0

     total cpu time spent up to now is       26.2 secs

     total energy              =     -36.98904925 Ry
     estimated scf accuracy    <       0.19961309 Ry

     iteration #  3     ecut=    80.00 Ry     beta= 0.70
     Davidson diagonalization with overlap
     ethr =  2.00E-03,  avg # of iterations =  1.9

     total cpu time spent up to now is       27.0 secs

     total energy              =     -37.01506356 Ry
     estimated scf accuracy    <       0.00931878 Ry

     iteration #  4     ecut=    80.00 Ry     beta= 0.70
     Davidson diagonalization with overlap
     ethr =  9.32E-05,  avg # of iterations =  3.6

     total cpu time spent up to now is       27.9 secs

     total energy              =     -37.01573183 Ry
     estimated scf accuracy    <       0.00045130 Ry

     iteration #  5     ecut=    80.00 Ry     beta= 0.70
     Davidson diagonalization with overlap
     ethr =  4.51E-06,  avg # of iterations =  3.2

     total cpu time spent up to now is       28.7 secs

     total energy              =     -37.01575760 Ry
     estimated scf accuracy    <       0.00000895 Ry

     iteration #  6     ecut=    80.00 Ry     beta= 0.70
     Davidson diagonalization with overlap
     ethr =  8.95E-08,  avg # of iterations =  2.2

     total cpu time spent up to now is       29.5 secs

     total energy              =     -37.01575905 Ry
     estimated scf accuracy    <       0.00000005 Ry

     iteration #  7     ecut=    80.00 Ry     beta= 0.70
     Davidson diagonalization with overlap
     ethr =  5.42E-10,  avg # of iterations =  3.3

     total cpu time spent up to now is       30.4 secs

     total energy              =     -37.01575909 Ry
     estimated scf accuracy    <          6.1E-09 Ry

     iteration #  8     ecut=    80.00 Ry     beta= 0.70
     Davidson diagonalization with overlap
     ethr =  6.10E-11,  avg # of iterations =  2.0

     total cpu time spent up to now is       31.2 secs

     End of self-consistent calculation

          k = 0.0000 0.0000 0.0000 (  5181 PWs)   bands (ev):

   -38.4008 -38.2506  -2.7929   6.8975   7.0915  12.9316  12.9316  14.6920
    14.6920

          k = 0.0000 0.0000 0.1433 (  5139 PWs)   bands (ev):

   -38.3943 -38.2569  -2.7303   5.1042   9.2898  13.0149  13.0149  14.8175
    14.8175

          k = 0.0000 0.0000 0.2865 (  5144 PWs)   bands (ev):

   -38.3769 -38.2741  -2.5760   3.7148  11.8753  13.2204  13.2204  15.1407
    15.1407

          k = 0.0000 0.0000 0.4298 (  5132 PWs)   bands (ev):

   -38.3565 -38.2942  -2.4349   2.9514  13.4088  13.4088  14.4529  15.4603
    15.4603

          k = 0.0000 0.1645 0.0000 (  5150 PWs)   bands (ev):

   -38.3940 -38.2521  -2.6004   7.0603   7.1315  11.1073  11.7308  15.4138
    16.2561

          k = 0.0000 0.1645 0.1433 (  5149 PWs)   bands (ev):

   -38.3879 -38.2581  -2.5363   5.2378   9.2538  11.2792  11.8494  15.5843
    16.2224

          k = 0.0000 0.1645 0.2865 (  5143 PWs)   bands (ev):

   -38.3714 -38.2743  -2.3768   3.8432  10.9635  12.1259  12.3284  15.8682
    16.2452

          k = 0.0000 0.1645 0.4298 (  5156 PWs)   bands (ev):

   -38.3523 -38.2931  -2.2298   3.0720  11.4204  12.3769  14.3851  15.9313
    16.2717

          k = 0.0000 0.3290 0.0000 (  5138 PWs)   bands (ev):

   -38.3756 -38.2572  -2.0282   6.7344   7.5535   9.1862  10.3638  15.1436
    17.6822

          k = 0.0000 0.3290 0.1433 (  5154 PWs)   bands (ev):

   -38.3706 -38.2621  -1.9610   5.6398   7.7364  10.4859  10.5400  15.3091
    16.4350

          k = 0.0000 0.3290 0.2865 (  5143 PWs)   bands (ev):

   -38.3569 -38.2753  -1.7862   4.2302   8.2287  10.7867  12.5655  14.7727
    16.0237

          k = 0.0000 0.3290 0.4298 (  5153 PWs)   bands (ev):

   -38.3411 -38.2909  -1.6193   3.4217   8.5823  11.0758  13.2192  15.1038
    15.7467

          k = 0.0000 0.4936 0.0000 (  5140 PWs)   bands (ev):

   -38.3512 -38.2665  -1.1083   4.9320   8.0906   9.4171   9.5224  13.7623
    15.5567

          k = 0.0000 0.4936 0.1433 (  5142 PWs)   bands (ev):

   -38.3477 -38.2697  -1.0373   5.1179   6.5360   9.5398  11.2891  13.3254
    15.2338

          k = 0.0000 0.4936 0.2865 (  5151 PWs)   bands (ev):

   -38.3381 -38.2789  -0.8350   4.6051   5.9325   9.8509  11.7669  13.7674
    15.7930

          k = 0.0000 0.4936 0.4298 (  5136 PWs)   bands (ev):

   -38.3269 -38.2898  -0.6284   3.8128   6.1731  10.1584  10.9947  14.8579
    14.9376

          k = 0.0000 0.6581 0.0000 (  5142 PWs)   bands (ev):

   -38.3303 -38.2775  -0.0496   3.1558   8.5912   8.9387  10.9731  12.5506
    13.1779

          k = 0.0000 0.6581 0.1433 (  5138 PWs)   bands (ev):

   -38.3282 -38.2793   0.0398   3.2252   7.3906   9.0607  11.2874  12.6174
    14.2260

          k = 0.0000 0.6581 0.2865 (  5137 PWs)   bands (ev):

   -38.3223 -38.2848   0.3028   3.2352   6.1219   9.3756  10.0927  14.2174
    15.3426

          k = 0.0000 0.6581 0.4298 (  5137 PWs)   bands (ev):

   -38.3155 -38.2912   0.5892   3.0874   5.5143   9.3908   9.6918  14.3764
    14.8549

          k = 0.1425 0.2468 0.0000 (  5129 PWs)   bands (ev):

   -38.3814 -38.2555  -2.2176   7.1270   7.2966   9.6217  10.2962  16.7481
    16.9033

          k = 0.1425 0.2468 0.1433 (  5141 PWs)   bands (ev):

   -38.3759 -38.2608  -2.1488   5.4336   8.8512  10.0676  10.5271  16.7052
    17.0262

          k = 0.1425 0.2468 0.2865 (  5139 PWs)   bands (ev):

   -38.3613 -38.2750  -1.9780   4.0660   9.4402  10.4902  12.3060  16.1435
    16.6136

          k = 0.1425 0.2468 0.4298 (  5155 PWs)   bands (ev):

   -38.3445 -38.2916  -1.8197   3.2995   9.7116  10.6880  13.9092  15.4422
    16.3609

          k = 0.1425 0.4113 0.0000 (  5136 PWs)   bands (ev):

   -38.3598 -38.2628  -1.4650   6.1073   7.3830   9.1382   9.2498  15.8452
    16.5429

          k = 0.1425 0.4113 0.1433 (  5141 PWs)   bands (ev):

   -38.3557 -38.2667  -1.3918   5.8656   6.5897   9.0993  10.7882  14.8974
    16.7061

          k = 0.1425 0.4113 0.2865 (  5148 PWs)   bands (ev):

   -38.3445 -38.2774  -1.1992   4.5431   6.9166   9.2112  12.4740  13.9476
    16.1496

          k = 0.1425 0.4113 0.4298 (  5152 PWs)   bands (ev):

   -38.3316 -38.2900  -1.0124   3.7365   7.2361   9.2737  12.4912  14.1193
    16.2309

          k = 0.1425 0.5758 0.0000 (  5142 PWs)   bands (ev):

   -38.3361 -38.2739  -0.4204   4.0914   7.4726   8.8123  10.2933  14.1418
    14.5652

          k = 0.1425 0.5758 0.1433 (  5144 PWs)   bands (ev):

   -38.3336 -38.2762  -0.3390   4.2252   6.6583   8.3926  11.7383  12.8234
    15.7616

          k = 0.1425 0.5758 0.2865 (  5134 PWs)   bands (ev):

   -38.3265 -38.2828  -0.1055   4.2269   5.6630   8.2941  11.4608  13.5082
    15.8749

          k = 0.1425 0.5758 0.4298 (  5145 PWs)   bands (ev):

   -38.3184 -38.2906   0.1384   3.8412   5.4708   8.1952  10.9808  13.5894
    16.1074

          k = 0.1425 0.7403 0.0000 (  5150 PWs)   bands (ev):

   -38.3232 -38.2819   0.3336   2.9589   7.4746   8.7596  11.8691  12.3070
    13.7915

          k = 0.1425 0.7403 0.1433 (  5139 PWs)   bands (ev):

   -38.3214 -38.2835   0.4542   2.9502   7.3731   8.0089  11.2436  13.2125
    14.7195

          k = 0.1425 0.7403 0.2865 (  5139 PWs)   bands (ev):

   -38.3167 -38.2877   0.7720   2.9111   6.4519   7.6129  10.5929  13.9121
    15.5206

          k = 0.1425 0.7403 0.4298 (  5131 PWs)   bands (ev):

   -38.3115 -38.2925   1.1057   2.8346   5.6538   7.5272  10.3851  13.4704
    16.0133

          k = 0.2850 0.4936 0.0000 (  5138 PWs)   bands (ev):

   -38.3383 -38.2726  -0.5609   5.2270   6.0028   8.8760  10.0005  14.7206
    16.5456

          k = 0.2850 0.4936 0.1433 (  5140 PWs)   bands (ev):

   -38.3355 -38.2753  -0.4694   5.1747   5.8327   8.0627  11.0602  14.0928
    15.9723

          k = 0.2850 0.4936 0.2865 (  5145 PWs)   bands (ev):

   -38.3279 -38.2824  -0.2373   4.7132   5.7260   7.4762  11.7179  13.3252
    16.4200

          k = 0.2850 0.4936 0.4298 (  5136 PWs)   bands (ev):

   -38.3192 -38.2907  -0.0138   4.1624   5.8259   7.2393  11.6454  12.8391
    17.9179

          k = 0.2850 0.6581 0.0000 (  5136 PWs)   bands (ev):

   -38.3181 -38.2853   0.4700   3.6976   5.5169   8.9088  11.4477  13.1526
    15.1060

          k = 0.2850 0.6581 0.1433 (  5124 PWs)   bands (ev):

   -38.3167 -38.2865   0.5841   3.7566   5.4257   8.0317  11.8913  12.6333
    15.7758

          k = 0.2850 0.6581 0.2865 (  5136 PWs)   bands (ev):

   -38.3128 -38.2898   0.8925   3.8203   5.2299   6.8328  11.3491  12.5234
    17.1692

          k = 0.2850 0.6581 0.4298 (  5121 PWs)   bands (ev):

   -38.3085 -38.2938   1.2152   3.7814   5.0607   6.1383  10.9981  12.2133
    18.4090

          k = 0.4274 0.7403 0.0000 (  5118 PWs)   bands (ev):

   -38.3004 -38.3004   0.9996   4.0636   4.0636   9.0053  12.5417  12.5417
    14.3274

          k = 0.4274 0.7403 0.1433 (  5118 PWs)   bands (ev):

   -38.3003 -38.3003   1.1478   4.0617   4.0617   8.1449  12.2222  12.2222
    15.5599

          k = 0.4274 0.7403 0.2865 (  5109 PWs)   bands (ev):

   -38.3000 -38.3000   1.5486   4.0572   4.0572   6.6809  11.6727  11.6727
    19.7898

          k = 0.4274 0.7403 0.4298 (  5133 PWs)   bands (ev):

   -38.2998 -38.2998   1.9924   4.0534   4.0534   5.6180  11.3275  11.3275
    20.7246

          k = 0.0000 0.1645-0.1433 (  5149 PWs)   bands (ev):

   -38.3879 -38.2581  -2.5354   5.2113   9.3744  11.2149  11.8241  15.3943
    16.4204

          k = 0.0000 0.1645-0.2865 (  5143 PWs)   bands (ev):

   -38.3714 -38.2743  -2.3754   3.8289  11.2041  12.0855  12.1573  15.4798
    16.6091

          k = 0.0000 0.1645-0.4298 (  5156 PWs)   bands (ev):

   -38.3522 -38.2932  -2.2291   3.0673  11.4881  12.3536  14.4391  15.5198
    16.4818

          k = 0.0000 0.3290-0.1433 (  5154 PWs)   bands (ev):

   -38.3704 -38.2623  -1.9536   5.3359   8.7159   9.8196  10.4718  14.7454
    17.1855

          k = 0.0000 0.3290-0.2865 (  5143 PWs)   bands (ev):

   -38.3566 -38.2757  -1.7752   4.0862   8.7409  10.7639  11.9915  14.3986
    16.6038

          k = 0.0000 0.3290-0.4298 (  5153 PWs)   bands (ev):

   -38.3408 -38.2911  -1.6136   3.3768   8.7576  11.0624  12.9274  15.0470
    15.8503

          k = 0.0000 0.4936-0.1433 (  5142 PWs)   bands (ev):

   -38.3473 -38.2701  -1.0136   4.5462   7.7395   9.5327  10.2939  13.0482
    16.9887

          k = 0.0000 0.4936-0.2865 (  5151 PWs)   bands (ev):

   -38.3374 -38.2796  -0.7984   4.0005   6.9546   9.8394  10.9198  13.6585
    15.8908

          k = 0.0000 0.4936-0.4298 (  5136 PWs)   bands (ev):

   -38.3264 -38.2903  -0.6082   3.6163   6.5195  10.1516  10.7307  14.8245
    14.8984

          k = 0.0000 0.6581-0.1433 (  5138 PWs)   bands (ev):

   -38.3278 -38.2797   0.0742   3.0682   7.9089   9.0586  10.5197  12.5333
    15.1009

          k = 0.0000 0.6581-0.2865 (  5137 PWs)   bands (ev):

   -38.3217 -38.2853   0.3626   2.9671   6.6184   9.3721   9.6962  13.9782
    15.3750

          k = 0.0000 0.6581-0.4298 (  5137 PWs)   bands (ev):

   -38.3151 -38.2916   0.6276   2.9278   5.7393   9.2585   9.6897  14.3877
    14.7918

          k =-0.1425 0.4113-0.1433 (  5141 PWs)   bands (ev):

   -38.3555 -38.2669  -1.3827   5.3077   7.6421   8.8428  10.3769  15.2178
    16.3804

          k =-0.1425 0.4113-0.2865 (  5148 PWs)   bands (ev):

   -38.3442 -38.2778  -1.1855   4.3045   7.5036   9.0189  11.8079  15.0518
    15.4581

          k =-0.1425 0.4113-0.4298 (  5152 PWs)   bands (ev):

   -38.3314 -38.2902  -1.0050   3.6665   7.4391   9.1860  12.2325  14.4210
    16.3230

          k =-0.1425 0.5758-0.1433 (  5144 PWs)   bands (ev):

   -38.3332 -38.2766  -0.3116   3.9267   7.5012   8.1521  10.6623  13.9911
    15.1624

          k =-0.1425 0.5758-0.2865 (  5134 PWs)   bands (ev):

   -38.3259 -38.2834  -0.0609   3.7196   6.6059   7.9891  10.8550  14.4860
    15.0831

          k =-0.1425 0.5758-0.4298 (  5145 PWs)   bands (ev):

   -38.3180 -38.2910   0.1646   3.5948   5.8653   8.0624  10.8298  13.7459
    16.0477

          k =-0.2850 0.6581-0.1433 (  5124 PWs)   bands (ev):

   -38.3165 -38.2866   0.5972   3.6561   5.5550   8.0526  11.3805  13.3535
    15.3364

          k =-0.2850 0.6581-0.2865 (  5136 PWs)   bands (ev):

   -38.3126 -38.2900   0.9169   3.6248   5.5603   6.7024  11.1297  12.7713
    17.1900

          k =-0.2850 0.6581-0.4298 (  5121 PWs)   bands (ev):

   -38.3084 -38.2939   1.2322   3.6426   5.3544   5.9731  10.9418  12.2700
    18.5983

     the Fermi energy is     7.9047 ev

!    total energy              =     -37.01575909 Ry
     estimated scf accuracy    <          4.8E-11 Ry
     smearing contrib. (-TS)   =       0.00065846 Ry
     internal energy E=F+TS    =     -37.01641755 Ry

     The total energy is F=E-TS. E is the sum of the following terms:
     one-electron contribution =     -10.33430278 Ry
     hartree contribution      =       6.49773438 Ry
     xc contribution           =     -10.24465468 Ry
     ewald contribution        =     -22.93519448 Ry

     convergence has been achieved in   8 iterations

     Forces acting on atoms (cartesian axes, Ry/au):

     atom    1 type  1   force =     0.00000000    0.00000000    0.13359007
     atom    2 type  1   force =     0.00000000    0.00000000   -0.13359007
     atom    3 type  2   force =     0.00000000    0.00000000    0.00000000
     The non-local contrib.  to forces
     atom    1 type  1   force =    -0.00000000   -0.00000000    0.06896572
     atom    2 type  1   force =     0.00000000    0.00000000   -0.06896572
     atom    3 type  2   force =    -0.00000000    0.00000000    0.00000000
     The ionic contribution  to forces
     atom    1 type  1   force =     0.00000002   -0.00000001    1.10386246
     atom    2 type  1   force =    -0.00000002    0.00000001   -1.10386246
     atom    3 type  2   force =    -0.00000000   -0.00000000   -0.00000000
     The local contribution  to forces
     atom    1 type  1   force =     0.00000055   -0.00000032   -1.03924262
     atom    2 type  1   force =    -0.00000055    0.00000032    1.03924262
     atom    3 type  2   force =     0.00000000   -0.00000000    0.00000000
     The core correction contribution to forces
     atom    1 type  1   force =     0.00000000    0.00000000    0.00000000
     atom    2 type  1   force =     0.00000000    0.00000000    0.00000000
     atom    3 type  2   force =     0.00000000    0.00000000    0.00000000
     The Hubbard contrib.    to forces
     atom    1 type  1   force =     0.00000000    0.00000000    0.00000000
     atom    2 type  1   force =     0.00000000    0.00000000    0.00000000
     atom    3 type  2   force =     0.00000000    0.00000000    0.00000000
     The SCF correction term to forces
     atom    1 type  1   force =     0.00000000   -0.00000000    0.00000451
     atom    2 type  1   force =    -0.00000000    0.00000000   -0.00000451
     atom    3 type  2   force =    -0.00000000   -0.00000000    0.00000000

     Total force =     0.188925     Total SCF correction =     0.000006


     Computing stress (Cartesian axis) and pressure

          total   stress  (Ry/bohr**3)                   (kbar)     P=      540.00
   0.00389954   0.00000000   0.00000000          573.64        0.00        0.00
   0.00000000   0.00389954   0.00000000            0.00      573.64        0.00
   0.00000000   0.00000000   0.00321338            0.00        0.00      472.70

     Energy error            =      2.2E-01 Ry
     Gradient error          =      1.3E-01 Ry/Bohr
     Cell gradient error     =      7.4E+01 kbar

     number of scf cycles    =   3
     number of bfgs steps    =   2

     enthalpy           old  =     -36.1043881851 Ry
     enthalpy           new  =     -36.3293310314 Ry

     CASE: enthalpy          _new < enthalpy          _old

     new trust radius        =       0.0799243732 bohr
ibrav =      4
 celldm(1) =      5.68674655
 celldm(3) =      1.26224773
Input lattice vectors:
     0.78202863     0.00000000     0.00000000
    -0.39101432     0.67725666     0.00000000
    -0.00000000    -0.00000000     0.98711387
New lattice vectors in INITIAL alat:
     0.78202863     0.00000000     0.00000000
    -0.39101432     0.67725666     0.00000000
     0.00000000     0.00000000     0.98711387
New lattice vectors in NEW alat (for information only):
     1.00000000     0.00000000     0.00000000
    -0.50000000     0.86602540     0.00000000
     0.00000000     0.00000000     1.26224773
Discrepancy in bohr =     0.000000    0.000000    0.000000
     new conv_thr            =       0.0000000100 Ry

     new unit-cell volume =    201.03277 a.u.^3 (    29.78998 Ang^3 )
     density =      2.33933 g/cm^3

CELL_PARAMETERS (alat=  7.27178817)
   0.782028632   0.000000000   0.000000000
  -0.391014316   0.677256661   0.000000000
   0.000000000   0.000000000   0.987113867

ATOMIC_POSITIONS (crystal)
Li            0.3333333300        0.6666666700        0.2894999142
Li            0.6666666700        0.3333333300        0.7105000858
Si            0.0000000000       -0.0000000000        0.0000000000



     Writing config-only to output data dir ./output/LiSi.save/
     NEW-OLD atomic charge density approx. for the potential
     extrapolated charge    9.95421, renormalised to   10.00000

     total cpu time spent up to now is       32.9 secs

     Self-consistent Calculation

     iteration #  1     ecut=    80.00 Ry     beta= 0.70
     Davidson diagonalization with overlap
     ethr =  1.00E-06,  avg # of iterations =  6.2

     total cpu time spent up to now is       34.3 secs

     total energy              =     -37.03328654 Ry
     estimated scf accuracy    <       0.00072503 Ry

     iteration #  2     ecut=    80.00 Ry     beta= 0.70
     Davidson diagonalization with overlap
     ethr =  7.25E-06,  avg # of iterations =  2.0

     total cpu time spent up to now is       35.1 secs

     total energy              =     -37.03347553 Ry
     estimated scf accuracy    <       0.00006833 Ry

     iteration #  3     ecut=    80.00 Ry     beta= 0.70
     Davidson diagonalization with overlap
     ethr =  6.83E-07,  avg # of iterations =  1.9

     total cpu time spent up to now is       35.7 secs

     total energy              =     -37.03348830 Ry
     estimated scf accuracy    <       0.00000115 Ry

     iteration #  4     ecut=    80.00 Ry     beta= 0.70
     Davidson diagonalization with overlap
     ethr =  1.15E-08,  avg # of iterations =  2.0

     total cpu time spent up to now is       36.4 secs

     total energy              =     -37.03348846 Ry
     estimated scf accuracy    <       0.00000004 Ry

     iteration #  5     ecut=    80.00 Ry     beta= 0.70
     Davidson diagonalization with overlap
     ethr =  4.32E-10,  avg # of iterations =  2.1

     total cpu time spent up to now is       37.1 secs

     End of self-consistent calculation

          k = 0.0000 0.0000 0.0000 (  5181 PWs)   bands (ev):

   -38.3413 -38.1703  -2.7349   7.1438   7.1628  12.9928  12.9928  14.7744
    14.7744

          k = 0.0000 0.0000 0.1447 (  5139 PWs)   bands (ev):

   -38.3352 -38.1762  -2.6701   5.2238   9.4936  13.0851  13.0851  14.9146
    14.9146

          k = 0.0000 0.0000 0.2894 (  5144 PWs)   bands (ev):

   -38.3196 -38.1914  -2.5096   3.8008  12.1237  13.3150  13.3150  15.2824
    15.2824

          k = 0.0000 0.0000 0.4342 (  5132 PWs)   bands (ev):

   -38.3036 -38.2071  -2.3622   3.0175  13.5296  13.5296  14.6938  15.6602
    15.6602

          k = 0.0000 0.1641 0.0000 (  5150 PWs)   bands (ev):

   -38.3340 -38.1725  -2.5409   7.1988   7.3056  11.1790  11.8026  15.4683
    16.3319

          k = 0.0000 0.1641 0.1447 (  5149 PWs)   bands (ev):

   -38.3283 -38.1780  -2.4743   5.3532   9.4517  11.3578  11.9343  15.6625
    16.2932

          k = 0.0000 0.1641 0.2894 (  5143 PWs)   bands (ev):

   -38.3136 -38.1923  -2.3080   3.9257  11.1154  12.2451  12.5104  15.9990
    16.3088

          k = 0.0000 0.1641 0.4342 (  5156 PWs)   bands (ev):

   -38.2985 -38.2071  -2.1539   3.1341  11.5645  12.5339  14.5579  16.0781
    16.3105

          k = 0.0000 0.3281 0.0000 (  5138 PWs)   bands (ev):

   -38.3143 -38.1794  -1.9645   6.8544   7.6952   9.3010  10.4413  15.1922
    17.7342

          k = 0.0000 0.3281 0.1447 (  5154 PWs)   bands (ev):

   -38.3097 -38.1839  -1.8945   5.7518   7.8420  10.5766  10.6979  15.3524
    16.4515

          k = 0.0000 0.3281 0.2894 (  5143 PWs)   bands (ev):

   -38.2975 -38.1956  -1.7111   4.3077   8.3344  10.9142  12.7664  14.7018
    16.1383

          k = 0.0000 0.3281 0.4342 (  5153 PWs)   bands (ev):

   -38.2850 -38.2077  -1.5344   3.4751   8.7026  11.2485  13.2629  15.0792
    15.6348

          k = 0.0000 0.4922 0.0000 (  5140 PWs)   bands (ev):

   -38.2880 -38.1912  -1.0395   5.0267   8.1951   9.4978   9.6783  13.8546
    15.5793

          k = 0.0000 0.4922 0.1447 (  5142 PWs)   bands (ev):

   -38.2848 -38.1942  -0.9652   5.2418   6.5925   9.6334  11.4747  13.3232
    15.2966

          k = 0.0000 0.4922 0.2894 (  5151 PWs)   bands (ev):

   -38.2762 -38.2023  -0.7507   4.7243   5.9594   9.9820  11.8573  13.7784
    15.9295

          k = 0.0000 0.4922 0.4342 (  5136 PWs)   bands (ev):

   -38.2673 -38.2107  -0.5284   3.8774   6.2324  10.3379  11.0208  14.7333
    14.9135

          k = 0.0000 0.6562 0.0000 (  5142 PWs)   bands (ev):

   -38.2652 -38.2045   0.0225   3.2449   8.7064   9.0209  11.0687  12.6515
    13.2941

          k = 0.0000 0.6562 0.1447 (  5138 PWs)   bands (ev):

   -38.2633 -38.2062   0.1175   3.3222   7.4545   9.1554  11.3919  12.6704
    14.3839

          k = 0.0000 0.6562 0.2894 (  5137 PWs)   bands (ev):

   -38.2580 -38.2109   0.4006   3.3443   6.1183   9.5079  10.1611  14.2384
    15.2995

          k = 0.0000 0.6562 0.4342 (  5137 PWs)   bands (ev):

   -38.2526 -38.2159   0.7153   3.1892   5.4716   9.4475   9.8741  14.2517
    14.8421

          k = 0.1421 0.2461 0.0000 (  5129 PWs)   bands (ev):

   -38.3205 -38.1771  -2.1552   7.2356   7.4734   9.7357  10.3498  16.7890
    16.9679

          k = 0.1421 0.2461 0.1447 (  5141 PWs)   bands (ev):

   -38.3155 -38.1819  -2.0834   5.5408   8.9797  10.2110  10.6207  16.7456
    17.1057

          k = 0.1421 0.2461 0.2894 (  5139 PWs)   bands (ev):

   -38.3024 -38.1945  -1.9044   4.1414   9.5621  10.5960  12.5122  16.1065
    16.6253

          k = 0.1421 0.2461 0.4342 (  5155 PWs)   bands (ev):

   -38.2892 -38.2074  -1.7375   3.3540   9.8593  10.8139  14.0165  15.3692
    16.3229

          k = 0.1421 0.4102 0.0000 (  5136 PWs)   bands (ev):

   -38.2973 -38.1866  -1.3982   6.2055   7.4958   9.2908   9.3328  15.9211
    16.5316

          k = 0.1421 0.4102 0.1447 (  5141 PWs)   bands (ev):

   -38.2935 -38.1902  -1.3214   5.9847   6.6653   9.1852  10.9651  14.8693
    16.7674

          k = 0.1421 0.4102 0.2894 (  5148 PWs)   bands (ev):

   -38.2836 -38.1997  -1.1178   4.6186   7.0113   9.3167  12.6555  13.8547
    16.1707

          k = 0.1421 0.4102 0.4342 (  5152 PWs)   bands (ev):

   -38.2734 -38.2094  -0.9183   3.7839   7.3495   9.3942  12.5252  14.0327
    16.2467

          k = 0.1421 0.5742 0.0000 (  5142 PWs)   bands (ev):

   -38.2716 -38.2004  -0.3498   4.1801   7.5781   8.9111  10.4279  14.1529
    14.6810

          k = 0.1421 0.5742 0.1447 (  5144 PWs)   bands (ev):

   -38.2692 -38.2025  -0.2638   4.3283   6.7337   8.4857  11.9430  12.7520
    15.8695

          k = 0.1421 0.5742 0.2894 (  5134 PWs)   bands (ev):

   -38.2629 -38.2082  -0.0141   4.3581   5.6677   8.4076  11.5122  13.4942
    15.9268

          k = 0.1421 0.5742 0.4342 (  5145 PWs)   bands (ev):

   -38.2564 -38.2143   0.2512   3.9367   5.4785   8.3166  11.0222  13.4975
    16.1386

          k = 0.1421 0.7383 0.0000 (  5150 PWs)   bands (ev):

   -38.2574 -38.2098   0.4044   3.0484   7.5670   8.8921  11.8496  12.4884
    13.8880

          k = 0.1421 0.7383 0.1447 (  5139 PWs)   bands (ev):

   -38.2557 -38.2113   0.5338   3.0399   7.4541   8.1110  11.2838  13.3216
    14.8240

          k = 0.1421 0.7383 0.2894 (  5139 PWs)   bands (ev):

   -38.2515 -38.2149   0.8791   2.9998   6.4561   7.7407  10.6358  13.8767
    15.6424

          k = 0.1421 0.7383 0.4342 (  5131 PWs)   bands (ev):

   -38.2474 -38.2186   1.2512   2.9152   5.6073   7.6628  10.4449  13.3719
    16.0665

          k = 0.2842 0.4922 0.0000 (  5138 PWs)   bands (ev):

   -38.2740 -38.1988  -0.4913   5.2946   6.1313   8.9754  10.1493  14.6676
    16.5549

          k = 0.2842 0.4922 0.1447 (  5140 PWs)   bands (ev):

   -38.2713 -38.2013  -0.3940   5.2399   5.9672   8.1363  11.2144  14.0166
    16.0689

          k = 0.2842 0.4922 0.2894 (  5145 PWs)   bands (ev):

   -38.2645 -38.2075  -0.1457   4.7736   5.8536   7.5361  11.7979  13.2385
    16.6052

          k = 0.2842 0.4922 0.4342 (  5136 PWs)   bands (ev):

   -38.2577 -38.2139   0.0963   4.2019   5.9593   7.2962  11.6640  12.7526
    18.0091

          k = 0.2842 0.6562 0.0000 (  5136 PWs)   bands (ev):

   -38.2516 -38.2140   0.5378   3.7857   5.6180   9.0699  11.5202  13.1212
    15.1210

          k = 0.2842 0.6562 0.1447 (  5124 PWs)   bands (ev):

   -38.2503 -38.2151   0.6599   3.8495   5.5248   8.1377  11.9804  12.5682
    15.8531

          k = 0.2842 0.6562 0.2894 (  5136 PWs)   bands (ev):

   -38.2468 -38.2179   0.9932   3.9248   5.3082   6.8879  11.3598  12.4735
    17.3525

          k = 0.2842 0.6562 0.4342 (  5121 PWs)   bands (ev):

   -38.2434 -38.2209   1.3496   3.8901   5.0901   6.1889  10.9979  12.1465
    18.5254

          k = 0.4262 0.7383 0.0000 (  5118 PWs)   bands (ev):

   -38.2315 -38.2315   1.0608   4.1610   4.1610   9.2038  12.5141  12.5141
    14.3516

          k = 0.4262 0.7383 0.1447 (  5118 PWs)   bands (ev):

   -38.2314 -38.2314   1.2194   4.1600   4.1600   8.2741  12.1957  12.1957
    15.6527

          k = 0.4262 0.7383 0.2894 (  5109 PWs)   bands (ev):

   -38.2311 -38.2311   1.6539   4.1576   4.1576   6.7172  11.6420  11.6420
    18.3377

          k = 0.4262 0.7383 0.4342 (  5133 PWs)   bands (ev):

   -38.2309 -38.2309   2.1518   4.1554   4.1554   5.5732  11.2916  11.2916
    20.9197

          k = 0.0000 0.1641-0.1447 (  5149 PWs)   bands (ev):

   -38.3283 -38.1781  -2.4732   5.3257   9.5720  11.3075  11.9049  15.4441
    16.5226

          k = 0.0000 0.1641-0.2894 (  5143 PWs)   bands (ev):

   -38.3135 -38.1924  -2.3065   3.9106  11.3273  12.1967  12.3955  15.5410
    16.7539

          k = 0.0000 0.1641-0.4342 (  5156 PWs)   bands (ev):

   -38.2985 -38.2071  -2.1531   3.1291  11.6302  12.5049  14.6369  15.6290
    16.5686

          k = 0.0000 0.3281-0.1447 (  5154 PWs)   bands (ev):

   -38.3095 -38.1841  -1.8861   5.4352   8.7861  10.0422  10.5600  14.7989
    17.1857

          k = 0.0000 0.3281-0.2894 (  5143 PWs)   bands (ev):

   -38.2972 -38.1959  -1.6986   4.1560   8.8419  10.8866  12.1770  14.5081
    16.5693

          k = 0.0000 0.3281-0.4342 (  5153 PWs)   bands (ev):

   -38.2848 -38.2079  -1.5278   3.4273   8.8805  11.2315  12.9422  15.1840
    15.7480

          k = 0.0000 0.4922-0.1447 (  5142 PWs)   bands (ev):

   -38.2844 -38.1946  -0.9385   4.6301   7.8190   9.6250  10.4642  13.1591
    16.9117

          k = 0.0000 0.4922-0.2894 (  5151 PWs)   bands (ev):

   -38.2756 -38.2029  -0.7090   4.0660   7.0302   9.9680  10.9736  13.8639
    15.8560

          k = 0.0000 0.4922-0.4342 (  5136 PWs)   bands (ev):

   -38.2670 -38.2111  -0.5051   3.6662   6.5932  10.3293  10.7464  14.7781
    14.9021

          k = 0.0000 0.6562-0.1447 (  5138 PWs)   bands (ev):

   -38.2629 -38.2065   0.1560   3.1522   7.9807   9.1529  10.5951  12.6993
    15.1996

          k = 0.0000 0.6562-0.2894 (  5137 PWs)   bands (ev):

   -38.2575 -38.2114   0.4690   3.0448   6.6366   9.5037   9.7582  14.1048
    15.3352

          k = 0.0000 0.6562-0.4342 (  5137 PWs)   bands (ev):

   -38.2523 -38.2162   0.7609   3.0044   5.7148   9.3132   9.8714  14.2644
    14.8144

          k =-0.1421 0.4102-0.1447 (  5141 PWs)   bands (ev):

   -38.2933 -38.1904  -1.3112   5.3959   7.7444   8.9285  10.5517  15.3095
    16.3293

          k =-0.1421 0.4102-0.2894 (  5148 PWs)   bands (ev):

   -38.2833 -38.2000  -1.1022   4.3679   7.6161   9.1100  11.9299  15.0722
    15.5539

          k =-0.1421 0.4102-0.4342 (  5152 PWs)   bands (ev):

   -38.2732 -38.2096  -0.9098   3.7098   7.5619   9.2956  12.2657  14.3220
    16.4212

          k =-0.1421 0.5742-0.1447 (  5144 PWs)   bands (ev):

   -38.2689 -38.2028  -0.2331   4.0085   7.6223   8.2115  10.7793  14.1448
    15.1334

          k =-0.1421 0.5742-0.2894 (  5134 PWs)   bands (ev):

   -38.2624 -38.2088   0.0367   3.7918   6.6755   8.0807  10.9140  14.4258
    15.2896

          k =-0.1421 0.5742-0.4342 (  5145 PWs)   bands (ev):

   -38.2561 -38.2146   0.2817   3.6598   5.9035   8.1727  10.8786  13.6454
    16.1314

          k =-0.2842 0.6562-0.1447 (  5124 PWs)   bands (ev):

   -38.2501 -38.2152   0.6744   3.7417   5.6621   8.1567  11.4286  13.3113
    15.4552

          k =-0.2842 0.6562-0.2894 (  5136 PWs)   bands (ev):

   -38.2466 -38.2181   1.0210   3.7072   5.6832   6.7296  11.1457  12.7124
    17.4265

          k =-0.2842 0.6562-0.4342 (  5121 PWs)   bands (ev):

   -38.2433 -38.2210   1.3699   3.7261   5.4354   5.9927  10.9450  12.1999
    18.7082

     the Fermi energy is     8.0022 ev

!    total energy              =     -37.03348847 Ry
     estimated scf accuracy    <          1.6E-09 Ry
     smearing contrib. (-TS)   =       0.00062599 Ry
     internal energy E=F+TS    =     -37.03411446 Ry

     The total energy is F=E-TS. E is the sum of the following terms:
     one-electron contribution =     -10.00977157 Ry
     hartree contribution      =       6.35819411 Ry
     xc contribution           =     -10.23519245 Ry
     ewald contribution        =     -23.14734455 Ry

     convergence has been achieved in   5 iterations

     Forces acting on atoms (cartesian axes, Ry/au):

     atom    1 type  1   force =    -0.00000000   -0.00000000    0.11812071
     atom    2 type  1   force =     0.00000000    0.00000000   -0.11812071
     atom    3 type  2   force =     0.00000000    0.00000000    0.00000000
     The non-local contrib.  to forces
     atom    1 type  1   force =     0.00000000    0.00000000    0.06996563
     atom    2 type  1   force =     0.00000000    0.00000000   -0.06996563
     atom    3 type  2   force =     0.00000000   -0.00000000    0.00000000
     The ionic contribution  to forces
     atom    1 type  1   force =     0.00000002   -0.00000001    0.91624221
     atom    2 type  1   force =    -0.00000002    0.00000001   -0.91624221
     atom    3 type  2   force =    -0.00000000   -0.00000000    0.00000000
     The local contribution  to forces
     atom    1 type  1   force =     0.00000055   -0.00000032   -0.86806317
     atom    2 type  1   force =    -0.00000055    0.00000032    0.86806317
     atom    3 type  2   force =     0.00000000   -0.00000000   -0.00000000
     The core correction contribution to forces
     atom    1 type  1   force =     0.00000000    0.00000000    0.00000000
     atom    2 type  1   force =     0.00000000    0.00000000    0.00000000
     atom    3 type  2   force =     0.00000000    0.00000000   -0.00000000
     The Hubbard contrib.    to forces
     atom    1 type  1   force =     0.00000000    0.00000000    0.00000000
     atom    2 type  1   force =     0.00000000    0.00000000    0.00000000
     atom    3 type  2   force =     0.00000000    0.00000000    0.00000000
     The SCF correction term to forces
     atom    1 type  1   force =    -0.00000000    0.00000000   -0.00002397
     atom    2 type  1   force =     0.00000000   -0.00000000    0.00002397
     atom    3 type  2   force =    -0.00000000    0.00000000    0.00000000

     Total force =     0.167048     Total SCF correction =     0.000034


     Computing stress (Cartesian axis) and pressure

          total   stress  (Ry/bohr**3)                   (kbar)     P=      517.84
   0.00368750   0.00000000   0.00000000          542.45        0.00        0.00
   0.00000000   0.00368750   0.00000000            0.00      542.45        0.00
   0.00000000   0.00000000   0.00318563            0.00        0.00      468.62

     Energy error            =      2.1E-02 Ry
     Gradient error          =      1.2E-01 Ry/Bohr
     Cell gradient error     =      4.2E+01 kbar

     number of scf cycles    =   4
     number of bfgs steps    =   3

     enthalpy           old  =     -36.3293310314 Ry
     enthalpy           new  =     -36.3501919823 Ry

     CASE: enthalpy          _new < enthalpy          _old


     WARNING: bfgs curvature condition failed, Theta= 0.917
     new trust radius        =       0.1186750603 bohr
ibrav =      4
 celldm(1) =      5.66941171
 celldm(3) =      1.24093727
Input lattice vectors:
     0.77964478    -0.00000000     0.00000000
    -0.38982239     0.67519219     0.00000000
     0.00000000     0.00000000     0.96749027
New lattice vectors in INITIAL alat:
     0.77964478     0.00000000     0.00000000
    -0.38982239     0.67519219     0.00000000
     0.00000000     0.00000000     0.96749027
New lattice vectors in NEW alat (for information only):
     1.00000000     0.00000000     0.00000000
    -0.50000000     0.86602540     0.00000000
     0.00000000     0.00000000     1.24093727
Discrepancy in bohr =     0.000000    0.000000    0.000000
     new conv_thr            =       0.0000000100 Ry

     new unit-cell volume =    195.83687 a.u.^3 (    29.02003 Ang^3 )
     density =      2.40140 g/cm^3

CELL_PARAMETERS (alat=  7.27178817)
   0.779644783   0.000000000   0.000000000
  -0.389822392   0.675192188   0.000000000
[...]
        k(   55) = (   0.0000000   0.4935342  -0.1613724), wk =   0.0211640
        k(   56) = (   0.0000000   0.4935342  -0.3227448), wk =   0.0211640
        k(   57) = (   0.0000000   0.4935342  -0.4841171), wk =   0.0211640
        k(   58) = (   0.0000000   0.6580456  -0.1613724), wk =   0.0211640
        k(   59) = (   0.0000000   0.6580456  -0.3227448), wk =   0.0211640
        k(   60) = (   0.0000000   0.6580456  -0.4841171), wk =   0.0211640
        k(   61) = (  -0.1424711   0.4112785  -0.1613724), wk =   0.0423280
        k(   62) = (  -0.1424711   0.4112785  -0.3227448), wk =   0.0423280
        k(   63) = (  -0.1424711   0.4112785  -0.4841171), wk =   0.0423280
        k(   64) = (  -0.1424711   0.5757899  -0.1613724), wk =   0.0423280
        k(   65) = (  -0.1424711   0.5757899  -0.3227448), wk =   0.0423280
        k(   66) = (  -0.1424711   0.5757899  -0.4841171), wk =   0.0423280
        k(   67) = (  -0.2849421   0.6580456  -0.1613724), wk =   0.0423280
        k(   68) = (  -0.2849421   0.6580456  -0.3227448), wk =   0.0423280
        k(   69) = (  -0.2849421   0.6580456  -0.4841171), wk =   0.0423280

     Dense  grid:    17335 G-vectors     FFT dimensions: (  36,  36,  40)

     Estimated max dynamical RAM per process >      15.88 MB

     Estimated total dynamical RAM >     127.07 MB

     Initial potential from superposition of free atoms

     starting charge       9.9903, renormalised to      10.0000
     Starting wfcs are    8 randomized atomic wfcs +    1 random wfcs

     total cpu time spent up to now is      104.3 secs

     Self-consistent Calculation

     iteration #  1     ecut=    80.00 Ry     beta= 0.70
     Davidson diagonalization with overlap
     c_bands:  1 eigenvalues not converged
     c_bands:  3 eigenvalues not converged
     c_bands:  2 eigenvalues not converged
     c_bands:  1 eigenvalues not converged
     c_bands:  1 eigenvalues not converged
     c_bands:  1 eigenvalues not converged
     c_bands:  1 eigenvalues not converged
     c_bands:  1 eigenvalues not converged
     c_bands:  1 eigenvalues not converged
     c_bands:  1 eigenvalues not converged
     c_bands:  1 eigenvalues not converged
     c_bands:  1 eigenvalues not converged
     c_bands:  1 eigenvalues not converged
     c_bands:  1 eigenvalues not converged
     ethr =  1.00E-06,  avg # of iterations = 15.8

     total cpu time spent up to now is      105.4 secs

     total energy              =     -37.05942626 Ry
     estimated scf accuracy    <       0.01888192 Ry

     iteration #  2     ecut=    80.00 Ry     beta= 0.70
     Davidson diagonalization with overlap
     ethr =  1.89E-04,  avg # of iterations =  1.8

     total cpu time spent up to now is      105.8 secs

     total energy              =     -37.06105097 Ry
     estimated scf accuracy    <       0.00076118 Ry

     iteration #  3     ecut=    80.00 Ry     beta= 0.70
     Davidson diagonalization with overlap
     ethr =  7.61E-06,  avg # of iterations =  2.3

     total cpu time spent up to now is      106.1 secs

     total energy              =     -37.06114012 Ry
     estimated scf accuracy    <       0.00003660 Ry

     iteration #  4     ecut=    80.00 Ry     beta= 0.70
     Davidson diagonalization with overlap
     ethr =  3.66E-07,  avg # of iterations =  2.3

     total cpu time spent up to now is      106.4 secs

     total energy              =     -37.06114472 Ry
     estimated scf accuracy    <       0.00000083 Ry

     iteration #  5     ecut=    80.00 Ry     beta= 0.70
     Davidson diagonalization with overlap
     ethr =  8.29E-09,  avg # of iterations =  2.9

     total cpu time spent up to now is      106.7 secs

     total energy              =     -37.06114498 Ry
     estimated scf accuracy    <       0.00000003 Ry

     iteration #  6     ecut=    80.00 Ry     beta= 0.70
     Davidson diagonalization with overlap
     ethr =  2.93E-10,  avg # of iterations =  2.2

     total cpu time spent up to now is      107.0 secs

     total energy              =     -37.06114498 Ry
     estimated scf accuracy    <          3.9E-09 Ry

     iteration #  7     ecut=    80.00 Ry     beta= 0.70
     Davidson diagonalization with overlap
     ethr =  3.91E-11,  avg # of iterations =  2.0

     total cpu time spent up to now is      107.3 secs

     End of self-consistent calculation

          k = 0.0000 0.0000 0.0000 (  2131 PWs)   bands (ev):

   -38.4117 -37.1904  -1.7114   7.1691  12.5738  14.6216  14.6216  15.6556
    15.6556

          k = 0.0000 0.0000 0.1614 (  2143 PWs)   bands (ev):

   -38.4105 -37.1904  -1.6533   6.3692  13.9645  14.8305  14.8305  15.9049
    15.9049

          k = 0.0000 0.0000 0.3227 (  2124 PWs)   bands (ev):

   -38.4079 -37.1906  -1.5108   5.1324  15.4286  15.4286  16.6416  16.6416
    16.9550

          k = 0.0000 0.0000 0.4841 (  2124 PWs)   bands (ev):

   -38.4058 -37.1907  -1.3811   4.3706  16.2127  16.2127  17.7788  17.7789
    19.1699

          k = 0.0000 0.1645 0.0000 (  2152 PWs)   bands (ev):

   -38.3785 -37.2227  -1.5025   7.4033  11.4370  13.1015  13.6798  16.9494
    17.5932

          k = 0.0000 0.1645 0.1614 (  2155 PWs)   bands (ev):

   -38.3773 -37.2227  -1.4375   6.5454  12.1437  13.3500  14.5376  17.1988
    17.6778

          k = 0.0000 0.1645 0.3227 (  2164 PWs)   bands (ev):

   -38.3748 -37.2228  -1.2751   5.2486  13.1106  14.0641  16.7521  17.5445
    17.7217

          k = 0.0000 0.1645 0.4841 (  2145 PWs)   bands (ev):

   -38.3728 -37.2229  -1.1250   4.4522  14.0816  15.1870  16.4269  16.7032
    18.0992

          k = 0.0000 0.3290 0.0000 (  2152 PWs)   bands (ev):

   -38.2846 -37.3143  -0.8888   8.0514   8.9724  11.6296  13.5720  17.3314
    19.4040

          k = 0.0000 0.3290 0.1614 (  2159 PWs)   bands (ev):

   -38.2836 -37.3142  -0.8049   7.0380   9.4514  11.8768  14.4653  16.9231
    18.8916

          k = 0.0000 0.3290 0.3227 (  2161 PWs)   bands (ev):

   -38.2814 -37.3141  -0.5821   5.5867  10.1890  12.6029  15.1578  16.3936
    17.3692

          k = 0.0000 0.3290 0.4841 (  2164 PWs)   bands (ev):

   -38.2796 -37.3140  -0.3627   4.6836  10.8686  13.7925  14.0891  15.4058
    16.8777

          k = 0.0000 0.4935 0.0000 (  2170 PWs)   bands (ev):

   -38.1495 -37.4467   0.0742   6.4383   9.3430  10.6322  13.5734  15.9583
    17.6789

          k = 0.0000 0.4935 0.1614 (  2176 PWs)   bands (ev):

   -38.1488 -37.4465   0.1890   6.5290   8.3604  10.8773  13.8250  15.5323
    18.6077

          k = 0.0000 0.4935 0.3227 (  2175 PWs)   bands (ev):

   -38.1469 -37.4461   0.5211   5.9386   7.6575  11.6050  13.1264  15.8469
    16.5671

          k = 0.0000 0.4935 0.4841 (  2179 PWs)   bands (ev):

   -38.1455 -37.4458   0.8847   5.0076   7.7851  12.3836  12.8099  14.4622
    16.0015

          k = 0.0000 0.6580 0.0000 (  2180 PWs)   bands (ev):

   -38.0221 -37.5723   1.1333   4.6411  10.1309  10.8744  13.2445  13.9150
    17.4526

          k = 0.0000 0.6580 0.1614 (  2169 PWs)   bands (ev):

   -38.0215 -37.5720   1.3115   4.7087   9.3074  10.3740  12.6466  15.0835
    18.4345

          k = 0.0000 0.6580 0.3227 (  2162 PWs)   bands (ev):

   -38.0201 -37.5713   1.8449   4.8114   7.1341  11.1005  11.9345  15.5609
    16.1306

          k = 0.0000 0.6580 0.4841 (  2163 PWs)   bands (ev):

   -38.0189 -37.5708   2.5279   5.0860   5.3696  11.4645  12.3075  13.9869
    15.5677

          k = 0.1425 0.2468 0.0000 (  2152 PWs)   bands (ev):

   -38.3148 -37.2848  -1.0909   7.8646   9.8316  11.3586  13.9892  18.3203
    18.3295

          k = 0.1425 0.2468 0.1614 (  2154 PWs)   bands (ev):

   -38.3137 -37.2848  -1.0096   6.8201  10.5683  11.5671  14.9880  17.7978
    18.4287

          k = 0.1425 0.2468 0.3227 (  2152 PWs)   bands (ev):

   -38.3114 -37.2847  -0.8054   5.4341  11.4960  12.1723  16.2679  16.6770
    18.0945

          k = 0.1425 0.2468 0.4841 (  2163 PWs)   bands (ev):

   -38.3096 -37.2847  -0.6128   4.5938  12.3817  13.0186  14.8373  15.3342
    18.8980

          k = 0.1425 0.4113 0.0000 (  2168 PWs)   bands (ev):

   -38.1986 -37.3985  -0.2980   7.6019   8.7917  10.0092  14.2559  17.6733
    18.1733

          k = 0.1425 0.4113 0.1614 (  2163 PWs)   bands (ev):

   -38.1978 -37.3983  -0.1908   7.1176   8.5604  10.3343  14.7742  16.4568
    18.4229

          k = 0.1425 0.4113 0.3227 (  2171 PWs)   bands (ev):

   -38.1958 -37.3980   0.0987   5.7943   8.9565  10.9186  14.0930  15.4684
    18.2956

          k = 0.1425 0.4113 0.4841 (  2171 PWs)   bands (ev):

   -38.1942 -37.3978   0.3957   4.8623   9.4345  11.6363  13.0984  14.1037
    18.5827

          k = 0.1425 0.5758 0.0000 (  2166 PWs)   bands (ev):

   -38.0578 -37.5370   0.7611   5.5373   9.0912  10.3129  14.1337  15.3681
    17.6873

          k = 0.1425 0.5758 0.1614 (  2168 PWs)   bands (ev):

   -38.0571 -37.5367   0.9110   5.6420   8.5417   9.9548  13.3983  15.8961
    17.8561

          k = 0.1425 0.5758 0.3227 (  2170 PWs)   bands (ev):

   -38.0556 -37.5361   1.3482   5.6631   7.1542  10.2405  12.4888  14.7567
    18.0878

          k = 0.1425 0.5758 0.4841 (  2176 PWs)   bands (ev):

   -38.0543 -37.5357   1.8613   5.1761   6.5671  10.8166  11.9691  13.3793
    18.0499

          k = 0.1425 0.7403 0.0000 (  2176 PWs)   bands (ev):

   -37.9742 -37.6197   1.4741   4.4704   8.8805  11.5494  12.9709  14.8617
    17.5566

          k = 0.1425 0.7403 0.1614 (  2167 PWs)   bands (ev):

   -37.9736 -37.6194   1.7018   4.4566   8.8168  10.1500  12.6480  15.8967
    17.1047

          k = 0.1425 0.7403 0.3227 (  2158 PWs)   bands (ev):

   -37.9723 -37.6186   2.3711   4.4215   7.3046   9.9158  11.9646  14.5247
    17.9553

          k = 0.1425 0.7403 0.4841 (  2172 PWs)   bands (ev):

   -37.9712 -37.6180   3.3762   4.3548   5.5597  10.4480  11.6574  13.1286
    17.8554

          k = 0.2849 0.4935 0.0000 (  2154 PWs)   bands (ev):

   -38.0708 -37.5242   0.6133   6.4142   7.9519  10.1152  14.8406  16.2654
    17.7837

          k = 0.2849 0.4935 0.1614 (  2171 PWs)   bands (ev):

   -38.0701 -37.5239   0.7697   6.2778   8.0544   9.4542  14.6042  15.5103
    17.5441

          k = 0.2849 0.4935 0.3227 (  2187 PWs)   bands (ev):

   -38.0684 -37.5234   1.1896   5.7321   8.2597   8.7920  13.1889  14.0916
    19.9817

          k = 0.2849 0.4935 0.4841 (  2165 PWs)   bands (ev):

   -38.0671 -37.5230   1.6484   5.0287   8.3215   8.8532  12.2939  13.0547
    20.8485

          k = 0.2849 0.6580 0.0000 (  2168 PWs)   bands (ev):

   -37.9351 -37.6585   1.5674   5.1707   7.1342  11.5606  14.0660  15.5257
    16.4319

          k = 0.2849 0.6580 0.1614 (  2172 PWs)   bands (ev):

   -37.9346 -37.6581   1.7808   5.2185   7.1426  10.2392  13.2430  15.0568
    17.7492

          k = 0.2849 0.6580 0.3227 (  2171 PWs)   bands (ev):

   -37.9333 -37.6573   2.4030   5.2886   6.9244   8.5275  12.3165  13.5071
    20.7214

          k = 0.2849 0.6580 0.4841 (  2168 PWs)   bands (ev):

   -37.9322 -37.6566   3.2478   5.2732   5.9221   8.1393  11.7763  12.5395
    21.2339

          k = 0.4274 0.7403 0.0000 (  2160 PWs)   bands (ev):

   -37.7965 -37.7965   1.9788   5.6735   5.6735  12.4925  14.4372  14.4372
    15.6512

          k = 0.4274 0.7403 0.1614 (  2157 PWs)   bands (ev):

   -37.7961 -37.7961   2.2317   5.7085   5.7085  10.6282  13.7323  13.7323
    17.8505

          k = 0.4274 0.7403 0.3227 (  2169 PWs)   bands (ev):

   -37.7950 -37.7950   2.9874   5.7923   5.7923   8.1287  12.6394  12.6394
    21.1906

          k = 0.4274 0.7403 0.4841 (  2175 PWs)   bands (ev):

   -37.7942 -37.7942   4.2353   5.8657   5.8657   5.9651  11.9776  11.9776
    23.5317

          k = 0.0000 0.1645-0.1614 (  2155 PWs)   bands (ev):

   -38.3773 -37.2228  -1.4361   6.5231  12.2394  13.3217  14.5390  17.0627
    17.8637

          k = 0.0000 0.1645-0.3227 (  2164 PWs)   bands (ev):

   -38.3748 -37.2228  -1.2731   5.2324  13.2201  13.9984  16.6977  17.7504
    18.2961

          k = 0.0000 0.1645-0.4841 (  2145 PWs)   bands (ev):

   -38.3728 -37.2229  -1.1239   4.4464  14.1659  15.0696  16.3111  17.0002
    18.1687

          k = 0.0000 0.3290-0.1614 (  2159 PWs)   bands (ev):

   -38.2836 -37.3142  -0.7939   6.7940   9.8204  11.8617  14.6793  17.3566
    17.5593

          k = 0.0000 0.3290-0.3227 (  2161 PWs)   bands (ev):

   -38.2814 -37.3141  -0.5654   5.4417  10.4714  12.5688  15.4736  16.4793
    17.6194

          k = 0.0000 0.3290-0.4841 (  2164 PWs)   bands (ev):

   -38.2796 -37.3140  -0.3536   4.6340  10.9954  13.7310  14.1014  15.5232
    16.8655

          k = 0.0000 0.4935-0.1614 (  2176 PWs)   bands (ev):

   -38.1487 -37.4465   0.2219   6.0649   8.9428  10.8698  14.5035  15.2531
    17.3765

          k = 0.0000 0.4935-0.3227 (  2175 PWs)   bands (ev):

   -38.1469 -37.4461   0.5772   5.3793   8.3400  11.5883  13.2511  15.9738
    16.6621

          k = 0.0000 0.4935-0.4841 (  2179 PWs)   bands (ev):

   -38.1454 -37.4458   0.9204   4.8034   8.0382  12.3816  12.7801  14.5144
    16.0096

          k = 0.0000 0.6580-0.1614 (  2169 PWs)   bands (ev):

   -38.0215 -37.5720   1.3543   4.5550   9.4978  10.3717  12.8318  15.0456
    17.8006

          k = 0.0000 0.6580-0.3227 (  2162 PWs)   bands (ev):

   -38.0200 -37.5714   1.9428   4.4443   7.4939  11.0955  11.9515  15.6172
    16.1570

          k = 0.0000 0.6580-0.4841 (  2163 PWs)   bands (ev):

   -38.0189 -37.5708   2.6356   4.4607   5.9235  11.4591  12.2985  14.0022
    15.5743

          k =-0.1425 0.4113-0.1614 (  2163 PWs)   bands (ev):

   -38.1977 -37.3983  -0.1779   6.7673   9.1514  10.1166  15.5272  16.2224
    17.1889

          k =-0.1425 0.4113-0.3227 (  2171 PWs)   bands (ev):

   -38.1958 -37.3981   0.1196   5.5910   9.3747  10.7116  14.3468  15.5190
    17.9754

          k =-0.1425 0.4113-0.4841 (  2171 PWs)   bands (ev):

   -38.1942 -37.3978   0.4081   4.7943   9.6016  11.4930  13.2021  14.0995
    18.5519

          k =-0.1425 0.5758-0.1614 (  2168 PWs)   bands (ev):

   -38.0571 -37.5368   0.9465   5.3874   9.1177   9.5938  13.9556  16.0942
    16.4878

          k =-0.1425 0.5758-0.3227 (  2170 PWs)   bands (ev):

   -38.0555 -37.5362   1.4171   5.1263   7.8505  10.0070  12.6974  14.7754
    17.9737

          k =-0.1425 0.5758-0.4841 (  2176 PWs)   bands (ev):

   -38.0543 -37.5357   1.9154   4.8471   6.9249  10.6805  12.0881  13.3663
    18.0400

          k =-0.2849 0.6580-0.1614 (  2172 PWs)   bands (ev):

   -37.9345 -37.6581   1.7949   5.1361   7.2357  10.1811  13.4596  14.9266
    17.5965

          k =-0.2849 0.6580-0.3227 (  2171 PWs)   bands (ev):

   -37.9332 -37.6573   2.4387   5.0814   7.2684   8.3418  12.4026  13.4634
    20.6949

          k =-0.2849 0.6580-0.4841 (  2168 PWs)   bands (ev):

   -37.9322 -37.6566   3.3029   4.9610   6.2583   8.0537  11.8073  12.5231
    21.2063

     the Fermi energy is     9.8755 ev

!    total energy              =     -37.06114498 Ry
     estimated scf accuracy    <          5.9E-11 Ry
     smearing contrib. (-TS)   =       0.00005925 Ry
     internal energy E=F+TS    =     -37.06120424 Ry

     The total energy is F=E-TS. E is the sum of the following terms:
     one-electron contribution =      -8.58838450 Ry
     hartree contribution      =       6.03939178 Ry
     xc contribution           =     -10.27260185 Ry
     ewald contribution        =     -24.23960967 Ry

     convergence has been achieved in   7 iterations

     Forces acting on atoms (cartesian axes, Ry/au):

     atom    1 type  1   force =    -0.00000000    0.00000000   -0.00006755
     atom    2 type  1   force =     0.00000000   -0.00000000    0.00006755
     atom    3 type  2   force =     0.00000000    0.00000000    0.00000000
     The non-local contrib.  to forces
     atom    1 type  1   force =     0.00000000    0.00000000    0.05918873
     atom    2 type  1   force =     0.00000000   -0.00000000   -0.05918873
     atom    3 type  2   force =    -0.00000000    0.00000000    0.00000000
     The ionic contribution  to forces
     atom    1 type  1   force =     0.00000007   -0.00000004   -0.25430669
     atom    2 type  1   force =    -0.00000007    0.00000004    0.25430669
     atom    3 type  2   force =    -0.00000000    0.00000000    0.00000000
     The local contribution  to forces
     atom    1 type  1   force =     0.00000054   -0.00000031    0.19505205
     atom    2 type  1   force =    -0.00000054    0.00000031   -0.19505205
     atom    3 type  2   force =     0.00000000   -0.00000000   -0.00000000
     The core correction contribution to forces
     atom    1 type  1   force =     0.00000000    0.00000000    0.00000000
     atom    2 type  1   force =     0.00000000    0.00000000    0.00000000
     atom    3 type  2   force =     0.00000000    0.00000000    0.00000000
     The Hubbard contrib.    to forces
     atom    1 type  1   force =     0.00000000    0.00000000    0.00000000
     atom    2 type  1   force =     0.00000000    0.00000000    0.00000000
     atom    3 type  2   force =     0.00000000    0.00000000    0.00000000
     The SCF correction term to forces
     atom    1 type  1   force =    -0.00000000    0.00000000   -0.00000164
     atom    2 type  1   force =     0.00000000   -0.00000000    0.00000164
     atom    3 type  2   force =    -0.00000000    0.00000000    0.00000000

     Total force =     0.000096     Total SCF correction =     0.000002


     Computing stress (Cartesian axis) and pressure

          total   stress  (Ry/bohr**3)                   (kbar)     P=      499.52
   0.00339382   0.00000000   0.00000000          499.25        0.00        0.00
   0.00000000   0.00339382   0.00000000            0.00      499.25        0.00
   0.00000000   0.00000000   0.00339930            0.00        0.00      500.05


     Writing all to output data dir ./output/LiSi.save/

     init_run     :      1.15s CPU      1.39s WALL (       2 calls)
     electrons    :     73.08s CPU     81.23s WALL (      16 calls)
     update_pot   :      5.59s CPU      5.68s WALL (      14 calls)
     forces       :      3.90s CPU      3.99s WALL (      16 calls)
     stress       :     14.12s CPU     14.84s WALL (      16 calls)

     Called by init_run:
     wfcinit      :      0.33s CPU      0.34s WALL (       2 calls)
     potinit      :      0.31s CPU      0.44s WALL (       2 calls)
     hinit0       :      0.48s CPU      0.52s WALL (       2 calls)

     Called by electrons:
     c_bands      :     62.63s CPU     69.90s WALL (      99 calls)
     sum_band     :      9.58s CPU      9.90s WALL (      99 calls)
     v_of_rho     :      0.93s CPU      1.38s WALL (     111 calls)
     mix_rho      :      0.05s CPU      0.08s WALL (      99 calls)

     Called by c_bands:
     init_us_2    :      2.19s CPU      2.34s WALL (   16008 calls)
     init_us_2:cp :      2.17s CPU      2.32s WALL (   16008 calls)
     cegterg      :     58.91s CPU     60.60s WALL (    6831 calls)

     Called by *egterg:
     cdiaghg      :      2.58s CPU      2.69s WALL (   26210 calls)
     h_psi        :     51.80s CPU     53.22s WALL (   27590 calls)
     g_psi        :      0.25s CPU      0.26s WALL (   20621 calls)

     Called by h_psi:
     h_psi:calbec :      2.28s CPU      2.35s WALL (   27590 calls)
     vloc_psi     :     47.77s CPU     49.05s WALL (   27590 calls)
     add_vuspsi   :      1.54s CPU      1.59s WALL (   27590 calls)

     General routines
     calbec       :      2.91s CPU      3.01s WALL (   33110 calls)
     fft          :      0.95s CPU      1.51s WALL (    1512 calls)
     ffts         :      0.06s CPU      0.07s WALL (      99 calls)
     fftw         :     49.98s CPU     51.26s WALL (  421987 calls)

     Parallel routines

     PWSCF        :   1m38.15s CPU   1m48.06s WALL


   This run was terminated on:  13: 5:24  27Dec2024            

=------------------------------------------------------------------------------=
   JOB DONE.
=------------------------------------------------------------------------------=
