
     Program PWSCF v.7.2 starts on 27Dec2024 at 11:23: 9 

     This program is part of the open-source Quantum ESPRESSO suite
     for quantum simulation of materials; please cite
         "P. Giannozzi et al., J. Phys.:Condens. Matter 21 395502 (2009);
         "P. Giannozzi et al., J. Phys.:Condens. Matter 29 465901 (2017);
         "P. Giannozzi et al., J. Chem. Phys. 152 154105 (2020);
          URL http://www.quantum-espresso.org", 
     in publications or presentations arising from this work. More details at
     http://www.quantum-espresso.org/quote

     Parallel version (MPI & OpenMP), running on       8 processor cores
     Number of MPI processes:                 8
     Threads/MPI process:                     1

     MPI processes distributed on     1 nodes
     483809 MiB available memory on the printing compute node when the environment starts

     Waiting for input...
     Reading input from standard input

     Current dimensions of program PWSCF are:
     Max number of different atomic species (ntypx) = 10
     Max number of k-points (npk) =  40000
     Max angular momentum in pseudopotentials (lmaxx) =  4

     R & G space division:  proc/nbgrp/npool/nimage =       8
     Subspace diagonalization in iterative solution of the eigenvalue problem:
     a serial algorithm will be used


     Parallelization info
     --------------------
     sticks:   dense  smooth     PW     G-vecs:    dense   smooth      PW
     Min         132     132     47                 2237     2237     471
     Max         133     133     48                 2239     2239     473
     Sum        1057    1057    377                17903    17903    3775

     Using Slab Decomposition



     bravais-lattice index     =            7
     lattice parameter (alat)  =       4.5597  a.u.
     unit-cell volume          =     185.6083 (a.u.)^3
     number of atoms/cell      =            3
     number of atomic types    =            2
     number of electrons       =        10.00
     number of Kohn-Sham states=            9
     kinetic-energy cutoff     =      80.0000  Ry
     charge density cutoff     =     320.0000  Ry
     scf convergence threshold =      1.0E-08
     mixing beta               =       0.7000
     number of iterations used =            8  plain     mixing
     energy convergence thresh.=      1.0E-04
     force convergence thresh. =      1.0E-03
     press convergence thresh. =      1.0E+00
     Exchange-correlation= PBE
                           (   1   4   3   4   0   0   0)
     nstep                     =           50


     celldm(1)=   4.559679  celldm(2)=   0.000000  celldm(3)=   3.915837
     celldm(4)=   0.000000  celldm(5)=   0.000000  celldm(6)=   0.000000

     crystal axes: (cart. coord. in units of alat)
               a(1) = (   0.500000  -0.500000   1.957919 )  
               a(2) = (   0.500000   0.500000   1.957919 )  
               a(3) = (  -0.500000  -0.500000   1.957919 )  

     reciprocal axes: (cart. coord. in units 2 pi/alat)
               b(1) = (  1.000000 -1.000000  0.000000 )  
               b(2) = (  0.000000  1.000000  0.255373 )  
               b(3) = ( -1.000000  0.000000  0.255373 )  


     PseudoPot. # 1 for Li read from file:
     ../pseudo/Li_ONCV_PBE_sr.upf
     MD5 check sum: 50ff420e78310ffa21704f3361e624a4
     Pseudo is Norm-conserving, Zval =  3.0
     Generated using ONCVPSP code by D. R. Hamann
     Using radial grid of 1944 points,  4 beta functions with: 
                l(1) =   0
                l(2) =   0
                l(3) =   1
                l(4) =   1

     PseudoPot. # 2 for Si read from file:
     ../pseudo/Si_ONCV_PBE_sr.upf
     MD5 check sum: e543d271109d17c80368dfa7c482276d
     Pseudo is Norm-conserving + core correction, Zval =  4.0
     Generated using ONCVPSP code by D. R. Hamann
     Using radial grid of 1510 points,  6 beta functions with: 
                l(1) =   0
                l(2) =   0
                l(3) =   1
                l(4) =   1
                l(5) =   2
                l(6) =   2

     atomic species   valence    mass     pseudopotential
        Li             3.00     6.94100     Li( 1.00)
        Si             4.00    28.08550     Si( 1.00)

     16 Sym. Ops., with inversion, found



   Cartesian axes

     site n.     atom                  positions (alat units)
         1           Li  tau(   1) = (   0.0000000   0.0000000   0.5288329  )
         2           Li  tau(   2) = (   0.0000000   0.0000000   3.3870045  )
         3           Si  tau(   3) = (   0.0000000   0.0000000   1.9579187  )

     number of k points=   131  Marzari-Vanderbilt smearing, width (Ry)=  0.0200

     Number of k-points >= 100: set verbosity='high' to print them.

     Dense  grid:    17903 G-vectors     FFT dimensions: (  60,  60,  60)

     Estimated max dynamical RAM per process >      19.86 MB

     Estimated total dynamical RAM >     158.88 MB

     Initial potential from superposition of free atoms

     starting charge       9.9903, renormalised to      10.0000
     Starting wfcs are    8 randomized atomic wfcs +    1 random wfcs

     total cpu time spent up to now is        1.6 secs

     Self-consistent Calculation

     iteration #  1     ecut=    80.00 Ry     beta= 0.70
     Davidson diagonalization with overlap
     ethr =  1.00E-02,  avg # of iterations =  5.9

     total cpu time spent up to now is        4.4 secs

     total energy              =     -37.06368549 Ry
     estimated scf accuracy    <       0.11337777 Ry

     iteration #  2     ecut=    80.00 Ry     beta= 0.70
     Davidson diagonalization with overlap
     ethr =  1.13E-03,  avg # of iterations =  2.5

     total cpu time spent up to now is        6.4 secs

     total energy              =     -37.09067998 Ry
     estimated scf accuracy    <       0.11032661 Ry

     iteration #  3     ecut=    80.00 Ry     beta= 0.70
     Davidson diagonalization with overlap
     ethr =  1.10E-03,  avg # of iterations =  1.7

     total cpu time spent up to now is        7.9 secs

     total energy              =     -37.11132065 Ry
     estimated scf accuracy    <       0.00051715 Ry

     iteration #  4     ecut=    80.00 Ry     beta= 0.70
     Davidson diagonalization with overlap
     ethr =  5.17E-06,  avg # of iterations =  4.9

     total cpu time spent up to now is       10.2 secs

     total energy              =     -37.11143246 Ry
     estimated scf accuracy    <       0.00002327 Ry

     iteration #  5     ecut=    80.00 Ry     beta= 0.70
     Davidson diagonalization with overlap
     ethr =  2.33E-07,  avg # of iterations =  1.8

     total cpu time spent up to now is       11.8 secs

     total energy              =     -37.11143550 Ry
     estimated scf accuracy    <       0.00000145 Ry

     iteration #  6     ecut=    80.00 Ry     beta= 0.70
     Davidson diagonalization with overlap
     ethr =  1.45E-08,  avg # of iterations =  2.1

     total cpu time spent up to now is       13.4 secs

     total energy              =     -37.11143576 Ry
     estimated scf accuracy    <       0.00000002 Ry

     iteration #  7     ecut=    80.00 Ry     beta= 0.70
     Davidson diagonalization with overlap
     ethr =  2.08E-10,  avg # of iterations =  2.7

     total cpu time spent up to now is       15.2 secs

     End of self-consistent calculation

     Number of k-points >= 100: set verbosity='high' to print the bands.

     the Fermi energy is     9.1287 ev

!    total energy              =     -37.11143576 Ry
     estimated scf accuracy    <          6.4E-10 Ry
     smearing contrib. (-TS)   =      -0.00029797 Ry
     internal energy E=F+TS    =     -37.11113780 Ry

     The total energy is F=E-TS. E is the sum of the following terms:
     one-electron contribution =     -10.78691686 Ry
     hartree contribution      =       7.05517547 Ry
     xc contribution           =     -10.40369922 Ry
     ewald contribution        =     -22.97569718 Ry

     convergence has been achieved in   7 iterations

     Forces acting on atoms (cartesian axes, Ry/au):

     atom    1 type  1   force =     0.00000000    0.00000000    0.14179453
     atom    2 type  1   force =     0.00000000    0.00000000   -0.14179453
     atom    3 type  2   force =     0.00000000    0.00000000   -0.00000000
     The non-local contrib.  to forces
     atom    1 type  1   force =     0.00000000   -0.00000000    0.03510895
     atom    2 type  1   force =    -0.00000000    0.00000000   -0.03510895
     atom    3 type  2   force =    -0.00000000   -0.00000000    0.00000000
     The ionic contribution  to forces
     atom    1 type  1   force =     0.00000000   -0.00000000    2.21634064
     atom    2 type  1   force =    -0.00000000   -0.00000000   -2.21634064
     atom    3 type  2   force =    -0.00000000   -0.00000000    0.00000000
     The local contribution  to forces
     atom    1 type  1   force =     0.00000000    0.00000000   -2.10963740
     atom    2 type  1   force =    -0.00000000    0.00000000    2.10963740
     atom    3 type  2   force =     0.00000000    0.00000000   -0.00000000
     The core correction contribution to forces
     atom    1 type  1   force =     0.00000000    0.00000000    0.00000000
     atom    2 type  1   force =     0.00000000    0.00000000    0.00000000
     atom    3 type  2   force =     0.00000000    0.00000000   -0.00000000
     The Hubbard contrib.    to forces
     atom    1 type  1   force =     0.00000000    0.00000000    0.00000000
     atom    2 type  1   force =     0.00000000    0.00000000    0.00000000
     atom    3 type  2   force =     0.00000000    0.00000000    0.00000000
     The SCF correction term to forces
     atom    1 type  1   force =     0.00000000   -0.00000000   -0.00001766
     atom    2 type  1   force =     0.00000000    0.00000000    0.00001766
     atom    3 type  2   force =    -0.00000000    0.00000000   -0.00000000

     Total force =     0.200528     Total SCF correction =     0.000025


     Computing stress (Cartesian axis) and pressure

          total   stress  (Ry/bohr**3)                   (kbar)     P=      622.46
   0.00439927   0.00000000  -0.00000000          647.15        0.00       -0.00
  -0.00000000   0.00439927   0.00000000           -0.00      647.15        0.00
   0.00000000  -0.00000000   0.00389562            0.00       -0.00      573.06


     BFGS Geometry Optimization
     Energy error            =      0.0E+00 Ry
     Gradient error          =      1.4E-01 Ry/Bohr
     Cell gradient error     =      1.5E+02 kbar

     number of scf cycles    =   1
     number of bfgs steps    =   0

     enthalpy           new  =     -36.4805659083 Ry

     new trust radius        =       0.1417945253 bohr
ibrav =      7
 celldm(1) =      4.67370948
 celldm(3) =      3.86773473
Input lattice vectors:
     0.51250423    -0.51250423     1.98223042
     0.51250423     0.51250423     1.98223042
    -0.51250423    -0.51250423     1.98223042
New lattice vectors in INITIAL alat:
     0.51250423    -0.51250423     1.98223042
     0.51250423     0.51250423     1.98223042
    -0.51250423    -0.51250423     1.98223042
New lattice vectors in NEW alat (for information only):
     0.50000000    -0.50000000     1.93386736
     0.50000000     0.50000000     1.93386736
    -0.50000000    -0.50000000     1.93386736
Discrepancy in bohr =     0.000000    0.000000    0.000000
     new conv_thr            =       0.0000000100 Ry

     new unit-cell volume =    197.42940 a.u.^3 (    29.25602 Ang^3 )
     density =      2.38203 g/cm^3

CELL_PARAMETERS (alat=  4.55967891)
   0.512504233  -0.512504233   1.982230422
   0.512504233   0.512504233   1.982230422
  -0.512504233  -0.512504233   1.982230422

ATOMIC_POSITIONS (crystal)
Li           -0.0000000000        0.1429912136        0.1429912136
Li            0.0000000000        0.8570087864        0.8570087864
Si            0.0000000000        0.5000000000        0.5000000000



     Writing config-only to output data dir ./output/LiSi.save/
     NEW-OLD atomic charge density approx. for the potential
     extrapolated charge   10.59817, renormalised to   10.00000

     total cpu time spent up to now is       16.3 secs

     Self-consistent Calculation

     iteration #  1     ecut=    80.00 Ry     beta= 0.70
     Davidson diagonalization with overlap
     ethr =  1.00E-06,  avg # of iterations =  9.0

     total cpu time spent up to now is       20.4 secs

     total energy              =     -37.14314837 Ry
     estimated scf accuracy    <       0.05437477 Ry

     iteration #  2     ecut=    80.00 Ry     beta= 0.70
     Davidson diagonalization with overlap
     ethr =  5.44E-04,  avg # of iterations =  2.6

     total cpu time spent up to now is       22.4 secs

     total energy              =     -37.17258809 Ry
     estimated scf accuracy    <       0.13346896 Ry

     iteration #  3     ecut=    80.00 Ry     beta= 0.70
     Davidson diagonalization with overlap
     ethr =  5.44E-04,  avg # of iterations =  1.7

     total cpu time spent up to now is       23.9 secs

     total energy              =     -37.18728458 Ry
     estimated scf accuracy    <       0.00473551 Ry

     iteration #  4     ecut=    80.00 Ry     beta= 0.70
     Davidson diagonalization with overlap
     ethr =  4.74E-05,  avg # of iterations =  1.8

     total cpu time spent up to now is       25.5 secs

     total energy              =     -37.18724324 Ry
     estimated scf accuracy    <       0.00084026 Ry

     iteration #  5     ecut=    80.00 Ry     beta= 0.70
     Davidson diagonalization with overlap
     ethr =  8.40E-06,  avg # of iterations =  2.8

     total cpu time spent up to now is       27.2 secs

     total energy              =     -37.18739741 Ry
     estimated scf accuracy    <       0.00000173 Ry

     iteration #  6     ecut=    80.00 Ry     beta= 0.70
     Davidson diagonalization with overlap
     ethr =  1.73E-08,  avg # of iterations =  3.3

     total cpu time spent up to now is       29.1 secs

     total energy              =     -37.18739912 Ry
     estimated scf accuracy    <       0.00000030 Ry

     iteration #  7     ecut=    80.00 Ry     beta= 0.70
     Davidson diagonalization with overlap
     ethr =  2.95E-09,  avg # of iterations =  1.1

     total cpu time spent up to now is       30.5 secs

     total energy              =     -37.18739914 Ry
     estimated scf accuracy    <       0.00000004 Ry

     iteration #  8     ecut=    80.00 Ry     beta= 0.70
     Davidson diagonalization with overlap
     ethr =  4.15E-10,  avg # of iterations =  1.6

     total cpu time spent up to now is       32.0 secs

     End of self-consistent calculation

     Number of k-points >= 100: set verbosity='high' to print the bands.

     the Fermi energy is     8.5415 ev

!    total energy              =     -37.18739913 Ry
     estimated scf accuracy    <          6.5E-09 Ry
     smearing contrib. (-TS)   =      -0.00050256 Ry
     internal energy E=F+TS    =     -37.18689657 Ry

     The total energy is F=E-TS. E is the sum of the following terms:
     one-electron contribution =     -10.46877696 Ry
     hartree contribution      =       6.67058088 Ry
     xc contribution           =     -10.29739654 Ry
     ewald contribution        =     -23.09130395 Ry

     convergence has been achieved in   8 iterations

     Forces acting on atoms (cartesian axes, Ry/au):

     atom    1 type  1   force =     0.00000000    0.00000000    0.09221429
     atom    2 type  1   force =    -0.00000000   -0.00000000   -0.09221429
     atom    3 type  2   force =     0.00000000    0.00000000    0.00000000
     The non-local contrib.  to forces
     atom    1 type  1   force =     0.00000000    0.00000000    0.03701288
     atom    2 type  1   force =    -0.00000000    0.00000000   -0.03701288
     atom    3 type  2   force =     0.00000000    0.00000000    0.00000000
     The ionic contribution  to forces
     atom    1 type  1   force =    -0.00000000   -0.00000000    1.67875773
     atom    2 type  1   force =    -0.00000000   -0.00000000   -1.67875773
     atom    3 type  2   force =    -0.00000000   -0.00000000    0.00000000
     The local contribution  to forces
     atom    1 type  1   force =     0.00000000   -0.00000000   -1.62345893
     atom    2 type  1   force =     0.00000000    0.00000000    1.62345893
     atom    3 type  2   force =     0.00000000    0.00000000    0.00000000
     The core correction contribution to forces
     atom    1 type  1   force =     0.00000000    0.00000000    0.00000000
     atom    2 type  1   force =     0.00000000    0.00000000    0.00000000
     atom    3 type  2   force =    -0.00000000    0.00000000   -0.00000000
     The Hubbard contrib.    to forces
     atom    1 type  1   force =     0.00000000    0.00000000    0.00000000
     atom    2 type  1   force =     0.00000000    0.00000000    0.00000000
     atom    3 type  2   force =     0.00000000    0.00000000    0.00000000
     The SCF correction term to forces
     atom    1 type  1   force =    -0.00000000   -0.00000000   -0.00009738
     atom    2 type  1   force =    -0.00000000    0.00000000    0.00009738
     atom    3 type  2   force =     0.00000000    0.00000000    0.00000000

     Total force =     0.130411     Total SCF correction =     0.000138


     Computing stress (Cartesian axis) and pressure

          total   stress  (Ry/bohr**3)                   (kbar)     P=      439.24
   0.00306389  -0.00000000  -0.00000000          450.71       -0.00       -0.00
  -0.00000000   0.00306389   0.00000000           -0.00      450.71        0.00
   0.00000000  -0.00000000   0.00282985            0.00       -0.00      416.28

     Energy error            =      3.6E-02 Ry
     Gradient error          =      9.2E-02 Ry/Bohr
     Cell gradient error     =      8.4E+01 kbar

     number of scf cycles    =   2
     number of bfgs steps    =   1

     enthalpy           old  =     -36.4805659083 Ry
     enthalpy           new  =     -36.5163502441 Ry

     CASE: enthalpy          _new < enthalpy          _old

     new trust radius        =       0.2609220615 bohr
ibrav =      7
 celldm(1) =      4.67906404
 celldm(3) =      3.79412639
Input lattice vectors:
     0.51309140    -0.51309140     1.94673361
     0.51309140     0.51309140     1.94673361
    -0.51309140    -0.51309140     1.94673361
New lattice vectors in INITIAL alat:
     0.51309140    -0.51309140     1.94673361
     0.51309140     0.51309140     1.94673361
    -0.51309140    -0.51309140     1.94673361
New lattice vectors in NEW alat (for information only):
     0.50000000    -0.50000000     1.89706320
     0.50000000     0.50000000     1.89706320
    -0.50000000    -0.50000000     1.89706320
Discrepancy in bohr =     0.000000    0.000000    0.000000
     new conv_thr            =       0.0000000092 Ry

     new unit-cell volume =    194.33846 a.u.^3 (    28.79799 Ang^3 )
     density =      2.41991 g/cm^3

CELL_PARAMETERS (alat=  4.55967891)
   0.513091397  -0.513091397   1.946733612
   0.513091397   0.513091397   1.946733612
  -0.513091397  -0.513091397   1.946733612

ATOMIC_POSITIONS (crystal)
Li           -0.0000000000        0.1574254033        0.1574254033
Li           -0.0000000000        0.8425745967        0.8425745967
Si           -0.0000000000        0.5000000000        0.5000000000



     Writing config-only to output data dir ./output/LiSi.save/
     NEW-OLD atomic charge density approx. for the potential
     extrapolated charge    9.84111, renormalised to   10.00000

     total cpu time spent up to now is       33.0 secs

     Self-consistent Calculation

     iteration #  1     ecut=    80.00 Ry     beta= 0.70
     Davidson diagonalization with overlap
     ethr =  1.00E-06,  avg # of iterations =  9.0

     total cpu time spent up to now is       36.9 secs

     total energy              =     -37.20490925 Ry
     estimated scf accuracy    <       0.02027160 Ry

     iteration #  2     ecut=    80.00 Ry     beta= 0.70
     Davidson diagonalization with overlap
     ethr =  2.03E-04,  avg # of iterations =  2.2

     total cpu time spent up to now is       38.6 secs

     total energy              =     -37.20897369 Ry
     estimated scf accuracy    <       0.02491440 Ry

     iteration #  3     ecut=    80.00 Ry     beta= 0.70
     Davidson diagonalization with overlap
     ethr =  2.03E-04,  avg # of iterations =  1.6

     total cpu time spent up to now is       40.1 secs

     total energy              =     -37.21390193 Ry
     estimated scf accuracy    <       0.00011937 Ry

     iteration #  4     ecut=    80.00 Ry     beta= 0.70
     Davidson diagonalization with overlap
     ethr =  1.19E-06,  avg # of iterations =  2.7

     total cpu time spent up to now is       41.8 secs

     total energy              =     -37.21393187 Ry
     estimated scf accuracy    <       0.00000039 Ry

     iteration #  5     ecut=    80.00 Ry     beta= 0.70
     Davidson diagonalization with overlap
     ethr =  3.92E-09,  avg # of iterations =  3.1

     total cpu time spent up to now is       43.6 secs

     total energy              =     -37.21393216 Ry
     estimated scf accuracy    <       0.00000008 Ry

     iteration #  6     ecut=    80.00 Ry     beta= 0.70
     Davidson diagonalization with overlap
     ethr =  7.89E-10,  avg # of iterations =  1.3

     total cpu time spent up to now is       44.9 secs

     End of self-consistent calculation

     Number of k-points >= 100: set verbosity='high' to print the bands.

     the Fermi energy is     8.8711 ev

!    total energy              =     -37.21393217 Ry
     estimated scf accuracy    <          9.3E-10 Ry
     smearing contrib. (-TS)   =      -0.00050728 Ry
     internal energy E=F+TS    =     -37.21342488 Ry

     The total energy is F=E-TS. E is the sum of the following terms:
     one-electron contribution =      -9.11036114 Ry
     hartree contribution      =       6.07562206 Ry
     xc contribution           =     -10.26577340 Ry
     ewald contribution        =     -23.91291240 Ry

     convergence has been achieved in   6 iterations

     Forces acting on atoms (cartesian axes, Ry/au):

     atom    1 type  1   force =     0.00000000   -0.00000000    0.04040260
     atom    2 type  1   force =    -0.00000000    0.00000000   -0.04040260
     atom    3 type  2   force =    -0.00000000    0.00000000    0.00000000
     The non-local contrib.  to forces
     atom    1 type  1   force =     0.00000000   -0.00000000    0.02867070
     atom    2 type  1   force =     0.00000000   -0.00000000   -0.02867070
     atom    3 type  2   force =     0.00000000   -0.00000000   -0.00000000
     The ionic contribution  to forces
     atom    1 type  1   force =     0.00000000   -0.00000000    0.91705394
     atom    2 type  1   force =    -0.00000000   -0.00000000   -0.91705394
     atom    3 type  2   force =    -0.00000000   -0.00000000   -0.00000000
     The local contribution  to forces
     atom    1 type  1   force =     0.00000000   -0.00000000   -0.90529540
     atom    2 type  1   force =     0.00000000    0.00000000    0.90529540
     atom    3 type  2   force =     0.00000000    0.00000000    0.00000000
     The core correction contribution to forces
     atom    1 type  1   force =     0.00000000    0.00000000    0.00000000
     atom    2 type  1   force =     0.00000000    0.00000000    0.00000000
     atom    3 type  2   force =     0.00000000    0.00000000    0.00000000
     The Hubbard contrib.    to forces
     atom    1 type  1   force =     0.00000000    0.00000000    0.00000000
     atom    2 type  1   force =     0.00000000    0.00000000    0.00000000
     atom    3 type  2   force =     0.00000000    0.00000000    0.00000000
     The SCF correction term to forces
     atom    1 type  1   force =     0.00000000   -0.00000000   -0.00002664
     atom    2 type  1   force =    -0.00000000   -0.00000000    0.00002664
     atom    3 type  2   force =     0.00000000    0.00000000   -0.00000000

     Total force =     0.057138     Total SCF correction =     0.000038


     Computing stress (Cartesian axis) and pressure

          total   stress  (Ry/bohr**3)                   (kbar)     P=      383.51
   0.00270886   0.00000000  -0.00000000          398.49        0.00       -0.00
   0.00000000   0.00270886   0.00000000            0.00      398.49        0.00
  -0.00000000  -0.00000000   0.00240343           -0.00       -0.00      353.56

     Energy error            =      3.7E-02 Ry
     Gradient error          =      4.0E-02 Ry/Bohr
     Cell gradient error     =      1.5E+02 kbar

     number of scf cycles    =   3
     number of bfgs steps    =   2

     enthalpy           old  =     -36.5163502441 Ry
     enthalpy           new  =     -36.5533891489 Ry

     CASE: enthalpy          _new < enthalpy          _old

     new trust radius        =       0.2777485059 bohr
ibrav =      7
 celldm(1) =      4.61541513
 celldm(3) =      3.66406134
Input lattice vectors:
     0.50611186    -0.50611186     1.85442490
     0.50611186     0.50611186     1.85442490
    -0.50611186    -0.50611186     1.85442490
New lattice vectors in INITIAL alat:
     0.50611186    -0.50611186     1.85442490
     0.50611186     0.50611186     1.85442490
    -0.50611186    -0.50611186     1.85442490
New lattice vectors in NEW alat (for information only):
     0.50000000    -0.50000000     1.83203067
     0.50000000     0.50000000     1.83203067
    -0.50000000    -0.50000000     1.83203067
Discrepancy in bohr =     0.000000    0.000000    0.000000
     new conv_thr            =       0.0000000040 Ry

     new unit-cell volume =    180.12129 a.u.^3 (    26.69122 Ang^3 )
     density =      2.61092 g/cm^3

CELL_PARAMETERS (alat=  4.55967891)
   0.506111859  -0.506111859   1.854424895
   0.506111859   0.506111859   1.854424895
  -0.506111859  -0.506111859   1.854424895

ATOMIC_POSITIONS (crystal)
Li           -0.0000000000        0.1730705971        0.1730705971
Li           -0.0000000000        0.8269294029        0.8269294029
Si           -0.0000000000        0.5000000000        0.5000000000



     Writing config-only to output data dir ./output/LiSi.save/
     NEW-OLD atomic charge density approx. for the potential

     negative rho (up, down):  1.138E-08 0.000E+00
     extrapolated charge    9.21146, renormalised to   10.00000

     total cpu time spent up to now is       45.9 secs

     Self-consistent Calculation

     iteration #  1     ecut=    80.00 Ry     beta= 0.70
     Davidson diagonalization with overlap
     ethr =  1.00E-06,  avg # of iterations =  9.2

     total cpu time spent up to now is       49.9 secs

     total energy              =     -37.17429047 Ry
     estimated scf accuracy    <       0.01590068 Ry

     iteration #  2     ecut=    80.00 Ry     beta= 0.70
     Davidson diagonalization with overlap
     ethr =  1.59E-04,  avg # of iterations =  2.0

     total cpu time spent up to now is       51.7 secs

     total energy              =     -37.18231097 Ry
     estimated scf accuracy    <       0.01517818 Ry

     iteration #  3     ecut=    80.00 Ry     beta= 0.70
     Davidson diagonalization with overlap
     ethr =  1.52E-04,  avg # of iterations =  1.4

     total cpu time spent up to now is       53.0 secs

     total energy              =     -37.18491942 Ry
     estimated scf accuracy    <       0.00074464 Ry

     iteration #  4     ecut=    80.00 Ry     beta= 0.70
     Davidson diagonalization with overlap
     ethr =  7.45E-06,  avg # of iterations =  1.4

     total cpu time spent up to now is       54.4 secs

     total energy              =     -37.18497491 Ry
     estimated scf accuracy    <       0.00001848 Ry

     iteration #  5     ecut=    80.00 Ry     beta= 0.70
     Davidson diagonalization with overlap
     ethr =  1.85E-07,  avg # of iterations =  2.1

     total cpu time spent up to now is       55.9 secs

     total energy              =     -37.18497750 Ry
     estimated scf accuracy    <       0.00000086 Ry

     iteration #  6     ecut=    80.00 Ry     beta= 0.70
     Davidson diagonalization with overlap
     ethr =  8.62E-09,  avg # of iterations =  2.0

     total cpu time spent up to now is       57.4 secs

     End of self-consistent calculation

     Number of k-points >= 100: set verbosity='high' to print the bands.

     the Fermi energy is     9.9672 ev

!    total energy              =     -37.18497767 Ry
     estimated scf accuracy    <          3.2E-09 Ry
     smearing contrib. (-TS)   =      -0.00056332 Ry
     internal energy E=F+TS    =     -37.18441435 Ry

     The total energy is F=E-TS. E is the sum of the following terms:
     one-electron contribution =      -7.75251205 Ry
     hartree contribution      =       5.71979482 Ry
     xc contribution           =     -10.31460682 Ry
     ewald contribution        =     -24.83709030 Ry

     convergence has been achieved in   6 iterations

     Forces acting on atoms (cartesian axes, Ry/au):

     atom    1 type  1   force =    -0.00000000    0.00000000   -0.01161731
     atom    2 type  1   force =    -0.00000000    0.00000000    0.01161731
     atom    3 type  2   force =     0.00000000    0.00000000    0.00000000
     The non-local contrib.  to forces
     atom    1 type  1   force =    -0.00000000    0.00000000    0.02463707
     atom    2 type  1   force =    -0.00000000   -0.00000000   -0.02463707
     atom    3 type  2   force =     0.00000000    0.00000000    0.00000000
     The ionic contribution  to forces
     atom    1 type  1   force =    -0.00000000   -0.00000000    0.17492233
     atom    2 type  1   force =    -0.00000000   -0.00000000   -0.17492233
     atom    3 type  2   force =    -0.00000000   -0.00000000    0.00000000
     The local contribution  to forces
     atom    1 type  1   force =     0.00000000   -0.00000000   -0.21114097
     atom    2 type  1   force =     0.00000000    0.00000000    0.21114097
     atom    3 type  2   force =     0.00000000    0.00000000    0.00000000
     The core correction contribution to forces
     atom    1 type  1   force =     0.00000000    0.00000000    0.00000000
     atom    2 type  1   force =     0.00000000    0.00000000    0.00000000
     atom    3 type  2   force =     0.00000000    0.00000000   -0.00000000
     The Hubbard contrib.    to forces
     atom    1 type  1   force =     0.00000000    0.00000000    0.00000000
     atom    2 type  1   force =     0.00000000    0.00000000    0.00000000
     atom    3 type  2   force =     0.00000000    0.00000000    0.00000000
     The SCF correction term to forces
     atom    1 type  1   force =    -0.00000000   -0.00000000   -0.00003574
     atom    2 type  1   force =     0.00000000   -0.00000000    0.00003574
     atom    3 type  2   force =     0.00000000   -0.00000000    0.00000000

     Total force =     0.016429     Total SCF correction =     0.000051


     Computing stress (Cartesian axis) and pressure

          total   stress  (Ry/bohr**3)                   (kbar)     P=      453.34
   0.00341755  -0.00000000  -0.00000000          502.74       -0.00       -0.00
  -0.00000000   0.00341755   0.00000000           -0.00      502.74        0.00
  -0.00000000   0.00000000   0.00241017           -0.00        0.00      354.55

     Energy error            =      1.9E-02 Ry
     Gradient error          =      1.2E-02 Ry/Bohr
     Cell gradient error     =      1.5E+02 kbar

     number of scf cycles    =   4
     number of bfgs steps    =   3

     enthalpy           old  =     -36.5533891489 Ry
     enthalpy           new  =     -36.5727578435 Ry

     CASE: enthalpy          _new < enthalpy          _old

     new trust radius        =       0.0854984943 bohr
ibrav =      7
 celldm(1) =      4.62477012
 celldm(3) =      3.54017559
Input lattice vectors:
     0.50713770    -0.50713770     1.79535650
     0.50713770     0.50713770     1.79535650
    -0.50713770    -0.50713770     1.79535650
New lattice vectors in INITIAL alat:
     0.50713770    -0.50713770     1.79535650
     0.50713770     0.50713770     1.79535650
    -0.50713770    -0.50713770     1.79535650
New lattice vectors in NEW alat (for information only):
     0.50000000    -0.50000000     1.77008779
     0.50000000     0.50000000     1.77008779
    -0.50000000    -0.50000000     1.77008779
Discrepancy in bohr =     0.000000    0.000000    0.000000
     new conv_thr            =       0.0000000012 Ry

     new unit-cell volume =    175.09158 a.u.^3 (    25.94590 Ang^3 )
     density =      2.68592 g/cm^3

CELL_PARAMETERS (alat=  4.55967891)
   0.507137697  -0.507137697   1.795356497
   0.507137697   0.507137697   1.795356497
  -0.507137697  -0.507137697   1.795356497

ATOMIC_POSITIONS (crystal)
Li           -0.0000000000        0.1747001774        0.1747001774
Li            0.0000000000        0.8252998226        0.8252998226
Si            0.0000000000        0.5000000000        0.5000000000



     Writing config-only to output data dir ./output/LiSi.save/
     NEW-OLD atomic charge density approx. for the potential
     extrapolated charge    9.71302, renormalised to   10.00000

     total cpu time spent up to now is       58.4 secs

     Self-consistent Calculation

     iteration #  1     ecut=    80.00 Ry     beta= 0.70
     Davidson diagonalization with overlap
     ethr =  1.00E-06,  avg # of iterations =  7.5

     total cpu time spent up to now is       61.5 secs

     total energy              =     -37.17137870 Ry
     estimated scf accuracy    <       0.00051296 Ry

     iteration #  2     ecut=    80.00 Ry     beta= 0.70
     Davidson diagonalization with overlap
     ethr =  5.13E-06,  avg # of iterations =  2.7

     total cpu time spent up to now is       63.4 secs

     total energy              =     -37.17254040 Ry
     estimated scf accuracy    <       0.00123366 Ry

     iteration #  3     ecut=    80.00 Ry     beta= 0.70
     Davidson diagonalization with overlap
     ethr =  5.13E-06,  avg # of iterations =  1.6

     total cpu time spent up to now is       64.7 secs

     total energy              =     -37.17263134 Ry
     estimated scf accuracy    <       0.00012251 Ry

     iteration #  4     ecut=    80.00 Ry     beta= 0.70
     Davidson diagonalization with overlap
     ethr =  1.23E-06,  avg # of iterations =  1.1

     total cpu time spent up to now is       66.1 secs

     total energy              =     -37.17260564 Ry
     estimated scf accuracy    <       0.00005081 Ry

     iteration #  5     ecut=    80.00 Ry     beta= 0.70
     Davidson diagonalization with overlap
     ethr =  5.08E-07,  avg # of iterations =  1.6

     total cpu time spent up to now is       67.5 secs

     total energy              =     -37.17261338 Ry
     estimated scf accuracy    <       0.00000008 Ry

     iteration #  6     ecut=    80.00 Ry     beta= 0.70
     Davidson diagonalization with overlap
     ethr =  8.22E-10,  avg # of iterations =  4.0

     total cpu time spent up to now is       69.3 secs

     total energy              =     -37.17261355 Ry
     estimated scf accuracy    <       0.00000005 Ry

     iteration #  7     ecut=    80.00 Ry     beta= 0.70
     Davidson diagonalization with overlap
     ethr =  5.44E-10,  avg # of iterations =  1.2

     total cpu time spent up to now is       70.7 secs

     total energy              =     -37.17261355 Ry
     estimated scf accuracy    <          1.5E-09 Ry

     iteration #  8     ecut=    80.00 Ry     beta= 0.70
     Davidson diagonalization with overlap
     ethr =  1.52E-11,  avg # of iterations =  1.9

     total cpu time spent up to now is       72.1 secs

     End of self-consistent calculation

     Number of k-points >= 100: set verbosity='high' to print the bands.

     the Fermi energy is    10.2663 ev

!    total energy              =     -37.17261355 Ry
     estimated scf accuracy    <          1.3E-10 Ry
     smearing contrib. (-TS)   =      -0.00047693 Ry
     internal energy E=F+TS    =     -37.17213662 Ry

     The total energy is F=E-TS. E is the sum of the following terms:
     one-electron contribution =      -7.41808996 Ry
     hartree contribution      =       5.67186123 Ry
     xc contribution           =     -10.34211825 Ry
     ewald contribution        =     -25.08378964 Ry

     convergence has been achieved in   8 iterations

     Forces acting on atoms (cartesian axes, Ry/au):

     atom    1 type  1   force =    -0.00000000   -0.00000000   -0.01066751
     atom    2 type  1   force =     0.00000000    0.00000000    0.01066751
     atom    3 type  2   force =     0.00000000    0.00000000    0.00000000
     The non-local contrib.  to forces
     atom    1 type  1   force =     0.00000000    0.00000000    0.02558079
     atom    2 type  1   force =     0.00000000   -0.00000000   -0.02558079
     atom    3 type  2   force =     0.00000000    0.00000000   -0.00000000
     The ionic contribution  to forces
     atom    1 type  1   force =    -0.00000000   -0.00000000    0.10162739
     atom    2 type  1   force =     0.00000000    0.00000000   -0.10162739
     atom    3 type  2   force =    -0.00000000   -0.00000000    0.00000000
     The local contribution  to forces
     atom    1 type  1   force =     0.00000000   -0.00000000   -0.13786659
     atom    2 type  1   force =     0.00000000    0.00000000    0.13786659
     atom    3 type  2   force =    -0.00000000    0.00000000   -0.00000000
     The core correction contribution to forces
     atom    1 type  1   force =     0.00000000    0.00000000    0.00000000
     atom    2 type  1   force =     0.00000000    0.00000000    0.00000000
     atom    3 type  2   force =    -0.00000000    0.00000000   -0.00000000
     The Hubbard contrib.    to forces
     atom    1 type  1   force =     0.00000000    0.00000000    0.00000000
     atom    2 type  1   force =     0.00000000    0.00000000    0.00000000
     atom    3 type  2   force =     0.00000000    0.00000000    0.00000000
     The SCF correction term to forces
     atom    1 type  1   force =     0.00000000   -0.00000000   -0.00000910
     atom    2 type  1   force =    -0.00000000   -0.00000000    0.00000910
     atom    3 type  2   force =    -0.00000000   -0.00000000   -0.00000000

     Total force =     0.015086     Total SCF correction =     0.000013


     Computing stress (Cartesian axis) and pressure

          total   stress  (Ry/bohr**3)                   (kbar)     P=      500.21
   0.00378666  -0.00000000   0.00000000          557.04       -0.00        0.00
  -0.00000000   0.00378666   0.00000000           -0.00      557.04        0.00
   0.00000000   0.00000000   0.00262782            0.00        0.00      386.57

     Energy error            =      4.7E-03 Ry
     Gradient error          =      1.1E-02 Ry/Bohr
     Cell gradient error     =      1.1E+02 kbar

     number of scf cycles    =   5
     number of bfgs steps    =   4

     enthalpy           old  =     -36.5727578435 Ry
     enthalpy           new  =     -36.5774893693 Ry

     CASE: enthalpy          _new < enthalpy          _old


     WARNING: bfgs curvature condition failed, Theta= 0.973
     new trust radius        =       0.0957766866 bohr
ibrav =      7
 celldm(1) =      4.65353846
 celldm(3) =      3.39096066
Input lattice vectors:
     0.51029234    -0.51029234     1.73038126
     0.51029234     0.51029234     1.73038126
    -0.51029234    -0.51029234     1.73038126
New lattice vectors in INITIAL alat:
     0.51029234    -0.51029234     1.73038126
     0.51029234     0.51029234     1.73038126
    -0.51029234    -0.51029234     1.73038126
New lattice vectors in NEW alat (for information only):
     0.50000000    -0.50000000     1.69548033
     0.50000000     0.50000000     1.69548033
    -0.50000000    -0.50000000     1.69548033
Discrepancy in bohr =     0.000000    0.000000    0.000000
     new conv_thr            =       0.0000000011 Ry

     new unit-cell volume =    170.86090 a.u.^3 (    25.31897 Ang^3 )
     density =      2.75243 g/cm^3

CELL_PARAMETERS (alat=  4.55967891)
   0.510292342  -0.510292342   1.730381259
   0.510292342   0.510292342   1.730381259
  -0.510292342  -0.510292342   1.730381259

ATOMIC_POSITIONS (crystal)
Li           -0.0000000000        0.1762064133        0.1762064133
Li            0.0000000000        0.8237935867        0.8237935867
Si            0.0000000000        0.5000000000        0.5000000000



     Writing config-only to output data dir ./output/LiSi.save/
     NEW-OLD atomic charge density approx. for the potential
     extrapolated charge    9.75263, renormalised to   10.00000

     total cpu time spent up to now is       73.0 secs

     Self-consistent Calculation

     iteration #  1     ecut=    80.00 Ry     beta= 0.70
     Davidson diagonalization with overlap
     c_bands:  1 eigenvalues not converged
     ethr =  1.00E-06,  avg # of iterations =  7.9

     total cpu time spent up to now is       76.3 secs

     total energy              =     -37.16211710 Ry
     estimated scf accuracy    <       0.00041905 Ry

     iteration #  2     ecut=    80.00 Ry     beta= 0.70
     Davidson diagonalization with overlap
     ethr =  4.19E-06,  avg # of iterations =  2.8

     total cpu time spent up to now is       78.1 secs

     total energy              =     -37.16303962 Ry
     estimated scf accuracy    <       0.00102957 Ry

     iteration #  3     ecut=    80.00 Ry     beta= 0.70
     Davidson diagonalization with overlap
     ethr =  4.19E-06,  avg # of iterations =  1.6

     total cpu time spent up to now is       79.5 secs

     total energy              =     -37.16310258 Ry
     estimated scf accuracy    <       0.00011533 Ry

     iteration #  4     ecut=    80.00 Ry     beta= 0.70
     Davidson diagonalization with overlap
     ethr =  1.15E-06,  avg # of iterations =  1.1

     total cpu time spent up to now is       80.8 secs

     total energy              =     -37.16308306 Ry
     estimated scf accuracy    <       0.00004185 Ry

     iteration #  5     ecut=    80.00 Ry     beta= 0.70
     Davidson diagonalization with overlap
     ethr =  4.18E-07,  avg # of iterations =  1.6

     total cpu time spent up to now is       82.2 secs

     total energy              =     -37.16308939 Ry
     estimated scf accuracy    <       0.00000016 Ry

     iteration #  6     ecut=    80.00 Ry     beta= 0.70
     Davidson diagonalization with overlap
     ethr =  1.64E-09,  avg # of iterations =  3.6

     total cpu time spent up to now is       83.9 secs

     total energy              =     -37.16308957 Ry
     estimated scf accuracy    <       0.00000004 Ry

     iteration #  7     ecut=    80.00 Ry     beta= 0.70
     Davidson diagonalization with overlap
     ethr =  3.76E-10,  avg # of iterations =  1.4

     total cpu time spent up to now is       85.3 secs

     End of self-consistent calculation

     Number of k-points >= 100: set verbosity='high' to print the bands.

     the Fermi energy is    10.4671 ev

!    total energy              =     -37.16308957 Ry
     estimated scf accuracy    <          7.7E-10 Ry
     smearing contrib. (-TS)   =      -0.00043614 Ry
     internal energy E=F+TS    =     -37.16265343 Ry

     The total energy is F=E-TS. E is the sum of the following terms:
     one-electron contribution =      -7.13720959 Ry
     hartree contribution      =       5.63625227 Ry
     xc contribution           =     -10.36555419 Ry
     ewald contribution        =     -25.29614193 Ry

     convergence has been achieved in   7 iterations

     Forces acting on atoms (cartesian axes, Ry/au):

     atom    1 type  1   force =    -0.00000000   -0.00000000   -0.00845866
     atom    2 type  1   force =    -0.00000000    0.00000000    0.00845866
     atom    3 type  2   force =    -0.00000000    0.00000000   -0.00000000
     The non-local contrib.  to forces
     atom    1 type  1   force =     0.00000000    0.00000000    0.02483811
     atom    2 type  1   force =    -0.00000000   -0.00000000   -0.02483811
     atom    3 type  2   force =    -0.00000000    0.00000000    0.00000000
     The ionic contribution  to forces
     atom    1 type  1   force =     0.00000000   -0.00000000    0.03782994
     atom    2 type  1   force =    -0.00000000   -0.00000000   -0.03782994
     atom    3 type  2   force =    -0.00000000   -0.00000000    0.00000000
     The local contribution  to forces
     atom    1 type  1   force =     0.00000000   -0.00000000   -0.07110440
     atom    2 type  1   force =     0.00000000    0.00000000    0.07110440
     atom    3 type  2   force =    -0.00000000    0.00000000    0.00000000
     The core correction contribution to forces
     atom    1 type  1   force =     0.00000000    0.00000000    0.00000000
     atom    2 type  1   force =     0.00000000    0.00000000    0.00000000
     atom    3 type  2   force =    -0.00000000    0.00000000    0.00000000
     The Hubbard contrib.    to forces
     atom    1 type  1   force =     0.00000000    0.00000000    0.00000000
     atom    2 type  1   force =     0.00000000    0.00000000    0.00000000
     atom    3 type  2   force =     0.00000000    0.00000000    0.00000000
     The SCF correction term to forces
     atom    1 type  1   force =    -0.00000000    0.00000000   -0.00002231
     atom    2 type  1   force =    -0.00000000   -0.00000000    0.00002231
     atom    3 type  2   force =    -0.00000000    0.00000000    0.00000000

     Total force =     0.011962     Total SCF correction =     0.000032


     Computing stress (Cartesian axis) and pressure

          total   stress  (Ry/bohr**3)                   (kbar)     P=      544.33
   0.00410521  -0.00000000   0.00000000          603.90       -0.00        0.00
  -0.00000000   0.00410521   0.00000000           -0.00      603.90        0.00
  -0.00000000   0.00000000   0.00289041           -0.00        0.00      425.19

     Energy error            =      4.9E-03 Ry
     Gradient error          =      8.5E-03 Ry/Bohr
     Cell gradient error     =      1.0E+02 kbar

     number of scf cycles    =   6
     number of bfgs steps    =   5

     enthalpy           old  =     -36.5774893693 Ry
     enthalpy           new  =     -36.5823451890 Ry

     CASE: enthalpy          _new < enthalpy          _old

     new trust radius        =       0.1472477515 bohr
ibrav =      7
 celldm(1) =      4.71530315
 celldm(3) =      3.15805086
Input lattice vectors:
     0.51706526    -0.51706526     1.63291840
     0.51706526     0.51706526     1.63291840
    -0.51706526    -0.51706526     1.63291840
New lattice vectors in INITIAL alat:
     0.51706526    -0.51706526     1.63291840
     0.51706526     0.51706526     1.63291840
    -0.51706526    -0.51706526     1.63291840
New lattice vectors in NEW alat (for information only):
     0.50000000    -0.50000000     1.57902543
     0.50000000     0.50000000     1.57902543
    -0.50000000    -0.50000000     1.57902543
Discrepancy in bohr =     0.000000    0.000000    0.000000
     new conv_thr            =       0.0000000008 Ry

     new unit-cell volume =    165.54573 a.u.^3 (    24.53135 Ang^3 )
     density =      2.84080 g/cm^3

CELL_PARAMETERS (alat=  4.55967891)
   0.517065264  -0.517065264   1.632918401
   0.517065264   0.517065264   1.632918401
  -0.517065264  -0.517065264   1.632918401

ATOMIC_POSITIONS (crystal)
Li           -0.0000000000        0.1782925704        0.1782925704
Li           -0.0000000000        0.8217074296        0.8217074296
Si           -0.0000000000        0.5000000000        0.5000000000



     Writing config-only to output data dir ./output/LiSi.save/
     NEW-OLD atomic charge density approx. for the potential
     extrapolated charge    9.67924, renormalised to   10.00000

     total cpu time spent up to now is       86.3 secs

     Self-consistent Calculation

     iteration #  1     ecut=    80.00 Ry     beta= 0.70
     Davidson diagonalization with overlap
     c_bands:  1 eigenvalues not converged
     ethr =  1.00E-06,  avg # of iterations =  9.3

     total cpu time spent up to now is       89.8 secs

     total energy              =     -37.14863184 Ry
     estimated scf accuracy    <       0.00094657 Ry

     iteration #  2     ecut=    80.00 Ry     beta= 0.70
     Davidson diagonalization with overlap
     ethr =  9.47E-06,  avg # of iterations =  2.7

     total cpu time spent up to now is       91.7 secs

     total energy              =     -37.15038492 Ry
     estimated scf accuracy    <       0.00163498 Ry

     iteration #  3     ecut=    80.00 Ry     beta= 0.70
     Davidson diagonalization with overlap
     ethr =  9.47E-06,  avg # of iterations =  1.6

     total cpu time spent up to now is       93.0 secs

     total energy              =     -37.15047370 Ry
     estimated scf accuracy    <       0.00018657 Ry

     iteration #  4     ecut=    80.00 Ry     beta= 0.70
     Davidson diagonalization with overlap
     ethr =  1.87E-06,  avg # of iterations =  1.3

     total cpu time spent up to now is       94.4 secs

     total energy              =     -37.15044978 Ry
     estimated scf accuracy    <       0.00005387 Ry

     iteration #  5     ecut=    80.00 Ry     beta= 0.70
     Davidson diagonalization with overlap
     ethr =  5.39E-07,  avg # of iterations =  1.8

     total cpu time spent up to now is       95.8 secs

     total energy              =     -37.15045946 Ry
     estimated scf accuracy    <       0.00000002 Ry

     iteration #  6     ecut=    80.00 Ry     beta= 0.70
     Davidson diagonalization with overlap
     ethr =  2.49E-10,  avg # of iterations =  4.3

     total cpu time spent up to now is       97.8 secs

     total energy              =     -37.15045963 Ry
     estimated scf accuracy    <       0.00000006 Ry

     iteration #  7     ecut=    80.00 Ry     beta= 0.70
     Davidson diagonalization with overlap
     ethr =  2.49E-10,  avg # of iterations =  2.0

     total cpu time spent up to now is       99.3 secs

     End of self-consistent calculation

     Number of k-points >= 100: set verbosity='high' to print the bands.

     the Fermi energy is    10.6346 ev

!    total energy              =     -37.15045964 Ry
     estimated scf accuracy    <          1.0E-10 Ry
     smearing contrib. (-TS)   =       0.00007990 Ry
     internal energy E=F+TS    =     -37.15053954 Ry

     The total energy is F=E-TS. E is the sum of the following terms:
     one-electron contribution =      -6.79001014 Ry
     hartree contribution      =       5.60277257 Ry
     xc contribution           =     -10.39582338 Ry
     ewald contribution        =     -25.56747859 Ry

     convergence has been achieved in   7 iterations

     Forces acting on atoms (cartesian axes, Ry/au):

     atom    1 type  1   force =     0.00000000    0.00000000   -0.00742736
     atom    2 type  1   force =    -0.00000000    0.00000000    0.00742736
     atom    3 type  2   force =    -0.00000000   -0.00000000    0.00000000
     The non-local contrib.  to forces
     atom    1 type  1   force =     0.00000000    0.00000000    0.01575282
     atom    2 type  1   force =     0.00000000    0.00000000   -0.01575282
     atom    3 type  2   force =     0.00000000    0.00000000    0.00000000
     The ionic contribution  to forces
     atom    1 type  1   force =    -0.00000000   -0.00000000   -0.04323781
     atom    2 type  1   force =     0.00000000   -0.00000000    0.04323781
     atom    3 type  2   force =     0.00000000   -0.00000000    0.00000000
     The local contribution  to forces
     atom    1 type  1   force =     0.00000000   -0.00000000    0.02006346
     atom    2 type  1   force =     0.00000000    0.00000000   -0.02006346
     atom    3 type  2   force =    -0.00000000    0.00000000    0.00000000
     The core correction contribution to forces
     atom    1 type  1   force =     0.00000000    0.00000000    0.00000000
     atom    2 type  1   force =     0.00000000    0.00000000    0.00000000
     atom    3 type  2   force =    -0.00000000    0.00000000    0.00000000
     The Hubbard contrib.    to forces
     atom    1 type  1   force =     0.00000000    0.00000000    0.00000000
     atom    2 type  1   force =     0.00000000    0.00000000    0.00000000
     atom    3 type  2   force =     0.00000000    0.00000000    0.00000000
     The SCF correction term to forces
     atom    1 type  1   force =    -0.00000000    0.00000000   -0.00000583
     atom    2 type  1   force =     0.00000000   -0.00000000    0.00000583
     atom    3 type  2   force =     0.00000000    0.00000000    0.00000000

     Total force =     0.010504     Total SCF correction =     0.000008


     Computing stress (Cartesian axis) and pressure

          total   stress  (Ry/bohr**3)                   (kbar)     P=      605.80
   0.00438420   0.00000000   0.00000000          644.94        0.00        0.00
   0.00000000   0.00438420  -0.00000000            0.00      644.94       -0.00
   0.00000000  -0.00000000   0.00358595            0.00       -0.00      527.51

     Energy error            =      5.4E-03 Ry
     Gradient error          =      7.4E-03 Ry/Bohr
     Cell gradient error     =      1.4E+02 kbar

     number of scf cycles    =   7
     number of bfgs steps    =   6

     enthalpy           old  =     -36.5823451890 Ry
     enthalpy           new  =     -36.5877811418 Ry

     CASE: enthalpy          _new < enthalpy          _old

     new trust radius        =       0.0691063075 bohr
ibrav =      7
 celldm(1) =      4.78116418
 celldm(3) =      3.03090651
Input lattice vectors:
     0.52428738    -0.52428738     1.58906602
     0.52428738     0.52428738     1.58906602
    -0.52428738    -0.52428738     1.58906602
New lattice vectors in INITIAL alat:
     0.52428738    -0.52428738     1.58906602
     0.52428738     0.52428738     1.58906602
    -0.52428738    -0.52428738     1.58906602
New lattice vectors in NEW alat (for information only):
     0.50000000    -0.50000000     1.51545325
     0.50000000     0.50000000     1.51545325
    -0.50000000    -0.50000000     1.51545325
Discrepancy in bohr =     0.000000    0.000000    0.000000
     new conv_thr            =       0.0000000007 Ry

     new unit-cell volume =    165.63172 a.u.^3 (    24.54409 Ang^3 )
     density =      2.83933 g/cm^3

CELL_PARAMETERS (alat=  4.55967891)
   0.524287376  -0.524287376   1.589066020
   0.524287376   0.524287376   1.589066020
  -0.524287376  -0.524287376   1.589066020

ATOMIC_POSITIONS (crystal)
Li           -0.0000000000        0.1767447821        0.1767447821
Li           -0.0000000000        0.8232552179        0.8232552179
Si            0.0000000000        0.5000000000        0.5000000000



     Writing config-only to output data dir ./output/LiSi.save/
     NEW-OLD atomic charge density approx. for the potential
     extrapolated charge   10.00519, renormalised to   10.00000

     total cpu time spent up to now is      100.3 secs

     Self-consistent Calculation

     iteration #  1     ecut=    80.00 Ry     beta= 0.70
     Davidson diagonalization with overlap
     ethr =  1.00E-06,  avg # of iterations =  8.0

     total cpu time spent up to now is      103.4 secs

     total energy              =     -37.15332431 Ry
     estimated scf accuracy    <       0.00002650 Ry

     iteration #  2     ecut=    80.00 Ry     beta= 0.70
     Davidson diagonalization with overlap
     ethr =  2.65E-07,  avg # of iterations =  2.0

     total cpu time spent up to now is      104.8 secs

     total energy              =     -37.15333239 Ry
     estimated scf accuracy    <       0.00001052 Ry

     iteration #  3     ecut=    80.00 Ry     beta= 0.70
     Davidson diagonalization with overlap
     ethr =  1.05E-07,  avg # of iterations =  1.8

     total cpu time spent up to now is      106.3 secs

     total energy              =     -37.15333435 Ry
     estimated scf accuracy    <       0.00000011 Ry

     iteration #  4     ecut=    80.00 Ry     beta= 0.70
     Davidson diagonalization with overlap
     ethr =  1.06E-09,  avg # of iterations =  2.1

     total cpu time spent up to now is      107.7 secs

     total energy              =     -37.15333436 Ry
     estimated scf accuracy    <          8.7E-09 Ry

     iteration #  5     ecut=    80.00 Ry     beta= 0.70
     Davidson diagonalization with overlap
     ethr =  8.66E-11,  avg # of iterations =  2.0

     total cpu time spent up to now is      109.1 secs

     End of self-consistent calculation

     Number of k-points >= 100: set verbosity='high' to print the bands.

     the Fermi energy is    10.4265 ev

!    total energy              =     -37.15333437 Ry
     estimated scf accuracy    <          1.4E-10 Ry
     smearing contrib. (-TS)   =       0.00028846 Ry
     internal energy E=F+TS    =     -37.15362283 Ry

     The total energy is F=E-TS. E is the sum of the following terms:
     one-electron contribution =      -6.80452952 Ry
     hartree contribution      =       5.60888308 Ry
     xc contribution           =     -10.39379836 Ry
     ewald contribution        =     -25.56417803 Ry

     convergence has been achieved in   5 iterations

     Forces acting on atoms (cartesian axes, Ry/au):

     atom    1 type  1   force =    -0.00000000   -0.00000000   -0.00017744
     atom    2 type  1   force =     0.00000000   -0.00000000    0.00017744
     atom    3 type  2   force =     0.00000000    0.00000000    0.00000000
     The non-local contrib.  to forces
     atom    1 type  1   force =     0.00000000   -0.00000000    0.00761301
     atom    2 type  1   force =    -0.00000000    0.00000000   -0.00761301
     atom    3 type  2   force =     0.00000000    0.00000000    0.00000000
     The ionic contribution  to forces
     atom    1 type  1   force =    -0.00000000   -0.00000000   -0.00255946
     atom    2 type  1   force =    -0.00000000   -0.00000000    0.00255946
     atom    3 type  2   force =     0.00000000   -0.00000000   -0.00000000
     The local contribution  to forces
     atom    1 type  1   force =     0.00000000   -0.00000000   -0.00522241
     atom    2 type  1   force =     0.00000000    0.00000000    0.00522241
     atom    3 type  2   force =    -0.00000000    0.00000000    0.00000000
     The core correction contribution to forces
     atom    1 type  1   force =     0.00000000    0.00000000    0.00000000
     atom    2 type  1   force =     0.00000000    0.00000000    0.00000000
     atom    3 type  2   force =    -0.00000000    0.00000000    0.00000000
     The Hubbard contrib.    to forces
     atom    1 type  1   force =     0.00000000    0.00000000    0.00000000
     atom    2 type  1   force =     0.00000000    0.00000000    0.00000000
     atom    3 type  2   force =     0.00000000    0.00000000    0.00000000
     The SCF correction term to forces
     atom    1 type  1   force =    -0.00000000    0.00000000   -0.00000858
     atom    2 type  1   force =     0.00000000   -0.00000000    0.00000858
     atom    3 type  2   force =     0.00000000    0.00000000    0.00000000

     Total force =     0.000251     Total SCF correction =     0.000012


     Computing stress (Cartesian axis) and pressure

          total   stress  (Ry/bohr**3)                   (kbar)     P=      607.15
   0.00420560  -0.00000000  -0.00000000          618.67       -0.00       -0.00
  -0.00000000   0.00420560  -0.00000000           -0.00      618.67       -0.00
  -0.00000000  -0.00000000   0.00397066           -0.00       -0.00      584.10

     Energy error            =      2.6E-03 Ry
     Gradient error          =      1.8E-04 Ry/Bohr
     Cell gradient error     =      1.2E+02 kbar

     number of scf cycles    =   8
     number of bfgs steps    =   7

     enthalpy           old  =     -36.5877811418 Ry
     enthalpy           new  =     -36.5903635873 Ry

     CASE: enthalpy          _new < enthalpy          _old

     new trust radius        =       0.0517220494 bohr
ibrav =      7
 celldm(1) =      4.83739863
 celldm(3) =      3.01622265
Input lattice vectors:
     0.53045387    -0.53045387     1.59996697
     0.53045387     0.53045387     1.59996697
    -0.53045387    -0.53045387     1.59996697
New lattice vectors in INITIAL alat:
     0.53045387    -0.53045387     1.59996697
     0.53045387     0.53045387     1.59996697
    -0.53045387    -0.53045387     1.59996697
New lattice vectors in NEW alat (for information only):
     0.50000000    -0.50000000     1.50811133
     0.50000000     0.50000000     1.50811133
    -0.50000000    -0.50000000     1.50811133
Discrepancy in bohr =     0.000000    0.000000    0.000000
     new conv_thr            =            1.0E-10 Ry

     new unit-cell volume =    170.71396 a.u.^3 (    25.29720 Ang^3 )
     density =      2.75480 g/cm^3

CELL_PARAMETERS (alat=  4.55967891)
   0.530453868  -0.530453868   1.599966972
   0.530453868   0.530453868   1.599966972
  -0.530453868  -0.530453868   1.599966972

ATOMIC_POSITIONS (crystal)
Li           -0.0000000000        0.1731755933        0.1731755933
Li           -0.0000000000        0.8268244067        0.8268244067
Si           -0.0000000000        0.5000000000        0.5000000000



     Writing config-only to output data dir ./output/LiSi.save/
     NEW-OLD atomic charge density approx. for the potential
     extrapolated charge   10.29742, renormalised to   10.00000

     total cpu time spent up to now is      110.1 secs

     Self-consistent Calculation

     iteration #  1     ecut=    80.00 Ry     beta= 0.70
     Davidson diagonalization with overlap
     ethr =  1.00E-06,  avg # of iterations =  6.8

     total cpu time spent up to now is      113.1 secs

     total energy              =     -37.17091486 Ry
     estimated scf accuracy    <       0.00146836 Ry

     iteration #  2     ecut=    80.00 Ry     beta= 0.70
     Davidson diagonalization with overlap
     ethr =  1.47E-05,  avg # of iterations =  2.3

     total cpu time spent up to now is      114.8 secs

     total energy              =     -37.17267964 Ry
     estimated scf accuracy    <       0.00142458 Ry

     iteration #  3     ecut=    80.00 Ry     beta= 0.70
     Davidson diagonalization with overlap
     ethr =  1.42E-05,  avg # of iterations =  1.3

     total cpu time spent up to now is      116.2 secs

     total energy              =     -37.17281180 Ry
     estimated scf accuracy    <       0.00011619 Ry

     iteration #  4     ecut=    80.00 Ry     beta= 0.70
     Davidson diagonalization with overlap
     ethr =  1.16E-06,  avg # of iterations =  1.3

     total cpu time spent up to now is      117.6 secs

     total energy              =     -37.17277379 Ry
     estimated scf accuracy    <       0.00006768 Ry

     iteration #  5     ecut=    80.00 Ry     beta= 0.70
     Davidson diagonalization with overlap
     ethr =  6.77E-07,  avg # of iterations =  1.7

     total cpu time spent up to now is      118.9 secs

     total energy              =     -37.17278306 Ry
     estimated scf accuracy    <       0.00000058 Ry

     iteration #  6     ecut=    80.00 Ry     beta= 0.70
     Davidson diagonalization with overlap
     ethr =  5.84E-09,  avg # of iterations =  2.7

     total cpu time spent up to now is      120.5 secs

     total energy              =     -37.17278326 Ry
     estimated scf accuracy    <       0.00000008 Ry

     iteration #  7     ecut=    80.00 Ry     beta= 0.70
     Davidson diagonalization with overlap
     ethr =  7.82E-10,  avg # of iterations =  1.7

     total cpu time spent up to now is      121.9 secs

     total energy              =     -37.17278327 Ry
     estimated scf accuracy    <          6.5E-09 Ry

     iteration #  8     ecut=    80.00 Ry     beta= 0.70
     Davidson diagonalization with overlap
     ethr =  6.55E-11,  avg # of iterations =  2.4

     total cpu time spent up to now is      123.4 secs

     total energy              =     -37.17278327 Ry
     estimated scf accuracy    <          3.6E-10 Ry

     iteration #  9     ecut=    80.00 Ry     beta= 0.70
     Davidson diagonalization with overlap
     ethr =  3.61E-12,  avg # of iterations =  2.0

     total cpu time spent up to now is      124.8 secs

     End of self-consistent calculation

     Number of k-points >= 100: set verbosity='high' to print the bands.

     the Fermi energy is    10.0157 ev

!    total energy              =     -37.17278327 Ry
     estimated scf accuracy    <          1.9E-12 Ry
     smearing contrib. (-TS)   =       0.00028037 Ry
     internal energy E=F+TS    =     -37.17306364 Ry

     The total energy is F=E-TS. E is the sum of the following terms:
     one-electron contribution =      -7.16132875 Ry
     hartree contribution      =       5.65166971 Ry
     xc contribution           =     -10.36090489 Ry
     ewald contribution        =     -25.30249971 Ry

     convergence has been achieved in   9 iterations

     Forces acting on atoms (cartesian axes, Ry/au):

     atom    1 type  1   force =     0.00000000    0.00000000    0.01138531
     atom    2 type  1   force =    -0.00000000   -0.00000000   -0.01138531
     atom    3 type  2   force =     0.00000000    0.00000000    0.00000000
     The non-local contrib.  to forces
     atom    1 type  1   force =    -0.00000000    0.00000000    0.00934589
     atom    2 type  1   force =     0.00000000   -0.00000000   -0.00934589
     atom    3 type  2   force =     0.00000000    0.00000000    0.00000000
     The ionic contribution  to forces
     atom    1 type  1   force =    -0.00000000   -0.00000000    0.10745627
     atom    2 type  1   force =    -0.00000000   -0.00000000   -0.10745627
     atom    3 type  2   force =    -0.00000000   -0.00000000   -0.00000000
     The local contribution  to forces
     atom    1 type  1   force =     0.00000000   -0.00000000   -0.10541800
     atom    2 type  1   force =     0.00000000    0.00000000    0.10541800
     atom    3 type  2   force =    -0.00000000    0.00000000    0.00000000
     The core correction contribution to forces
     atom    1 type  1   force =     0.00000000    0.00000000    0.00000000
     atom    2 type  1   force =     0.00000000    0.00000000    0.00000000
     atom    3 type  2   force =    -0.00000000    0.00000000    0.00000000
     The Hubbard contrib.    to forces
     atom    1 type  1   force =     0.00000000    0.00000000    0.00000000
     atom    2 type  1   force =     0.00000000    0.00000000    0.00000000
     atom    3 type  2   force =     0.00000000    0.00000000    0.00000000
     The SCF correction term to forces
     atom    1 type  1   force =     0.00000000   -0.00000000    0.00000115
     atom    2 type  1   force =     0.00000000   -0.00000000   -0.00000115
     atom    3 type  2   force =     0.00000000   -0.00000000   -0.00000000

     Total force =     0.016101     Total SCF correction =     0.000002


     Computing stress (Cartesian axis) and pressure

          total   stress  (Ry/bohr**3)                   (kbar)     P=      547.88
   0.00378319  -0.00000000  -0.00000000          556.53       -0.00       -0.00
  -0.00000000   0.00378319   0.00000000           -0.00      556.53        0.00
   0.00000000   0.00000000   0.00360684            0.00        0.00      530.58

     Energy error            =      2.2E-03 Ry
     Gradient error          =      1.1E-02 Ry/Bohr
     Cell gradient error     =      5.7E+01 kbar

     number of scf cycles    =   9
     number of bfgs steps    =   8

     enthalpy           old  =     -36.5903635873 Ry
     enthalpy           new  =     -36.5925383188 Ry

     CASE: enthalpy          _new < enthalpy          _old

     new trust radius        =       0.0211776562 bohr
ibrav =      7
 celldm(1) =      4.87660216
 celldm(3) =      2.97805923
Input lattice vectors:
     0.53475280    -0.53475280     1.59252552
     0.53475280     0.53475280     1.59252552
    -0.53475280    -0.53475280     1.59252552
New lattice vectors in INITIAL alat:
     0.53475280    -0.53475280     1.59252552
     0.53475280     0.53475280     1.59252552
    -0.53475280    -0.53475280     1.59252552
New lattice vectors in NEW alat (for information only):
     0.50000000    -0.50000000     1.48902961
     0.50000000     0.50000000     1.48902961
    -0.50000000    -0.50000000     1.48902961
Discrepancy in bohr =     0.000000    0.000000    0.000000
     new conv_thr            =       0.0000000011 Ry

     new unit-cell volume =    172.68528 a.u.^3 (    25.58932 Ang^3 )
     density =      2.72335 g/cm^3

CELL_PARAMETERS (alat=  4.55967891)
   0.534752804  -0.534752804   1.592525523
   0.534752804   0.534752804   1.592525523
  -0.534752804  -0.534752804   1.592525523

ATOMIC_POSITIONS (crystal)
Li           -0.0000000000        0.1739708290        0.1739708290
Li           -0.0000000000        0.8260291710        0.8260291710
Si           -0.0000000000        0.5000000000        0.5000000000



     Writing config-only to output data dir ./output/LiSi.save/
     NEW-OLD atomic charge density approx. for the potential
     extrapolated charge   10.11405, renormalised to   10.00000

     total cpu time spent up to now is      126.0 secs

     Self-consistent Calculation

     iteration #  1     ecut=    80.00 Ry     beta= 0.70
     Davidson diagonalization with overlap
     ethr =  1.00E-06,  avg # of iterations =  5.7

     total cpu time spent up to now is      128.5 secs

     total energy              =     -37.18015695 Ry
     estimated scf accuracy    <       0.00004979 Ry

     iteration #  2     ecut=    80.00 Ry     beta= 0.70
     Davidson diagonalization with overlap
     ethr =  4.98E-07,  avg # of iterations =  2.8

     total cpu time spent up to now is      130.3 secs

     total energy              =     -37.18031455 Ry
     estimated scf accuracy    <       0.00004460 Ry

     iteration #  3     ecut=    80.00 Ry     beta= 0.70
     Davidson diagonalization with overlap
     ethr =  4.46E-07,  avg # of iterations =  1.0

     total cpu time spent up to now is      131.6 secs

     total energy              =     -37.18031423 Ry
     estimated scf accuracy    <       0.00000853 Ry

     iteration #  4     ecut=    80.00 Ry     beta= 0.70
     Davidson diagonalization with overlap
     ethr =  8.53E-08,  avg # of iterations =  1.0

     total cpu time spent up to now is      132.9 secs

     total energy              =     -37.18031243 Ry
     estimated scf accuracy    <       0.00000307 Ry

     iteration #  5     ecut=    80.00 Ry     beta= 0.70
     Davidson diagonalization with overlap
     ethr =  3.07E-08,  avg # of iterations =  2.0

     total cpu time spent up to now is      134.4 secs

     total energy              =     -37.18031309 Ry
     estimated scf accuracy    <       0.00000015 Ry

     iteration #  6     ecut=    80.00 Ry     beta= 0.70
     Davidson diagonalization with overlap
     ethr =  1.52E-09,  avg # of iterations =  1.7

     total cpu time spent up to now is      135.7 secs

     total energy              =     -37.18031311 Ry
     estimated scf accuracy    <          1.3E-09 Ry

     iteration #  7     ecut=    80.00 Ry     beta= 0.70
     Davidson diagonalization with overlap
     ethr =  1.35E-11,  avg # of iterations =  3.4

     total cpu time spent up to now is      137.4 secs

     End of self-consistent calculation

     Number of k-points >= 100: set verbosity='high' to print the bands.

     the Fermi energy is     9.8399 ev

!    total energy              =     -37.18031311 Ry
     estimated scf accuracy    <          3.8E-10 Ry
     smearing contrib. (-TS)   =       0.00029102 Ry
     internal energy E=F+TS    =     -37.18060414 Ry

     The total energy is F=E-TS. E is the sum of the following terms:
     one-electron contribution =      -7.29692524 Ry
     hartree contribution      =       5.66982596 Ry
     xc contribution           =     -10.34546641 Ry
     ewald contribution        =     -25.20803845 Ry

     convergence has been achieved in   7 iterations

     Forces acting on atoms (cartesian axes, Ry/au):

     atom    1 type  1   force =     0.00000000    0.00000000    0.00709250
     atom    2 type  1   force =    -0.00000000    0.00000000   -0.00709250
     atom    3 type  2   force =     0.00000000    0.00000000    0.00000000
     The non-local contrib.  to forces
     atom    1 type  1   force =    -0.00000000   -0.00000000    0.00744866
     atom    2 type  1   force =     0.00000000    0.00000000   -0.00744866
     atom    3 type  2   force =    -0.00000000    0.00000000    0.00000000
     The ionic contribution  to forces
     atom    1 type  1   force =    -0.00000000   -0.00000000    0.07576576
     atom    2 type  1   force =    -0.00000000   -0.00000000   -0.07576576
     atom    3 type  2   force =    -0.00000000   -0.00000000   -0.00000000
     The local contribution  to forces
     atom    1 type  1   force =     0.00000000   -0.00000000   -0.07611364
     atom    2 type  1   force =     0.00000000    0.00000000    0.07611364
     atom    3 type  2   force =    -0.00000000    0.00000000    0.00000000
     The core correction contribution to forces
     atom    1 type  1   force =     0.00000000    0.00000000    0.00000000
     atom    2 type  1   force =     0.00000000    0.00000000    0.00000000
     atom    3 type  2   force =    -0.00000000    0.00000000    0.00000000
     The Hubbard contrib.    to forces
     atom    1 type  1   force =     0.00000000    0.00000000    0.00000000
     atom    2 type  1   force =     0.00000000    0.00000000    0.00000000
     atom    3 type  2   force =     0.00000000    0.00000000    0.00000000
     The SCF correction term to forces
     atom    1 type  1   force =    -0.00000000    0.00000000   -0.00000829
     atom    2 type  1   force =     0.00000000    0.00000000    0.00000829
     atom    3 type  2   force =    -0.00000000    0.00000000   -0.00000000

     Total force =     0.010030     Total SCF correction =     0.000012


     Computing stress (Cartesian axis) and pressure

          total   stress  (Ry/bohr**3)                   (kbar)     P=      521.84
   0.00355946   0.00000000   0.00000000          523.61        0.00        0.00
   0.00000000   0.00355946  -0.00000000            0.00      523.61       -0.00
   0.00000000  -0.00000000   0.00352331            0.00       -0.00      518.30

     Energy error            =      8.3E-04 Ry
     Gradient error          =      7.1E-03 Ry/Bohr
     Cell gradient error     =      2.4E+01 kbar

     number of scf cycles    =  10
     number of bfgs steps    =   9

     enthalpy           old  =     -36.5925383188 Ry
     enthalpy           new  =     -36.5933677806 Ry

     CASE: enthalpy          _new < enthalpy          _old

     new trust radius        =       0.0194671302 bohr
ibrav =      7
 celldm(1) =      4.89865848
 celldm(3) =      2.96304853
Input lattice vectors:
     0.53717143    -0.53717143     1.59166502
     0.53717143     0.53717143     1.59166502
    -0.53717143    -0.53717143     1.59166502
New lattice vectors in INITIAL alat:
     0.53717143    -0.53717143     1.59166502
     0.53717143     0.53717143     1.59166502
    -0.53717143    -0.53717143     1.59166502
New lattice vectors in NEW alat (for information only):
     0.50000000    -0.50000000     1.48152427
     0.50000000     0.50000000     1.48152427
    -0.50000000    -0.50000000     1.48152427
Discrepancy in bohr =     0.000000    0.000000    0.000000
     new conv_thr            =       0.0000000007 Ry

     new unit-cell volume =    174.15673 a.u.^3 (    25.80736 Ang^3 )
     density =      2.70034 g/cm^3

CELL_PARAMETERS (alat=  4.55967891)
   0.537171430  -0.537171430   1.591665017
   0.537171430   0.537171430   1.591665017
  -0.537171430  -0.537171430   1.591665017

ATOMIC_POSITIONS (crystal)
Li           -0.0000000000        0.1753112810        0.1753112810
Li           -0.0000000000        0.8246887190        0.8246887190
Si            0.0000000000        0.5000000000        0.5000000000



     Writing config-only to output data dir ./output/LiSi.save/
     NEW-OLD atomic charge density approx. for the potential
     extrapolated charge   10.08441, renormalised to   10.00000

     total cpu time spent up to now is      138.6 secs

     Self-consistent Calculation

     iteration #  1     ecut=    80.00 Ry     beta= 0.70
     Davidson diagonalization with overlap
     ethr =  1.00E-06,  avg # of iterations =  4.3

     total cpu time spent up to now is      141.0 secs

     total energy              =     -37.18551560 Ry
     estimated scf accuracy    <       0.00004976 Ry

     iteration #  2     ecut=    80.00 Ry     beta= 0.70
     Davidson diagonalization with overlap
     ethr =  4.98E-07,  avg # of iterations =  2.0

     total cpu time spent up to now is      142.6 secs

     total energy              =     -37.18559922 Ry
     estimated scf accuracy    <       0.00001550 Ry

     iteration #  3     ecut=    80.00 Ry     beta= 0.70
     Davidson diagonalization with overlap
     ethr =  1.55E-07,  avg # of iterations =  1.1

     total cpu time spent up to now is      143.8 secs

     total energy              =     -37.18559935 Ry
     estimated scf accuracy    <       0.00000229 Ry

     iteration #  4     ecut=    80.00 Ry     beta= 0.70
     Davidson diagonalization with overlap
     ethr =  2.29E-08,  avg # of iterations =  1.0

     total cpu time spent up to now is      145.1 secs

     total energy              =     -37.18559906 Ry
     estimated scf accuracy    <       0.00000074 Ry

     iteration #  5     ecut=    80.00 Ry     beta= 0.70
     Davidson diagonalization with overlap
     ethr =  7.36E-09,  avg # of iterations =  2.0

     total cpu time spent up to now is      146.6 secs

     total energy              =     -37.18559921 Ry
     estimated scf accuracy    <       0.00000005 Ry

     iteration #  6     ecut=    80.00 Ry     beta= 0.70
     Davidson diagonalization with overlap
     ethr =  5.19E-10,  avg # of iterations =  1.2

     total cpu time spent up to now is      147.9 secs

     total energy              =     -37.18559922 Ry
     estimated scf accuracy    <          1.9E-09 Ry

     iteration #  7     ecut=    80.00 Ry     beta= 0.70
     Davidson diagonalization with overlap
     ethr =  1.95E-11,  avg # of iterations =  2.4

     total cpu time spent up to now is      149.5 secs

     End of self-consistent calculation

     Number of k-points >= 100: set verbosity='high' to print the bands.

     the Fermi energy is     9.7415 ev

!    total energy              =     -37.18559922 Ry
     estimated scf accuracy    <          6.3E-11 Ry
     smearing contrib. (-TS)   =       0.00028567 Ry
     internal energy E=F+TS    =     -37.18588489 Ry

     The total energy is F=E-TS. E is the sum of the following terms:
     one-electron contribution =      -7.39640927 Ry
     hartree contribution      =       5.68313873 Ry
     xc contribution           =     -10.33378119 Ry
     ewald contribution        =     -25.13883317 Ry

     convergence has been achieved in   7 iterations

     Forces acting on atoms (cartesian axes, Ry/au):

     atom    1 type  1   force =     0.00000000    0.00000000    0.00120780
     atom    2 type  1   force =    -0.00000000    0.00000000   -0.00120780
     atom    3 type  2   force =    -0.00000000    0.00000000    0.00000000
     The non-local contrib.  to forces
     atom    1 type  1   force =     0.00000000    0.00000000    0.00680409
     atom    2 type  1   force =    -0.00000000   -0.00000000   -0.00680409
     atom    3 type  2   force =     0.00000000    0.00000000    0.00000000
     The ionic contribution  to forces
     atom    1 type  1   force =    -0.00000000   -0.00000000    0.03269573
     atom    2 type  1   force =    -0.00000000   -0.00000000   -0.03269573
     atom    3 type  2   force =    -0.00000000   -0.00000000   -0.00000000
     The local contribution  to forces
     atom    1 type  1   force =     0.00000000   -0.00000000   -0.03828716
[...]
    -0.50000000    -0.50000000     1.48216030
Discrepancy in bohr =     0.000000    0.000000    0.000000
     new conv_thr            =       0.0000000001 Ry

     new unit-cell volume =    174.24843 a.u.^3 (    25.82095 Ang^3 )
     density =      2.69892 g/cm^3

CELL_PARAMETERS (alat=  4.55967891)
   0.537188832  -0.537188832   1.592399926
   0.537188832   0.537188832   1.592399926
  -0.537188832  -0.537188832   1.592399926

ATOMIC_POSITIONS (crystal)
Li           -0.0000000000        0.1755883084        0.1755883084
Li           -0.0000000000        0.8244116916        0.8244116916
Si            0.0000000000        0.5000000000        0.5000000000



     Writing config-only to output data dir ./output/LiSi.save/
     NEW-OLD atomic charge density approx. for the potential
     extrapolated charge   10.00526, renormalised to   10.00000

     total cpu time spent up to now is      150.7 secs

     Self-consistent Calculation

     iteration #  1     ecut=    80.00 Ry     beta= 0.70
     Davidson diagonalization with overlap
     ethr =  1.00E-06,  avg # of iterations =  3.0

     Threshold (ethr) on eigenvalues was too large:
     Diagonalizing with lowered threshold

     Davidson diagonalization with overlap
     ethr =  1.58E-08,  avg # of iterations =  1.4

     total cpu time spent up to now is      153.7 secs

     total energy              =     -37.18591638 Ry
     estimated scf accuracy    <       0.00000166 Ry

     iteration #  2     ecut=    80.00 Ry     beta= 0.70
     Davidson diagonalization with overlap
     ethr =  1.66E-08,  avg # of iterations =  2.0

     total cpu time spent up to now is      155.2 secs

     total energy              =     -37.18591700 Ry
     estimated scf accuracy    <       0.00000020 Ry

     iteration #  3     ecut=    80.00 Ry     beta= 0.70
     Davidson diagonalization with overlap
     ethr =  1.96E-09,  avg # of iterations =  1.8

     total cpu time spent up to now is      156.6 secs

     total energy              =     -37.18591704 Ry
     estimated scf accuracy    <       0.00000001 Ry

     iteration #  4     ecut=    80.00 Ry     beta= 0.70
     Davidson diagonalization with overlap
     ethr =  1.03E-10,  avg # of iterations =  1.1

     total cpu time spent up to now is      157.9 secs

     total energy              =     -37.18591704 Ry
     estimated scf accuracy    <          8.5E-10 Ry

     iteration #  5     ecut=    80.00 Ry     beta= 0.70
     Davidson diagonalization with overlap
     ethr =  8.51E-12,  avg # of iterations =  2.0

     total cpu time spent up to now is      159.3 secs

     End of self-consistent calculation

     Number of k-points >= 100: set verbosity='high' to print the bands.

     the Fermi energy is     9.7398 ev

!    total energy              =     -37.18591704 Ry
     estimated scf accuracy    <          3.2E-11 Ry
     smearing contrib. (-TS)   =       0.00028105 Ry
     internal energy E=F+TS    =     -37.18619808 Ry

     The total energy is F=E-TS. E is the sum of the following terms:
     one-electron contribution =      -7.40261852 Ry
     hartree contribution      =       5.68400609 Ry
     xc contribution           =     -10.33291728 Ry
     ewald contribution        =     -25.13466838 Ry

     convergence has been achieved in   5 iterations

     Forces acting on atoms (cartesian axes, Ry/au):

     atom    1 type  1   force =     0.00000000   -0.00000000    0.00010970
     atom    2 type  1   force =     0.00000000   -0.00000000   -0.00010970
     atom    3 type  2   force =    -0.00000000   -0.00000000   -0.00000000
     The non-local contrib.  to forces
     atom    1 type  1   force =    -0.00000000   -0.00000000    0.00683570
     atom    2 type  1   force =     0.00000000    0.00000000   -0.00683570
     atom    3 type  2   force =    -0.00000000    0.00000000   -0.00000000
     The ionic contribution  to forces
     atom    1 type  1   force =    -0.00000000   -0.00000000    0.02462724
     atom    2 type  1   force =    -0.00000000   -0.00000000   -0.02462724
     atom    3 type  2   force =    -0.00000000   -0.00000000    0.00000000
     The local contribution  to forces
     atom    1 type  1   force =     0.00000000   -0.00000000   -0.03135549
     atom    2 type  1   force =     0.00000000    0.00000000    0.03135549
     atom    3 type  2   force =    -0.00000000    0.00000000    0.00000000
     The core correction contribution to forces
     atom    1 type  1   force =     0.00000000    0.00000000    0.00000000
     atom    2 type  1   force =     0.00000000    0.00000000    0.00000000
     atom    3 type  2   force =    -0.00000000    0.00000000    0.00000000
     The Hubbard contrib.    to forces
     atom    1 type  1   force =     0.00000000    0.00000000    0.00000000
     atom    2 type  1   force =     0.00000000    0.00000000    0.00000000
     atom    3 type  2   force =     0.00000000    0.00000000    0.00000000
     The SCF correction term to forces
     atom    1 type  1   force =    -0.00000000   -0.00000000    0.00000225
     atom    2 type  1   force =     0.00000000    0.00000000   -0.00000225
     atom    3 type  2   force =     0.00000000    0.00000000   -0.00000000

     Total force =     0.000155     Total SCF correction =     0.000003


     Computing stress (Cartesian axis) and pressure

          total   stress  (Ry/bohr**3)                   (kbar)     P=      499.94
   0.00339707  -0.00000000  -0.00000000          499.73       -0.00       -0.00
  -0.00000000   0.00339707   0.00000000           -0.00      499.73        0.00
  -0.00000000   0.00000000   0.00340144           -0.00        0.00      500.37

     Energy error            =      6.1E-06 Ry
     Gradient error          =      1.1E-04 Ry/Bohr
     Cell gradient error     =      3.7E-01 kbar
ibrav =      7
 celldm(1) =      4.89881718
 celldm(3) =      2.96432061
Input lattice vectors:
     0.53718883    -0.53718883     1.59239993
     0.53718883     0.53718883     1.59239993
    -0.53718883    -0.53718883     1.59239993
New lattice vectors in INITIAL alat:
     0.53718883    -0.53718883     1.59239993
     0.53718883     0.53718883     1.59239993
    -0.53718883    -0.53718883     1.59239993
New lattice vectors in NEW alat (for information only):
     0.50000000    -0.50000000     1.48216030
     0.50000000     0.50000000     1.48216030
    -0.50000000    -0.50000000     1.48216030
Discrepancy in bohr =     0.000000    0.000000    0.000000

     bfgs converged in  12 scf cycles and  11 bfgs steps
     (criteria: energy <  1.0E-04 Ry, force <  1.0E-03 Ry/Bohr, cell <  1.0E+00 kbar)

     End of BFGS Geometry Optimization

     Final enthalpy           =     -36.5936586599 Ry

     File ./output/LiSi.bfgs deleted, as requested
Begin final coordinates
     new unit-cell volume =    174.24843 a.u.^3 (    25.82095 Ang^3 )
     density =      2.69892 g/cm^3

CELL_PARAMETERS (alat=  4.55967891)
   0.537188832  -0.537188832   1.592399926
   0.537188832   0.537188832   1.592399926
  -0.537188832  -0.537188832   1.592399926

ATOMIC_POSITIONS (crystal)
Li           -0.0000000000        0.1755883084        0.1755883084
Li           -0.0000000000        0.8244116916        0.8244116916
Si            0.0000000000        0.5000000000        0.5000000000
End final coordinates



     Writing config-only to output data dir ./output/LiSi.save/

     Final scf calculation at the relaxed structure.
     The G-vectors are recalculated for the final unit cell
     Results may differ from those at the preceding step.

     Parallelization info
     --------------------
     sticks:   dense  smooth     PW     G-vecs:    dense   smooth      PW
     Min         118     118     41                 2101     2101     432
     Max         119     119     42                 2103     2103     433
     Sum         947     947    333                16813    16813    3461

     Using Slab Decomposition



     bravais-lattice index     =            7
     lattice parameter (alat)  =       4.5597  a.u.
     unit-cell volume          =     174.2484 (a.u.)^3
     number of atoms/cell      =            3
     number of atomic types    =            2
     number of electrons       =        10.00
     number of Kohn-Sham states=            9
     kinetic-energy cutoff     =      80.0000  Ry
     charge density cutoff     =     320.0000  Ry
     scf convergence threshold =      1.2E-10
     mixing beta               =       0.7000
     number of iterations used =            8  plain     mixing
     press convergence thresh. =      1.0E+00
     Exchange-correlation= PBE
                           (   1   4   3   4   0   0   0)

     celldm(1)=   4.559679  celldm(2)=   0.000000  celldm(3)=   3.915837
     celldm(4)=   0.000000  celldm(5)=   0.000000  celldm(6)=   0.000000

     crystal axes: (cart. coord. in units of alat)
               a(1) = (   0.537189  -0.537189   1.592400 )  
               a(2) = (   0.537189   0.537189   1.592400 )  
               a(3) = (  -0.537189  -0.537189   1.592400 )  

     reciprocal axes: (cart. coord. in units 2 pi/alat)
               b(1) = (  0.930771 -0.930771  0.000000 )  
               b(2) = (  0.000000  0.930771  0.313991 )  
               b(3) = ( -0.930771 -0.000000  0.313991 )  


     PseudoPot. # 1 for Li read from file:
     ../pseudo/Li_ONCV_PBE_sr.upf
     MD5 check sum: 50ff420e78310ffa21704f3361e624a4
     Pseudo is Norm-conserving, Zval =  3.0
     Generated using ONCVPSP code by D. R. Hamann
     Using radial grid of 1944 points,  4 beta functions with: 
                l(1) =   0
                l(2) =   0
                l(3) =   1
                l(4) =   1

     PseudoPot. # 2 for Si read from file:
     ../pseudo/Si_ONCV_PBE_sr.upf
     MD5 check sum: e543d271109d17c80368dfa7c482276d
     Pseudo is Norm-conserving + core correction, Zval =  4.0
     Generated using ONCVPSP code by D. R. Hamann
     Using radial grid of 1510 points,  6 beta functions with: 
                l(1) =   0
                l(2) =   0
                l(3) =   1
                l(4) =   1
                l(5) =   2
                l(6) =   2

     atomic species   valence    mass     pseudopotential
        Li             3.00     6.94100     Li( 1.00)
        Si             4.00    28.08550     Si( 1.00)

     16 Sym. Ops., with inversion, found



   Cartesian axes

     site n.     atom                  positions (alat units)
         1           Li  tau(   1) = (  -0.0000000   0.0000000   0.5592136  )
         2           Li  tau(   2) = (  -0.0000000  -0.0000000   2.6255862  )
         3           Si  tau(   3) = (  -0.0000000  -0.0000000   1.5923999  )

     number of k points=   131  Marzari-Vanderbilt smearing, width (Ry)=  0.0200

     Number of k-points >= 100: set verbosity='high' to print them.

     Dense  grid:    16813 G-vectors     FFT dimensions: (  45,  45,  45)

     Estimated max dynamical RAM per process >      18.36 MB

     Estimated total dynamical RAM >     146.91 MB

     Initial potential from superposition of free atoms

     starting charge       9.9903, renormalised to      10.0000
     Starting wfcs are    8 randomized atomic wfcs +    1 random wfcs

     total cpu time spent up to now is      160.8 secs

     Self-consistent Calculation

     iteration #  1     ecut=    80.00 Ry     beta= 0.70
     Davidson diagonalization with overlap
     c_bands:  1 eigenvalues not converged
     c_bands:  1 eigenvalues not converged
     c_bands:  1 eigenvalues not converged
     c_bands:  1 eigenvalues not converged
     c_bands:  1 eigenvalues not converged
     c_bands:  1 eigenvalues not converged
     c_bands:  1 eigenvalues not converged
     c_bands:  1 eigenvalues not converged
     c_bands:  1 eigenvalues not converged
     c_bands:  1 eigenvalues not converged
     c_bands:  1 eigenvalues not converged
     c_bands:  1 eigenvalues not converged
     c_bands:  1 eigenvalues not converged
     c_bands:  1 eigenvalues not converged
     c_bands:  1 eigenvalues not converged
     c_bands:  1 eigenvalues not converged
     c_bands:  1 eigenvalues not converged
     c_bands:  1 eigenvalues not converged
     c_bands:  1 eigenvalues not converged
     c_bands:  1 eigenvalues not converged
     c_bands:  1 eigenvalues not converged
     c_bands:  1 eigenvalues not converged
     c_bands:  2 eigenvalues not converged
     c_bands:  1 eigenvalues not converged
     ethr =  1.00E-06,  avg # of iterations = 16.9

     total cpu time spent up to now is      164.4 secs

     total energy              =     -37.18393947 Ry
     estimated scf accuracy    <       0.01730286 Ry

     iteration #  2     ecut=    80.00 Ry     beta= 0.70
     Davidson diagonalization with overlap
     ethr =  1.73E-04,  avg # of iterations =  1.7

     total cpu time spent up to now is      165.4 secs

     total energy              =     -37.18544588 Ry
     estimated scf accuracy    <       0.00248420 Ry

     iteration #  3     ecut=    80.00 Ry     beta= 0.70
     Davidson diagonalization with overlap
     ethr =  2.48E-05,  avg # of iterations =  1.9

     total cpu time spent up to now is      166.3 secs

     total energy              =     -37.18591766 Ry
     estimated scf accuracy    <       0.00029256 Ry

     iteration #  4     ecut=    80.00 Ry     beta= 0.70
     Davidson diagonalization with overlap
     ethr =  2.93E-06,  avg # of iterations =  2.3

     total cpu time spent up to now is      167.3 secs

     total energy              =     -37.18595842 Ry
     estimated scf accuracy    <       0.00000101 Ry

     iteration #  5     ecut=    80.00 Ry     beta= 0.70
     Davidson diagonalization with overlap
     ethr =  1.01E-08,  avg # of iterations =  3.5

     total cpu time spent up to now is      168.4 secs

     total energy              =     -37.18595942 Ry
     estimated scf accuracy    <       0.00000017 Ry

     iteration #  6     ecut=    80.00 Ry     beta= 0.70
     Davidson diagonalization with overlap
     ethr =  1.70E-09,  avg # of iterations =  2.0

     total cpu time spent up to now is      169.4 secs

     total energy              =     -37.18595946 Ry
     estimated scf accuracy    <          8.1E-09 Ry

     iteration #  7     ecut=    80.00 Ry     beta= 0.70
     Davidson diagonalization with overlap
     ethr =  8.09E-11,  avg # of iterations =  2.0

     total cpu time spent up to now is      170.5 secs

     total energy              =     -37.18595946 Ry
     estimated scf accuracy    <          3.7E-10 Ry

     iteration #  8     ecut=    80.00 Ry     beta= 0.70
     Davidson diagonalization with overlap
     ethr =  3.66E-12,  avg # of iterations =  2.0

     total cpu time spent up to now is      171.4 secs

     End of self-consistent calculation

     Number of k-points >= 100: set verbosity='high' to print the bands.

     the Fermi energy is     9.7397 ev

!    total energy              =     -37.18595946 Ry
     estimated scf accuracy    <          6.8E-13 Ry
     smearing contrib. (-TS)   =       0.00028103 Ry
     internal energy E=F+TS    =     -37.18624049 Ry

     The total energy is F=E-TS. E is the sum of the following terms:
     one-electron contribution =      -7.40281044 Ry
     hartree contribution      =       5.68421583 Ry
     xc contribution           =     -10.33297749 Ry
     ewald contribution        =     -25.13466838 Ry

     convergence has been achieved in   8 iterations

     Forces acting on atoms (cartesian axes, Ry/au):

     atom    1 type  1   force =     0.00000000    0.00000000    0.00010904
     atom    2 type  1   force =    -0.00000000   -0.00000000   -0.00010904
     atom    3 type  2   force =    -0.00000000    0.00000000    0.00000000
     The non-local contrib.  to forces
     atom    1 type  1   force =     0.00000000   -0.00000000    0.00683393
     atom    2 type  1   force =    -0.00000000    0.00000000   -0.00683393
     atom    3 type  2   force =    -0.00000000    0.00000000    0.00000000
     The ionic contribution  to forces
     atom    1 type  1   force =    -0.00000000   -0.00000000    0.02462724
     atom    2 type  1   force =     0.00000000    0.00000000   -0.02462724
     atom    3 type  2   force =    -0.00000000   -0.00000000   -0.00000000
     The local contribution  to forces
     atom    1 type  1   force =     0.00000000   -0.00000000   -0.03135217
     atom    2 type  1   force =     0.00000000    0.00000000    0.03135217
     atom    3 type  2   force =     0.00000000    0.00000000    0.00000000
     The core correction contribution to forces
     atom    1 type  1   force =     0.00000000    0.00000000    0.00000000
     atom    2 type  1   force =     0.00000000    0.00000000    0.00000000
     atom    3 type  2   force =    -0.00000000   -0.00000000    0.00000000
     The Hubbard contrib.    to forces
     atom    1 type  1   force =     0.00000000    0.00000000    0.00000000
     atom    2 type  1   force =     0.00000000    0.00000000    0.00000000
     atom    3 type  2   force =     0.00000000    0.00000000    0.00000000
     The SCF correction term to forces
     atom    1 type  1   force =     0.00000000   -0.00000000    0.00000004
     atom    2 type  1   force =     0.00000000   -0.00000000   -0.00000004
     atom    3 type  2   force =     0.00000000    0.00000000   -0.00000000

     Total force =     0.000154     Total SCF correction =     0.000000


     Computing stress (Cartesian axis) and pressure

          total   stress  (Ry/bohr**3)                   (kbar)     P=      500.53
   0.00340319   0.00000000   0.00000000          500.63        0.00        0.00
   0.00000000   0.00340319  -0.00000000            0.00      500.63       -0.00
   0.00000000   0.00000000   0.00340129            0.00        0.00      500.35


     Writing all to output data dir ./output/LiSi.save/

     init_run     :      1.61s CPU      1.91s WALL (       2 calls)
     electrons    :    147.62s CPU    157.24s WALL (      13 calls)
     update_pot   :      2.12s CPU      2.21s WALL (      11 calls)
     forces       :      1.92s CPU      2.14s WALL (      13 calls)
     stress       :      7.69s CPU      8.06s WALL (      13 calls)

     Called by init_run:
     wfcinit      :      0.86s CPU      0.89s WALL (       2 calls)
     potinit      :      0.18s CPU      0.32s WALL (       2 calls)
     hinit0       :      0.54s CPU      0.64s WALL (       2 calls)

     Called by electrons:
     c_bands      :    124.94s CPU    132.36s WALL (      91 calls)
     sum_band     :     21.11s CPU     21.78s WALL (      91 calls)
     v_of_rho     :      1.58s CPU      2.30s WALL (     103 calls)
     mix_rho      :      0.15s CPU      0.24s WALL (      91 calls)

     Called by c_bands:
     init_us_2    :      1.83s CPU      1.99s WALL (   27510 calls)
     init_us_2:cp :      1.80s CPU      1.96s WALL (   27510 calls)
     cegterg      :    121.59s CPU    125.42s WALL (   11921 calls)

     Called by *egterg:
     cdiaghg      :      4.28s CPU      4.64s WALL (   44653 calls)
     h_psi        :    113.94s CPU    117.21s WALL (   46487 calls)
     g_psi        :      0.21s CPU      0.21s WALL (   34304 calls)

     Called by h_psi:
     h_psi:calbec :      1.87s CPU      1.97s WALL (   46487 calls)
     vloc_psi     :    110.70s CPU    113.73s WALL (   46487 calls)
     add_vuspsi   :      1.14s CPU      1.21s WALL (   46487 calls)

     General routines
     calbec       :      2.28s CPU      2.39s WALL (   55002 calls)
     fft          :      1.39s CPU      2.26s WALL (    1354 calls)
     ffts         :      0.09s CPU      0.16s WALL (      91 calls)
     fftw         :    112.58s CPU    115.48s WALL (  719043 calls)

     Parallel routines

     PWSCF        :   2m41.40s CPU   2m52.94s WALL


   This run was terminated on:  11:26: 2  27Dec2024            

=------------------------------------------------------------------------------=
   JOB DONE.
=------------------------------------------------------------------------------=
