
     Program PWSCF v.7.2 starts on 10Jan2025 at 22: 0:18 

     This program is part of the open-source Quantum ESPRESSO suite
     for quantum simulation of materials; please cite
         "P. Giannozzi et al., J. Phys.:Condens. Matter 21 395502 (2009);
         "P. Giannozzi et al., J. Phys.:Condens. Matter 29 465901 (2017);
         "P. Giannozzi et al., J. Chem. Phys. 152 154105 (2020);
          URL http://www.quantum-espresso.org", 
     in publications or presentations arising from this work. More details at
     http://www.quantum-espresso.org/quote

     Parallel version (MPI & OpenMP), running on       8 processor cores
     Number of MPI processes:                 8
     Threads/MPI process:                     1

     MPI processes distributed on     1 nodes
     481833 MiB available memory on the printing compute node when the environment starts

     Waiting for input...
     Reading input from standard input

     Current dimensions of program PWSCF are:
     Max number of different atomic species (ntypx) = 10
     Max number of k-points (npk) =  40000
     Max angular momentum in pseudopotentials (lmaxx) =  4

     R & G space division:  proc/nbgrp/npool/nimage =       8
     Subspace diagonalization in iterative solution of the eigenvalue problem:
     a serial algorithm will be used


     Parallelization info
     --------------------
     sticks:   dense  smooth     PW     G-vecs:    dense   smooth      PW
     Min         188     188     54                 3536     3536     564
     Max         189     189     55                 3539     3539     567
     Sum        1507    1507    439                28295    28295    4521

     Using Slab Decomposition



     bravais-lattice index     =            4
     lattice parameter (alat)  =       7.4018  a.u.
     unit-cell volume          =     209.5834 (a.u.)^3
     number of atoms/cell      =            3
     number of atomic types    =            2
     number of electrons       =        11.00
     number of Kohn-Sham states=           10
     kinetic-energy cutoff     =     100.0000  Ry
     charge density cutoff     =     400.0000  Ry
     scf convergence threshold =      1.0E-08
     mixing beta               =       0.7000
     number of iterations used =            8  plain     mixing
     energy convergence thresh.=      1.0E-04
     force convergence thresh. =      1.0E-03
     press convergence thresh. =      1.0E+00
     Exchange-correlation= PBE
                           (   1   4   3   4   0   0   0)
     nstep                     =           50


     celldm(1)=   7.401808  celldm(2)=   0.000000  celldm(3)=   0.596778
     celldm(4)=   0.000000  celldm(5)=   0.000000  celldm(6)=   0.000000

     crystal axes: (cart. coord. in units of alat)
               a(1) = (   1.000000   0.000000   0.000000 )  
               a(2) = (  -0.500000   0.866025   0.000000 )  
               a(3) = (   0.000000   0.000000   0.596778 )  

     reciprocal axes: (cart. coord. in units 2 pi/alat)
               b(1) = (  1.000000  0.577350 -0.000000 )  
               b(2) = (  0.000000  1.154701  0.000000 )  
               b(3) = (  0.000000 -0.000000  1.675665 )  


     PseudoPot. # 1 for Li read from file:
     ../pseudo/Li_ONCV_PBE_sr.upf
     MD5 check sum: 50ff420e78310ffa21704f3361e624a4
     Pseudo is Norm-conserving, Zval =  3.0
     Generated using ONCVPSP code by D. R. Hamann
     Using radial grid of 1944 points,  4 beta functions with: 
                l(1) =   0
                l(2) =   0
                l(3) =   1
                l(4) =   1

     PseudoPot. # 2 for Si read from file:
     ../pseudo/Si_ONCV_PBE_sr.upf
     MD5 check sum: e543d271109d17c80368dfa7c482276d
     Pseudo is Norm-conserving + core correction, Zval =  4.0
     Generated using ONCVPSP code by D. R. Hamann
     Using radial grid of 1510 points,  6 beta functions with: 
                l(1) =   0
                l(2) =   0
                l(3) =   1
                l(4) =   1
                l(5) =   2
                l(6) =   2

     atomic species   valence    mass     pseudopotential
        Li             3.00     6.94100     Li( 1.00)
        Si             4.00    28.08550     Si( 1.00)

     12 Sym. Ops., with inversion, found



   Cartesian axes

     site n.     atom                  positions (alat units)
         1           Li  tau(   1) = (   0.0000000   0.0000000   0.2983889  )
         2           Si  tau(   2) = (  -0.0000000   0.5773503   0.4742737  )
         3           Si  tau(   3) = (   0.5000000   0.2886751   0.1225042  )

     number of k points=   110  Marzari-Vanderbilt smearing, width (Ry)=  0.0200

     Number of k-points >= 100: set verbosity='high' to print them.

     Dense  grid:    28295 G-vectors     FFT dimensions: (  48,  48,  30)

     Estimated max dynamical RAM per process >      23.13 MB

     Estimated total dynamical RAM >     185.07 MB

     Initial potential from superposition of free atoms

     starting charge      10.9942, renormalised to      11.0000
     Starting wfcs are   10 randomized atomic wfcs

     total cpu time spent up to now is        1.4 secs

     Self-consistent Calculation

     iteration #  1     ecut=   100.00 Ry     beta= 0.70
     Davidson diagonalization with overlap
     ethr =  1.00E-02,  avg # of iterations =  5.8

     Threshold (ethr) on eigenvalues was too large:
     Diagonalizing with lowered threshold

     Davidson diagonalization with overlap
     ethr =  1.22E-04,  avg # of iterations =  4.5

     total cpu time spent up to now is        4.0 secs

     total energy              =     -31.20271304 Ry
     estimated scf accuracy    <       0.01372430 Ry

     iteration #  2     ecut=   100.00 Ry     beta= 0.70
     Davidson diagonalization with overlap
     ethr =  1.25E-04,  avg # of iterations =  1.1

     total cpu time spent up to now is        4.7 secs

     total energy              =     -31.20276270 Ry
     estimated scf accuracy    <       0.00076911 Ry

     iteration #  3     ecut=   100.00 Ry     beta= 0.70
     Davidson diagonalization with overlap
     ethr =  6.99E-06,  avg # of iterations =  3.9

     total cpu time spent up to now is        5.7 secs

     total energy              =     -31.20283623 Ry
     estimated scf accuracy    <       0.00000463 Ry

     iteration #  4     ecut=   100.00 Ry     beta= 0.70
     Davidson diagonalization with overlap
     ethr =  4.21E-08,  avg # of iterations =  3.4

     total cpu time spent up to now is        6.7 secs

     total energy              =     -31.20283837 Ry
     estimated scf accuracy    <       0.00000028 Ry

     iteration #  5     ecut=   100.00 Ry     beta= 0.70
     Davidson diagonalization with overlap
     ethr =  2.51E-09,  avg # of iterations =  2.2

     total cpu time spent up to now is        7.6 secs

     total energy              =     -31.20283842 Ry
     estimated scf accuracy    <       0.00000001 Ry

     iteration #  6     ecut=   100.00 Ry     beta= 0.70
     Davidson diagonalization with overlap
     ethr =  1.05E-10,  avg # of iterations =  2.6

     total cpu time spent up to now is        8.4 secs

     End of self-consistent calculation

     Number of k-points >= 100: set verbosity='high' to print the bands.

     the Fermi energy is    11.9829 ev

!    total energy              =     -31.20283842 Ry
     estimated scf accuracy    <          5.8E-10 Ry
     smearing contrib. (-TS)   =       0.00007896 Ry
     internal energy E=F+TS    =     -31.20291739 Ry

     The total energy is F=E-TS. E is the sum of the following terms:
     one-electron contribution =       4.44630559 Ry
     hartree contribution      =       2.93542154 Ry
     xc contribution           =     -10.08354617 Ry
     ewald contribution        =     -28.50109835 Ry

     convergence has been achieved in   6 iterations

     Forces acting on atoms (cartesian axes, Ry/au):

     atom    1 type  1   force =     0.00000000    0.00000000    0.00000000
     atom    2 type  2   force =     0.00000000   -0.00000000    0.03076883
     atom    3 type  2   force =    -0.00000000   -0.00000000   -0.03076883
     The non-local contrib.  to forces
     atom    1 type  1   force =    -0.00000000    0.00000000    0.00000000
     atom    2 type  2   force =     0.00000000    0.00000000    0.02796292
     atom    3 type  2   force =     0.00000000   -0.00000000   -0.02796292
     The ionic contribution  to forces
     atom    1 type  1   force =    -0.00000000   -0.00000000   -0.00000000
     atom    2 type  2   force =     0.00000009   -0.00000005    0.02679553
     atom    3 type  2   force =    -0.00000009    0.00000005   -0.02679553
     The local contribution  to forces
     atom    1 type  1   force =    -0.00000000    0.00000000    0.00000000
     atom    2 type  2   force =    -0.00000001    0.00000000   -0.02314284
     atom    3 type  2   force =     0.00000001   -0.00000000    0.02314284
     The core correction contribution to forces
     atom    1 type  1   force =     0.00000000    0.00000000    0.00000000
     atom    2 type  2   force =    -0.00000000    0.00000000   -0.00084620
     atom    3 type  2   force =     0.00000000   -0.00000000    0.00084620
     The Hubbard contrib.    to forces
     atom    1 type  1   force =     0.00000000    0.00000000    0.00000000
     atom    2 type  2   force =     0.00000000    0.00000000    0.00000000
     atom    3 type  2   force =     0.00000000    0.00000000    0.00000000
     The SCF correction term to forces
     atom    1 type  1   force =    -0.00000000    0.00000000    0.00000000
     atom    2 type  2   force =    -0.00000000    0.00000000   -0.00000058
     atom    3 type  2   force =     0.00000000   -0.00000000    0.00000058

     Total force =     0.043514     Total SCF correction =     0.000001


     Computing stress (Cartesian axis) and pressure

          total   stress  (Ry/bohr**3)                   (kbar)     P=      376.71
   0.00248235   0.00000000   0.00000000          365.17        0.00        0.00
   0.00000000   0.00248235   0.00000000            0.00      365.17        0.00
   0.00000000   0.00000000   0.00271781            0.00        0.00      399.80


     BFGS Geometry Optimization
     Energy error            =      0.0E+00 Ry
     Gradient error          =      3.1E-02 Ry/Bohr
     Cell gradient error     =      1.3E+02 kbar

     number of scf cycles    =   1
     number of bfgs steps    =   0

     enthalpy           new  =     -30.4904789761 Ry

     new trust radius        =       0.0663464851 bohr
ibrav =      4
 celldm(1) =      7.23220004
 celldm(3) =      0.60037320
Input lattice vectors:
     0.97708555     0.00000000     0.00000000
    -0.48854277     0.84618091    -0.00000000
     0.00000000     0.00000000     0.58661598
New lattice vectors in INITIAL alat:
     0.97708555     0.00000000     0.00000000
    -0.48854277     0.84618091     0.00000000
     0.00000000     0.00000000     0.58661598
New lattice vectors in NEW alat (for information only):
     1.00000000     0.00000000     0.00000000
    -0.50000000     0.86602540     0.00000000
     0.00000000     0.00000000     0.60037320
Discrepancy in bohr =     0.000000    0.000000    0.000000
     new conv_thr            =       0.0000000100 Ry

     new unit-cell volume =    196.68137 a.u.^3 (    29.14517 Ang^3 )
     density =      3.59579 g/cm^3

CELL_PARAMETERS (alat=  7.40180843)
   0.977085547   0.000000000   0.000000000
  -0.488542773   0.846180905   0.000000000
   0.000000000   0.000000000   0.586615977

ATOMIC_POSITIONS (crystal)
Li            0.0000000000        0.0000000000        0.5000000000
Si            0.3333333300        0.6666666700        0.8016896308
Si            0.6666666700        0.3333333300        0.1983103692



     Writing config-only to output data dir ./output/LiSi.save/
     NEW-OLD atomic charge density approx. for the potential
     extrapolated charge   10.27880, renormalised to   11.00000

     total cpu time spent up to now is       10.3 secs

     Self-consistent Calculation

     iteration #  1     ecut=   100.00 Ry     beta= 0.70
     Davidson diagonalization with overlap
     c_bands:  1 eigenvalues not converged
     ethr =  1.00E-06,  avg # of iterations =  8.5

     total cpu time spent up to now is       12.3 secs

     total energy              =     -31.16331279 Ry
     estimated scf accuracy    <       0.00075568 Ry

     iteration #  2     ecut=   100.00 Ry     beta= 0.70
     Davidson diagonalization with overlap
     ethr =  6.87E-06,  avg # of iterations =  3.5

     total cpu time spent up to now is       13.5 secs

     total energy              =     -31.16603216 Ry
     estimated scf accuracy    <       0.00070119 Ry

     iteration #  3     ecut=   100.00 Ry     beta= 0.70
     Davidson diagonalization with overlap
     ethr =  6.37E-06,  avg # of iterations =  1.0

     total cpu time spent up to now is       14.3 secs

     total energy              =     -31.16598115 Ry
     estimated scf accuracy    <       0.00016404 Ry

     iteration #  4     ecut=   100.00 Ry     beta= 0.70
     Davidson diagonalization with overlap
     ethr =  1.49E-06,  avg # of iterations =  1.6

     total cpu time spent up to now is       15.1 secs

     total energy              =     -31.16597430 Ry
     estimated scf accuracy    <       0.00002465 Ry

     iteration #  5     ecut=   100.00 Ry     beta= 0.70
     Davidson diagonalization with overlap
     ethr =  2.24E-07,  avg # of iterations =  2.0

     total cpu time spent up to now is       15.9 secs

     total energy              =     -31.16597810 Ry
     estimated scf accuracy    <       0.00000004 Ry

     iteration #  6     ecut=   100.00 Ry     beta= 0.70
     Davidson diagonalization with overlap
     ethr =  3.73E-10,  avg # of iterations =  4.2

     total cpu time spent up to now is       17.1 secs

     End of self-consistent calculation

     Number of k-points >= 100: set verbosity='high' to print the bands.

     the Fermi energy is    12.8931 ev

!    total energy              =     -31.16597821 Ry
     estimated scf accuracy    <          2.4E-09 Ry
     smearing contrib. (-TS)   =       0.00007236 Ry
     internal energy E=F+TS    =     -31.16605057 Ry

     The total energy is F=E-TS. E is the sum of the following terms:
     one-electron contribution =       5.25965689 Ry
     hartree contribution      =       2.88569452 Ry
     xc contribution           =     -10.19679914 Ry
     ewald contribution        =     -29.11460285 Ry

     convergence has been achieved in   6 iterations

     Forces acting on atoms (cartesian axes, Ry/au):

     atom    1 type  1   force =    -0.00000000    0.00000000    0.00000000
     atom    2 type  2   force =     0.00000000    0.00000000    0.02598317
     atom    3 type  2   force =    -0.00000000   -0.00000000   -0.02598317
     The non-local contrib.  to forces
     atom    1 type  1   force =     0.00000000    0.00000000    0.00000000
     atom    2 type  2   force =     0.00000000   -0.00000000    0.01410217
     atom    3 type  2   force =     0.00000000    0.00000000   -0.01410217
     The ionic contribution  to forces
     atom    1 type  1   force =    -0.00000000    0.00000000    0.00000000
     atom    2 type  2   force =     0.00000009   -0.00000005    0.01640631
     atom    3 type  2   force =    -0.00000009    0.00000005   -0.01640631
     The local contribution  to forces
     atom    1 type  1   force =    -0.00000000    0.00000000    0.00000000
     atom    2 type  2   force =    -0.00000001    0.00000001   -0.00472108
     atom    3 type  2   force =     0.00000001   -0.00000001    0.00472108
     The core correction contribution to forces
     atom    1 type  1   force =     0.00000000    0.00000000    0.00000000
     atom    2 type  2   force =    -0.00000000    0.00000000    0.00019571
     atom    3 type  2   force =     0.00000000   -0.00000000   -0.00019571
     The Hubbard contrib.    to forces
     atom    1 type  1   force =     0.00000000    0.00000000    0.00000000
     atom    2 type  2   force =     0.00000000    0.00000000    0.00000000
     atom    3 type  2   force =     0.00000000    0.00000000    0.00000000
     The SCF correction term to forces
     atom    1 type  1   force =    -0.00000000    0.00000000    0.00000000
     atom    2 type  2   force =     0.00000000   -0.00000000    0.00000007
     atom    3 type  2   force =    -0.00000000    0.00000000   -0.00000007

     Total force =     0.036746     Total SCF correction =     0.000000


     Computing stress (Cartesian axis) and pressure

          total   stress  (Ry/bohr**3)                   (kbar)     P=      515.99
   0.00338687   0.00000000   0.00000000          498.23        0.00        0.00
   0.00000000   0.00338687   0.00000000            0.00      498.23        0.00
   0.00000000   0.00000000   0.00374919            0.00        0.00      551.53

     Energy error            =      7.0E-03 Ry
     Gradient error          =      2.6E-02 Ry/Bohr
     Cell gradient error     =      5.2E+01 kbar

     number of scf cycles    =   2
     number of bfgs steps    =   1

     enthalpy           old  =     -30.4904789761 Ry
     enthalpy           new  =     -30.4974718316 Ry

     CASE: enthalpy          _new < enthalpy          _old

     new trust radius        =       0.0307361250 bohr
ibrav =      4
 celldm(1) =      7.20385376
 celldm(3) =      0.60645234
Input lattice vectors:
     0.97325590    -0.00000000    -0.00000000
    -0.48662795     0.84286434     0.00000000
     0.00000000     0.00000000     0.59023332
New lattice vectors in INITIAL alat:
     0.97325590     0.00000000     0.00000000
    -0.48662795     0.84286434     0.00000000
     0.00000000     0.00000000     0.59023332
New lattice vectors in NEW alat (for information only):
     1.00000000     0.00000000     0.00000000
    -0.50000000     0.86602540     0.00000000
     0.00000000     0.00000000     0.60645234
Discrepancy in bohr =     0.000000    0.000000    0.000000
     new conv_thr            =       0.0000000026 Ry

     new unit-cell volume =    196.34596 a.u.^3 (    29.09547 Ang^3 )
     density =      3.60193 g/cm^3

CELL_PARAMETERS (alat=  7.40180843)
   0.973255904   0.000000000   0.000000000
  -0.486627952   0.842864338   0.000000000
   0.000000000   0.000000000   0.590233319

ATOMIC_POSITIONS (crystal)
Li           -0.0000000000        0.0000000000        0.5000000000
Si            0.3333333300        0.6666666700        0.8087683940
Si            0.6666666700        0.3333333300        0.1912316060



     Writing config-only to output data dir ./output/LiSi.save/
     NEW-OLD atomic charge density approx. for the potential
     extrapolated charge   10.98122, renormalised to   11.00000

     total cpu time spent up to now is       18.9 secs

     Self-consistent Calculation

     iteration #  1     ecut=   100.00 Ry     beta= 0.70
     Davidson diagonalization with overlap
     c_bands:  1 eigenvalues not converged
     ethr =  1.00E-06,  avg # of iterations =  6.7

     total cpu time spent up to now is       20.4 secs

     total energy              =     -31.16671478 Ry
     estimated scf accuracy    <       0.00005419 Ry

     iteration #  2     ecut=   100.00 Ry     beta= 0.70
     Davidson diagonalization with overlap
     ethr =  4.93E-07,  avg # of iterations =  1.7

     total cpu time spent up to now is       21.2 secs

     total energy              =     -31.16671794 Ry
     estimated scf accuracy    <       0.00000284 Ry

     iteration #  3     ecut=   100.00 Ry     beta= 0.70
     Davidson diagonalization with overlap
     ethr =  2.59E-08,  avg # of iterations =  1.9

     total cpu time spent up to now is       22.2 secs

     total energy              =     -31.16671827 Ry
     estimated scf accuracy    <       0.00000009 Ry

     iteration #  4     ecut=   100.00 Ry     beta= 0.70
     Davidson diagonalization with overlap
     ethr =  7.74E-10,  avg # of iterations =  2.9

     total cpu time spent up to now is       23.2 secs

     total energy              =     -31.16671830 Ry
     estimated scf accuracy    <          6.0E-09 Ry

     iteration #  5     ecut=   100.00 Ry     beta= 0.70
     Davidson diagonalization with overlap
     ethr =  5.47E-11,  avg # of iterations =  2.3

     total cpu time spent up to now is       24.1 secs

     End of self-consistent calculation

     Number of k-points >= 100: set verbosity='high' to print the bands.

     the Fermi energy is    12.9140 ev

!    total energy              =     -31.16671830 Ry
     estimated scf accuracy    <          1.6E-10 Ry
     smearing contrib. (-TS)   =       0.00014140 Ry
     internal energy E=F+TS    =     -31.16685971 Ry

     The total energy is F=E-TS. E is the sum of the following terms:
     one-electron contribution =       5.28495978 Ry
     hartree contribution      =       2.88225166 Ry
     xc contribution           =     -10.19936003 Ry
     ewald contribution        =     -29.13471113 Ry

     convergence has been achieved in   5 iterations

     Forces acting on atoms (cartesian axes, Ry/au):

     atom    1 type  1   force =     0.00000000    0.00000000    0.00000000
     atom    2 type  2   force =     0.00000000    0.00000000    0.02484251
     atom    3 type  2   force =     0.00000000    0.00000000   -0.02484251
     The non-local contrib.  to forces
     atom    1 type  1   force =     0.00000000    0.00000000    0.00000000
     atom    2 type  2   force =     0.00000000    0.00000000    0.00882397
     atom    3 type  2   force =     0.00000000    0.00000000   -0.00882397
     The ionic contribution  to forces
     atom    1 type  1   force =    -0.00000000    0.00000000    0.00000000
     atom    2 type  2   force =     0.00000009   -0.00000005    0.00450236
     atom    3 type  2   force =    -0.00000009    0.00000005   -0.00450236
     The local contribution  to forces
     atom    1 type  1   force =    -0.00000000    0.00000000    0.00000000
     atom    2 type  2   force =    -0.00000001    0.00000001    0.01085208
     atom    3 type  2   force =     0.00000001   -0.00000001   -0.01085208
     The core correction contribution to forces
     atom    1 type  1   force =     0.00000000    0.00000000    0.00000000
     atom    2 type  2   force =    -0.00000000    0.00000000    0.00066520
     atom    3 type  2   force =     0.00000000   -0.00000000   -0.00066520
     The Hubbard contrib.    to forces
     atom    1 type  1   force =     0.00000000    0.00000000    0.00000000
     atom    2 type  2   force =     0.00000000    0.00000000    0.00000000
     atom    3 type  2   force =     0.00000000    0.00000000    0.00000000
     The SCF correction term to forces
     atom    1 type  1   force =     0.00000000   -0.00000000    0.00000000
     atom    2 type  2   force =     0.00000000   -0.00000000   -0.00000110
     atom    3 type  2   force =    -0.00000000    0.00000000    0.00000110

     Total force =     0.035133     Total SCF correction =     0.000002


     Computing stress (Cartesian axis) and pressure

          total   stress  (Ry/bohr**3)                   (kbar)     P=      521.51
   0.00348841   0.00000000   0.00000000          513.16        0.00        0.00
   0.00000000   0.00348841   0.00000000            0.00      513.16        0.00
   0.00000000   0.00000000   0.00365873            0.00        0.00      538.22

     Energy error            =      1.9E-03 Ry
     Gradient error          =      2.5E-02 Ry/Bohr
     Cell gradient error     =      3.8E+01 kbar

     number of scf cycles    =   3
     number of bfgs steps    =   2

     enthalpy           old  =     -30.4974718316 Ry
     enthalpy           new  =     -30.4993519496 Ry

     CASE: enthalpy          _new < enthalpy          _old


     WARNING: bfgs curvature condition failed, Theta= 0.954
     new trust radius        =       0.0340182237 bohr
ibrav =      4
 celldm(1) =      7.18926626
 celldm(3) =      0.61089779
Input lattice vectors:
     0.97128510     0.00000000     0.00000000
    -0.48564255     0.84115757     0.00000000
     0.00000000     0.00000000     0.59335592
New lattice vectors in INITIAL alat:
     0.97128510     0.00000000     0.00000000
    -0.48564255     0.84115757     0.00000000
     0.00000000     0.00000000     0.59335592
New lattice vectors in NEW alat (for information only):
     1.00000000     0.00000000     0.00000000
    -0.50000000     0.86602540     0.00000000
     0.00000000     0.00000000     0.61089779
Discrepancy in bohr =     0.000000    0.000000    0.000000
     new conv_thr            =       0.0000000019 Ry

     new unit-cell volume =    196.58614 a.u.^3 (    29.13106 Ang^3 )
     density =      3.59753 g/cm^3

CELL_PARAMETERS (alat=  7.40180843)
   0.971285103   0.000000000   0.000000000
  -0.485642551   0.841157573   0.000000000
   0.000000000   0.000000000   0.593355923

ATOMIC_POSITIONS (crystal)
Li           -0.0000000000        0.0000000000        0.5000000000
Si            0.3333333300        0.6666666700        0.8165550336
Si            0.6666666700        0.3333333300        0.1834449664



     Writing config-only to output data dir ./output/LiSi.save/
     NEW-OLD atomic charge density approx. for the potential
     extrapolated charge   11.01343, renormalised to   11.00000

     total cpu time spent up to now is       25.8 secs

     Self-consistent Calculation

     iteration #  1     ecut=   100.00 Ry     beta= 0.70
     Davidson diagonalization with overlap
     c_bands:  1 eigenvalues not converged
     ethr =  1.00E-06,  avg # of iterations =  6.4

     total cpu time spent up to now is       27.4 secs

     total energy              =     -31.16929920 Ry
     estimated scf accuracy    <       0.00004965 Ry

     iteration #  2     ecut=   100.00 Ry     beta= 0.70
     Davidson diagonalization with overlap
     ethr =  4.51E-07,  avg # of iterations =  1.6

     total cpu time spent up to now is       28.2 secs

     total energy              =     -31.16930344 Ry
     estimated scf accuracy    <       0.00000213 Ry

     iteration #  3     ecut=   100.00 Ry     beta= 0.70
     Davidson diagonalization with overlap
     ethr =  1.94E-08,  avg # of iterations =  1.9

     total cpu time spent up to now is       29.0 secs

     total energy              =     -31.16930369 Ry
     estimated scf accuracy    <       0.00000009 Ry

     iteration #  4     ecut=   100.00 Ry     beta= 0.70
     Davidson diagonalization with overlap
     ethr =  7.86E-10,  avg # of iterations =  2.8

     total cpu time spent up to now is       29.9 secs

     total energy              =     -31.16930372 Ry
     estimated scf accuracy    <          4.0E-09 Ry

     iteration #  5     ecut=   100.00 Ry     beta= 0.70
     Davidson diagonalization with overlap
     ethr =  3.63E-11,  avg # of iterations =  3.0

     total cpu time spent up to now is       30.8 secs

     End of self-consistent calculation

     Number of k-points >= 100: set verbosity='high' to print the bands.

     the Fermi energy is    12.9002 ev

!    total energy              =     -31.16930372 Ry
     estimated scf accuracy    <          9.8E-11 Ry
     smearing contrib. (-TS)   =       0.00024236 Ry
     internal energy E=F+TS    =     -31.16954608 Ry

     The total energy is F=E-TS. E is the sum of the following terms:
     one-electron contribution =       5.27172281 Ry
     hartree contribution      =       2.88061983 Ry
     xc contribution           =     -10.19763436 Ry
     ewald contribution        =     -29.12425437 Ry

     convergence has been achieved in   5 iterations

     Forces acting on atoms (cartesian axes, Ry/au):

     atom    1 type  1   force =    -0.00000000    0.00000000    0.00000000
     atom    2 type  2   force =     0.00000000    0.00000000    0.02345121
     atom    3 type  2   force =     0.00000000   -0.00000000   -0.02345121
     The non-local contrib.  to forces
     atom    1 type  1   force =     0.00000000   -0.00000000    0.00000000
     atom    2 type  2   force =     0.00000000    0.00000000    0.00328553
     atom    3 type  2   force =     0.00000000   -0.00000000   -0.00328553
     The ionic contribution  to forces
     atom    1 type  1   force =    -0.00000000    0.00000000   -0.00000000
     atom    2 type  2   force =     0.00000009   -0.00000005   -0.00920055
     atom    3 type  2   force =    -0.00000009    0.00000005    0.00920055
     The local contribution  to forces
     atom    1 type  1   force =    -0.00000000    0.00000000    0.00000000
     atom    2 type  2   force =    -0.00000001    0.00000001    0.02822059
     atom    3 type  2   force =     0.00000001   -0.00000001   -0.02822059
     The core correction contribution to forces
     atom    1 type  1   force =     0.00000000    0.00000000    0.00000000
     atom    2 type  2   force =    -0.00000000    0.00000000    0.00114598
     atom    3 type  2   force =     0.00000000   -0.00000000   -0.00114598
     The Hubbard contrib.    to forces
     atom    1 type  1   force =     0.00000000    0.00000000    0.00000000
     atom    2 type  2   force =     0.00000000    0.00000000    0.00000000
     atom    3 type  2   force =     0.00000000    0.00000000    0.00000000
     The SCF correction term to forces
     atom    1 type  1   force =     0.00000000    0.00000000   -0.00000000
     atom    2 type  2   force =     0.00000000   -0.00000000   -0.00000034
     atom    3 type  2   force =    -0.00000000    0.00000000    0.00000034

     Total force =     0.033165     Total SCF correction =     0.000000


     Computing stress (Cartesian axis) and pressure

          total   stress  (Ry/bohr**3)                   (kbar)     P=      522.62
   0.00355309   0.00000000  -0.00000000          522.68        0.00       -0.00
   0.00000000   0.00355309  -0.00000000            0.00      522.68       -0.00
   0.00000000   0.00000000   0.00355197            0.00        0.00      522.51

     Energy error            =      1.8E-03 Ry
     Gradient error          =      2.3E-02 Ry/Bohr
     Cell gradient error     =      2.3E+01 kbar

     number of scf cycles    =   4
     number of bfgs steps    =   3

     enthalpy           old  =     -30.4993519496 Ry
     enthalpy           new  =     -30.5011210169 Ry

     CASE: enthalpy          _new < enthalpy          _old

     new trust radius        =       0.0512972935 bohr
ibrav =      4
 celldm(1) =      7.18131103
 celldm(3) =      0.61508269
Input lattice vectors:
     0.97021033     0.00000000    -0.00000000
    -0.48510517     0.84022680    -0.00000000
    -0.00000000    -0.00000000     0.59675958
New lattice vectors in INITIAL alat:
     0.97021033     0.00000000     0.00000000
    -0.48510517     0.84022680     0.00000000
     0.00000000     0.00000000     0.59675958
New lattice vectors in NEW alat (for information only):
     1.00000000     0.00000000     0.00000000
    -0.50000000     0.86602540     0.00000000
     0.00000000     0.00000000     0.61508269
Discrepancy in bohr =     0.000000    0.000000    0.000000
     new conv_thr            =       0.0000000018 Ry

     new unit-cell volume =    197.27650 a.u.^3 (    29.23336 Ang^3 )
     density =      3.58494 g/cm^3

CELL_PARAMETERS (alat=  7.40180843)
   0.970210335   0.000000000   0.000000000
  -0.485105167   0.840226797   0.000000000
   0.000000000   0.000000000   0.596759583

ATOMIC_POSITIONS (crystal)
Li           -0.0000000000        0.0000000000        0.5000000000
Si            0.3333333300        0.6666666700        0.8282349929
Si            0.6666666700        0.3333333300        0.1717650071



     Writing config-only to output data dir ./output/LiSi.save/
     NEW-OLD atomic charge density approx. for the potential
     extrapolated charge   11.03847, renormalised to   11.00000

     total cpu time spent up to now is       32.6 secs

     Self-consistent Calculation

     iteration #  1     ecut=   100.00 Ry     beta= 0.70
     Davidson diagonalization with overlap
     ethr =  1.00E-06,  avg # of iterations =  7.1

     total cpu time spent up to now is       34.2 secs

     total energy              =     -31.17395336 Ry
     estimated scf accuracy    <       0.00009911 Ry

     iteration #  2     ecut=   100.00 Ry     beta= 0.70
     Davidson diagonalization with overlap
     ethr =  9.01E-07,  avg # of iterations =  2.0

     total cpu time spent up to now is       35.0 secs

     total energy              =     -31.17396979 Ry
     estimated scf accuracy    <       0.00000599 Ry

     iteration #  3     ecut=   100.00 Ry     beta= 0.70
     Davidson diagonalization with overlap
     ethr =  5.45E-08,  avg # of iterations =  1.4

     total cpu time spent up to now is       35.7 secs

     total energy              =     -31.17397044 Ry
     estimated scf accuracy    <       0.00000037 Ry

     iteration #  4     ecut=   100.00 Ry     beta= 0.70
     Davidson diagonalization with overlap
     ethr =  3.34E-09,  avg # of iterations =  2.1

     total cpu time spent up to now is       36.5 secs

     total energy              =     -31.17397049 Ry
     estimated scf accuracy    <          7.2E-09 Ry

     iteration #  5     ecut=   100.00 Ry     beta= 0.70
     Davidson diagonalization with overlap
     ethr =  6.58E-11,  avg # of iterations =  3.5

     total cpu time spent up to now is       37.4 secs

     End of self-consistent calculation

     Number of k-points >= 100: set verbosity='high' to print the bands.

     the Fermi energy is    12.8611 ev

!    total energy              =     -31.17397049 Ry
     estimated scf accuracy    <          3.7E-10 Ry
     smearing contrib. (-TS)   =       0.00023196 Ry
     internal energy E=F+TS    =     -31.17420245 Ry

     The total energy is F=E-TS. E is the sum of the following terms:
     one-electron contribution =       5.22894255 Ry
     hartree contribution      =       2.87951451 Ry
     xc contribution           =     -10.19336743 Ry
     ewald contribution        =     -29.08929208 Ry

     convergence has been achieved in   5 iterations

     Forces acting on atoms (cartesian axes, Ry/au):

     atom    1 type  1   force =     0.00000000    0.00000000    0.00000000
     atom    2 type  2   force =     0.00000000    0.00000000    0.02130917
     atom    3 type  2   force =     0.00000000    0.00000000   -0.02130917
     The non-local contrib.  to forces
     atom    1 type  1   force =     0.00000000    0.00000000    0.00000000
     atom    2 type  2   force =     0.00000000   -0.00000000   -0.00421495
     atom    3 type  2   force =     0.00000000    0.00000000    0.00421495
     The ionic contribution  to forces
     atom    1 type  1   force =    -0.00000000    0.00000000    0.00000000
     atom    2 type  2   force =     0.00000009   -0.00000005   -0.02924667
     atom    3 type  2   force =    -0.00000009    0.00000005    0.02924667
     The local contribution  to forces
     atom    1 type  1   force =    -0.00000000    0.00000000    0.00000000
     atom    2 type  2   force =    -0.00000001    0.00000001    0.05298722
     atom    3 type  2   force =     0.00000001   -0.00000001   -0.05298722
     The core correction contribution to forces
     atom    1 type  1   force =     0.00000000    0.00000000    0.00000000
     atom    2 type  2   force =    -0.00000000    0.00000000    0.00178385
     atom    3 type  2   force =     0.00000000   -0.00000000   -0.00178385
     The Hubbard contrib.    to forces
     atom    1 type  1   force =     0.00000000    0.00000000    0.00000000
     atom    2 type  2   force =     0.00000000    0.00000000    0.00000000
     atom    3 type  2   force =     0.00000000    0.00000000    0.00000000
     The SCF correction term to forces
     atom    1 type  1   force =     0.00000000   -0.00000000   -0.00000000
     atom    2 type  2   force =    -0.00000000    0.00000000   -0.00000028
     atom    3 type  2   force =     0.00000000   -0.00000000    0.00000028

     Total force =     0.030136     Total SCF correction =     0.000000


     Computing stress (Cartesian axis) and pressure

          total   stress  (Ry/bohr**3)                   (kbar)     P=      523.76
   0.00362870   0.00000000   0.00000000          533.80        0.00        0.00
   0.00000000   0.00362870   0.00000000            0.00      533.80        0.00
   0.00000000   0.00000000   0.00342389            0.00        0.00      503.67

     Energy error            =      2.3E-03 Ry
     Gradient error          =      2.1E-02 Ry/Bohr
     Cell gradient error     =      3.4E+01 kbar

     number of scf cycles    =   5
     number of bfgs steps    =   4

     enthalpy           old  =     -30.5011210169 Ry
     enthalpy           new  =     -30.5034413074 Ry

     CASE: enthalpy          _new < enthalpy          _old

     new trust radius        =       0.0773873242 bohr
ibrav =      4
 celldm(1) =      7.18527531
 celldm(3) =      0.61861081
Input lattice vectors:
     0.97074592     0.00000000     0.00000000
    -0.48537296     0.84069062    -0.00000000
     0.00000000     0.00000000     0.60051392
New lattice vectors in INITIAL alat:
     0.97074592     0.00000000     0.00000000
    -0.48537296     0.84069062     0.00000000
     0.00000000     0.00000000     0.60051392
New lattice vectors in NEW alat (for information only):
     1.00000000     0.00000000     0.00000000
    -0.50000000     0.86602540     0.00000000
     0.00000000     0.00000000     0.61861081
Discrepancy in bohr =     0.000000    0.000000    0.000000
     new conv_thr            =       0.0000000021 Ry

     new unit-cell volume =    198.73684 a.u.^3 (    29.44976 Ang^3 )
     density =      3.55860 g/cm^3

CELL_PARAMETERS (alat=  7.40180843)
   0.970745916   0.000000000   0.000000000
  -0.485372958   0.840690624   0.000000000
   0.000000000   0.000000000   0.600513921

ATOMIC_POSITIONS (crystal)
Li            0.0000000000        0.0000000000        0.5000000000
Si            0.3333333300        0.6666666700        0.8457549318
Si            0.6666666700        0.3333333300        0.1542450682



     Writing config-only to output data dir ./output/LiSi.save/
     NEW-OLD atomic charge density approx. for the potential
     extrapolated charge   11.08079, renormalised to   11.00000

     total cpu time spent up to now is       39.2 secs

     Self-consistent Calculation

     iteration #  1     ecut=   100.00 Ry     beta= 0.70
     Davidson diagonalization with overlap
     ethr =  1.00E-06,  avg # of iterations =  7.9

     total cpu time spent up to now is       40.9 secs

     total energy              =     -31.18202087 Ry
     estimated scf accuracy    <       0.00025024 Ry

     iteration #  2     ecut=   100.00 Ry     beta= 0.70
     Davidson diagonalization with overlap
     ethr =  2.27E-06,  avg # of iterations =  2.0

     total cpu time spent up to now is       41.8 secs

     total energy              =     -31.18208215 Ry
     estimated scf accuracy    <       0.00001945 Ry

     iteration #  3     ecut=   100.00 Ry     beta= 0.70
     Davidson diagonalization with overlap
     ethr =  1.77E-07,  avg # of iterations =  1.1

     total cpu time spent up to now is       42.5 secs

     total energy              =     -31.18208435 Ry
     estimated scf accuracy    <       0.00000122 Ry

     iteration #  4     ecut=   100.00 Ry     beta= 0.70
     Davidson diagonalization with overlap
     ethr =  1.11E-08,  avg # of iterations =  1.9

     total cpu time spent up to now is       43.3 secs

     total energy              =     -31.18208449 Ry
     estimated scf accuracy    <       0.00000002 Ry

     iteration #  5     ecut=   100.00 Ry     beta= 0.70
     Davidson diagonalization with overlap
     ethr =  2.00E-10,  avg # of iterations =  3.5

     total cpu time spent up to now is       44.3 secs

     End of self-consistent calculation

     Number of k-points >= 100: set verbosity='high' to print the bands.

     the Fermi energy is    12.7594 ev

!    total energy              =     -31.18208450 Ry
     estimated scf accuracy    <          1.3E-09 Ry
     smearing contrib. (-TS)   =      -0.00000117 Ry
     internal energy E=F+TS    =     -31.18208333 Ry

     The total energy is F=E-TS. E is the sum of the following terms:
     one-electron contribution =       5.13480666 Ry
     hartree contribution      =       2.88004248 Ry
     xc contribution           =     -10.18526268 Ry
     ewald contribution        =     -29.01166979 Ry

     convergence has been achieved in   5 iterations

     Forces acting on atoms (cartesian axes, Ry/au):

     atom    1 type  1   force =     0.00000000   -0.00000000    0.00000000
     atom    2 type  2   force =     0.00000000    0.00000000    0.01922733
     atom    3 type  2   force =     0.00000000    0.00000000   -0.01922733
     The non-local contrib.  to forces
     atom    1 type  1   force =     0.00000000    0.00000000    0.00000000
     atom    2 type  2   force =     0.00000000   -0.00000000   -0.01251383
     atom    3 type  2   force =     0.00000000    0.00000000    0.01251383
     The ionic contribution  to forces
     atom    1 type  1   force =    -0.00000000    0.00000000   -0.00000000
     atom    2 type  2   force =     0.00000009   -0.00000005   -0.05555073
     atom    3 type  2   force =    -0.00000009    0.00000005    0.05555073
     The local contribution  to forces
     atom    1 type  1   force =    -0.00000000    0.00000000    0.00000000
     atom    2 type  2   force =    -0.00000001    0.00000001    0.08480015
     atom    3 type  2   force =     0.00000001   -0.00000001   -0.08480015
     The core correction contribution to forces
     atom    1 type  1   force =     0.00000000    0.00000000    0.00000000
     atom    2 type  2   force =    -0.00000000    0.00000000    0.00249272
     atom    3 type  2   force =     0.00000000   -0.00000000   -0.00249272
     The Hubbard contrib.    to forces
     atom    1 type  1   force =     0.00000000    0.00000000    0.00000000
     atom    2 type  2   force =     0.00000000    0.00000000    0.00000000
     atom    3 type  2   force =     0.00000000    0.00000000    0.00000000
     The SCF correction term to forces
     atom    1 type  1   force =     0.00000000    0.00000000    0.00000000
     atom    2 type  2   force =    -0.00000000    0.00000000   -0.00000099
     atom    3 type  2   force =     0.00000000   -0.00000000    0.00000099

     Total force =     0.027192     Total SCF correction =     0.000001


     Computing stress (Cartesian axis) and pressure

          total   stress  (Ry/bohr**3)                   (kbar)     P=      526.16
   0.00370589   0.00000000   0.00000000          545.16        0.00        0.00
   0.00000000   0.00370589   0.00000000            0.00      545.16        0.00
  -0.00000000  -0.00000000   0.00331853           -0.00       -0.00      488.17

     Energy error            =      3.2E-03 Ry
     Gradient error          =      1.9E-02 Ry/Bohr
     Cell gradient error     =      4.5E+01 kbar

     number of scf cycles    =   6
     number of bfgs steps    =   5

     enthalpy           old  =     -30.5034413074 Ry
     enthalpy           new  =     -30.5065917089 Ry

     CASE: enthalpy          _new < enthalpy          _old

     new trust radius        =       0.1168112760 bohr
ibrav =      4
 celldm(1) =      7.20716091
 celldm(3) =      0.62153670
Input lattice vectors:
     0.97370271    -0.00000000    -0.00000000
    -0.48685135     0.84325128     0.00000000
     0.00000000     0.00000000     0.60519197
New lattice vectors in INITIAL alat:
     0.97370271     0.00000000     0.00000000
    -0.48685135     0.84325128     0.00000000
     0.00000000     0.00000000     0.60519197
New lattice vectors in NEW alat (for information only):
     1.00000000     0.00000000     0.00000000
    -0.50000000     0.86602540     0.00000000
     0.00000000     0.00000000     0.62153670
Discrepancy in bohr =     0.000000    0.000000    0.000000
     new conv_thr            =       0.0000000019 Ry

     new unit-cell volume =    201.50697 a.u.^3 (    29.86025 Ang^3 )
     density =      3.50968 g/cm^3

CELL_PARAMETERS (alat=  7.40180843)
   0.973702708   0.000000000   0.000000000
  -0.486851354   0.843251281   0.000000000
   0.000000000   0.000000000   0.605191972

ATOMIC_POSITIONS (crystal)
Li            0.0000000000        0.0000000000        0.5000000000
Si            0.3333333300        0.6666666700        0.8720348402
Si            0.6666666700        0.3333333300        0.1279651598



     Writing config-only to output data dir ./output/LiSi.save/
     NEW-OLD atomic charge density approx. for the potential
     extrapolated charge   11.15114, renormalised to   11.00000

     total cpu time spent up to now is       46.1 secs

     Self-consistent Calculation

     iteration #  1     ecut=   100.00 Ry     beta= 0.70
     Davidson diagonalization with overlap
     c_bands:  1 eigenvalues not converged
     c_bands:  1 eigenvalues not converged
     ethr =  1.00E-06,  avg # of iterations =  8.5

     total cpu time spent up to now is       47.9 secs

     total energy              =     -31.19581460 Ry
     estimated scf accuracy    <       0.00057824 Ry

     iteration #  2     ecut=   100.00 Ry     beta= 0.70
     Davidson diagonalization with overlap
     ethr =  5.26E-06,  avg # of iterations =  2.0

     total cpu time spent up to now is       48.8 secs

     total energy              =     -31.19600277 Ry
     estimated scf accuracy    <       0.00005686 Ry

     iteration #  3     ecut=   100.00 Ry     beta= 0.70
     Davidson diagonalization with overlap
     ethr =  5.17E-07,  avg # of iterations =  1.0

     total cpu time spent up to now is       49.5 secs

     total energy              =     -31.19600886 Ry
     estimated scf accuracy    <       0.00000347 Ry

     iteration #  4     ecut=   100.00 Ry     beta= 0.70
     Davidson diagonalization with overlap
     ethr =  3.15E-08,  avg # of iterations =  2.0

     total cpu time spent up to now is       50.2 secs

     total energy              =     -31.19600920 Ry
     estimated scf accuracy    <       0.00000005 Ry

     iteration #  5     ecut=   100.00 Ry     beta= 0.70
     Davidson diagonalization with overlap
     ethr =  4.89E-10,  avg # of iterations =  3.4

     total cpu time spent up to now is       51.2 secs

     total energy              =     -31.19600922 Ry
     estimated scf accuracy    <          5.3E-09 Ry

     iteration #  6     ecut=   100.00 Ry     beta= 0.70
     Davidson diagonalization with overlap
     ethr =  4.81E-11,  avg # of iterations =  2.0

     total cpu time spent up to now is       52.0 secs

     End of self-consistent calculation

     Number of k-points >= 100: set verbosity='high' to print the bands.

     the Fermi energy is    12.5363 ev

!    total energy              =     -31.19600922 Ry
     estimated scf accuracy    <          5.7E-10 Ry
     smearing contrib. (-TS)   =      -0.00009614 Ry
     internal energy E=F+TS    =     -31.19591308 Ry

     The total energy is F=E-TS. E is the sum of the following terms:
     one-electron contribution =       4.95061560 Ry
     hartree contribution      =       2.88559498 Ry
     xc contribution           =     -10.17061993 Ry
     ewald contribution        =     -28.86150374 Ry

     convergence has been achieved in   6 iterations

     Forces acting on atoms (cartesian axes, Ry/au):

     atom    1 type  1   force =     0.00000000    0.00000000    0.00000000
     atom    2 type  2   force =     0.00000000    0.00000000    0.01705917
     atom    3 type  2   force =     0.00000000    0.00000000   -0.01705917
     The non-local contrib.  to forces
     atom    1 type  1   force =     0.00000000    0.00000000    0.00000000
     atom    2 type  2   force =     0.00000000   -0.00000000   -0.01685077
     atom    3 type  2   force =     0.00000000    0.00000000    0.01685077
     The ionic contribution  to forces
     atom    1 type  1   force =    -0.00000000    0.00000000   -0.00000000
     atom    2 type  2   force =     0.00000010   -0.00000006   -0.08264417
     atom    3 type  2   force =    -0.00000010    0.00000006    0.08264417
     The local contribution  to forces
     atom    1 type  1   force =    -0.00000000    0.00000000    0.00000000
     atom    2 type  2   force =    -0.00000001    0.00000001    0.11367130
     atom    3 type  2   force =     0.00000001   -0.00000001   -0.11367130
     The core correction contribution to forces
     atom    1 type  1   force =     0.00000000    0.00000000    0.00000000
     atom    2 type  2   force =    -0.00000000    0.00000000    0.00288256
     atom    3 type  2   force =     0.00000000   -0.00000000   -0.00288256
     The Hubbard contrib.    to forces
     atom    1 type  1   force =     0.00000000    0.00000000    0.00000000
     atom    2 type  2   force =     0.00000000    0.00000000    0.00000000
     atom    3 type  2   force =     0.00000000    0.00000000    0.00000000
     The SCF correction term to forces
     atom    1 type  1   force =     0.00000000    0.00000000   -0.00000000
     atom    2 type  2   force =     0.00000000   -0.00000000    0.00000026
     atom    3 type  2   force =    -0.00000000    0.00000000   -0.00000026

     Total force =     0.024125     Total SCF correction =     0.000000


     Computing stress (Cartesian axis) and pressure

          total   stress  (Ry/bohr**3)                   (kbar)     P=      527.42
   0.00376209  -0.00000000   0.00000000          553.42       -0.00        0.00
  -0.00000000   0.00376209   0.00000000           -0.00      553.42        0.00
   0.00000000   0.00000000   0.00323182            0.00        0.00      475.42

     Energy error            =      4.5E-03 Ry
     Gradient error          =      1.7E-02 Ry/Bohr
     Cell gradient error     =      5.3E+01 kbar

     number of scf cycles    =   7
     number of bfgs steps    =   6

     enthalpy           old  =     -30.5065917089 Ry
     enthalpy           new  =     -30.5111009598 Ry

     CASE: enthalpy          _new < enthalpy          _old

     new trust radius        =       0.1765818676 bohr
ibrav =      4
 celldm(1) =      7.25382032
 celldm(3) =      0.62384557
Input lattice vectors:
     0.98000649    -0.00000000     0.00000000
    -0.49000325     0.84871052    -0.00000000
     0.00000000     0.00000000     0.61137270
New lattice vectors in INITIAL alat:
     0.98000649     0.00000000     0.00000000
    -0.49000325     0.84871052     0.00000000
     0.00000000     0.00000000     0.61137270
New lattice vectors in NEW alat (for information only):
     1.00000000     0.00000000     0.00000000
    -0.50000000     0.86602540     0.00000000
     0.00000000     0.00000000     0.62384557
Discrepancy in bohr =     0.000000    0.000000    0.000000
     new conv_thr            =       0.0000000017 Ry

     new unit-cell volume =    206.20923 a.u.^3 (    30.55706 Ang^3 )
     density =      3.42965 g/cm^3

CELL_PARAMETERS (alat=  7.40180843)
   0.980006492   0.000000000   0.000000000
  -0.490003246   0.848710518   0.000000000
   0.000000000   0.000000000   0.611372704

ATOMIC_POSITIONS (crystal)
Li            0.0000000000        0.0000000000        0.5000000000
Si            0.3333333300        0.6666666700        0.9114547028
Si            0.6666666700        0.3333333300        0.0885452972



     Writing config-only to output data dir ./output/LiSi.save/
     NEW-OLD atomic charge density approx. for the potential
     extrapolated charge   11.25071, renormalised to   11.00000

     total cpu time spent up to now is       53.8 secs

     Self-consistent Calculation

     iteration #  1     ecut=   100.00 Ry     beta= 0.70
     Davidson diagonalization with overlap
     c_bands:  1 eigenvalues not converged
     ethr =  1.00E-06,  avg # of iterations =  9.1

     total cpu time spent up to now is       55.8 secs

     total energy              =     -31.21681216 Ry
     estimated scf accuracy    <       0.00103055 Ry

     iteration #  2     ecut=   100.00 Ry     beta= 0.70
     Davidson diagonalization with overlap
     ethr =  9.37E-06,  avg # of iterations =  2.0

     total cpu time spent up to now is       56.7 secs

     total energy              =     -31.21726340 Ry
     estimated scf accuracy    <       0.00011998 Ry

     iteration #  3     ecut=   100.00 Ry     beta= 0.70
     Davidson diagonalization with overlap
     ethr =  1.09E-06,  avg # of iterations =  1.1

     total cpu time spent up to now is       57.4 secs

     total energy              =     -31.21727506 Ry
     estimated scf accuracy    <       0.00000751 Ry

     iteration #  4     ecut=   100.00 Ry     beta= 0.70
     Davidson diagonalization with overlap
     ethr =  6.82E-08,  avg # of iterations =  2.0

     total cpu time spent up to now is       58.1 secs

     total energy              =     -31.21727594 Ry
     estimated scf accuracy    <       0.00000009 Ry

     iteration #  5     ecut=   100.00 Ry     beta= 0.70
     Davidson diagonalization with overlap
     ethr =  8.44E-10,  avg # of iterations =  3.4

     total cpu time spent up to now is       59.1 secs

     total energy              =     -31.21727599 Ry
     estimated scf accuracy    <       0.00000001 Ry

     iteration #  6     ecut=   100.00 Ry     beta= 0.70
     Davidson diagonalization with overlap
     ethr =  1.01E-10,  avg # of iterations =  2.0

     total cpu time spent up to now is       59.9 secs

     End of self-consistent calculation

     Number of k-points >= 100: set verbosity='high' to print the bands.

     the Fermi energy is    12.1085 ev

!    total energy              =     -31.21727599 Ry
     estimated scf accuracy    <          1.4E-09 Ry
     smearing contrib. (-TS)   =       0.00020124 Ry
     internal energy E=F+TS    =     -31.21747724 Ry

     The total energy is F=E-TS. E is the sum of the following terms:
     one-electron contribution =       4.63208737 Ry
     hartree contribution      =       2.90306498 Ry
     xc contribution           =     -10.14476651 Ry
     ewald contribution        =     -28.60786307 Ry

     convergence has been achieved in   6 iterations

     Forces acting on atoms (cartesian axes, Ry/au):

     atom    1 type  1   force =     0.00000000    0.00000000    0.00000000
     atom    2 type  2   force =    -0.00000000   -0.00000000    0.01032510
     atom    3 type  2   force =    -0.00000000   -0.00000000   -0.01032510
     The non-local contrib.  to forces
     atom    1 type  1   force =     0.00000000   -0.00000000    0.00000000
     atom    2 type  2   force =    -0.00000000   -0.00000000   -0.01260584
     atom    3 type  2   force =    -0.00000000   -0.00000000    0.01260584
     The ionic contribution  to forces
     atom    1 type  1   force =    -0.00000000    0.00000000   -0.00000000
     atom    2 type  2   force =     0.00000010   -0.00000006   -0.09098961
     atom    3 type  2   force =    -0.00000010    0.00000006    0.09098961
     The local contribution  to forces
     atom    1 type  1   force =    -0.00000000   -0.00000000    0.00000000
     atom    2 type  2   force =    -0.00000001    0.00000001    0.11155237
     atom    3 type  2   force =     0.00000001   -0.00000001   -0.11155237
     The core correction contribution to forces
     atom    1 type  1   force =     0.00000000    0.00000000    0.00000000
     atom    2 type  2   force =    -0.00000000    0.00000000    0.00236794
     atom    3 type  2   force =     0.00000000   -0.00000000   -0.00236794
     The Hubbard contrib.    to forces
     atom    1 type  1   force =     0.00000000    0.00000000    0.00000000
     atom    2 type  2   force =     0.00000000    0.00000000    0.00000000
     atom    3 type  2   force =     0.00000000    0.00000000    0.00000000
     The SCF correction term to forces
     atom    1 type  1   force =     0.00000000   -0.00000000   -0.00000000
     atom    2 type  2   force =     0.00000000   -0.00000000    0.00000024
     atom    3 type  2   force =    -0.00000000    0.00000000   -0.00000024

     Total force =     0.014602     Total SCF correction =     0.000000


     Computing stress (Cartesian axis) and pressure

          total   stress  (Ry/bohr**3)                   (kbar)     P=      512.47
   0.00371934  -0.00000000   0.00000000          547.13       -0.00        0.00
  -0.00000000   0.00371934   0.00000000           -0.00      547.13        0.00
   0.00000000   0.00000000   0.00301245            0.00        0.00      443.15

     Energy error            =      5.3E-03 Ry
     Gradient error          =      1.0E-02 Ry/Bohr
     Cell gradient error     =      5.7E+01 kbar

     number of scf cycles    =   8
     number of bfgs steps    =   7

     enthalpy           old  =     -30.5111009598 Ry
     enthalpy           new  =     -30.5163850588 Ry

     CASE: enthalpy          _new < enthalpy          _old

     new trust radius        =       0.2516337832 bohr
ibrav =      4
 celldm(1) =      7.33457440
 celldm(3) =      0.62044728
Input lattice vectors:
     0.99091654    -0.00000000    -0.00000000
    -0.49545827     0.85815890    -0.00000000
    -0.00000000    -0.00000000     0.61481147
New lattice vectors in INITIAL alat:
     0.99091654     0.00000000     0.00000000
    -0.49545827     0.85815890     0.00000000
     0.00000000     0.00000000     0.61481147
New lattice vectors in NEW alat (for information only):
     1.00000000     0.00000000     0.00000000
    -0.50000000     0.86602540     0.00000000
     0.00000000     0.00000000     0.62044728
Discrepancy in bohr =     0.000000    0.000000    0.000000
     new conv_thr            =       0.0000000010 Ry

     new unit-cell volume =    212.01192 a.u.^3 (    31.41692 Ang^3 )
     density =      3.33578 g/cm^3

CELL_PARAMETERS (alat=  7.40180843)
   0.990916540   0.000000000   0.000000000
  -0.495458270   0.858158896   0.000000000
   0.000000000   0.000000000   0.614811474

ATOMIC_POSITIONS (crystal)
Li            0.0000000000        0.0000000000        0.5000000000
Si            0.3333333300        0.6666666700        0.9670611389
Si            0.6666666700        0.3333333300        0.0329388611



     Writing config-only to output data dir ./output/LiSi.save/
     NEW-OLD atomic charge density approx. for the potential
     extrapolated charge   11.30091, renormalised to   11.00000

     total cpu time spent up to now is       61.6 secs

     Self-consistent Calculation

     iteration #  1     ecut=   100.00 Ry     beta= 0.70
     Davidson diagonalization with overlap
     ethr =  1.00E-06,  avg # of iterations =  9.9

     total cpu time spent up to now is       63.7 secs

     total energy              =     -31.24012336 Ry
     estimated scf accuracy    <       0.00156352 Ry

     iteration #  2     ecut=   100.00 Ry     beta= 0.70
     Davidson diagonalization with overlap
     ethr =  1.42E-05,  avg # of iterations =  2.0

     total cpu time spent up to now is       64.5 secs

     total energy              =     -31.24073901 Ry
     estimated scf accuracy    <       0.00014586 Ry

     iteration #  3     ecut=   100.00 Ry     beta= 0.70
     Davidson diagonalization with overlap
     ethr =  1.33E-06,  avg # of iterations =  1.6

     total cpu time spent up to now is       65.3 secs

     total energy              =     -31.24075567 Ry
     estimated scf accuracy    <       0.00000805 Ry

     iteration #  4     ecut=   100.00 Ry     beta= 0.70
     Davidson diagonalization with overlap
     ethr =  7.31E-08,  avg # of iterations =  2.1

     total cpu time spent up to now is       66.1 secs

     total energy              =     -31.24075712 Ry
     estimated scf accuracy    <       0.00000014 Ry

     iteration #  5     ecut=   100.00 Ry     beta= 0.70
     Davidson diagonalization with overlap
     ethr =  1.25E-09,  avg # of iterations =  3.6

     total cpu time spent up to now is       67.1 secs

     total energy              =     -31.24075720 Ry
     estimated scf accuracy    <       0.00000001 Ry

     iteration #  6     ecut=   100.00 Ry     beta= 0.70
     Davidson diagonalization with overlap
     ethr =  1.09E-10,  avg # of iterations =  1.8

     total cpu time spent up to now is       67.8 secs

     End of self-consistent calculation

     Number of k-points >= 100: set verbosity='high' to print the bands.

     the Fermi energy is    11.6063 ev

!    total energy              =     -31.24075720 Ry
     estimated scf accuracy    <          9.7E-10 Ry
     smearing contrib. (-TS)   =       0.00043396 Ry
     internal energy E=F+TS    =     -31.24119116 Ry

     The total energy is F=E-TS. E is the sum of the following terms:
     one-electron contribution =       4.25146396 Ry
     hartree contribution      =       2.92868906 Ry
     xc contribution           =     -10.11050477 Ry
     ewald contribution        =     -28.31083942 Ry

     convergence has been achieved in   6 iterations

     Forces acting on atoms (cartesian axes, Ry/au):

     atom    1 type  1   force =    -0.00000000    0.00000000    0.00000000
     atom    2 type  2   force =     0.00000000   -0.00000000    0.00344115
     atom    3 type  2   force =    -0.00000000   -0.00000000   -0.00344115
     The non-local contrib.  to forces
     atom    1 type  1   force =    -0.00000000    0.00000000    0.00000000
     atom    2 type  2   force =     0.00000000    0.00000000   -0.00376476
     atom    3 type  2   force =     0.00000000    0.00000000    0.00376476
     The ionic contribution  to forces
     atom    1 type  1   force =    -0.00000000    0.00000000    0.00000000
     atom    2 type  2   force =     0.00000010   -0.00000006   -0.04326201
     atom    3 type  2   force =    -0.00000010    0.00000006    0.04326201
     The local contribution  to forces
     atom    1 type  1   force =    -0.00000000    0.00000000    0.00000000
     atom    2 type  2   force =    -0.00000001    0.00000001    0.04957517
     atom    3 type  2   force =     0.00000001   -0.00000001   -0.04957517
     The core correction contribution to forces
     atom    1 type  1   force =     0.00000000    0.00000000    0.00000000
     atom    2 type  2   force =    -0.00000000    0.00000000    0.00089309
     atom    3 type  2   force =     0.00000000   -0.00000000   -0.00089309
     The Hubbard contrib.    to forces
     atom    1 type  1   force =     0.00000000    0.00000000    0.00000000
     atom    2 type  2   force =     0.00000000    0.00000000    0.00000000
     atom    3 type  2   force =     0.00000000    0.00000000    0.00000000
     The SCF correction term to forces
     atom    1 type  1   force =    -0.00000000    0.00000000    0.00000000
     atom    2 type  2   force =    -0.00000000    0.00000000   -0.00000034
     atom    3 type  2   force =     0.00000000   -0.00000000    0.00000034

     Total force =     0.004867     Total SCF correction =     0.000000


     Computing stress (Cartesian axis) and pressure

          total   stress  (Ry/bohr**3)                   (kbar)     P=      477.31
   0.00349726   0.00000000   0.00000000          514.46        0.00        0.00
   0.00000000   0.00349726   0.00000000            0.00      514.46        0.00
   0.00000000   0.00000000   0.00273952            0.00        0.00      403.00

     Energy error            =      3.8E-03 Ry
     Gradient error          =      3.4E-03 Ry/Bohr
     Cell gradient error     =      9.7E+01 kbar

     number of scf cycles    =   9
     number of bfgs steps    =   8

     enthalpy           old  =     -30.5163850588 Ry
     enthalpy           new  =     -30.5201433429 Ry

     CASE: enthalpy          _new < enthalpy          _old

     new trust radius        =       0.1187181835 bohr
ibrav =      4
 celldm(1) =      7.36078864
 celldm(3) =      0.61273863
Input lattice vectors:
     0.99445814     0.00000000     0.00000000
    -0.49722907     0.86122601     0.00000000
     0.00000000     0.00000000     0.60934291
New lattice vectors in INITIAL alat:
     0.99445814     0.00000000     0.00000000
    -0.49722907     0.86122601     0.00000000
     0.00000000     0.00000000     0.60934291
New lattice vectors in NEW alat (for information only):
     1.00000000     0.00000000     0.00000000
    -0.50000000     0.86602540     0.00000000
     0.00000000     0.00000000     0.61273863
Discrepancy in bohr =     0.000000    0.000000    0.000000
     new conv_thr            =       0.0000000003 Ry

     new unit-cell volume =    211.63083 a.u.^3 (    31.36045 Ang^3 )
     density =      3.34179 g/cm^3

CELL_PARAMETERS (alat=  7.40180843)
   0.994458139   0.000000000   0.000000000
  -0.497229070   0.861226012   0.000000000
   0.000000000   0.000000000   0.609342914

ATOMIC_POSITIONS (crystal)
Li            0.0000000000        0.0000000000        0.5000000000
Si            0.3333333300        0.6666666700        0.9931489378
Si            0.6666666700        0.3333333300        0.0068510622



     Writing config-only to output data dir ./output/LiSi.save/
     NEW-OLD atomic charge density approx. for the potential
     extrapolated charge   10.98020, renormalised to   11.00000

     total cpu time spent up to now is       69.5 secs

     Self-consistent Calculation

     iteration #  1     ecut=   100.00 Ry     beta= 0.70
     Davidson diagonalization with overlap
     c_bands:  1 eigenvalues not converged
     c_bands:  1 eigenvalues not converged
     ethr =  1.00E-06,  avg # of iterations =  8.3

     total cpu time spent up to now is       71.2 secs

     total energy              =     -31.24102500 Ry
     estimated scf accuracy    <       0.00031832 Ry

     iteration #  2     ecut=   100.00 Ry     beta= 0.70
     Davidson diagonalization with overlap
     ethr =  2.89E-06,  avg # of iterations =  1.0

     total cpu time spent up to now is       71.9 secs

     total energy              =     -31.24104479 Ry
     estimated scf accuracy    <       0.00000680 Ry

     iteration #  3     ecut=   100.00 Ry     beta= 0.70
     Davidson diagonalization with overlap
     ethr =  6.18E-08,  avg # of iterations =  2.9

     total cpu time spent up to now is       72.8 secs

     total energy              =     -31.24104714 Ry
     estimated scf accuracy    <       0.00000012 Ry

     iteration #  4     ecut=   100.00 Ry     beta= 0.70
     Davidson diagonalization with overlap
     ethr =  1.10E-09,  avg # of iterations =  2.7

     total cpu time spent up to now is       73.6 secs

     total energy              =     -31.24104718 Ry
     estimated scf accuracy    <       0.00000001 Ry

     iteration #  5     ecut=   100.00 Ry     beta= 0.70
     Davidson diagonalization with overlap
     ethr =  9.19E-11,  avg # of iterations =  2.0

     total cpu time spent up to now is       74.3 secs

     total energy              =     -31.24104718 Ry
     estimated scf accuracy    <          4.7E-10 Ry

     iteration #  6     ecut=   100.00 Ry     beta= 0.70
     Davidson diagonalization with overlap
     ethr =  4.28E-12,  avg # of iterations =  2.5

     total cpu time spent up to now is       75.1 secs

     End of self-consistent calculation

     Number of k-points >= 100: set verbosity='high' to print the bands.

     the Fermi energy is    11.5612 ev

!    total energy              =     -31.24104718 Ry
     estimated scf accuracy    <          8.4E-12 Ry
     smearing contrib. (-TS)   =       0.00049967 Ry
     internal energy E=F+TS    =     -31.24154685 Ry

     The total energy is F=E-TS. E is the sum of the following terms:
     one-electron contribution =       4.27539189 Ry
     hartree contribution      =       2.92566102 Ry
     xc contribution           =     -10.11568163 Ry
     ewald contribution        =     -28.32691813 Ry

     convergence has been achieved in   6 iterations

     Forces acting on atoms (cartesian axes, Ry/au):

     atom    1 type  1   force =     0.00000000   -0.00000000    0.00000000
     atom    2 type  2   force =     0.00000000    0.00000000    0.00072146
     atom    3 type  2   force =     0.00000000    0.00000000   -0.00072146
     The non-local contrib.  to forces
     atom    1 type  1   force =     0.00000000    0.00000000    0.00000000
     atom    2 type  2   force =     0.00000000    0.00000000   -0.00101847
     atom    3 type  2   force =     0.00000000    0.00000000    0.00101847
     The ionic contribution  to forces
     atom    1 type  1   force =     0.00000000    0.00000000   -0.00000000
     atom    2 type  2   force =     0.00000010   -0.00000006   -0.00880078
     atom    3 type  2   force =    -0.00000010    0.00000006    0.00880078
     The local contribution  to forces
     atom    1 type  1   force =    -0.00000000    0.00000000    0.00000000
     atom    2 type  2   force =    -0.00000001    0.00000001    0.01034245
     atom    3 type  2   force =     0.00000001   -0.00000001   -0.01034245
     The core correction contribution to forces
     atom    1 type  1   force =     0.00000000    0.00000000    0.00000000
     atom    2 type  2   force =    -0.00000000    0.00000000    0.00019837
     atom    3 type  2   force =     0.00000000   -0.00000000   -0.00019837
     The Hubbard contrib.    to forces
     atom    1 type  1   force =     0.00000000    0.00000000    0.00000000
     atom    2 type  2   force =     0.00000000    0.00000000    0.00000000
     atom    3 type  2   force =     0.00000000    0.00000000    0.00000000
     The SCF correction term to forces
     atom    1 type  1   force =    -0.00000000   -0.00000000   -0.00000000
     atom    2 type  2   force =     0.00000000   -0.00000000   -0.00000010
     atom    3 type  2   force =    -0.00000000    0.00000000    0.00000010

     Total force =     0.001020     Total SCF correction =     0.000000


     Computing stress (Cartesian axis) and pressure

          total   stress  (Ry/bohr**3)                   (kbar)     P=      486.60
   0.00344985  -0.00000000   0.00000000          507.49       -0.00        0.00
  -0.00000000   0.00344985   0.00000000           -0.00      507.49        0.00
   0.00000000   0.00000000   0.00302378            0.00        0.00      444.81

     Energy error            =      1.6E-03 Ry
     Gradient error          =      7.2E-04 Ry/Bohr
     Cell gradient error     =      5.5E+01 kbar

     number of scf cycles    =  10
     number of bfgs steps    =   9

     enthalpy           old  =     -30.5201433429 Ry
     enthalpy           new  =     -30.5217286119 Ry

     CASE: enthalpy          _new < enthalpy          _old

     new trust radius        =       0.0591816105 bohr
ibrav =      4
 celldm(1) =      7.37420616
 celldm(3) =      0.60545747
Input lattice vectors:
     0.99627088    -0.00000000     0.00000000
    -0.49813544     0.86279589     0.00000000
     0.00000000     0.00000000     0.60319965
New lattice vectors in INITIAL alat:
     0.99627088     0.00000000     0.00000000
    -0.49813544     0.86279589     0.00000000
     0.00000000     0.00000000     0.60319965
New lattice vectors in NEW alat (for information only):
     1.00000000     0.00000000     0.00000000
    -0.50000000     0.86602540     0.00000000
     0.00000000     0.00000000     0.60545747
Discrepancy in bohr =     0.000000    0.000000    0.000000
     new conv_thr            =            1.0E-10 Ry

     new unit-cell volume =    210.26167 a.u.^3 (    31.15756 Ang^3 )
     density =      3.36355 g/cm^3

CELL_PARAMETERS (alat=  7.40180843)
   0.996270875   0.000000000   0.000000000
  -0.498135438   0.862795887   0.000000000
   0.000000000   0.000000000   0.603199647

ATOMIC_POSITIONS (crystal)
Li            0.0000000000        0.0000000000        0.5000000000
Si            0.3333333300        0.6666666700        1.0062705492
Si            0.6666666700        0.3333333300       -0.0062705492



     Writing config-only to output data dir ./output/LiSi.save/
     NEW-OLD atomic charge density approx. for the potential
     extrapolated charge   10.92841, renormalised to   11.00000

     total cpu time spent up to now is       76.8 secs

     Self-consistent Calculation

     iteration #  1     ecut=   100.00 Ry     beta= 0.70
     Davidson diagonalization with overlap
     ethr =  1.00E-06,  avg # of iterations =  7.0

     total cpu time spent up to now is       78.3 secs

     total energy              =     -31.23686872 Ry
     estimated scf accuracy    <       0.00012741 Ry

     iteration #  2     ecut=   100.00 Ry     beta= 0.70
     Davidson diagonalization with overlap
     ethr =  1.16E-06,  avg # of iterations =  2.0

     total cpu time spent up to now is       79.1 secs

     total energy              =     -31.23690092 Ry
     estimated scf accuracy    <       0.00000672 Ry

     iteration #  3     ecut=   100.00 Ry     beta= 0.70
     Davidson diagonalization with overlap
     ethr =  6.11E-08,  avg # of iterations =  1.9

     total cpu time spent up to now is       79.9 secs

     total energy              =     -31.23690192 Ry
     estimated scf accuracy    <       0.00000024 Ry

     iteration #  4     ecut=   100.00 Ry     beta= 0.70
     Davidson diagonalization with overlap
     ethr =  2.17E-09,  avg # of iterations =  2.8

     total cpu time spent up to now is       80.7 secs

     total energy              =     -31.23690201 Ry
     estimated scf accuracy    <       0.00000001 Ry

     iteration #  5     ecut=   100.00 Ry     beta= 0.70
     Davidson diagonalization with overlap
     ethr =  9.76E-11,  avg # of iterations =  2.7

     total cpu time spent up to now is       81.5 secs

     total energy              =     -31.23690201 Ry
     estimated scf accuracy    <          4.9E-10 Ry

     iteration #  6     ecut=   100.00 Ry     beta= 0.70
     Davidson diagonalization with overlap
     ethr =  4.42E-12,  avg # of iterations =  2.4

     total cpu time spent up to now is       82.3 secs

     End of self-consistent calculation

     Number of k-points >= 100: set verbosity='high' to print the bands.

     the Fermi energy is    11.6176 ev

!    total energy              =     -31.23690201 Ry
     estimated scf accuracy    <          1.6E-11 Ry
     smearing contrib. (-TS)   =       0.00039508 Ry
     internal energy E=F+TS    =     -31.23729709 Ry

     The total energy is F=E-TS. E is the sum of the following terms:
     one-electron contribution =       4.36304988 Ry
     hartree contribution      =       2.91836552 Ry
     xc contribution           =     -10.12680564 Ry
     ewald contribution        =     -28.39190684 Ry

     convergence has been achieved in   6 iterations

     Forces acting on atoms (cartesian axes, Ry/au):

     atom    1 type  1   force =    -0.00000000    0.00000000    0.00000000
     atom    2 type  2   force =     0.00000000    0.00000000   -0.00062824
     atom    3 type  2   force =     0.00000000    0.00000000    0.00062824
     The non-local contrib.  to forces
     atom    1 type  1   force =     0.00000000   -0.00000000    0.00000000
     atom    2 type  2   force =     0.00000000    0.00000000    0.00139932
     atom    3 type  2   force =     0.00000000    0.00000000   -0.00139932
     The ionic contribution  to forces
     atom    1 type  1   force =     0.00000000    0.00000000   -0.00000000
     atom    2 type  2   force =     0.00000010   -0.00000006    0.00760364
     atom    3 type  2   force =    -0.00000010    0.00000006   -0.00760364
     The local contribution  to forces
     atom    1 type  1   force =    -0.00000000    0.00000000   -0.00000000
     atom    2 type  2   force =    -0.00000001    0.00000001   -0.00942575
     atom    3 type  2   force =     0.00000001   -0.00000001    0.00942575
     The core correction contribution to forces
     atom    1 type  1   force =     0.00000000    0.00000000    0.00000000
     atom    2 type  2   force =    -0.00000000    0.00000000   -0.00020530
     atom    3 type  2   force =     0.00000000   -0.00000000    0.00020530
     The Hubbard contrib.    to forces
     atom    1 type  1   force =     0.00000000    0.00000000    0.00000000
     atom    2 type  2   force =     0.00000000    0.00000000    0.00000000
     atom    3 type  2   force =     0.00000000    0.00000000    0.00000000
     The SCF correction term to forces
     atom    1 type  1   force =     0.00000000    0.00000000    0.00000000
     atom    2 type  2   force =     0.00000000   -0.00000000   -0.00000015
     atom    3 type  2   force =    -0.00000000    0.00000000    0.00000015

     Total force =     0.000888     Total SCF correction =     0.000000


     Computing stress (Cartesian axis) and pressure

          total   stress  (Ry/bohr**3)                   (kbar)     P=      503.31
   0.00346297   0.00000000   0.00000000          509.42        0.00        0.00
   0.00000000   0.00346297   0.00000000            0.00      509.42        0.00
   0.00000000   0.00000000   0.00333846            0.00        0.00      491.10

     Energy error            =      5.1E-04 Ry
     Gradient error          =      6.3E-04 Ry/Bohr
     Cell gradient error     =      9.4E+00 kbar

     number of scf cycles    =  11
     number of bfgs steps    =  10

     enthalpy           old  =     -30.5217286119 Ry
     enthalpy           new  =     -30.5222371305 Ry

     CASE: enthalpy          _new < enthalpy          _old

     new trust radius        =       0.0050752959 bohr
ibrav =      4
 celldm(1) =      7.38156661
 celldm(3) =      0.60379522
Input lattice vectors:
     0.99726529     0.00000000    -0.00000000
    -0.49863264     0.86365707    -0.00000000
    -0.00000000    -0.00000000     0.60214402
New lattice vectors in INITIAL alat:
     0.99726529     0.00000000     0.00000000
    -0.49863264     0.86365707     0.00000000
     0.00000000     0.00000000     0.60214402
New lattice vectors in NEW alat (for information only):
     1.00000000     0.00000000     0.00000000
    -0.50000000     0.86602540     0.00000000
     0.00000000     0.00000000     0.60379522
Discrepancy in bohr =     0.000000    0.000000    0.000000
     new conv_thr            =            1.0E-10 Ry

     new unit-cell volume =    210.31291 a.u.^3 (    31.16516 Ang^3 )
     density =      3.36273 g/cm^3

CELL_PARAMETERS (alat=  7.40180843)
   0.997265288   0.000000000   0.000000000
  -0.498632644   0.863657073   0.000000000
   0.000000000   0.000000000   0.602144016

ATOMIC_POSITIONS (crystal)
Li            0.0000000000        0.0000000000        0.5000000000
Si            0.3333333300        0.6666666700        1.0058512476
Si            0.6666666700        0.3333333300       -0.0058512476



     Writing config-only to output data dir ./output/LiSi.save/
     NEW-OLD atomic charge density approx. for the potential
     extrapolated charge   11.00268, renormalised to   11.00000

     total cpu time spent up to now is       84.0 secs

     Self-consistent Calculation

     iteration #  1     ecut=   100.00 Ry     beta= 0.70
     Davidson diagonalization with overlap
     ethr =  1.00E-06,  avg # of iterations =  2.3

     Threshold (ethr) on eigenvalues was too large:
     Diagonalizing with lowered threshold

     Davidson diagonalization with overlap
     ethr =  1.59E-08,  avg # of iterations =  3.1

     total cpu time spent up to now is       85.6 secs

     total energy              =     -31.23711505 Ry
     estimated scf accuracy    <       0.00000218 Ry

     iteration #  2     ecut=   100.00 Ry     beta= 0.70
     Davidson diagonalization with overlap
     ethr =  1.98E-08,  avg # of iterations =  1.0

     total cpu time spent up to now is       86.3 secs

     total energy              =     -31.23711524 Ry
     estimated scf accuracy    <       0.00000004 Ry

     iteration #  3     ecut=   100.00 Ry     beta= 0.70
     Davidson diagonalization with overlap
     ethr =  3.95E-10,  avg # of iterations =  2.7

     total cpu time spent up to now is       87.1 secs

[...]



     Writing config-only to output data dir ./output/LiSi.save/
     NEW-OLD atomic charge density approx. for the potential
     extrapolated charge   11.00628, renormalised to   11.00000

     total cpu time spent up to now is      100.9 secs

     Self-consistent Calculation

     iteration #  1     ecut=   100.00 Ry     beta= 0.70
     Davidson diagonalization with overlap
     ethr =  1.00E-06,  avg # of iterations =  3.1

     Threshold (ethr) on eigenvalues was too large:
     Diagonalizing with lowered threshold

     Davidson diagonalization with overlap
     ethr =  3.85E-08,  avg # of iterations =  1.8

     total cpu time spent up to now is      102.5 secs

     total energy              =     -31.23803515 Ry
     estimated scf accuracy    <       0.00000434 Ry

     iteration #  2     ecut=   100.00 Ry     beta= 0.70
     Davidson diagonalization with overlap
     ethr =  3.94E-08,  avg # of iterations =  2.0

     total cpu time spent up to now is      103.1 secs

     total energy              =     -31.23803555 Ry
     estimated scf accuracy    <       0.00000013 Ry

     iteration #  3     ecut=   100.00 Ry     beta= 0.70
     Davidson diagonalization with overlap
     ethr =  1.19E-09,  avg # of iterations =  2.7

     total cpu time spent up to now is      103.9 secs

     total energy              =     -31.23803559 Ry
     estimated scf accuracy    <          3.6E-09 Ry

     iteration #  4     ecut=   100.00 Ry     beta= 0.70
     Davidson diagonalization with overlap
     ethr =  3.23E-11,  avg # of iterations =  3.2

     total cpu time spent up to now is      104.7 secs

     total energy              =     -31.23803559 Ry
     estimated scf accuracy    <          2.0E-10 Ry

     iteration #  5     ecut=   100.00 Ry     beta= 0.70
     Davidson diagonalization with overlap
     ethr =  1.82E-12,  avg # of iterations =  2.0

     total cpu time spent up to now is      105.4 secs

     End of self-consistent calculation

     Number of k-points >= 100: set verbosity='high' to print the bands.

     the Fermi energy is    11.5854 ev

!    total energy              =     -31.23803559 Ry
     estimated scf accuracy    <          8.7E-12 Ry
     smearing contrib. (-TS)   =       0.00033391 Ry
     internal energy E=F+TS    =     -31.23836950 Ry

     The total energy is F=E-TS. E is the sum of the following terms:
     one-electron contribution =       4.34557005 Ry
     hartree contribution      =       2.91923667 Ry
     xc contribution           =     -10.12436149 Ry
     ewald contribution        =     -28.37881473 Ry

     convergence has been achieved in   5 iterations

     Forces acting on atoms (cartesian axes, Ry/au):

     atom    1 type  1   force =    -0.00000000    0.00000000    0.00000000
     atom    2 type  2   force =     0.00000000    0.00000000   -0.00000013
     atom    3 type  2   force =     0.00000000    0.00000000    0.00000013
     The non-local contrib.  to forces
     atom    1 type  1   force =    -0.00000000    0.00000000    0.00000000
     atom    2 type  2   force =     0.00000000    0.00000000    0.00000040
     atom    3 type  2   force =     0.00000000   -0.00000000   -0.00000040
     The ionic contribution  to forces
     atom    1 type  1   force =     0.00000000    0.00000000    0.00000000
     atom    2 type  2   force =     0.00000010   -0.00000006    0.00000294
     atom    3 type  2   force =    -0.00000010    0.00000006   -0.00000294
     The local contribution  to forces
     atom    1 type  1   force =    -0.00000000    0.00000000    0.00000000
     atom    2 type  2   force =    -0.00000001    0.00000001   -0.00000373
     atom    3 type  2   force =     0.00000001   -0.00000001    0.00000373
     The core correction contribution to forces
     atom    1 type  1   force =     0.00000000    0.00000000    0.00000000
     atom    2 type  2   force =    -0.00000000    0.00000000   -0.00000007
     atom    3 type  2   force =     0.00000000   -0.00000000    0.00000007
     The Hubbard contrib.    to forces
     atom    1 type  1   force =     0.00000000    0.00000000    0.00000000
     atom    2 type  2   force =     0.00000000    0.00000000    0.00000000
     atom    3 type  2   force =     0.00000000    0.00000000    0.00000000
     The SCF correction term to forces
     atom    1 type  1   force =    -0.00000000    0.00000000   -0.00000000
     atom    2 type  2   force =    -0.00000000    0.00000000    0.00000032
     atom    3 type  2   force =     0.00000000   -0.00000000   -0.00000032

     Total force =     0.000000     Total SCF correction =     0.000000
     SCF correction compared to forces is large: reduce conv_thr to get better values


     Computing stress (Cartesian axis) and pressure

          total   stress  (Ry/bohr**3)                   (kbar)     P=      500.03
   0.00339881   0.00000000  -0.00000000          499.98        0.00       -0.00
   0.00000000   0.00339881  -0.00000000            0.00      499.98       -0.00
   0.00000000   0.00000000   0.00339974            0.00        0.00      500.12

     Energy error            =      5.5E-06 Ry
     Gradient error          =      1.3E-07 Ry/Bohr
     Cell gradient error     =      1.2E-01 kbar
ibrav =      4
 celldm(1) =      7.39159372
 celldm(3) =      0.60209024
Input lattice vectors:
     0.99861997     0.00000000     0.00000000
    -0.49930999     0.86483026     0.00000000
     0.00000000     0.00000000     0.60125933
New lattice vectors in INITIAL alat:
     0.99861997     0.00000000     0.00000000
    -0.49930999     0.86483026     0.00000000
     0.00000000     0.00000000     0.60125933
New lattice vectors in NEW alat (for information only):
     1.00000000     0.00000000     0.00000000
    -0.50000000     0.86602540     0.00000000
     0.00000000     0.00000000     0.60209024
Discrepancy in bohr =     0.000000    0.000000    0.000000

     bfgs converged in  15 scf cycles and  14 bfgs steps
     (criteria: energy <  1.0E-04 Ry, force <  1.0E-03 Ry/Bohr, cell <  1.0E+00 kbar)

     End of BFGS Geometry Optimization

     Final enthalpy           =     -30.5223062575 Ry

     File ./output/LiSi.bfgs deleted, as requested
Begin final coordinates
     new unit-cell volume =    210.57484 a.u.^3 (    31.20397 Ang^3 )
     density =      3.35854 g/cm^3

CELL_PARAMETERS (alat=  7.40180843)
   0.998619971   0.000000000   0.000000000
  -0.499309986   0.864830264   0.000000000
   0.000000000   0.000000000   0.601259335

ATOMIC_POSITIONS (crystal)
Li            0.0000000000        0.0000000000        0.5000000000
Si            0.3333333300        0.6666666700        1.0000024987
Si            0.6666666700        0.3333333300       -0.0000024987
End final coordinates



     Writing config-only to output data dir ./output/LiSi.save/

     Final scf calculation at the relaxed structure.
     The G-vectors are recalculated for the final unit cell
     Results may differ from those at the preceding step.

     Parallelization info
     --------------------
     sticks:   dense  smooth     PW     G-vecs:    dense   smooth      PW
     Min         188     188     54                 3562     3562     568
     Max         189     189     56                 3563     3563     569
     Sum        1507    1507    439                28499    28499    4545

     Using Slab Decomposition



     bravais-lattice index     =            4
     lattice parameter (alat)  =       7.4018  a.u.
     unit-cell volume          =     210.5748 (a.u.)^3
     number of atoms/cell      =            3
     number of atomic types    =            2
     number of electrons       =        11.00
     number of Kohn-Sham states=           10
     kinetic-energy cutoff     =     100.0000  Ry
     charge density cutoff     =     400.0000  Ry
     scf convergence threshold =      1.0E-10
     mixing beta               =       0.7000
     number of iterations used =            8  plain     mixing
     press convergence thresh. =      1.0E+00
     Exchange-correlation= PBE
                           (   1   4   3   4   0   0   0)

     celldm(1)=   7.401808  celldm(2)=   0.000000  celldm(3)=   0.596778
     celldm(4)=   0.000000  celldm(5)=   0.000000  celldm(6)=   0.000000

     crystal axes: (cart. coord. in units of alat)
               a(1) = (   0.998620   0.000000   0.000000 )  
               a(2) = (  -0.499310   0.864830   0.000000 )  
               a(3) = (   0.000000   0.000000   0.601259 )  

     reciprocal axes: (cart. coord. in units 2 pi/alat)
               b(1) = (  1.001382  0.578148 -0.000000 )  
               b(2) = (  0.000000  1.156296  0.000000 )  
               b(3) = (  0.000000 -0.000000  1.663176 )  


     PseudoPot. # 1 for Li read from file:
     ../pseudo/Li_ONCV_PBE_sr.upf
     MD5 check sum: 50ff420e78310ffa21704f3361e624a4
     Pseudo is Norm-conserving, Zval =  3.0
     Generated using ONCVPSP code by D. R. Hamann
     Using radial grid of 1944 points,  4 beta functions with: 
                l(1) =   0
                l(2) =   0
                l(3) =   1
                l(4) =   1

     PseudoPot. # 2 for Si read from file:
     ../pseudo/Si_ONCV_PBE_sr.upf
     MD5 check sum: e543d271109d17c80368dfa7c482276d
     Pseudo is Norm-conserving + core correction, Zval =  4.0
     Generated using ONCVPSP code by D. R. Hamann
     Using radial grid of 1510 points,  6 beta functions with: 
                l(1) =   0
                l(2) =   0
                l(3) =   1
                l(4) =   1
                l(5) =   2
                l(6) =   2

     atomic species   valence    mass     pseudopotential
        Li             3.00     6.94100     Li( 1.00)
        Si             4.00    28.08550     Si( 1.00)

     12 Sym. Ops., with inversion, found



   Cartesian axes

     site n.     atom                  positions (alat units)
         1           Li  tau(   1) = (   0.0000000   0.0000000   0.3006297  )
         2           Si  tau(   2) = (  -0.0000000   0.5765535   0.6012608  )
         3           Si  tau(   3) = (   0.4993100   0.2882768  -0.0000015  )

     number of k points=   110  Marzari-Vanderbilt smearing, width (Ry)=  0.0200

     Number of k-points >= 100: set verbosity='high' to print them.

     Dense  grid:    28499 G-vectors     FFT dimensions: (  48,  48,  30)

     Estimated max dynamical RAM per process >      23.23 MB

     Estimated total dynamical RAM >     185.87 MB

     Initial potential from superposition of free atoms

     starting charge      10.9942, renormalised to      11.0000
     Starting wfcs are   10 randomized atomic wfcs

     total cpu time spent up to now is      107.1 secs

     Self-consistent Calculation

     iteration #  1     ecut=   100.00 Ry     beta= 0.70
     Davidson diagonalization with overlap
     c_bands:  1 eigenvalues not converged
     c_bands:  1 eigenvalues not converged
     c_bands:  1 eigenvalues not converged
     c_bands:  1 eigenvalues not converged
     c_bands:  1 eigenvalues not converged
     c_bands:  2 eigenvalues not converged
     c_bands:  1 eigenvalues not converged
     c_bands:  1 eigenvalues not converged
     c_bands:  1 eigenvalues not converged
     c_bands:  1 eigenvalues not converged
     c_bands:  1 eigenvalues not converged
     c_bands:  2 eigenvalues not converged
     c_bands:  1 eigenvalues not converged
     c_bands:  1 eigenvalues not converged
     c_bands:  1 eigenvalues not converged
     c_bands:  1 eigenvalues not converged
     c_bands:  1 eigenvalues not converged
     c_bands:  1 eigenvalues not converged
     c_bands:  1 eigenvalues not converged
     c_bands:  2 eigenvalues not converged
     c_bands:  1 eigenvalues not converged
     c_bands:  1 eigenvalues not converged
     c_bands:  1 eigenvalues not converged
     c_bands:  1 eigenvalues not converged
     c_bands:  1 eigenvalues not converged
     c_bands:  1 eigenvalues not converged
     c_bands:  1 eigenvalues not converged
     c_bands:  1 eigenvalues not converged
     c_bands:  1 eigenvalues not converged
     c_bands:  1 eigenvalues not converged
     c_bands:  1 eigenvalues not converged
     c_bands:  2 eigenvalues not converged
     c_bands:  1 eigenvalues not converged
     c_bands:  1 eigenvalues not converged
     c_bands:  1 eigenvalues not converged
     c_bands:  1 eigenvalues not converged
     c_bands:  2 eigenvalues not converged
     c_bands:  1 eigenvalues not converged
     c_bands:  1 eigenvalues not converged
     c_bands:  2 eigenvalues not converged
     c_bands:  1 eigenvalues not converged
     c_bands:  1 eigenvalues not converged
     c_bands:  1 eigenvalues not converged
     c_bands:  1 eigenvalues not converged
     ethr =  1.00E-06,  avg # of iterations = 18.4

     total cpu time spent up to now is      110.1 secs

     total energy              =     -31.23780577 Ry
     estimated scf accuracy    <       0.01315778 Ry

     iteration #  2     ecut=   100.00 Ry     beta= 0.70
     Davidson diagonalization with overlap
     ethr =  1.20E-04,  avg # of iterations =  1.1

     total cpu time spent up to now is      110.7 secs

     total energy              =     -31.23800546 Ry
     estimated scf accuracy    <       0.00089755 Ry

     iteration #  3     ecut=   100.00 Ry     beta= 0.70
     Davidson diagonalization with overlap
     ethr =  8.16E-06,  avg # of iterations =  1.2

     total cpu time spent up to now is      111.4 secs

     total energy              =     -31.23803273 Ry
     estimated scf accuracy    <       0.00002112 Ry

     iteration #  4     ecut=   100.00 Ry     beta= 0.70
     Davidson diagonalization with overlap
     ethr =  1.92E-07,  avg # of iterations =  2.1

     total cpu time spent up to now is      112.1 secs

     total energy              =     -31.23803562 Ry
     estimated scf accuracy    <       0.00000059 Ry

     iteration #  5     ecut=   100.00 Ry     beta= 0.70
     Davidson diagonalization with overlap
     ethr =  5.32E-09,  avg # of iterations =  2.4

     total cpu time spent up to now is      112.9 secs

     total energy              =     -31.23803577 Ry
     estimated scf accuracy    <          3.7E-09 Ry

     iteration #  6     ecut=   100.00 Ry     beta= 0.70
     Davidson diagonalization with overlap
     ethr =  3.34E-11,  avg # of iterations =  4.0

     total cpu time spent up to now is      113.9 secs

     total energy              =     -31.23803578 Ry
     estimated scf accuracy    <          4.2E-10 Ry

     iteration #  7     ecut=   100.00 Ry     beta= 0.70
     Davidson diagonalization with overlap
     ethr =  3.79E-12,  avg # of iterations =  1.5

     total cpu time spent up to now is      114.5 secs

     End of self-consistent calculation

     Number of k-points >= 100: set verbosity='high' to print the bands.

     the Fermi energy is    11.5854 ev

!    total energy              =     -31.23803578 Ry
     estimated scf accuracy    <          8.6E-12 Ry
     smearing contrib. (-TS)   =       0.00033391 Ry
     internal energy E=F+TS    =     -31.23836969 Ry

     The total energy is F=E-TS. E is the sum of the following terms:
     one-electron contribution =       4.34557091 Ry
     hartree contribution      =       2.91923561 Ry
     xc contribution           =     -10.12436147 Ry
     ewald contribution        =     -28.37881473 Ry

     convergence has been achieved in   7 iterations

     Forces acting on atoms (cartesian axes, Ry/au):

     atom    1 type  1   force =     0.00000000    0.00000000    0.00000000
     atom    2 type  2   force =    -0.00000000   -0.00000000   -0.00000026
     atom    3 type  2   force =    -0.00000000   -0.00000000    0.00000026
     The non-local contrib.  to forces
     atom    1 type  1   force =     0.00000000    0.00000000    0.00000000
     atom    2 type  2   force =     0.00000000    0.00000000    0.00000065
     atom    3 type  2   force =     0.00000000    0.00000000   -0.00000065
     The ionic contribution  to forces
     atom    1 type  1   force =     0.00000000    0.00000000    0.00000000
     atom    2 type  2   force =     0.00000010   -0.00000006    0.00000294
     atom    3 type  2   force =    -0.00000010    0.00000006   -0.00000294
     The local contribution  to forces
     atom    1 type  1   force =    -0.00000000    0.00000000    0.00000000
     atom    2 type  2   force =    -0.00000001    0.00000001   -0.00000376
     atom    3 type  2   force =     0.00000001   -0.00000001    0.00000376
     The core correction contribution to forces
     atom    1 type  1   force =     0.00000000    0.00000000    0.00000000
     atom    2 type  2   force =    -0.00000000    0.00000000   -0.00000009
     atom    3 type  2   force =     0.00000000   -0.00000000    0.00000009
     The Hubbard contrib.    to forces
     atom    1 type  1   force =     0.00000000    0.00000000    0.00000000
     atom    2 type  2   force =     0.00000000    0.00000000    0.00000000
     atom    3 type  2   force =     0.00000000    0.00000000    0.00000000
     The SCF correction term to forces
     atom    1 type  1   force =    -0.00000000    0.00000000    0.00000000
     atom    2 type  2   force =    -0.00000000    0.00000000    0.00000000
     atom    3 type  2   force =     0.00000000   -0.00000000   -0.00000000

     Total force =     0.000000     Total SCF correction =     0.000000


     Computing stress (Cartesian axis) and pressure

          total   stress  (Ry/bohr**3)                   (kbar)     P=      500.03
   0.00339881   0.00000000   0.00000000          499.98        0.00        0.00
   0.00000000   0.00339881   0.00000000            0.00      499.98        0.00
  -0.00000000  -0.00000000   0.00339971           -0.00       -0.00      500.11


     Writing all to output data dir ./output/LiSi.save/

     init_run     :      1.22s CPU      1.72s WALL (       2 calls)
     electrons    :     79.32s CPU     87.35s WALL (      16 calls)
     update_pot   :      4.20s CPU      4.34s WALL (      14 calls)
     forces       :      3.70s CPU      3.85s WALL (      16 calls)
     stress       :     17.06s CPU     17.99s WALL (      16 calls)

     Called by init_run:
     wfcinit      :      0.52s CPU      0.55s WALL (       2 calls)
     potinit      :      0.27s CPU      0.58s WALL (       2 calls)
     hinit0       :      0.39s CPU      0.54s WALL (       2 calls)

     Called by electrons:
     c_bands      :     69.10s CPU     76.14s WALL (      92 calls)
     sum_band     :      9.47s CPU     10.05s WALL (      92 calls)
     v_of_rho     :      0.80s CPU      1.39s WALL (     103 calls)
     mix_rho      :      0.07s CPU      0.10s WALL (      92 calls)

     Called by c_bands:
     init_us_2    :      2.69s CPU      2.99s WALL (   23980 calls)
     init_us_2:cp :      2.65s CPU      2.95s WALL (   23980 calls)
     cegterg      :     63.55s CPU     67.04s WALL (   10120 calls)

     Called by *egterg:
     cdiaghg      :      4.89s CPU      5.23s WALL (   39962 calls)
     h_psi        :     52.35s CPU     55.12s WALL (   42272 calls)
     g_psi        :      0.32s CPU      0.34s WALL (   31932 calls)

     Called by h_psi:
     h_psi:calbec :      3.60s CPU      3.79s WALL (   42272 calls)
     vloc_psi     :     45.82s CPU     48.21s WALL (   42272 calls)
     add_vuspsi   :      2.64s CPU      2.78s WALL (   42272 calls)

     General routines
     calbec       :      4.51s CPU      4.76s WALL (   51072 calls)
     fft          :      0.93s CPU      1.76s WALL (    1433 calls)
     ffts         :      0.05s CPU      0.08s WALL (      92 calls)
     fftw         :     46.39s CPU     48.77s WALL (  684908 calls)

     Parallel routines

     PWSCF        :   1m45.90s CPU   1m56.19s WALL


   This run was terminated on:  22: 2:15  10Jan2025            

=------------------------------------------------------------------------------=
   JOB DONE.
=------------------------------------------------------------------------------=
