
     Program PWSCF v.7.3.1 starts on  3Mar2025 at 21: 9:17 

     This program is part of the open-source Quantum ESPRESSO suite
     for quantum simulation of materials; please cite
         "P. Giannozzi et al., J. Phys.:Condens. Matter 21 395502 (2009);
         "P. Giannozzi et al., J. Phys.:Condens. Matter 29 465901 (2017);
         "P. Giannozzi et al., J. Chem. Phys. 152 154105 (2020);
          URL http://www.quantum-espresso.org", 
     in publications or presentations arising from this work. More details at
     http://www.quantum-espresso.org/quote

     Parallel version (MPI & OpenMP), running on      32 processor cores
     Number of MPI processes:                32
     Threads/MPI process:                     1

     MPI processes distributed on     1 nodes
     492479 MiB available memory on the printing compute node when the environment starts

     Waiting for input...
     Reading input from standard input

     Current dimensions of program PWSCF are:
     Max number of different atomic species (ntypx) = 10
     Max number of k-points (npk) =  40000
     Max angular momentum in pseudopotentials (lmaxx) =  4

     R & G space division:  proc/nbgrp/npool/nimage =      32
     Subspace diagonalization in iterative solution of the eigenvalue problem:
     a serial algorithm will be used


     Parallelization info
     --------------------
     sticks:   dense  smooth     PW     G-vecs:    dense   smooth      PW
     Min          73      73     24                 1083     1083     212
     Max          74      74     25                 1084     1084     214
     Sum        2339    2339    787                34675    34675    6809

     Using Slab Decomposition



     bravais-lattice index     =            7
     lattice parameter (alat)  =       4.2094  a.u.
     unit-cell volume          =     438.1875 (a.u.)^3
     number of atoms/cell      =            6
     number of atomic types    =            2
     number of electrons       =        20.00
     number of Kohn-Sham states=           14
     kinetic-energy cutoff     =      70.0000  Ry
     charge density cutoff     =     280.0000  Ry
     scf convergence threshold =      1.0E-08
     mixing beta               =       0.8000
     number of iterations used =            8  plain     mixing
     energy convergence thresh.=      5.0E-04
     force convergence thresh. =      1.0E-03
     press convergence thresh. =      2.0E+00
     Exchange-correlation= PBE
                           (   1   4   3   4   0   0   0)
     nstep                     =           50


     celldm(1)=   4.209377  celldm(2)=   0.000000  celldm(3)=  11.749963
     celldm(4)=   0.000000  celldm(5)=   0.000000  celldm(6)=   0.000000

     crystal axes: (cart. coord. in units of alat)
               a(1) = (   0.500000  -0.500000   5.874981 )  
               a(2) = (   0.500000   0.500000   5.874981 )  
               a(3) = (  -0.500000  -0.500000   5.874981 )  

     reciprocal axes: (cart. coord. in units 2 pi/alat)
               b(1) = (  1.000000 -1.000000  0.000000 )  
               b(2) = (  0.000000  1.000000  0.085107 )  
               b(3) = ( -1.000000  0.000000  0.085107 )  


     PseudoPot. # 1 for Li read from file:
     ../pseudo/Li_ONCV_PBE_sr.upf
     MD5 check sum: 50ff420e78310ffa21704f3361e624a4
     Pseudo is Norm-conserving, Zval =  3.0
     Generated using ONCVPSP code by D. R. Hamann
     Using radial grid of 1944 points,  4 beta functions with: 
                l(1) =   0
                l(2) =   0
                l(3) =   1
                l(4) =   1

     PseudoPot. # 2 for Si read from file:
     ../pseudo/Si_ONCV_PBE_sr.upf
     MD5 check sum: e543d271109d17c80368dfa7c482276d
     Pseudo is Norm-conserving + core correction, Zval =  4.0
     Generated using ONCVPSP code by D. R. Hamann
     Using radial grid of 1510 points,  6 beta functions with: 
                l(1) =   0
                l(2) =   0
                l(3) =   1
                l(4) =   1
                l(5) =   2
                l(6) =   2

     atomic species   valence    mass     pseudopotential
     Li                3.00     6.94100     Li( 1.00)
     Si                4.00    28.08550     Si( 1.00)

     16 Sym. Ops., with inversion, found



   Cartesian axes

     site n.     atom                  positions (alat units)
         1        Li     tau(   1) = (   0.0000000   0.0000000   0.5515609  )
         2        Li     tau(   2) = (   0.0000000   0.0000000  11.1984021  )
         3        Li     tau(   3) = (   0.0000000   0.0000000   1.7118756  )
         4        Li     tau(   4) = (   0.0000000   0.0000000  10.0380874  )
         5        Si     tau(   5) = (   0.0000000   0.0000000   2.5155026  )
         6        Si     tau(   6) = (   0.0000000   0.0000000   9.2344604  )

     number of k points=    54  Marzari-Vanderbilt smearing, width (Ry)=  0.0200
                       cart. coord. in units 2pi/alat
        k(    1) = (   0.0000000   0.0000000   0.0000000), wk =   0.0082305
        k(    2) = (  -0.3333333   0.0000000   0.0283689), wk =   0.0658436
        k(    3) = (   0.0000000   0.1111111   0.0094563), wk =   0.0329218
        k(    4) = (  -0.3333333   0.1111111   0.0378252), wk =   0.0658436
        k(    5) = (   0.3333333   0.1111111  -0.0189126), wk =   0.0658436
        k(    6) = (   0.0000000   0.2222222   0.0189126), wk =   0.0329218
        k(    7) = (  -0.3333333   0.2222222   0.0472815), wk =   0.0658436
        k(    8) = (   0.3333333   0.2222222  -0.0094563), wk =   0.0658436
        k(    9) = (  -0.3333333   0.3333333   0.0567378), wk =   0.0658436
        k(   10) = (   0.3333333   0.3333333  -0.0000000), wk =   0.0329218
        k(   11) = (   0.0000000   0.4444444   0.0378252), wk =   0.0329218
        k(   12) = (  -0.3333333   0.4444444   0.0661941), wk =   0.0658436
        k(   13) = (   0.3333333   0.4444444   0.0094563), wk =   0.0658436
        k(   14) = (   0.1111111  -0.1111111   0.0000000), wk =   0.0164609
        k(   15) = (  -0.2222222  -0.1111111   0.0283689), wk =   0.0658436
        k(   16) = (   0.4444444  -0.1111111  -0.0283689), wk =   0.0658436
        k(   17) = (  -0.2222222   0.0000000   0.0378252), wk =   0.0329218
        k(   18) = (   0.4444444   0.0000000  -0.0189126), wk =   0.0329218
        k(   19) = (   0.1111111   0.1111111   0.0189126), wk =   0.0164609
        k(   20) = (  -0.2222222   0.1111111   0.0472815), wk =   0.0329218
        k(   21) = (   0.4444444   0.1111111  -0.0094563), wk =   0.0329218
        k(   22) = (  -0.2222222   0.2222222   0.0567378), wk =   0.0329218
        k(   23) = (   0.4444444   0.2222222  -0.0000000), wk =   0.0329218
        k(   24) = (  -0.2222222   0.3333333   0.0661941), wk =   0.0658436
        k(   25) = (   0.1111111  -0.5555556  -0.0378252), wk =   0.0329218
        k(   26) = (  -0.2222222  -0.5555556  -0.0094563), wk =   0.0329218
        k(   27) = (   0.4444444  -0.5555556  -0.0661941), wk =   0.0164609
        k(   28) = (   0.4444444  -0.4444444  -0.0567378), wk =   0.0329218
        k(   29) = (   0.4444444  -0.3333333  -0.0472815), wk =   0.0658436
        k(   30) = (   0.1111111  -0.2222222  -0.0094563), wk =   0.0329218
        k(   31) = (  -0.2222222  -0.2222222   0.0189126), wk =   0.0164609
        k(   32) = (   0.4444444  -0.2222222  -0.0378252), wk =   0.0329218
        k(   33) = (   0.2222222  -0.2222222   0.0000000), wk =   0.0164609
        k(   34) = (   0.5555556  -0.2222222  -0.0283689), wk =   0.0658436
        k(   35) = (  -0.1111111  -0.1111111   0.0378252), wk =   0.0164609
        k(   36) = (   0.5555556  -0.1111111  -0.0189126), wk =   0.0329218
        k(   37) = (  -0.1111111   0.0000000   0.0472815), wk =   0.0329218
        k(   38) = (   0.5555556   0.0000000  -0.0094563), wk =   0.0329218
        k(   39) = (  -0.1111111   0.1111111   0.0567378), wk =   0.0329218
        k(   40) = (   0.5555556   0.1111111  -0.0000000), wk =   0.0329218
        k(   41) = (   0.2222222   0.2222222   0.0378252), wk =   0.0164609
        k(   42) = (  -0.1111111   0.2222222   0.0661941), wk =   0.0329218
        k(   43) = (  -0.1111111  -0.6666667  -0.0094563), wk =   0.0658436
        k(   44) = (   0.2222222  -0.4444444  -0.0189126), wk =   0.0329218
        k(   45) = (   0.5555556  -0.4444444  -0.0472815), wk =   0.0164609
        k(   46) = (   0.0000000   0.0000000   0.0567378), wk =   0.0164609
        k(   47) = (   0.6666667   0.0000000  -0.0000000), wk =   0.0329218
        k(   48) = (   0.0000000   0.1111111   0.0661941), wk =   0.0329218
        k(   49) = (   0.0000000  -0.7777778  -0.0094563), wk =   0.0329218
        k(   50) = (   0.4444444  -0.4444444   0.0000000), wk =   0.0164609
        k(   51) = (   0.7777778  -0.2222222  -0.0094563), wk =   0.0164609
        k(   52) = (   0.7777778  -0.1111111  -0.0000000), wk =   0.0329218
        k(   53) = (   0.1111111  -0.8888889  -0.0094563), wk =   0.0164609
        k(   54) = (   0.4444444  -0.5555556  -0.0094563), wk =   0.0164609

     Dense  grid:    34675 G-vectors     FFT dimensions: ( 135, 135, 135)

     Estimated max dynamical RAM per process >      19.38 MB

     Estimated total dynamical RAM >     620.22 MB

     Initial potential from superposition of free atoms

     starting charge      19.9805, renormalised to      20.0000
     Starting wfcs are   16 randomized atomic wfcs

     total cpu time spent up to now is        2.7 secs

     per-process dynamical memory:    49.5 Mb

     Self-consistent Calculation

     iteration #  1     ecut=    70.00 Ry     beta= 0.80
     Davidson diagonalization with overlap
     ethr =  1.00E-02,  avg # of iterations =  5.4

     Threshold (ethr) on eigenvalues was too large:
     Diagonalizing with lowered threshold

     Davidson diagonalization with overlap
     ethr =  6.31E-04,  avg # of iterations =  2.3

     total cpu time spent up to now is       12.5 secs

     total energy              =     -73.94832223 Ry
     estimated scf accuracy    <       0.12933874 Ry

     iteration #  2     ecut=    70.00 Ry     beta= 0.80
     Davidson diagonalization with overlap
     ethr =  6.47E-04,  avg # of iterations =  6.1

     total cpu time spent up to now is       18.3 secs

     total energy              =     -73.45719143 Ry
     estimated scf accuracy    <      10.10634205 Ry

     iteration #  3     ecut=    70.00 Ry     beta= 0.80
     Davidson diagonalization with overlap
     ethr =  6.47E-04,  avg # of iterations =  6.5

     total cpu time spent up to now is       23.7 secs

     total energy              =     -73.96687141 Ry
     estimated scf accuracy    <       0.62406348 Ry

     iteration #  4     ecut=    70.00 Ry     beta= 0.80
     Davidson diagonalization with overlap
     ethr =  6.47E-04,  avg # of iterations =  2.4

     total cpu time spent up to now is       27.8 secs

     total energy              =     -74.01779927 Ry
     estimated scf accuracy    <       0.04525016 Ry

     iteration #  5     ecut=    70.00 Ry     beta= 0.80
     Davidson diagonalization with overlap
     ethr =  2.26E-04,  avg # of iterations =  1.7

     total cpu time spent up to now is       31.5 secs

     total energy              =     -74.02416081 Ry
     estimated scf accuracy    <       0.00272338 Ry

     iteration #  6     ecut=    70.00 Ry     beta= 0.80
     Davidson diagonalization with overlap
     ethr =  1.36E-05,  avg # of iterations =  4.0

     total cpu time spent up to now is       35.6 secs

     total energy              =     -74.02450757 Ry
     estimated scf accuracy    <       0.00005970 Ry

     iteration #  7     ecut=    70.00 Ry     beta= 0.80
     Davidson diagonalization with overlap
     ethr =  2.99E-07,  avg # of iterations =  3.4

     total cpu time spent up to now is       40.1 secs

     total energy              =     -74.02452296 Ry
     estimated scf accuracy    <       0.00000210 Ry

     iteration #  8     ecut=    70.00 Ry     beta= 0.80
     Davidson diagonalization with overlap
     ethr =  1.05E-08,  avg # of iterations =  3.0

     total cpu time spent up to now is       44.3 secs

     total energy              =     -74.02452350 Ry
     estimated scf accuracy    <       0.00000070 Ry

     iteration #  9     ecut=    70.00 Ry     beta= 0.80
     Davidson diagonalization with overlap
     ethr =  3.50E-09,  avg # of iterations =  1.3

     total cpu time spent up to now is       47.9 secs

     total energy              =     -74.02452356 Ry
     estimated scf accuracy    <       0.00000003 Ry

     iteration # 10     ecut=    70.00 Ry     beta= 0.80
     Davidson diagonalization with overlap
     ethr =  1.53E-10,  avg # of iterations =  2.9

     total cpu time spent up to now is       51.9 secs

     End of self-consistent calculation

          k = 0.0000 0.0000 0.0000 (  4333 PWs)   bands (ev):

   -39.6076 -39.6076 -39.0941 -39.0598  -9.8366  -5.0937   0.2028   3.5841
     4.1220   5.0408   7.5759  11.3285  12.3066  16.9556

          k =-0.3333 0.0000 0.0284 (  4352 PWs)   bands (ev):

   -39.4922 -39.4921 -38.9816 -38.9515  -6.6747  -2.1043   2.5079   2.8207
     5.4847   6.1579   6.6395   8.0571   9.5440  11.2117

          k = 0.0000 0.1111 0.0095 (  4360 PWs)   bands (ev):

   -39.5897 -39.5897 -39.0767 -39.0430  -9.4818  -4.7550   0.4983   3.8199
     4.3885   5.3648   7.7918  11.0137  11.6092  12.4200

          k =-0.3333 0.1111 0.0378 (  4339 PWs)   bands (ev):

   -39.4759 -39.4759 -38.9658 -38.9362  -6.3272  -1.7731   2.8110   3.1249
     5.7847   6.4386   7.0202   8.2336   9.9498  11.4567

          k = 0.3333 0.1111-0.0189 (  4334 PWs)   bands (ev):

   -39.4759 -39.4759 -38.9658 -38.9362  -6.3272  -1.7731   2.8110   3.1245
     5.7922   6.5072   6.8570   8.4549   9.7129  11.4524

          k = 0.0000 0.2222 0.0189 (  4351 PWs)   bands (ev):

   -39.5442 -39.5442 -39.0324 -39.0003  -8.4228  -3.7471   1.3789   4.5022
     5.1568   6.2919   6.5757   8.6534  10.5533  11.6466

          k =-0.3333 0.2222 0.0473 (  4332 PWs)   bands (ev):

   -39.4347 -39.4347 -38.9256 -38.8973  -5.2903  -0.7874   3.6441   4.0300
     6.6647   7.3186   7.9095   8.9377  10.0006  11.4175

          k = 0.3333 0.2222-0.0095 (  4333 PWs)   bands (ev):

   -39.4347 -39.4347 -38.9256 -38.8973  -5.2903  -0.7874   3.6441   4.0291
     6.6912   7.4444   7.5978   9.3459   9.8579  11.0528

          k =-0.3333 0.3333 0.0567 (  4328 PWs)   bands (ev):

   -39.3876 -39.3875 -38.8796 -38.8529  -3.5821   0.8207   4.1150   5.5106
     7.3326   7.8710   8.0344   9.0941  10.1548  11.7793

          k = 0.3333 0.3333-0.0000 (  4314 PWs)   bands (ev):

   -39.3875 -39.3875 -38.8796 -38.8529  -3.5821   0.8207   4.1150   5.5090
     7.3328   7.8710   8.1088   8.8893  10.3666  11.9033

          k = 0.0000 0.4444 0.0378 (  4347 PWs)   bands (ev):

   -39.4580 -39.4580 -38.9483 -38.9195  -4.2663  -1.3192   0.3737   3.1155
     4.7679   6.4081   7.0234   8.5085  10.0387  10.9263

          k =-0.3333 0.4444 0.0662 (  4301 PWs)   bands (ev):

   -39.3566 -39.3565 -38.8494 -38.8237  -1.2441   1.5596   3.1298   5.7057
     7.4975   8.3890   9.4159  10.2106  11.0374  11.1201

          k = 0.3333 0.4444 0.0095 (  4298 PWs)   bands (ev):

   -39.3566 -39.3565 -38.8494 -38.8237  -1.2441   1.5596   3.1299   5.7056
     7.4921   8.3901   9.6691   9.8064  11.1137  11.2468

          k = 0.1111-0.1111 0.0000 (  4342 PWs)   bands (ev):

   -39.5721 -39.5720 -39.0595 -39.0264  -9.1279  -4.4171   0.7946   4.0653
     4.6521   5.6976   8.0145  10.4567  11.4281  12.5095

          k =-0.2222-0.1111 0.0284 (  4338 PWs)   bands (ev):

   -39.5272 -39.5272 -39.0158 -38.9843  -8.0712  -3.4117   1.6775   4.7580
     5.4639   6.5942   6.7936   8.8745  10.6881  11.6663

          k = 0.4444-0.1111-0.0284 (  4345 PWs)   bands (ev):

   -39.4423 -39.4422 -38.9330 -38.9046  -3.9251  -0.9884   0.6969   3.4308
     5.0777   6.8110   7.2773   8.9184  10.3135  11.1624

          k =-0.2222 0.0000 0.0378 (  4346 PWs)   bands (ev):

   -39.5442 -39.5442 -39.0324 -39.0003  -8.4228  -3.7471   1.3790   4.4851
     5.2057   6.2335   6.5757   8.7401  10.4659  11.5609

          k = 0.4444 0.0000-0.0189 (  4349 PWs)   bands (ev):

   -39.4580 -39.4580 -38.9483 -38.9195  -4.2663  -1.3192   0.3738   3.1153
     4.7655   6.5224   6.8417   8.6635   9.9658  10.8331

          k = 0.1111 0.1111 0.0189 (  4343 PWs)   bands (ev):

   -39.5721 -39.5720 -39.0595 -39.0264  -9.1279  -4.4171   0.7946   4.0594
     4.6676   5.6804   8.0342  10.4567  11.3396  12.6140

          k =-0.2222 0.1111 0.0473 (  4341 PWs)   bands (ev):

   -39.5272 -39.5272 -39.0158 -38.9843  -8.0712  -3.4117   1.6776   4.7384
     5.5251   6.5183   6.7936   8.9809  10.6027  11.5747

          k = 0.4444 0.1111-0.0095 (  4342 PWs)   bands (ev):

   -39.4422 -39.4422 -38.9330 -38.9046  -3.9251  -0.9884   0.6969   3.4307
     5.0759   6.9382   7.1045   9.0277  10.2721  11.0862

          k =-0.2222 0.2222 0.0567 (  4342 PWs)   bands (ev):

   -39.4841 -39.4841 -38.9737 -38.9438  -7.0216  -2.4139   2.5681   5.4935
     6.4055   6.6617   7.3919   9.0636  10.3807  10.8502

          k = 0.4444 0.2222-0.0000 (  4341 PWs)   bands (ev):

   -39.4023 -39.4023 -38.8940 -38.8669  -2.9087  -0.0066   1.6455   4.3460
     6.0004   8.0176   8.0792   9.9491  11.2261  11.7194

          k =-0.2222 0.3333 0.0662 (  4328 PWs)   bands (ev):

   -39.4347 -39.4347 -38.9256 -38.8973  -5.2903  -0.7874   3.6441   4.0304
     6.6510   7.2895   8.0941   8.7089  10.0353  11.7195

          k = 0.1111-0.5556-0.0378 (  4351 PWs)   bands (ev):

   -39.4423 -39.4423 -38.9330 -38.9046  -3.9251  -0.9885   0.6969   3.4310
     5.0804   6.7140   7.4576   8.7507  10.3604  11.3004

          k =-0.2222-0.5556-0.0095 (  4335 PWs)   bands (ev):

   -39.4023 -39.4023 -38.8940 -38.8669  -2.9087  -0.0066   1.6455   4.3464
     6.0076   7.6796   8.6562   9.5454  11.1470  12.0944

          k = 0.4444-0.5556-0.0662 (  4279 PWs)   bands (ev):

   -39.3266 -39.3266 -38.8202 -38.7953   0.9704   2.8432   4.8180   6.1407
     6.6110   7.5216   9.5180  10.6279  11.1436  11.5658

          k = 0.4444-0.4444-0.0567 (  4273 PWs)   bands (ev):

   -39.3266 -39.3265 -38.8202 -38.7953   0.9704   2.8432   4.8180   6.1407
     6.6111   7.5216   9.5221  10.6421  11.1344  11.4559

          k = 0.4444-0.3333-0.0473 (  4304 PWs)   bands (ev):

   -39.3566 -39.3566 -38.8494 -38.8237  -1.2441   1.5596   3.1298   5.7057
     7.4956   8.3894   9.4695  10.0958  11.0999  11.1348

          k = 0.1111-0.2222-0.0095 (  4336 PWs)   bands (ev):

   -39.5272 -39.5272 -39.0158 -38.9843  -8.0712  -3.4117   1.6775   4.7721
     5.4255   6.6424   6.7936   8.8085  10.7355  11.7424

          k =-0.2222-0.2222 0.0189 (  4343 PWs)   bands (ev):

   -39.4841 -39.4841 -38.9737 -38.9438  -7.0216  -2.4139   2.5677   5.5374
     6.2646   6.6617   7.5892   8.9549  10.3806  10.5756

          k = 0.4444-0.2222-0.0378 (  4337 PWs)   bands (ev):

   -39.4023 -39.4023 -38.8940 -38.8669  -2.9087  -0.0066   1.6455   4.3462
     6.0034   7.7958   8.3832   9.7918  11.1795  11.8965

          k = 0.2222-0.2222 0.0000 (  4340 PWs)   bands (ev):

   -39.4841 -39.4841 -38.9737 -38.9438  -7.0217  -2.4139   2.5677   5.5467
     6.2402   6.6617   7.6257   8.9315  10.3806  10.5407

          k = 0.5556-0.2222-0.0284 (  4329 PWs)   bands (ev):

   -39.4023 -39.4023 -38.8940 -38.8669  -2.9087  -0.0066   1.6455   4.3463
     6.0059   7.7190   8.5453   9.6509  11.1576  12.0209

          k =-0.1111-0.1111 0.0378 (  4350 PWs)   bands (ev):

   -39.5721 -39.5720 -39.0595 -39.0264  -9.1279  -4.4171   0.7946   4.0456
     4.7077   5.6356   8.0845  10.4567  11.1578  12.8360

          k = 0.5556-0.1111-0.0189 (  4354 PWs)   bands (ev):

   -39.4423 -39.4423 -38.9330 -38.9046  -3.9251  -0.9885   0.6969   3.4312
     5.0829   6.6538   7.6139   8.5899  10.3903  11.4600

          k =-0.1111 0.0000 0.0473 (  4359 PWs)   bands (ev):

   -39.5897 -39.5897 -39.0767 -39.0430  -9.4818  -4.7550   0.4984   3.7966
     4.4567   5.2918   7.8711  10.9139  11.2894  13.0688

          k = 0.5556 0.0000-0.0095 (  4340 PWs)   bands (ev):

   -39.4580 -39.4580 -38.9483 -38.9195  -4.2663  -1.3192   0.3737   3.1159
     4.7727   6.2874   7.3254   8.1940  10.1312  11.1953

          k =-0.1111 0.1111 0.0567 (  4354 PWs)   bands (ev):

   -39.5721 -39.5721 -39.0595 -39.0264  -9.1279  -4.4171   0.7946   4.0311
     4.7555   5.5820   8.1429  10.4567  10.9892  13.0482

          k = 0.5556 0.1111-0.0000 (  4343 PWs)   bands (ev):

   -39.4423 -39.4422 -38.9330 -38.9046  -3.9251  -0.9885   0.6969   3.4313
     5.0838   6.6333   7.6829   8.5176  10.4000  11.5478

          k = 0.2222 0.2222 0.0378 (  4341 PWs)   bands (ev):

   -39.4841 -39.4841 -38.9737 -38.9438  -7.0216  -2.4139   2.5679   5.5157
     6.3280   6.6617   7.4979   9.0092  10.3806  10.6802

          k =-0.1111 0.2222 0.0662 (  4350 PWs)   bands (ev):

   -39.5272 -39.5272 -39.0158 -38.9843  -8.0712  -3.4117   1.6777   4.7226
     5.5831   6.4475   6.7936   9.0825  10.5129  11.5124

          k =-0.1111-0.6667-0.0095 (  4343 PWs)   bands (ev):

   -39.4759 -39.4759 -38.9658 -38.9362  -6.3272  -1.7731   2.8110   3.1256
     5.7705   6.3653   7.4400   7.7231  10.4002  11.5050

          k = 0.2222-0.4444-0.0189 (  4342 PWs)   bands (ev):

   -39.4023 -39.4023 -38.8940 -38.8669  -2.9087  -0.0066   1.6455   4.3460
     6.0012   7.9055   8.2128   9.9055  11.2093  11.7738

          k = 0.5556-0.4444-0.0473 (  4268 PWs)   bands (ev):

   -39.3266 -39.3265 -38.8202 -38.7953   0.9704   2.8432   4.8180   6.1407
     6.6110   7.5216   9.5199  10.6343  11.1392  11.5121

          k = 0.0000 0.0000 0.0567 (  4370 PWs)   bands (ev):

   -39.6076 -39.6076 -39.0941 -39.0598  -9.8366  -5.0938   0.2029   3.5564
     4.2040   4.9564   7.6658  10.8595  13.1165  15.3984

          k = 0.6667 0.0000-0.0000 (  4348 PWs)   bands (ev):

   -39.4921 -39.4921 -38.9816 -38.9515  -6.6747  -2.1043   2.5079   2.8216
     5.4709   6.0410   7.2517   7.3228  10.1528  11.2653

          k = 0.0000 0.1111 0.0662 (  4352 PWs)   bands (ev):

   -39.5897 -39.5897 -39.0767 -39.0430  -9.4818  -4.7550   0.4984   3.7854
     4.4954   5.2500   7.9145  10.8290  11.2245  13.4044

          k = 0.0000-0.7778-0.0095 (  4336 PWs)   bands (ev):

   -39.5442 -39.5442 -39.0323 -39.0003  -8.4228  -3.7471   1.3792   4.4568
     5.3058   6.1152   6.5757   8.9243  10.2693  11.4550

          k = 0.4444-0.4444 0.0000 (  4272 PWs)   bands (ev):

   -39.3266 -39.3265 -38.8202 -38.7953   0.9704   2.8432   4.8180   6.1407
     6.6110   7.5216   9.5173  10.6255  11.1453  11.5882

          k = 0.7778-0.2222-0.0095 (  4335 PWs)   bands (ev):

   -39.4841 -39.4841 -38.9737 -38.9438  -7.0216  -2.4139   2.5682   5.4802
     6.4617   6.6617   7.3187   9.0957  10.3807  11.0535

          k = 0.7778-0.1111-0.0000 (  4343 PWs)   bands (ev):

   -39.5272 -39.5272 -39.0158 -38.9843  -8.0712  -3.4117   1.6778   4.7167
     5.6077   6.4180   6.7937   9.1257  10.4729  11.4914

          k = 0.1111-0.8889-0.0095 (  4355 PWs)   bands (ev):

   -39.5721 -39.5721 -39.0595 -39.0264  -9.1279  -4.4171   0.7947   4.0222
     4.7886   5.5448   8.1819  10.4567  10.8913  13.1711

          k = 0.4444-0.5556-0.0095 (  4269 PWs)   bands (ev):

   -39.3266 -39.3265 -38.8202 -38.7953   0.9704   2.8432   4.8180   6.1407
     6.6111   7.5216   9.5236  10.6475  11.1312  11.4216

     the Fermi energy is     7.4295 ev

!    total energy              =     -74.02452357 Ry
     estimated scf accuracy    <          4.1E-10 Ry
     smearing contrib. (-TS)   =      -0.00175917 Ry
     internal energy E=F+TS    =     -74.02276439 Ry

     The total energy is F=E-TS. E is the sum of the following terms:
     one-electron contribution =     -44.02418336 Ry
     hartree contribution      =      23.94005018 Ry
     xc contribution           =     -20.65165437 Ry
     ewald contribution        =     -33.28697685 Ry

     convergence has been achieved in  10 iterations

     Forces acting on atoms (cartesian axes, Ry/au):

     atom    1 type  1   force =    -0.00000000    0.00000000    0.00605224
     atom    2 type  1   force =     0.00000000    0.00000000   -0.00605224
     atom    3 type  1   force =    -0.00000000    0.00000000   -0.22113113
     atom    4 type  1   force =     0.00000000   -0.00000000    0.22113113
     atom    5 type  2   force =     0.00000000   -0.00000000    0.15944763
     atom    6 type  2   force =     0.00000000    0.00000000   -0.15944763

     Total force =     0.385640     Total SCF correction =     0.000036


     Computing stress (Cartesian axis) and pressure

          total   stress  (Ry/bohr**3)                   (kbar)     P=      508.43
   0.00328097  -0.00000000  -0.00000000          482.65       -0.00       -0.00
   0.00000000   0.00328097  -0.00000000            0.00      482.65       -0.00
   0.00000000   0.00000000   0.00380679            0.00        0.00      560.00


     BFGS Geometry Optimization
     Energy error            =      0.0E+00 Ry
     Gradient error          =      2.2E-01 Ry/Bohr
     Cell gradient error     =      6.0E+01 kbar

     number of scf cycles    =   1
     number of bfgs steps    =   0

     enthalpy           new  =     -72.5351546124 Ry

     new trust radius        =       0.2211311336 bohr
ibrav =      7
 celldm(1) =      4.19696356
 celldm(3) =     11.90487844
Input lattice vectors:
     0.49852551    -0.49852551     5.93488557
     0.49852551     0.49852551     5.93488557
    -0.49852551    -0.49852551     5.93488557
New lattice vectors in INITIAL alat:
     0.49852551    -0.49852551     5.93488557
     0.49852551     0.49852551     5.93488557
    -0.49852551    -0.49852551     5.93488557
New lattice vectors in NEW alat (for information only):
     0.50000000    -0.50000000     5.95243922
     0.50000000     0.50000000     5.95243922
    -0.50000000    -0.50000000     5.95243922
Discrepancy in bohr =     0.000000    0.000000    0.000000
     new conv_thr            =       0.0000000100 Ry

     new unit-cell volume =    440.04852 a.u.^3 (    65.20846 Ang^3 )
     density =      2.13741 g/cm^3

CELL_PARAMETERS (alat=  4.20937695)
   0.498525508  -0.498525508   5.934885572
   0.498525508   0.498525508   5.934885572
  -0.498525508  -0.498525508   5.934885572

ATOMIC_POSITIONS (crystal)
Li              -0.0000000000        0.0470638664        0.0470638664
Li              -0.0000000000        0.9529361336        0.9529361336
Li              -0.0000000000        0.1412210936        0.1412210936
Li               0.0000000000        0.8587789064        0.8587789064
Si               0.0000000000        0.2173097679        0.2173097679
Si               0.0000000000        0.7826902321        0.7826902321



     Writing config-only to output data dir ./output/LiSi.save/ :
     XML data file
     NEW-OLD atomic charge density approx. for the potential

     total cpu time spent up to now is       52.5 secs

     per-process dynamical memory:    53.8 Mb

     Self-consistent Calculation

     iteration #  1     ecut=    70.00 Ry     beta= 0.80
     Davidson diagonalization with overlap
     ethr =  1.00E-06,  avg # of iterations = 11.1

     total cpu time spent up to now is       64.9 secs

     total energy              =     -74.03629542 Ry
     estimated scf accuracy    <       0.10894824 Ry

     iteration #  2     ecut=    70.00 Ry     beta= 0.80
     Davidson diagonalization with overlap
     ethr =  5.45E-04,  avg # of iterations =  7.0

     total cpu time spent up to now is       70.3 secs

     total energy              =     -73.53073406 Ry
     estimated scf accuracy    <      13.22843037 Ry

     iteration #  3     ecut=    70.00 Ry     beta= 0.80
     Davidson diagonalization with overlap
     ethr =  5.45E-04,  avg # of iterations =  5.3

     total cpu time spent up to now is       75.5 secs

     total energy              =     -74.09215534 Ry
     estimated scf accuracy    <       0.14827076 Ry

     iteration #  4     ecut=    70.00 Ry     beta= 0.80
     Davidson diagonalization with overlap
     ethr =  5.45E-04,  avg # of iterations =  2.0

     total cpu time spent up to now is       79.3 secs

     total energy              =     -74.11590895 Ry
     estimated scf accuracy    <       0.01634262 Ry

     iteration #  5     ecut=    70.00 Ry     beta= 0.80
     Davidson diagonalization with overlap
     ethr =  8.17E-05,  avg # of iterations =  2.4

     total cpu time spent up to now is       83.0 secs

     total energy              =     -74.11827546 Ry
     estimated scf accuracy    <       0.00338484 Ry

     iteration #  6     ecut=    70.00 Ry     beta= 0.80
     Davidson diagonalization with overlap
     ethr =  1.69E-05,  avg # of iterations =  2.6

     total cpu time spent up to now is       86.6 secs

     total energy              =     -74.11841231 Ry
     estimated scf accuracy    <       0.00013418 Ry

     iteration #  7     ecut=    70.00 Ry     beta= 0.80
     Davidson diagonalization with overlap
     ethr =  6.71E-07,  avg # of iterations =  4.2

     total cpu time spent up to now is       90.7 secs

     total energy              =     -74.11842601 Ry
     estimated scf accuracy    <       0.00002006 Ry

     iteration #  8     ecut=    70.00 Ry     beta= 0.80
     Davidson diagonalization with overlap
     ethr =  1.00E-07,  avg # of iterations =  1.7

     total cpu time spent up to now is       94.2 secs

     total energy              =     -74.11842712 Ry
     estimated scf accuracy    <       0.00000173 Ry

     iteration #  9     ecut=    70.00 Ry     beta= 0.80
     Davidson diagonalization with overlap
     ethr =  8.65E-09,  avg # of iterations =  2.7

     total cpu time spent up to now is       98.3 secs

     total energy              =     -74.11842758 Ry
     estimated scf accuracy    <       0.00000046 Ry

     iteration # 10     ecut=    70.00 Ry     beta= 0.80
     Davidson diagonalization with overlap
     ethr =  2.32E-09,  avg # of iterations =  1.2

     total cpu time spent up to now is      101.8 secs

     total energy              =     -74.11842760 Ry
     estimated scf accuracy    <       0.00000004 Ry

     iteration # 11     ecut=    70.00 Ry     beta= 0.80
     Davidson diagonalization with overlap
     ethr =  1.77E-10,  avg # of iterations =  2.8

     total cpu time spent up to now is      105.8 secs

     End of self-consistent calculation

          k = 0.0000 0.0000 0.0000 (  4333 PWs)   bands (ev):

   -39.2865 -39.2863 -39.0758 -39.0452 -10.5292  -4.9145   0.1575   3.5586
     4.0613   5.0150   7.1915  11.4688  12.1104  13.7924

          k =-0.3343-0.0000 0.0281 (  4352 PWs)   bands (ev):

   -39.1697 -39.1696 -38.9608 -38.9340  -7.3514  -1.8728   1.8813   2.8936
     5.4711   6.1562   6.9351   8.0474   9.4810  11.3074

          k =-0.0000 0.1114 0.0094 (  4360 PWs)   bands (ev):

   -39.2684 -39.2683 -39.0580 -39.0280 -10.1725  -4.5686   0.4659   3.7936
     4.3225   5.3385   7.4037  10.5852  11.5684  12.2641

          k =-0.3343 0.1114 0.0374 (  4339 PWs)   bands (ev):

   -39.1533 -39.1532 -38.9446 -38.9183  -7.0025  -1.5353   2.1846   3.2073
     5.7639   6.4802   7.2842   8.2336   9.8508  11.5357

          k = 0.3343 0.1114-0.0187 (  4334 PWs)   bands (ev):

   -39.1533 -39.1532 -38.9446 -38.9183  -7.0025  -1.5353   2.1846   3.2069
     5.7837   6.4594   7.2102   8.4315   9.6360  11.5493

          k =-0.0000 0.2229 0.0187 (  4351 PWs)   bands (ev):

   -39.2224 -39.2223 -39.0127 -38.9841  -9.1078  -3.5395   1.3856   4.4740
     5.0791   5.8997   6.2724   8.4543  11.0410  11.7249

          k =-0.3343 0.2229 0.0468 (  4332 PWs)   bands (ev):

   -39.1116 -39.1115 -38.9034 -38.8784  -5.9618  -0.5300   3.0149   4.1421
     6.6368   7.4247   8.1558   8.8690   9.5182  11.3876

          k = 0.3343 0.2229-0.0094 (  4333 PWs)   bands (ev):

   -39.1116 -39.1115 -38.9034 -38.8784  -5.9618  -0.5300   3.0149   4.1412
     6.6846   7.3521   8.0374   9.2568   9.3930  11.0151

          k =-0.3343 0.3343 0.0562 (  4328 PWs)   bands (ev):

   -39.0639 -39.0638 -38.8564 -38.8328  -4.2482   1.1076   3.4648   5.6745
     6.7440   8.0063   8.4580   8.9966  10.1713  11.9657

          k = 0.3343 0.3343-0.0000 (  4314 PWs)   bands (ev):

   -39.0638 -39.0638 -38.8564 -38.8328  -4.2482   1.1076   3.4648   5.6725
     6.7441   8.0908   8.4579   8.7830  10.4368  11.9143

          k =-0.0000 0.4458 0.0374 (  4347 PWs)   bands (ev):

   -39.1351 -39.1350 -38.9267 -38.9011  -4.9325  -1.9399   0.6526   3.5050
     4.9130   6.4163   7.1026   8.4650   9.8369  10.7619

          k =-0.3343 0.4458 0.0655 (  4301 PWs)   bands (ev):

   -39.0325 -39.0325 -38.8255 -38.8028  -1.9038   0.9285   3.4585   6.1509
     7.7688   7.8500   9.4262  10.4225  10.4803  10.9679

          k = 0.3343 0.4458 0.0094 (  4298 PWs)   bands (ev):

   -39.0325 -39.0325 -38.8255 -38.8028  -1.9038   0.9285   3.4585   6.1508
     7.7598   7.8504   9.6924   9.9077  10.4802  11.2805

          k = 0.1114-0.1114-0.0000 (  4342 PWs)   bands (ev):

   -39.2506 -39.2504 -39.0404 -39.0110  -9.8167  -4.2235   0.7747   4.0386
     4.5805   5.6710   7.6365   9.8255  11.5245  12.3314

          k =-0.2229-0.1114 0.0281 (  4338 PWs)   bands (ev):

   -39.2052 -39.2051 -38.9957 -38.9677  -8.7545  -3.1973   1.6960   4.7288
     5.3805   6.1267   6.5718   8.6221  11.1633  11.7235

          k = 0.4458-0.1114-0.0281 (  4345 PWs)   bands (ev):

   -39.1192 -39.1191 -38.9110 -38.8858  -4.5905  -1.6091   0.9822   3.8229
     5.2370   6.8286   7.3464   8.8990  10.1131  10.9961

          k =-0.2229 0.0000 0.0374 (  4346 PWs)   bands (ev):

   -39.2224 -39.2223 -39.0127 -38.9841  -9.1078  -3.5395   1.3857   4.4555
     5.1292   5.8936   6.2187   8.5347  10.8953  11.6524

          k = 0.4458 0.0000-0.0187 (  4349 PWs)   bands (ev):

   -39.1351 -39.1350 -38.9267 -38.9011  -4.9325  -1.9399   0.6526   3.5048
     4.9087   6.5428   6.8930   8.6568   9.7578  10.6549

          k = 0.1114 0.1114 0.0187 (  4343 PWs)   bands (ev):

   -39.2506 -39.2504 -39.0404 -39.0110  -9.8167  -4.2235   0.7747   4.0321
     4.5967   5.6523   7.6556   9.8255  11.4082  12.4724

          k =-0.2229 0.1114 0.0468 (  4341 PWs)   bands (ev):

   -39.2052 -39.2051 -38.9957 -38.9677  -8.7545  -3.1973   1.6961   4.7074
     5.4432   6.1203   6.4995   8.7195  11.0128  11.6860

          k = 0.4458 0.1114-0.0094 (  4342 PWs)   bands (ev):

   -39.1192 -39.1191 -38.9110 -38.8858  -4.5905  -1.6091   0.9822   3.8227
     5.2340   6.9708   7.1486   9.0367  10.0639  10.9091

          k =-0.2229 0.2229 0.0562 (  4342 PWs)   bands (ev):

   -39.1615 -39.1614 -38.9527 -38.9261  -7.7003  -2.1792   2.6221   5.4600
     6.0176   6.3093   7.3218   8.5163  10.8010  10.9649

          k = 0.4458 0.2229-0.0000 (  4341 PWs)   bands (ev):

   -39.0788 -39.0787 -38.8711 -38.8471  -3.5717  -0.6284   1.9506   4.7499
     6.2033   8.0754   8.1255   9.9764  11.0388  11.2961

          k =-0.2229 0.3343 0.0655 (  4328 PWs)   bands (ev):

   -39.1116 -39.1115 -38.9034 -38.8784  -5.9618  -0.5300   3.0149   4.1426
     6.6147   7.4575   8.2804   8.6585   9.5389  11.6854

          k = 0.1114-0.5572-0.0374 (  4351 PWs)   bands (ev):

   -39.1192 -39.1191 -38.9110 -38.8859  -4.5905  -1.6091   0.9822   3.8231
     5.2418   6.7213   7.5619   8.6872  10.1640  11.1490

          k =-0.2229-0.5572-0.0094 (  4335 PWs)   bands (ev):

   -39.0788 -39.0787 -38.8711 -38.8471  -3.5717  -0.6284   1.9506   4.7503
     6.2157   7.6902   8.8776   9.3893  10.8895  11.7760

          k = 0.4458-0.5572-0.0655 (  4279 PWs)   bands (ev):

   -39.0022 -39.0021 -38.7956 -38.7737   0.3146   2.1908   4.7179   6.0918
     6.9043   7.1990   9.7065  10.9745  11.6253  11.7501

          k = 0.4458-0.4458-0.0562 (  4273 PWs)   bands (ev):

   -39.0022 -39.0022 -38.7956 -38.7737   0.3146   2.1908   4.7179   6.0918
     6.9043   7.1991   9.7110  11.0169  11.5427  11.6054

          k = 0.4458-0.3343-0.0468 (  4304 PWs)   bands (ev):

   -39.0325 -39.0325 -38.8255 -38.8028  -1.9038   0.9285   3.4585   6.1509
     7.7656   7.8502   9.4857  10.2487  10.4802  11.1038

          k = 0.1114-0.2229-0.0094 (  4336 PWs)   bands (ev):

   -39.2052 -39.2051 -38.9957 -38.9677  -8.7545  -3.1973   1.6959   4.7443
     5.3409   6.1297   6.6191   8.5599  11.2584  11.7693

          k =-0.2229-0.2229 0.0187 (  4343 PWs)   bands (ev):

   -39.1615 -39.1614 -38.9527 -38.9261  -7.7003  -2.1792   2.6217   5.5090
     6.0176   6.1630   7.5499   8.3890  10.5276  10.9648

          k = 0.4458-0.2229-0.0374 (  4337 PWs)   bands (ev):

   -39.0788 -39.0787 -38.8711 -38.8471  -3.5717  -0.6284   1.9506   4.7500
     6.2085   7.8198   8.4882   9.7669  10.9357  11.5486

          k = 0.2229-0.2229-0.0000 (  4340 PWs)   bands (ev):

   -39.1616 -39.1614 -38.9527 -38.9261  -7.7003  -2.1792   2.6217   5.5196
     6.0176   6.1373   7.5961   8.3583  10.4913  10.9648

          k = 0.5572-0.2229-0.0281 (  4329 PWs)   bands (ev):

   -39.0788 -39.0787 -38.8711 -38.8471  -3.5717  -0.6284   1.9506   4.7502
     6.2128   7.7342   8.6992   9.5680  10.9032  11.6934

          k =-0.1114-0.1114 0.0374 (  4350 PWs)   bands (ev):

   -39.2506 -39.2504 -39.0404 -39.0110  -9.8167  -4.2235   0.7748   4.0170
     4.6382   5.6040   7.7040   9.8255  11.1970  12.7471

          k = 0.5572-0.1114-0.0187 (  4354 PWs)   bands (ev):

   -39.1192 -39.1191 -38.9110 -38.8859  -4.5905  -1.6091   0.9822   3.8232
     5.2460   6.6545   7.7744   8.4642  10.1944  11.3167

          k =-0.1114 0.0000 0.0468 (  4359 PWs)   bands (ev):

   -39.2684 -39.2683 -39.0580 -39.0280 -10.1725  -4.5686   0.4659   3.7682
     4.3933   5.2600   7.4793  10.6036  11.0705  13.0584

          k = 0.5572 0.0000-0.0094 (  4340 PWs)   bands (ev):

   -39.1351 -39.1350 -38.9266 -38.9011  -4.9325  -1.9399   0.6526   3.5054
     4.9212   6.2828   7.5125   8.0315   9.9276  11.0444

          k =-0.1114 0.1114 0.0562 (  4354 PWs)   bands (ev):

   -39.2506 -39.2505 -39.0404 -39.0110  -9.8167  -4.2235   0.7748   4.0013
     4.6873   5.5468   7.7593   9.8255  11.0166  12.9942

          k = 0.5572 0.1114-0.0000 (  4343 PWs)   bands (ev):

   -39.1192 -39.1191 -38.9110 -38.8859  -4.5905  -1.6091   0.9822   3.8233
     5.2478   6.6318   7.8946   8.3388  10.2040  11.4020

          k = 0.2229 0.2229 0.0374 (  4341 PWs)   bands (ev):

   -39.1615 -39.1614 -38.9527 -38.9261  -7.7003  -2.1792   2.6219   5.4845
     6.0176   6.2292   7.4409   8.4549  10.6342  10.9649

          k =-0.1114 0.2229 0.0655 (  4350 PWs)   bands (ev):

   -39.2052 -39.2051 -38.9957 -38.9678  -8.7545  -3.1973   1.6962   4.6904
     5.5023   6.1113   6.4357   8.8088  10.8792  11.6677

          k =-0.1114-0.6686-0.0094 (  4343 PWs)   bands (ev):

   -39.1533 -39.1532 -38.9446 -38.9183  -7.0025  -1.5353   2.1846   3.2081
     5.7305   6.5130   7.5684   7.7848  10.2509  11.4540

          k = 0.2229-0.4458-0.0187 (  4342 PWs)   bands (ev):

   -39.0788 -39.0787 -38.8711 -38.8471  -3.5717  -0.6284   1.9506   4.7499
     6.2047   7.9424   8.2856   9.9187  10.9925  11.3861

          k = 0.5572-0.4458-0.0468 (  4268 PWs)   bands (ev):

   -39.0022 -39.0021 -38.7956 -38.7737   0.3146   2.1908   4.7179   6.0918
     6.9043   7.1991   9.7086  10.9924  11.6158  11.6441

          k = 0.0000-0.0000 0.0562 (  4370 PWs)   bands (ev):

   -39.2866 -39.2864 -39.0759 -39.0453 -10.5292  -4.9145   0.1575   3.5285
     4.1466   4.9244   7.2769  10.8919  13.1792  13.7924

          k = 0.6686 0.0000-0.0000 (  4348 PWs)   bands (ev):

   -39.1697 -39.1696 -38.9608 -38.9340  -7.3514  -1.8728   1.8813   2.8945
     5.4291   6.1898   7.3165   7.4435  10.0312  11.1758

          k =-0.0000 0.1114 0.0655 (  4352 PWs)   bands (ev):

   -39.2684 -39.2683 -39.0580 -39.0280 -10.1725  -4.5686   0.4659   3.7562
     4.4331   5.2154   7.5197  10.6265  10.8930  13.5246

          k = 0.0000-0.7801-0.0094 (  4336 PWs)   bands (ev):

   -39.2224 -39.2222 -39.0127 -38.9841  -9.1078  -3.5395   1.3858   4.4253
     5.2306   5.8719   6.1202   8.6976  10.6221  11.5963

          k = 0.4458-0.4458-0.0000 (  4272 PWs)   bands (ev):

   -39.0022 -39.0021 -38.7956 -38.7737   0.3146   2.1908   4.7179   6.0918
     6.9043   7.1990   9.7057  10.9681  11.6291  11.8006

          k = 0.7801-0.2229-0.0094 (  4335 PWs)   bands (ev):

   -39.1615 -39.1614 -38.9527 -38.9261  -7.7003  -2.1792   2.6222   5.4454
     6.0176   6.3668   7.2424   8.5510  10.9649  10.9833

          k = 0.7801-0.1114-0.0000 (  4343 PWs)   bands (ev):

   -39.2052 -39.2051 -38.9957 -38.9677  -8.7545  -3.1973   1.6962   4.6841
     5.5273   6.1063   6.4104   8.8455  10.8261  11.6626

          k = 0.1114-0.8915-0.0094 (  4355 PWs)   bands (ev):

   -39.2506 -39.2505 -39.0405 -39.0110  -9.8167  -4.2235   0.7748   3.9917
     4.7213   5.5074   7.7956   9.8255  10.9159  13.1289

          k = 0.4458-0.5572-0.0094 (  4269 PWs)   bands (ev):

   -39.0022 -39.0021 -38.7956 -38.7737   0.3146   2.1908   4.7179   6.0918
     6.9043   7.1991   9.7126  11.0365  11.4811  11.5988

     the Fermi energy is     7.4296 ev

!    total energy              =     -74.11842760 Ry
     estimated scf accuracy    <          8.0E-10 Ry
     smearing contrib. (-TS)   =      -0.00108908 Ry
     internal energy E=F+TS    =     -74.11733853 Ry

     The total energy is F=E-TS. E is the sum of the following terms:
     one-electron contribution =     -41.95727403 Ry
     hartree contribution      =      22.89386987 Ry
     xc contribution           =     -20.64699102 Ry
     ewald contribution        =     -34.40694335 Ry

     convergence has been achieved in  11 iterations

     Forces acting on atoms (cartesian axes, Ry/au):

     atom    1 type  1   force =     0.00000000   -0.00000000    0.00100836
     atom    2 type  1   force =     0.00000000    0.00000000   -0.00100836
     atom    3 type  1   force =     0.00000000    0.00000000   -0.09761004
     atom    4 type  1   force =    -0.00000000   -0.00000000    0.09761004
     atom    5 type  2   force =     0.00000000   -0.00000000   -0.03225369
     atom    6 type  2   force =    -0.00000000    0.00000000    0.03225369

     Total force =     0.145389     Total SCF correction =     0.000069


     Computing stress (Cartesian axis) and pressure

          total   stress  (Ry/bohr**3)                   (kbar)     P=      479.05
   0.00351839  -0.00000000   0.00000000          517.57       -0.00        0.00
   0.00000000   0.00351839  -0.00000000            0.00      517.57       -0.00
  -0.00000000  -0.00000000   0.00273274           -0.00       -0.00      402.00

     Energy error            =      8.8E-02 Ry
     Gradient error          =      9.8E-02 Ry/Bohr
     Cell gradient error     =      9.8E+01 kbar

     number of scf cycles    =   2
     number of bfgs steps    =   1

     enthalpy           old  =     -72.5351546124 Ry
     enthalpy           new  =     -72.6227330775 Ry

     CASE: enthalpy          _new < enthalpy          _old

     new trust radius        =       0.1721299835 bohr
ibrav =      7
 celldm(1) =      4.21010577
 celldm(3) =     11.65064863
Input lattice vectors:
     0.50008657    -0.50008657     5.82633292
     0.50008657     0.50008657     5.82633292
    -0.50008657    -0.50008657     5.82633292
New lattice vectors in INITIAL alat:
     0.50008657    -0.50008657     5.82633292
     0.50008657     0.50008657     5.82633292
    -0.50008657    -0.50008657     5.82633292
New lattice vectors in NEW alat (for information only):
     0.50000000    -0.50000000     5.82532431
     0.50000000     0.50000000     5.82532431
    -0.50000000    -0.50000000     5.82532431
Discrepancy in bohr =     0.000000    0.000000    0.000000
     new conv_thr            =       0.0000000098 Ry

     new unit-cell volume =    434.70950 a.u.^3 (    64.41730 Ang^3 )
     density =      2.16366 g/cm^3

CELL_PARAMETERS (alat=  4.20937695)
   0.500086570  -0.500086570   5.826332916
   0.500086570   0.500086570   5.826332916
  -0.500086570  -0.500086570   5.826332916

ATOMIC_POSITIONS (crystal)
Li              -0.0000000000        0.0471157668        0.0471157668
Li               0.0000000000        0.9528842332        0.9528842332
Li              -0.0000000000        0.1377760370        0.1377760370
Li               0.0000000000        0.8622239630        0.8622239630
Si               0.0000000000        0.2171779865        0.2171779865
Si               0.0000000000        0.7828220135        0.7828220135



     Writing config-only to output data dir ./output/LiSi.save/ :
     XML data file
     NEW-OLD atomic charge density approx. for the potential

     total cpu time spent up to now is      106.3 secs

     per-process dynamical memory:    53.8 Mb

     Self-consistent Calculation

     iteration #  1     ecut=    70.00 Ry     beta= 0.80
     Davidson diagonalization with overlap
     ethr =  1.00E-06,  avg # of iterations =  8.3

     total cpu time spent up to now is      115.6 secs

     total energy              =     -74.07546555 Ry
     estimated scf accuracy    <       0.06896248 Ry

     iteration #  2     ecut=    70.00 Ry     beta= 0.80
     Davidson diagonalization with overlap
     ethr =  3.45E-04,  avg # of iterations =  6.9

     total cpu time spent up to now is      121.0 secs

     total energy              =     -73.55970981 Ry
     estimated scf accuracy    <      14.00694540 Ry

     iteration #  3     ecut=    70.00 Ry     beta= 0.80
     Davidson diagonalization with overlap
     ethr =  3.45E-04,  avg # of iterations =  5.5

     total cpu time spent up to now is      126.1 secs

     total energy              =     -74.13374983 Ry
     estimated scf accuracy    <       0.00661750 Ry

     iteration #  4     ecut=    70.00 Ry     beta= 0.80
     Davidson diagonalization with overlap
     ethr =  3.31E-05,  avg # of iterations =  3.6

     total cpu time spent up to now is      130.2 secs

     total energy              =     -74.13487133 Ry
     estimated scf accuracy    <       0.00037665 Ry

     iteration #  5     ecut=    70.00 Ry     beta= 0.80
     Davidson diagonalization with overlap
     ethr =  1.88E-06,  avg # of iterations =  3.7

     total cpu time spent up to now is      134.3 secs

     total energy              =     -74.13487584 Ry
     estimated scf accuracy    <       0.00013663 Ry

     iteration #  6     ecut=    70.00 Ry     beta= 0.80
     Davidson diagonalization with overlap
     ethr =  6.83E-07,  avg # of iterations =  1.5

     total cpu time spent up to now is      137.7 secs

     total energy              =     -74.13487155 Ry
     estimated scf accuracy    <       0.00003806 Ry

     iteration #  7     ecut=    70.00 Ry     beta= 0.80
     Davidson diagonalization with overlap
     ethr =  1.90E-07,  avg # of iterations =  1.9

     total cpu time spent up to now is      141.4 secs

     total energy              =     -74.13487644 Ry
     estimated scf accuracy    <       0.00000023 Ry

     iteration #  8     ecut=    70.00 Ry     beta= 0.80
     Davidson diagonalization with overlap
     ethr =  1.16E-09,  avg # of iterations =  4.4

     total cpu time spent up to now is      146.2 secs

     total energy              =     -74.13487667 Ry
     estimated scf accuracy    <       0.00000019 Ry

     iteration #  9     ecut=    70.00 Ry     beta= 0.80
     Davidson diagonalization with overlap
     ethr =  9.54E-10,  avg # of iterations =  1.8

     total cpu time spent up to now is      149.8 secs

     End of self-consistent calculation

          k = 0.0000 0.0000 0.0000 (  4333 PWs)   bands (ev):

   -39.0630 -39.0625 -38.8669 -38.8314 -10.5045  -4.7141   0.3355   3.6852
     4.2141   5.2311   7.3050  12.1097  12.5108  13.7051

          k =-0.3333-0.0000 0.0286 (  4352 PWs)   bands (ev):

   -38.9489 -38.9486 -38.7547 -38.7234  -7.3467  -1.6853   1.8312   3.0710
     5.5393   6.2346   7.1257   8.2133   9.7289  11.5257

          k =-0.0000 0.1111 0.0095 (  4360 PWs)   bands (ev):

   -39.0453 -39.0449 -38.8495 -38.8146 -10.1500  -4.3693   0.6441   3.9134
     4.4652   5.5492   7.5164  10.5314  12.1286  12.6973

          k =-0.3333 0.1111 0.0381 (  4339 PWs)   bands (ev):

   -38.9329 -38.9326 -38.7389 -38.7081  -7.0001  -1.3490   2.1324   3.3843
     5.8265   6.5592   7.4692   8.3994  10.0697  11.7784

          k = 0.3333 0.1111-0.0191 (  4334 PWs)   bands (ev):

   -38.9329 -38.9326 -38.7389 -38.7081  -7.0001  -1.3490   2.1324   3.3837
     5.8508   6.5280   7.4004   8.5911   9.8749  11.7663

          k =-0.0000 0.2222 0.0191 (  4351 PWs)   bands (ev):

   -39.0004 -38.9999 -38.8053 -38.7720  -9.0921  -3.3438   1.5642   4.5737
     5.1917   5.8323   6.4676   8.6107  11.2722  12.1935

          k =-0.3333 0.2222 0.0477 (  4332 PWs)   bands (ev):

   -38.8922 -38.8919 -38.6987 -38.6693  -5.9661  -0.3474   2.9562   4.3179
     6.6864   7.4948   8.3252   8.9858   9.5187  11.6446

          k = 0.3333 0.2222-0.0095 (  4333 PWs)   bands (ev):

   -38.8922 -38.8919 -38.6987 -38.6693  -5.9661  -0.3474   2.9562   4.3165
     6.7442   7.4006   8.2200   9.2758   9.4971  11.2745

          k =-0.3333 0.3333 0.0572 (  4328 PWs)   bands (ev):

   -38.8456 -38.8454 -38.6528 -38.6249  -4.2635   1.2840   3.3965   5.8475
     6.6772   8.0364   8.6324   9.0339  10.3343  12.1766

          k = 0.3333 0.3333-0.0000 (  4314 PWs)   bands (ev):

   -38.8456 -38.8453 -38.6528 -38.6249  -4.2635   1.2840   3.3965   5.8443
     6.6774   8.1360   8.6323   8.8086  10.5897  12.2041

          k =-0.0000 0.4444 0.0381 (  4347 PWs)   bands (ev):

   -38.9152 -38.9149 -38.7214 -38.6914  -4.9426  -1.9608   0.8269   3.6734
     5.0906   6.4653   7.2291   8.6223   9.9550  11.0386

          k =-0.3333 0.4444 0.0667 (  4301 PWs)   bands (ev):

   -38.8150 -38.8148 -38.6226 -38.5958  -1.9340   0.8844   3.6209   6.3123
     7.7778   7.9455   9.4357  10.3872  10.5744  11.0329

          k = 0.3333 0.4444 0.0095 (  4298 PWs)   bands (ev):

   -38.8150 -38.8148 -38.6226 -38.5957  -1.9340   0.8844   3.6210   6.3121
     7.7782   7.9305   9.7323   9.9819  10.3879  11.3911

          k = 0.1111-0.1111-0.0000 (  4342 PWs)   bands (ev):

   -39.0279 -39.0274 -38.8324 -38.7981  -9.7964  -4.0254   0.9531   4.1524
     4.7131   5.8775   7.7537   9.7279  12.0740  12.7425

          k =-0.2222-0.1111 0.0286 (  4338 PWs)   bands (ev):

   -38.9836 -38.9832 -38.7888 -38.7561  -8.7411  -3.0027   1.8745   4.8224
     5.4873   6.0563   6.7601   8.7639  11.4058  12.1167

          k = 0.4444-0.1111-0.0286 (  4345 PWs)   bands (ev):

   -38.8996 -38.8994 -38.7061 -38.6766  -4.6029  -1.6322   1.1553   3.9897
     5.4134   6.8823   7.4584   9.0610  10.2342  11.2565

          k =-0.2222-0.0000 0.0381 (  4346 PWs)   bands (ev):

   -39.0004 -38.9999 -38.8053 -38.7720  -9.0921  -3.3438   1.5643   4.5528
     5.2461   5.8279   6.4079   8.6880  11.1880  12.0245

          k = 0.4444 0.0000-0.0191 (  4349 PWs)   bands (ev):

   -38.9152 -38.9149 -38.7214 -38.6914  -4.9426  -1.9608   0.8269   3.6732
     5.0836   6.6069   6.9962   8.8315   9.8881  10.9046

          k = 0.1111 0.1111 0.0191 (  4343 PWs)   bands (ev):

   -39.0279 -39.0274 -38.8324 -38.7981  -9.7964  -4.0254   0.9531   4.1451
     4.7309   5.8568   7.7733   9.7279  11.9430  12.8809

          k =-0.2222 0.1111 0.0477 (  4341 PWs)   bands (ev):

   -38.9836 -38.9832 -38.7888 -38.7561  -8.7411  -3.0027   1.8747   4.7983
     5.5551   6.0514   6.6811   8.8567  11.3195  12.0191

          k = 0.4444 0.1111-0.0095 (  4342 PWs)   bands (ev):

   -38.8996 -38.8993 -38.7061 -38.6766  -4.6029  -1.6322   1.1553   3.9895
     5.4084   7.0404   7.2397   9.2098  10.1951  11.1497

          k =-0.2222 0.2222 0.0572 (  4342 PWs)   bands (ev):

   -38.9409 -38.9406 -38.7468 -38.7156  -7.6935  -1.9882   2.8003   5.5337
     5.9365   6.4022   7.4782   8.5337  10.9654  11.1248

          k = 0.4444 0.2222-0.0000 (  4341 PWs)   bands (ev):

   -38.8602 -38.8599 -38.6672 -38.6389  -3.5908  -0.6588   2.1204   4.9130
     6.3776   8.1382   8.2076  10.1278  11.1647  11.3230

          k =-0.2222 0.3333 0.0667 (  4328 PWs)   bands (ev):

   -38.8922 -38.8919 -38.6987 -38.6693  -5.9661  -0.3474   2.9562   4.3187
     6.6603   7.5389   8.4394   8.7920   9.5228  11.9189

          k = 0.1111-0.5555-0.0381 (  4351 PWs)   bands (ev):

   -38.8997 -38.8994 -38.7061 -38.6766  -4.6029  -1.6322   1.1553   3.9900
     5.4213   6.7615   7.7001   8.8281  10.2733  11.4386

          k =-0.2222-0.5555-0.0095 (  4335 PWs)   bands (ev):

   -38.8602 -38.8599 -38.6672 -38.6389  -3.5908  -0.6588   2.1204   4.9136
     6.3983   7.7119   9.0818   9.4483  10.9453  11.7635

          k = 0.4444-0.5555-0.0667 (  4279 PWs)   bands (ev):

   -38.7854 -38.7852 -38.5934 -38.5674   0.2688   2.1290   4.7310   6.1909
     6.8342   7.3809   9.8374  11.0544  11.8006  11.8147

          k = 0.4444-0.4444-0.0572 (  4273 PWs)   bands (ev):

   -38.7854 -38.7852 -38.5934 -38.5674   0.2688   2.1290   4.7310   6.1909
     6.8342   7.3810   9.8441  11.1165  11.5549  11.7650

          k = 0.4444-0.3333-0.0477 (  4304 PWs)   bands (ev):

   -38.8150 -38.8148 -38.6226 -38.5958  -1.9340   0.8844   3.6209   6.3122
     7.7780   7.9402   9.5031  10.3605  10.3903  11.1979

          k = 0.1111-0.2222-0.0095 (  4336 PWs)   bands (ev):

   -38.9836 -38.9832 -38.7888 -38.7561  -8.7411  -3.0027   1.8744   4.8401
     5.4441   6.0587   6.8114   8.7036  11.4532  12.2084

          k =-0.2222-0.2222 0.0191 (  4343 PWs)   bands (ev):

   -38.9409 -38.9406 -38.7468 -38.7156  -7.6935  -1.9882   2.7998   5.5895
     5.9365   6.2459   7.7235   8.4058  10.7047  11.1248

          k = 0.4444-0.2222-0.0381 (  4337 PWs)   bands (ev):

   -38.8602 -38.8599 -38.6672 -38.6389  -3.5908  -0.6588   2.1204   4.9133
     6.3862   7.8588   8.6053   9.9042  11.0062  11.5894

          k = 0.2222-0.2222-0.0000 (  4340 PWs)   bands (ev):

   -38.9409 -38.9406 -38.7468 -38.7156  -7.6935  -1.9882   2.7997   5.6018
     5.9365   6.2179   7.7758   8.3721  10.6676  11.1248

          k = 0.5555-0.2222-0.0286 (  4329 PWs)   bands (ev):

   -38.8602 -38.8599 -38.6672 -38.6389  -3.5908  -0.6588   2.1204   4.9135
     6.3935   7.7621   8.8479   9.6799  10.9632  11.7053

          k =-0.1111-0.1111 0.0381 (  4350 PWs)   bands (ev):

   -39.0279 -39.0274 -38.8324 -38.7981  -9.7964  -4.0254   0.9531   4.1282
     4.7763   5.8035   7.8224   9.7279  11.7186  13.1048

          k = 0.5555-0.1111-0.0191 (  4354 PWs)   bands (ev):

   -38.8997 -38.8994 -38.7061 -38.6766  -4.6029  -1.6322   1.1552   3.9902
     5.4285   6.6856   7.9526   8.5675  10.2961  11.6424

          k =-0.1111-0.0000 0.0477 (  4359 PWs)   bands (ev):

   -39.0453 -39.0449 -38.8495 -38.8146 -10.1500  -4.3693   0.6442   3.8850
     4.5430   5.4616   7.5934  10.5465  11.5725  13.5835

          k = 0.5555 0.0000-0.0095 (  4340 PWs)   bands (ev):

   -38.9151 -38.9149 -38.7214 -38.6914  -4.9426  -1.9608   0.8268   3.6739
     5.1045   6.3137   7.7254   8.1065  10.0283  11.3950

          k =-0.1111 0.1111 0.0572 (  4354 PWs)   bands (ev):

   -39.0279 -39.0274 -38.8324 -38.7981  -9.7964  -4.0254   0.9532   4.1107
     4.8299   5.7404   7.8778   9.7279  11.5328  13.2540

          k = 0.5555 0.1111-0.0000 (  4343 PWs)   bands (ev):

   -38.8997 -38.8993 -38.7061 -38.6766  -4.6029  -1.6322   1.1552   3.9903
     5.4314   6.6596   8.1319   8.3836  10.3033  11.7603

          k = 0.2222 0.2222 0.0381 (  4341 PWs)   bands (ev):

   -38.9409 -38.9406 -38.7468 -38.7156  -7.6935  -1.9882   2.8000   5.5615
     5.9365   6.3171   7.6045   8.4739  10.8110  11.1248

          k =-0.1111 0.2222 0.0667 (  4350 PWs)   bands (ev):

   -38.9836 -38.9832 -38.7888 -38.7561  -8.7411  -3.0027   1.8748   4.7792
     5.6189   6.0447   6.6100   8.9399  11.2318  11.9611

          k =-0.1111-0.6666-0.0095 (  4343 PWs)   bands (ev):

   -38.9329 -38.9326 -38.7389 -38.7081  -7.0001  -1.3490   2.1324   3.3855
     5.7861   6.6097   7.7447   7.9533  10.4154  11.8594

          k = 0.2222-0.4444-0.0191 (  4342 PWs)   bands (ev):

   -38.8602 -38.8599 -38.6672 -38.6389  -3.5908  -0.6588   2.1204   4.9131
     6.3800   7.9958   8.3796  10.0674  11.0857  11.4344

          k = 0.5555-0.4444-0.0477 (  4268 PWs)   bands (ev):

   -38.7854 -38.7852 -38.5934 -38.5674   0.2688   2.1290   4.7310   6.1909
     6.8342   7.3810   9.8405  11.0792  11.6829  11.7833

          k =-0.0000 0.0000 0.0572 (  4370 PWs)   bands (ev):

   -39.0630 -39.0625 -38.8669 -38.8314 -10.5045  -4.7141   0.3356   3.6518
     4.3086   5.1287   7.3930  11.4207  13.7051  13.7393

          k = 0.6666 0.0000-0.0000 (  4348 PWs)   bands (ev):

   -38.9489 -38.9486 -38.7547 -38.7234  -7.3467  -1.6853   1.8312   3.0724
     5.4878   6.2917   7.5007   7.6103  10.2112  11.7751

          k =-0.0000 0.1111 0.0667 (  4352 PWs)   bands (ev):

   -39.0453 -39.0449 -38.8495 -38.8146 -10.1500  -4.3693   0.6442   3.8717
     4.5868   5.4120   7.6341  10.5575  11.3999  14.1036

          k =-0.0000-0.7776-0.0095 (  4336 PWs)   bands (ev):

   -39.0003 -38.9999 -38.8053 -38.7720  -9.0921  -3.3438   1.5646   4.5190
     5.3563   5.8138   6.2927   8.8401  10.9980  11.8715

          k = 0.4444-0.4444-0.0000 (  4272 PWs)   bands (ev):

   -38.7854 -38.7852 -38.5934 -38.5674   0.2688   2.1290   4.7310   6.1909
     6.8342   7.3809   9.8361  11.0459  11.8076  11.8735

          k = 0.7776-0.2222-0.0095 (  4335 PWs)   bands (ev):

   -38.9409 -38.9406 -38.7468 -38.7156  -7.6935  -1.9882   2.8005   5.5173
     5.9365   6.4628   7.3951   8.5664  11.1067  11.1248

          k = 0.7776-0.1111-0.0000 (  4343 PWs)   bands (ev):

   -38.9836 -38.9832 -38.7888 -38.7561  -8.7411  -3.0027   1.8749   4.7722
     5.6460   6.0410   6.5811   8.9734  11.1945  11.9432

          k = 0.1111-0.8887-0.0095 (  4355 PWs)   bands (ev):

   -39.0279 -39.0274 -38.8324 -38.7981  -9.7964  -4.0254   0.9532   4.1002
     4.8669   5.6971   7.9139   9.7279  11.4305  13.3155

          k = 0.4444-0.5555-0.0095 (  4269 PWs)   bands (ev):

   -38.7854 -38.7852 -38.5934 -38.5674   0.2688   2.1290   4.7310   6.1908
     6.8342   7.3811   9.8465  11.1513  11.4710  11.7537

     the Fermi energy is     7.5587 ev

!    total energy              =     -74.13487669 Ry
     estimated scf accuracy    <          6.0E-09 Ry
     smearing contrib. (-TS)   =      -0.00179395 Ry
     internal energy E=F+TS    =     -74.13308274 Ry

     The total energy is F=E-TS. E is the sum of the following terms:
     one-electron contribution =     -37.95634874 Ry
     hartree contribution      =      20.99548178 Ry
     xc contribution           =     -20.64677852 Ry
     ewald contribution        =     -36.52543726 Ry

     convergence has been achieved in   9 iterations

     Forces acting on atoms (cartesian axes, Ry/au):

     atom    1 type  1   force =    -0.00000000   -0.00000000   -0.00341225
     atom    2 type  1   force =     0.00000000   -0.00000000    0.00341225
     atom    3 type  1   force =    -0.00000000    0.00000000   -0.07158908
     atom    4 type  1   force =    -0.00000000   -0.00000000    0.07158908
     atom    5 type  2   force =     0.00000000    0.00000000   -0.06637575
     atom    6 type  2   force =     0.00000000   -0.00000000    0.06637575

     Total force =     0.138148     Total SCF correction =     0.000176


     Computing stress (Cartesian axis) and pressure

          total   stress  (Ry/bohr**3)                   (kbar)     P=      479.42
   0.00345846  -0.00000000   0.00000000          508.76       -0.00        0.00
  -0.00000000   0.00345846  -0.00000000           -0.00      508.76       -0.00
  -0.00000000   0.00000000   0.00286014           -0.00        0.00      420.74

     Energy error            =      3.5E-02 Ry
     Gradient error          =      7.2E-02 Ry/Bohr
     Cell gradient error     =      7.9E+01 kbar

     number of scf cycles    =   3
     number of bfgs steps    =   2

     enthalpy           old  =     -72.6227330775 Ry
     enthalpy           new  =     -72.6573291440 Ry

     CASE: enthalpy          _new < enthalpy          _old

     new trust radius        =       0.2534724325 bohr
ibrav =      7
 celldm(1) =      4.22317088
 celldm(3) =     11.29189072
Input lattice vectors:
     0.50163848    -0.50163848     5.66444686
     0.50163848     0.50163848     5.66444686
    -0.50163848    -0.50163848     5.66444686
New lattice vectors in INITIAL alat:
     0.50163848    -0.50163848     5.66444686
     0.50163848     0.50163848     5.66444686
    -0.50163848    -0.50163848     5.66444686
New lattice vectors in NEW alat (for information only):
     0.50000000    -0.50000000     5.64594536
     0.50000000     0.50000000     5.64594536
    -0.50000000    -0.50000000     5.64594536
Discrepancy in bohr =     0.000000    0.000000    0.000000
     new conv_thr            =       0.0000000069 Ry

     new unit-cell volume =    425.25814 a.u.^3 (    63.01675 Ang^3 )
     density =      2.21175 g/cm^3

CELL_PARAMETERS (alat=  4.20937695)
   0.501638477  -0.501638477   5.664446864
   0.501638477   0.501638477   5.664446864
  -0.501638477  -0.501638477   5.664446864

ATOMIC_POSITIONS (crystal)
Li              -0.0000000000        0.0470699598        0.0470699598
Li               0.0000000000        0.9529300402        0.9529300402
Li              -0.0000000000        0.1326084521        0.1326084521
Li               0.0000000000        0.8673915479        0.8673915479
Si               0.0000000000        0.2159185450        0.2159185450
Si               0.0000000000        0.7840814550        0.7840814550



     Writing config-only to output data dir ./output/LiSi.save/ :
     XML data file
     NEW-OLD atomic charge density approx. for the potential

     total cpu time spent up to now is      150.2 secs

     per-process dynamical memory:    54.5 Mb

     Self-consistent Calculation

     iteration #  1     ecut=    70.00 Ry     beta= 0.80
     Davidson diagonalization with overlap
     ethr =  1.00E-06,  avg # of iterations = 10.4

     total cpu time spent up to now is      161.3 secs

     total energy              =     -74.04214305 Ry
     estimated scf accuracy    <       0.11920575 Ry

     iteration #  2     ecut=    70.00 Ry     beta= 0.80
     Davidson diagonalization with overlap
     ethr =  5.96E-04,  avg # of iterations =  6.3

     total cpu time spent up to now is      166.7 secs

     total energy              =     -73.33343074 Ry
     estimated scf accuracy    <      18.73071627 Ry

     iteration #  3     ecut=    70.00 Ry     beta= 0.80
     Davidson diagonalization with overlap
     ethr =  5.96E-04,  avg # of iterations =  5.5

     total cpu time spent up to now is      171.9 secs

     total energy              =     -74.14222523 Ry
     estimated scf accuracy    <       0.01601447 Ry

     iteration #  4     ecut=    70.00 Ry     beta= 0.80
     Davidson diagonalization with overlap
     ethr =  8.01E-05,  avg # of iterations =  3.1

     total cpu time spent up to now is      176.0 secs

     total energy              =     -74.14418743 Ry
     estimated scf accuracy    <       0.00292721 Ry

     iteration #  5     ecut=    70.00 Ry     beta= 0.80
     Davidson diagonalization with overlap
     ethr =  1.46E-05,  avg # of iterations =  3.2

     total cpu time spent up to now is      179.8 secs

     total energy              =     -74.14470818 Ry
     estimated scf accuracy    <       0.00068795 Ry

     iteration #  6     ecut=    70.00 Ry     beta= 0.80
     Davidson diagonalization with overlap
     ethr =  3.44E-06,  avg # of iterations =  2.3

     total cpu time spent up to now is      183.4 secs

     total energy              =     -74.14473649 Ry
     estimated scf accuracy    <       0.00006738 Ry

     iteration #  7     ecut=    70.00 Ry     beta= 0.80
     Davidson diagonalization with overlap
     ethr =  3.37E-07,  avg # of iterations =  2.4

     total cpu time spent up to now is      187.2 secs

     total energy              =     -74.14474440 Ry
     estimated scf accuracy    <       0.00000187 Ry

     iteration #  8     ecut=    70.00 Ry     beta= 0.80
     Davidson diagonalization with overlap
     ethr =  9.35E-09,  avg # of iterations =  3.6

     total cpu time spent up to now is      191.5 secs

     total energy              =     -74.14474503 Ry
     estimated scf accuracy    <       0.00000105 Ry

     iteration #  9     ecut=    70.00 Ry     beta= 0.80
     Davidson diagonalization with overlap
     ethr =  5.23E-09,  avg # of iterations =  1.9

     total cpu time spent up to now is      195.2 secs

     total energy              =     -74.14474515 Ry
     estimated scf accuracy    <       0.00000005 Ry

     iteration # 10     ecut=    70.00 Ry     beta= 0.80
     Davidson diagonalization with overlap
     ethr =  2.72E-10,  avg # of iterations =  2.0

     total cpu time spent up to now is      198.8 secs

     End of self-consistent calculation

          k = 0.0000 0.0000 0.0000 (  4333 PWs)   bands (ev):

   -38.7859 -38.7837 -38.5721 -38.5278 -10.1593  -4.4517   0.5737   3.9035
     4.4934   5.6110   7.4700  12.9786  13.1266  13.9622

          k =-0.3322-0.0000 0.0294 (  4352 PWs)   bands (ev):

   -38.6733 -38.6716 -38.4632 -38.4236  -7.0172  -1.4268   2.1085   3.3092
     5.6477   6.3715   7.3942   8.4928  10.0681  11.8445

          k =-0.0000 0.1107 0.0098 (  4360 PWs)   bands (ev):

   -38.7685 -38.7663 -38.5552 -38.5117  -9.8067  -4.1079   0.8828   4.1198
     4.7274   5.9205   7.6955  10.7954  12.9382  13.3572

          k =-0.3322 0.1107 0.0392 (  4339 PWs)   bands (ev):

   -38.6575 -38.6558 -38.4478 -38.4088  -6.6723  -1.0917   2.4090   3.6225
     5.9267   6.6961   7.7317   8.6758  10.3829  12.1392

          k = 0.3322 0.1107-0.0196 (  4334 PWs)   bands (ev):

   -38.6575 -38.6558 -38.4478 -38.4088  -6.6723  -1.0917   2.4090   3.6214
     5.9585   6.6531   7.6639   8.8681  10.2113  12.1009

          k =-0.0000 0.2215 0.0196 (  4351 PWs)   bands (ev):

   -38.7240 -38.7221 -38.5123 -38.4706  -8.7541  -3.0849   1.8038   4.7439
     5.4028   6.0965   6.8140   8.8365  11.5367  12.9294

          k =-0.3322 0.2215 0.0490 (  4332 PWs)   bands (ev):

   -38.6173 -38.6158 -38.4088 -38.3713  -5.6432  -0.0932   3.2328   4.5554
     6.7684   7.6197   8.5648   9.2435   9.7796  12.0134

          k = 0.3322 0.2215-0.0098 (  4333 PWs)   bands (ev):

   -38.6173 -38.6158 -38.4088 -38.3713  -5.6432  -0.0932   3.2328   4.5527
     6.8426   7.5018   8.4638   9.5254   9.7686  11.6870

          k =-0.3322 0.3322 0.0588 (  4328 PWs)   bands (ev):

   -38.5714 -38.5700 -38.3641 -38.3284  -3.9485   1.5341   3.6815   6.0823
     6.9159   8.0866   8.8444   9.1201  10.6190  12.5181

          k = 0.3322 0.3322-0.0000 (  4314 PWs)   bands (ev):

   -38.5714 -38.5700 -38.3641 -38.3284  -3.9485   1.5342   3.6815   6.0762
     6.9164   8.2136   8.8442   8.8691  10.8737  12.5914

          k =-0.0000 0.4430 0.0392 (  4347 PWs)   bands (ev):

   -38.6400 -38.6384 -38.4309 -38.3928  -4.6240  -1.6517   1.0614   3.8974
     5.3096   6.5221   7.3923   8.8687  10.1655  11.4881

          k =-0.3322 0.4430 0.0687 (  4301 PWs)   bands (ev):

   -38.5412 -38.5400 -38.3348 -38.3002  -1.6289   1.1802   3.8566   6.5338
     8.0203   8.1716   9.4404  10.6334  10.7424  11.1948

          k = 0.3322 0.4430 0.0098 (  4298 PWs)   bands (ev):

   -38.5412 -38.5400 -38.3348 -38.3002  -1.6289   1.1802   3.8567   6.5334
     8.0211   8.1422   9.7943  10.0712  10.6338  11.5615

          k = 0.1107-0.1107-0.0000 (  4342 PWs)   bands (ev):

   -38.7512 -38.7492 -38.5386 -38.4957  -9.4549  -3.7650   1.1921   4.3484
     4.9581   6.2426   7.9421   9.9859  12.9201  13.2586

          k =-0.2215-0.1107 0.0294 (  4338 PWs)   bands (ev):

   -38.7075 -38.7056 -38.4962 -38.4552  -8.4048  -2.7448   2.1143   4.9826
     5.6901   6.3215   7.0955   8.9954  11.6679  12.7960

          k = 0.4430-0.1107-0.0294 (  4345 PWs)   bands (ev):

   -38.6247 -38.6231 -38.4160 -38.3784  -4.2858  -1.3246   1.3891   4.2125
     5.6293   6.9480   7.6036   9.3060  10.4586  11.6845

          k =-0.2215-0.0000 0.0392 (  4346 PWs)   bands (ev):

   -38.7240 -38.7221 -38.5123 -38.4706  -8.7541  -3.0849   1.8040   4.7191
     5.4652   6.0911   6.7455   8.9132  11.5024  12.6643

          k = 0.4430 0.0000-0.0196 (  4349 PWs)   bands (ev):

   -38.6400 -38.6384 -38.4309 -38.3928  -4.6240  -1.6517   1.0614   3.8969
     5.2966   6.6882   7.1302   9.0853  10.1305  11.3164

          k = 0.1107 0.1107 0.0196 (  4343 PWs)   bands (ev):

   -38.7512 -38.7492 -38.5386 -38.4957  -9.4549  -3.7650   1.1921   4.3400
     4.9787   6.2173   7.9639   9.9859  12.7394  13.4095

          k =-0.2215 0.1107 0.0490 (  4341 PWs)   bands (ev):

   -38.7075 -38.7056 -38.4962 -38.4552  -8.4048  -2.7448   2.1146   4.9540
     5.7671   6.3155   7.0060   9.0878  11.6355  12.6444

          k = 0.4430 0.1107-0.0098 (  4342 PWs)   bands (ev):

   -38.6247 -38.6231 -38.4160 -38.3784  -4.2858  -1.3246   1.3891   4.2122
     5.6201   7.1322   7.3561   9.4561  10.4473  11.5502

          k =-0.2215 0.2215 0.0588 (  4342 PWs)   bands (ev):

   -38.6654 -38.6637 -38.4555 -38.4161  -7.3624  -1.7329   3.0404   5.6604
     6.2106   6.5831   7.7670   8.7928  11.2470  11.3203

          k = 0.4430 0.2215-0.0000 (  4341 PWs)   bands (ev):

   -38.5858 -38.5844 -38.3781 -38.3419  -3.2783  -0.3557   2.3527   5.1336
     6.5894   8.2335   8.3018  10.3475  11.4156  11.5994

          k =-0.2215 0.3322 0.0687 (  4328 PWs)   bands (ev):

   -38.6173 -38.6158 -38.4088 -38.3713  -5.6432  -0.0932   3.2328   4.5568
     6.7357   7.6750   8.6740   9.0517   9.7818  12.2171

          k = 0.1107-0.5537-0.0392 (  4351 PWs)   bands (ev):

   -38.6247 -38.6231 -38.4160 -38.3784  -4.2858  -1.3246   1.3890   4.2129
     5.6442   6.8049   7.8756   9.0610  10.4696  11.9031

          k =-0.2215-0.5537-0.0098 (  4335 PWs)   bands (ev):

   -38.5857 -38.5843 -38.3781 -38.3419  -3.2783  -0.3557   2.3526   5.1345
     6.6294   7.7273   9.3179   9.6090  11.1390  11.9921

          k = 0.4430-0.5537-0.0687 (  4279 PWs)   bands (ev):

   -38.5120 -38.5109 -38.3063 -38.2728   0.5651   2.4194   5.0104   6.4001
     7.1042   7.6013  10.0379  11.1369  11.9097  11.9969

          k = 0.4430-0.4430-0.0588 (  4273 PWs)   bands (ev):

   -38.5120 -38.5109 -38.3063 -38.2728   0.5651   2.4194   5.0104   6.4000
     7.1042   7.6015  10.0515  11.2185  11.5790  11.9245

          k = 0.4430-0.3322-0.0490 (  4304 PWs)   bands (ev):

   -38.5412 -38.5400 -38.3348 -38.3002  -1.6289   1.1802   3.8567   6.5336
     8.0206   8.1610   9.5219  10.5029  10.6340  11.3701

          k = 0.1107-0.2215-0.0098 (  4336 PWs)   bands (ev):

   -38.7075 -38.7056 -38.4962 -38.4552  -8.4048  -2.7448   2.1141   5.0038
     5.6408   6.3244   7.1542   8.9341  11.6857  12.9163

          k =-0.2215-0.2215 0.0196 (  4343 PWs)   bands (ev):

   -38.6654 -38.6637 -38.4555 -38.4161  -7.3624  -1.7329   3.0393   5.7274
     6.2106   6.4089   8.0396   8.6511  11.0246  11.3202

          k = 0.4430-0.2215-0.0392 (  4337 PWs)   bands (ev):

   -38.5857 -38.5843 -38.3781 -38.3419  -3.2783  -0.3557   2.3527   5.1340
     6.6055   7.9041   8.7559  10.1248  11.2221  11.8496

          k = 0.2215-0.2215-0.0000 (  4340 PWs)   bands (ev):

   -38.6654 -38.6637 -38.4555 -38.4161  -7.3624  -1.7329   3.0392   5.7425
     6.2106   6.3771   8.1014   8.6104  10.9904  11.3202

          k = 0.5537-0.2215-0.0294 (  4329 PWs)   bands (ev):

   -38.5857 -38.5843 -38.3781 -38.3419  -3.2783  -0.3557   2.3526   5.1343
     6.6196   7.7884   9.0307   9.8860  11.1638  11.9464

          k =-0.1107-0.1107 0.0392 (  4350 PWs)   bands (ev):

   -38.7512 -38.7492 -38.5386 -38.4957  -9.4549  -3.7650   1.1922   4.3201
     5.0315   6.1524   8.0180   9.9859  12.4863  13.5656

          k = 0.5537-0.1107-0.0196 (  4354 PWs)   bands (ev):

   -38.6247 -38.6231 -38.4160 -38.3784  -4.2858  -1.3246   1.3890   4.2133
     5.6583   6.7129   8.1659   8.7719  10.4759  12.1471

          k =-0.1107-0.0000 0.0490 (  4359 PWs)   bands (ev):

   -38.7685 -38.7663 -38.5552 -38.5117  -9.8067  -4.1079   0.8829   4.0869
     4.8187   5.8120   7.7814  10.8053  12.3196  14.3046

          k = 0.5537-0.0000-0.0098 (  4340 PWs)   bands (ev):

   -38.6400 -38.6384 -38.4309 -38.3928  -4.6240  -1.6517   1.0614   3.8982
     5.3366   6.3389   7.9752   8.2837  10.2027  11.9489

          k =-0.1107 0.1107 0.0588 (  4354 PWs)   bands (ev):

   -38.7512 -38.7492 -38.5386 -38.4957  -9.4549  -3.7650   1.1923   4.2998
     5.0941   6.0762   8.0779   9.9859  12.2896  13.6389

          k = 0.5537 0.1107-0.0000 (  4343 PWs)   bands (ev):

   -38.6247 -38.6231 -38.4160 -38.3784  -4.2858  -1.3246   1.3890   4.2135
     5.6641   6.6809   8.4576   8.4785  10.4779  12.3858

          k = 0.2215 0.2215 0.0392 (  4341 PWs)   bands (ev):

   -38.6654 -38.6637 -38.4555 -38.4161  -7.3624  -1.7329   3.0398   5.6936
     6.2106   6.4888   7.9053   8.7283  11.1195  11.3202

          k =-0.1107 0.2215 0.0687 (  4350 PWs)   bands (ev):

   -38.7075 -38.7056 -38.4963 -38.4552  -8.4048  -2.7448   2.1148   4.9316
     5.8393   6.3072   6.9261   9.1684  11.6008  12.5347

          k =-0.1107-0.6645-0.0098 (  4343 PWs)   bands (ev):

   -38.6575 -38.6558 -38.4478 -38.4088  -6.6723  -1.0917   2.4090   3.6246
     5.8752   6.7659   8.0123   8.2164  10.6664  12.3279

          k = 0.2215-0.4430-0.0196 (  4342 PWs)   bands (ev):

   -38.5858 -38.5844 -38.3781 -38.3419  -3.2783  -0.3557   2.3527   5.1337
     6.5938   8.0650   8.5013  10.2891  11.3237  11.7083

          k = 0.5537-0.4430-0.0490 (  4268 PWs)   bands (ev):

   -38.5120 -38.5109 -38.3063 -38.2728   0.5651   2.4194   5.0104   6.4000
     7.1042   7.6014  10.0442  11.1670  11.7419  11.9603

          k = 0.0000-0.0000 0.0588 (  4370 PWs)   bands (ev):

   -38.7859 -38.7837 -38.5721 -38.5278 -10.1593  -4.4517   0.5739   3.8650
     4.6059   5.4818   7.5690  12.1609  13.9622  14.4590

          k = 0.6645-0.0000-0.0000 (  4348 PWs)   bands (ev):

   -38.6733 -38.6716 -38.4632 -38.4236  -7.0172  -1.4268   2.1085   3.3118
     5.5811   6.4546   7.8084   7.8414  10.4638  12.0758

          k =-0.0000 0.1107 0.0687 (  4352 PWs)   bands (ev):

   -38.7685 -38.7663 -38.5552 -38.5116  -9.8067  -4.1079   0.8830   4.0715
     4.8707   5.7507   7.8258  10.8117  12.1455  14.7909

          k = 0.0000-0.7752-0.0098 (  4336 PWs)   bands (ev):

   -38.7240 -38.7221 -38.5123 -38.4706  -8.7541  -3.0849   1.8044   4.6793
     5.5913   6.0733   6.6147   9.0588  11.4185  12.3909

          k = 0.4430-0.4430-0.0000 (  4272 PWs)   bands (ev):

   -38.5120 -38.5109 -38.3063 -38.2728   0.5651   2.4194   5.0104   6.4001
     7.1042   7.6012  10.0355  11.1272  11.9930  12.0131

          k = 0.7752-0.2215-0.0098 (  4335 PWs)   bands (ev):

   -38.6654 -38.6637 -38.4555 -38.4161  -7.3624  -1.7329   3.0407   5.6410
     6.2106   6.6496   7.6771   8.8273  11.3203  11.3482

          k = 0.7752-0.1107-0.0000 (  4343 PWs)   bands (ev):

   -38.7075 -38.7056 -38.4962 -38.4552  -8.4048  -2.7448   2.1149   4.9233
     5.8701   6.3026   6.8939   9.2003  11.5853  12.4962

          k = 0.1107-0.8860-0.0098 (  4355 PWs)   bands (ev):

   -38.7512 -38.7492 -38.5386 -38.4957  -9.4549  -3.7650   1.1924   4.2876
     5.1376   6.0238   8.1163   9.9859  12.1834  13.6654

          k = 0.4430-0.5537-0.0098 (  4269 PWs)   bands (ev):

   -38.5120 -38.5109 -38.3063 -38.2728   0.5651   2.4194   5.0104   6.3999
     7.1042   7.6015  10.0563  11.2849  11.4524  11.9036

     the Fermi energy is     7.7478 ev

!    total energy              =     -74.14474515 Ry
     estimated scf accuracy    <          3.1E-09 Ry
     smearing contrib. (-TS)   =      -0.00165894 Ry
     internal energy E=F+TS    =     -74.14308622 Ry

     The total energy is F=E-TS. E is the sum of the following terms:
     one-electron contribution =     -32.33864298 Ry
     hartree contribution      =      18.37695486 Ry
     xc contribution           =     -20.64352585 Ry
     ewald contribution        =     -39.53787225 Ry

     convergence has been achieved in  10 iterations

     Forces acting on atoms (cartesian axes, Ry/au):

     atom    1 type  1   force =    -0.00000000    0.00000000   -0.01442074
     atom    2 type  1   force =     0.00000000    0.00000000    0.01442074
     atom    3 type  1   force =    -0.00000000    0.00000000   -0.04141512
     atom    4 type  1   force =     0.00000000    0.00000000    0.04141512
     atom    5 type  2   force =     0.00000000   -0.00000000   -0.06618017
     atom    6 type  2   force =    -0.00000000   -0.00000000    0.06618017

     Total force =     0.112276     Total SCF correction =     0.000125


     Computing stress (Cartesian axis) and pressure

          total   stress  (Ry/bohr**3)                   (kbar)     P=      481.46
   0.00338007  -0.00000000  -0.00000000          497.23       -0.00       -0.00
  -0.00000000   0.00338007   0.00000000           -0.00      497.23        0.00
   0.00000000  -0.00000000   0.00305854            0.00       -0.00      449.93

     Energy error            =      4.2E-02 Ry
     Gradient error          =      6.6E-02 Ry/Bohr
     Cell gradient error     =      5.0E+01 kbar

     number of scf cycles    =   4
     number of bfgs steps    =   3

     enthalpy           old  =     -72.6573291440 Ry
     enthalpy           new  =     -72.6993221129 Ry

     CASE: enthalpy          _new < enthalpy          _old

     new trust radius        =       0.3696444607 bohr
ibrav =      7
 celldm(1) =      4.22999672
 celldm(3) =     10.79074986
Input lattice vectors:
     0.50244927    -0.50244927     5.42180434
     0.50244927     0.50244927     5.42180434
    -0.50244927    -0.50244927     5.42180434
New lattice vectors in INITIAL alat:
     0.50244927    -0.50244927     5.42180434
     0.50244927     0.50244927     5.42180434
    -0.50244927    -0.50244927     5.42180434
New lattice vectors in NEW alat (for information only):
     0.50000000    -0.50000000     5.39537493
     0.50000000     0.50000000     5.39537493
    -0.50000000    -0.50000000     5.39537493
Discrepancy in bohr =     0.000000    0.000000    0.000000
     new conv_thr            =       0.0000000066 Ry

     new unit-cell volume =    408.35861 a.u.^3 (    60.51250 Ang^3 )
     density =      2.30328 g/cm^3

CELL_PARAMETERS (alat=  4.20937695)
   0.502449266  -0.502449266   5.421804344
   0.502449266   0.502449266   5.421804344
  -0.502449266  -0.502449266   5.421804344

ATOMIC_POSITIONS (crystal)
Li              -0.0000000000        0.0464774315        0.0464774315
Li               0.0000000000        0.9535225685        0.9535225685
Li              -0.0000000000        0.1248570747        0.1248570747
Li               0.0000000000        0.8751429253        0.8751429253
Si               0.0000000000        0.2132945320        0.2132945320
Si               0.0000000000        0.7867054680        0.7867054680



     Writing config-only to output data dir ./output/LiSi.save/ :
     XML data file
     NEW-OLD atomic charge density approx. for the potential

     total cpu time spent up to now is      199.3 secs

     per-process dynamical memory:    54.5 Mb

     Self-consistent Calculation

     iteration #  1     ecut=    70.00 Ry     beta= 0.80
     Davidson diagonalization with overlap
     c_bands:  1 eigenvalues not converged
     c_bands:  1 eigenvalues not converged
     c_bands:  1 eigenvalues not converged
     c_bands:  1 eigenvalues not converged
     ethr =  1.00E-06,  avg # of iterations = 12.1

     total cpu time spent up to now is      211.7 secs

     total energy              =     -73.84169486 Ry
     estimated scf accuracy    <       0.31571228 Ry

     iteration #  2     ecut=    70.00 Ry     beta= 0.80
     Davidson diagonalization with overlap
     ethr =  1.58E-03,  avg # of iterations =  6.8

     total cpu time spent up to now is      217.4 secs

     total energy              =     -73.19099751 Ry
[...]
     c_bands:  1 eigenvalues not converged
     c_bands:  1 eigenvalues not converged
     c_bands:  1 eigenvalues not converged
     c_bands:  1 eigenvalues not converged
     c_bands:  2 eigenvalues not converged
     c_bands:  2 eigenvalues not converged
     c_bands:  1 eigenvalues not converged
     c_bands:  1 eigenvalues not converged
     c_bands:  2 eigenvalues not converged
     ethr =  1.00E-06,  avg # of iterations = 18.2

     total cpu time spent up to now is      633.5 secs

     total energy              =     -71.56655371 Ry
     estimated scf accuracy    <       2.90504165 Ry

     iteration #  2     ecut=    70.00 Ry     beta= 0.80
     Davidson diagonalization with overlap
     ethr =  1.00E-02,  avg # of iterations =  7.4

     total cpu time spent up to now is      637.4 secs

     total energy              =     -69.10080830 Ry
     estimated scf accuracy    <      78.75122487 Ry

     iteration #  3     ecut=    70.00 Ry     beta= 0.80
     Davidson diagonalization with overlap
     ethr =  1.00E-02,  avg # of iterations =  4.6

     total cpu time spent up to now is      640.3 secs

     total energy              =     -74.04472975 Ry
     estimated scf accuracy    <      10.34806696 Ry

     iteration #  4     ecut=    70.00 Ry     beta= 0.80
     Davidson diagonalization with overlap
     ethr =  1.00E-02,  avg # of iterations =  2.3

     total cpu time spent up to now is      642.3 secs

     total energy              =     -74.06317341 Ry
     estimated scf accuracy    <       2.94955968 Ry

     iteration #  5     ecut=    70.00 Ry     beta= 0.80
     Davidson diagonalization with overlap
     ethr =  1.00E-02,  avg # of iterations =  1.6

     total cpu time spent up to now is      644.2 secs

     total energy              =     -74.05900495 Ry
     estimated scf accuracy    <       0.45149579 Ry

     iteration #  6     ecut=    70.00 Ry     beta= 0.80
     Davidson diagonalization with overlap
     ethr =  2.26E-03,  avg # of iterations =  3.1

     total cpu time spent up to now is      646.3 secs

     total energy              =     -74.11572075 Ry
     estimated scf accuracy    <       0.37023108 Ry

     iteration #  7     ecut=    70.00 Ry     beta= 0.80
     Davidson diagonalization with overlap
     ethr =  1.85E-03,  avg # of iterations =  1.0

     total cpu time spent up to now is      648.2 secs

     total energy              =     -74.12063135 Ry
     estimated scf accuracy    <       0.03437983 Ry

     iteration #  8     ecut=    70.00 Ry     beta= 0.80
     Davidson diagonalization with overlap
     ethr =  1.72E-04,  avg # of iterations =  2.6

     total cpu time spent up to now is      650.2 secs

     total energy              =     -74.12308836 Ry
     estimated scf accuracy    <       0.00052365 Ry

     iteration #  9     ecut=    70.00 Ry     beta= 0.80
     Davidson diagonalization with overlap
     c_bands:  1 eigenvalues not converged
     ethr =  2.62E-06,  avg # of iterations =  6.7

     total cpu time spent up to now is      652.8 secs

     total energy              =     -74.12304951 Ry
     estimated scf accuracy    <       0.00121508 Ry

     iteration # 10     ecut=    70.00 Ry     beta= 0.80
     Davidson diagonalization with overlap
     ethr =  2.62E-06,  avg # of iterations =  1.3

     total cpu time spent up to now is      654.6 secs

     total energy              =     -74.12309377 Ry
     estimated scf accuracy    <       0.00004620 Ry

     iteration # 11     ecut=    70.00 Ry     beta= 0.80
     Davidson diagonalization with overlap
     ethr =  2.31E-07,  avg # of iterations =  1.3

     total cpu time spent up to now is      656.5 secs

     total energy              =     -74.12309563 Ry
     estimated scf accuracy    <       0.00000319 Ry

     iteration # 12     ecut=    70.00 Ry     beta= 0.80
     Davidson diagonalization with overlap
     ethr =  1.59E-08,  avg # of iterations =  2.0

     total cpu time spent up to now is      658.4 secs

     total energy              =     -74.12309563 Ry
     estimated scf accuracy    <       0.00000090 Ry

     iteration # 13     ecut=    70.00 Ry     beta= 0.80
     Davidson diagonalization with overlap
     ethr =  4.48E-09,  avg # of iterations =  2.0

     total cpu time spent up to now is      660.4 secs

     total energy              =     -74.12309566 Ry
     estimated scf accuracy    <       0.00000044 Ry

     iteration # 14     ecut=    70.00 Ry     beta= 0.80
     Davidson diagonalization with overlap
     ethr =  2.20E-09,  avg # of iterations =  1.3

     total cpu time spent up to now is      662.3 secs

     total energy              =     -74.12309570 Ry
     estimated scf accuracy    <       0.00000002 Ry

     iteration # 15     ecut=    70.00 Ry     beta= 0.80
     Davidson diagonalization with overlap
     ethr =  1.23E-10,  avg # of iterations =  2.7

     total cpu time spent up to now is      664.4 secs

     total energy              =     -74.12309571 Ry
     estimated scf accuracy    <          2.7E-10 Ry

     iteration # 16     ecut=    70.00 Ry     beta= 0.80
     Davidson diagonalization with overlap
     ethr =  1.34E-12,  avg # of iterations =  4.1

     total cpu time spent up to now is      666.8 secs

     total energy              =     -74.12309571 Ry
     estimated scf accuracy    <          1.2E-10 Ry

     iteration # 17     ecut=    70.00 Ry     beta= 0.80
     Davidson diagonalization with overlap
     ethr =  5.85E-13,  avg # of iterations =  2.1

     total cpu time spent up to now is      668.9 secs

     End of self-consistent calculation

          k = 0.0000 0.0000 0.0000 (  4019 PWs)   bands (ev):

   -38.3064 -38.2707 -38.0616 -37.8873  -8.0788  -4.9051   0.4756   4.4486
     4.8978   6.1952   6.4839  11.6922  15.1406  16.6737

          k =-0.3398-0.0000 0.0297 (  3988 PWs)   bands (ev):

   -38.1625 -38.1325 -37.9299 -37.7666  -4.7684  -1.6724   3.4812   4.7638
     5.8321   6.7364   7.5732   8.6663   9.4790  12.6429

          k = 0.0000 0.1133 0.0099 (  4014 PWs)   bands (ev):

   -38.2842 -38.2494 -38.0412 -37.8685  -7.7071  -4.5402   0.8140   4.6236
     5.1259   6.4797   6.8183  11.9242  13.6991  15.1360

          k =-0.3398 0.1133 0.0397 (  3981 PWs)   bands (ev):

   -38.1426 -38.1132 -37.9114 -37.7495  -4.4049  -1.3180   3.8212   5.0810
     6.1071   7.0947   7.8824   8.8270   9.9143  12.9785

          k = 0.3398 0.1133-0.0198 (  3987 PWs)   bands (ev):

   -38.1426 -38.1132 -37.9114 -37.7495  -4.4049  -1.3180   3.8194   5.0812
     6.1536   6.9976   7.8512   9.1164   9.6783  12.9401

          k = 0.0000 0.2265 0.0198 (  3983 PWs)   bands (ev):

   -38.2275 -38.1949 -37.9893 -37.8210  -6.5980  -3.4535   1.8240   5.1230
     5.7833   7.2525   7.7755   9.2626  11.5514  12.7598

          k =-0.3398 0.2265 0.0496 (  3985 PWs)   bands (ev):

   -38.0919 -38.0642 -37.8644 -37.7062  -3.3205  -0.2634   4.8341   5.9573
     6.9465   8.0580   8.6664   9.5432  10.9169  13.1247

          k = 0.3398 0.2265-0.0099 (  3997 PWs)   bands (ev):

   -38.0919 -38.0642 -37.8644 -37.7062  -3.3205  -0.2634   4.8295   5.9574
     7.0467   7.8445   8.6135  10.1296  10.4400  13.1225

          k =-0.3398 0.3398 0.0595 (  3963 PWs)   bands (ev):

   -38.0339 -38.0081 -37.8105 -37.6566  -1.5355   1.4612   6.4783   6.4977
     8.2307   8.9068   9.4979   9.7494  10.9992  12.7292

          k = 0.3398 0.3398-0.0000 (  3962 PWs)   bands (ev):

   -38.0339 -38.0081 -37.8105 -37.6565  -1.5355   1.4612   6.4783   6.4850
     8.4016   8.9066   9.1425   9.7412  11.7163  12.0690

          k = 0.0000 0.4531 0.0397 (  3974 PWs)   bands (ev):

   -38.1199 -38.0915 -37.8907 -37.7309  -2.2516   0.4721   1.3075   3.9131
     5.6328   6.5408   7.6641   9.1924   9.9189  11.7765

          k =-0.3398 0.4531 0.0694 (  3937 PWs)   bands (ev):

   -37.9958 -37.9713 -37.7751 -37.6240   0.9037   3.5242   4.2230   6.6602
     8.7313   9.5357  10.8321  11.2437  11.8457  12.5287

          k = 0.3398 0.4531 0.0099 (  3944 PWs)   bands (ev):

   -37.9958 -37.9713 -37.7751 -37.6240   0.9037   3.5243   4.2231   6.6594
     8.6587   9.8936  10.4837  10.9687  11.9457  13.0963

          k = 0.1133-0.1133-0.0000 (  3999 PWs)   bands (ev):

   -38.2623 -38.2282 -38.0211 -37.8501  -7.3364  -4.1764   1.1524   4.8214
     5.3424   6.8316   7.0967  12.1848  12.9277  15.1075

          k =-0.2265-0.1133 0.0297 (  3995 PWs)   bands (ev):

   -38.2065 -38.1746 -37.9700 -37.8032  -6.2299  -3.0931   2.1626   5.3380
     6.0862   7.4599   8.1865   9.4359  11.7240  12.9158

          k = 0.4531-0.1133-0.0297 (  3969 PWs)   bands (ev):

   -38.1006 -38.0728 -37.8728 -37.7143  -1.8953   0.8151   1.6548   4.2436
     5.9660   6.9789   7.9022   9.5784  10.3630  11.9308

          k =-0.2265 0.0000 0.0397 (  3994 PWs)   bands (ev):

   -38.2275 -38.1949 -37.9893 -37.8210  -6.5980  -3.4535   1.8242   5.0840
     5.8920   7.0409   7.9275   9.2763  11.5506  12.6452

          k = 0.4531-0.0000-0.0198 (  3975 PWs)   bands (ev):

   -38.1199 -38.0915 -37.8907 -37.7309  -2.2516   0.4722   1.3075   3.9124
     5.6077   6.6915   7.4270   9.2960  10.1234  11.4364

          k = 0.1133 0.1133 0.0198 (  4001 PWs)   bands (ev):

   -38.2623 -38.2283 -38.0211 -37.8501  -7.3364  -4.1764   1.1524   4.8046
     5.3816   6.7119   7.2001  12.1558  12.9277  15.0789

          k =-0.2265 0.1133 0.0496 (  3992 PWs)   bands (ev):

   -38.2065 -38.1746 -37.9700 -37.8032  -6.2299  -3.0931   2.1629   5.2960
     6.2205   7.2328   8.3346   9.4525  11.7235  12.7854

          k = 0.4531 0.1133-0.0099 (  3971 PWs)   bands (ev):

   -38.1007 -38.0728 -37.8728 -37.7143  -1.8953   0.8151   1.6548   4.2430
     5.9487   7.1109   7.7126   9.6323  10.5635  11.6562

          k =-0.2265 0.2265 0.0595 (  3991 PWs)   bands (ev):

   -38.1531 -38.1232 -37.9208 -37.7579  -5.1314  -2.0202   3.1739   5.9425
     7.0536   7.9884   9.0795   9.4316  11.4115  12.9533

          k = 0.4531 0.2265-0.0000 (  3970 PWs)   bands (ev):

   -38.0517 -38.0255 -37.8273 -37.6722  -0.8340   1.8403   2.6695   5.2076
     6.9803   8.2019   8.7710  10.5543  11.6539  12.5237

          k =-0.2265 0.3398 0.0694 (  3984 PWs)   bands (ev):

   -38.0919 -38.0642 -37.8644 -37.7062  -3.3205  -0.2634   4.8366   5.9572
     6.9038   8.1682   8.7424   9.2870  11.0617  13.1261

          k = 0.1133-0.5663-0.0397 (  3976 PWs)   bands (ev):

   -38.1006 -38.0728 -37.8728 -37.7143  -1.8953   0.8151   1.6548   4.2444
     5.9961   6.8330   8.1629   9.4425  10.1648  12.3030

          k =-0.2265-0.5663-0.0099 (  3959 PWs)   bands (ev):

   -38.0517 -38.0255 -37.8273 -37.6722  -0.8340   1.8402   2.6694   5.2094
     7.0665   7.7777   9.6121  10.1725  10.9480  13.5207

          k = 0.4531-0.5663-0.0694 (  3937 PWs)   bands (ev):

   -37.9591 -37.9358 -37.7408 -37.5924   3.2155   5.1772   5.8950   7.6506
     8.3642   9.8312  10.9160  11.7402  12.2318  12.7572

          k = 0.4531-0.4531-0.0595 (  3932 PWs)   bands (ev):

   -37.9591 -37.9358 -37.7408 -37.5924   3.2155   5.1771   5.8949   7.6508
     8.3642   9.8320  11.0051  11.6196  11.9750  12.5629

          k = 0.4531-0.3398-0.0496 (  3941 PWs)   bands (ev):

   -37.9958 -37.9713 -37.7751 -37.6240   0.9037   3.5243   4.2231   6.6599
     8.7032   9.6364  10.7710  11.0824  11.8999  12.7252

          k = 0.1133-0.2265-0.0099 (  4000 PWs)   bands (ev):

   -38.2065 -38.1747 -37.9700 -37.8032  -6.2299  -3.0931   2.1623   5.3709
     6.0046   7.6629   8.0230   9.4262  11.7242  13.0105

          k =-0.2265-0.2265 0.0198 (  3976 PWs)   bands (ev):

   -38.1530 -38.1232 -37.9208 -37.7579  -5.1314  -2.0202   3.1725   6.0319
     6.7720   8.4899   9.0605   9.0795  11.4114  12.9261

          k = 0.4531-0.2265-0.0397 (  3964 PWs)   bands (ev):

   -38.0517 -38.0255 -37.8273 -37.6722  -0.8340   1.8403   2.6695   5.2084
     7.0125   7.9793   9.1079  10.4814  11.2486  13.0096

          k = 0.2265-0.2265-0.0000 (  3964 PWs)   bands (ev):

   -38.1530 -38.1232 -37.9208 -37.7579  -5.1314  -2.0202   3.1723   6.0530
     6.7245   8.6679   8.8980   9.0795  11.4114  12.9231

          k = 0.5663-0.2265-0.0297 (  3964 PWs)   bands (ev):

   -38.0517 -38.0255 -37.8273 -37.6722  -0.8340   1.8402   2.6694   5.2090
     7.0433   7.8520   9.3752  10.3511  11.0427  13.3435

          k =-0.1133-0.1133 0.0397 (  4006 PWs)   bands (ev):

   -38.2623 -38.2283 -38.0211 -37.8501  -7.3364  -4.1764   1.1525   4.7685
     5.4835   6.5122   7.3495  12.0850  12.9277  15.0790

          k = 0.5663-0.1133-0.0198 (  3971 PWs)   bands (ev):

   -38.1007 -38.0728 -37.8728 -37.7143  -1.8953   0.8150   1.6548   4.2451
     6.0274   6.7253   8.4342   9.2273  10.0580  12.6846

          k =-0.1133 0.0000 0.0496 (  4006 PWs)   bands (ev):

   -38.2842 -38.2493 -38.0412 -37.8685  -7.7071  -4.5402   0.8141   4.5594
     5.3155   6.1213   7.0759  11.8114  13.7039  15.5089

          k = 0.5663-0.0000-0.0099 (  3975 PWs)   bands (ev):

   -38.1199 -38.0915 -37.8907 -37.7309  -2.2516   0.4721   1.3075   3.9146
     5.6921   6.3299   8.1858   8.7692   9.7241  12.5415

          k =-0.1133 0.1133 0.0595 (  4004 PWs)   bands (ev):

   -38.2623 -38.2283 -38.0211 -37.8501  -7.3364  -4.1764   1.1526   4.7347
     5.6194   6.3112   7.4665  12.0088  12.9277  15.0790

          k = 0.5663 0.1133-0.0000 (  3967 PWs)   bands (ev):

   -38.1006 -38.0728 -37.8728 -37.7143  -1.8953   0.8150   1.6548   4.2454
     6.0415   6.6849   8.5942   9.0794  10.0282  13.0184

          k = 0.2265 0.2265 0.0397 (  3989 PWs)   bands (ev):

   -38.1531 -38.1232 -37.9208 -37.7579  -5.1314  -2.0202   3.1732   5.9859
     6.8944   8.2329   9.0795   9.2694  11.4115  12.9357

          k =-0.1133 0.2265 0.0694 (  3995 PWs)   bands (ev):

   -38.2065 -38.1746 -37.9700 -37.8032  -6.2299  -3.0931   2.1632   5.2646
     6.3694   7.0295   8.4313   9.4689  11.7231  12.6811

          k =-0.1133-0.6796-0.0099 (  3989 PWs)   bands (ev):

   -38.1426 -38.1132 -37.9114 -37.7495  -4.4049  -1.3180   3.8246   5.0806
     6.0352   7.2720   8.0568   8.3299  10.1880  13.1523

          k = 0.2265-0.4531-0.0198 (  3959 PWs)   bands (ev):

   -38.0517 -38.0255 -37.8272 -37.6722  -0.8340   1.8403   2.6695   5.2079
     6.9889   8.1235   8.8780  10.5390  11.5089  12.6866

          k = 0.5663-0.4531-0.0496 (  3934 PWs)   bands (ev):

   -37.9591 -37.9358 -37.7408 -37.5924   3.2155   5.1772   5.8950   7.6507
     8.3642   9.8316  10.9531  11.6977  12.0692  12.6413

          k =-0.0000 0.0000 0.0595 (  4019 PWs)   bands (ev):

   -38.3065 -38.2707 -38.0616 -37.8872  -8.0788  -4.9051   0.4757   4.3680
     5.1558   5.7461   6.7835  11.5636  15.7706  16.6737

          k = 0.6796-0.0000-0.0000 (  3976 PWs)   bands (ev):

   -38.1625 -38.1325 -37.9299 -37.7666  -4.7684  -1.6724   3.4854   4.7632
     5.7364   6.9609   7.8176   7.9763   9.8634  12.9103

          k =-0.0000 0.1133 0.0694 (  4006 PWs)   bands (ev):

   -38.2842 -38.2493 -38.0412 -37.8685  -7.7071  -4.5402   0.8142   4.5330
     5.4521   5.9401   7.1604  11.7548  13.7059  15.7026

          k = 0.0000-0.7929-0.0099 (  4002 PWs)   bands (ev):

   -38.2275 -38.1949 -37.9893 -37.8210  -6.5980  -3.4535   1.8247   5.0258
     6.1639   6.6662   8.1058   9.3055  11.5488  12.4569

          k = 0.4531-0.4531-0.0000 (  3946 PWs)   bands (ev):

   -37.9591 -37.9358 -37.7408 -37.5924   3.2155   5.1772   5.8951   7.6505
     8.3643   9.8310  10.9029  11.7518  12.3647  12.6507

          k = 0.7929-0.2265-0.0099 (  3992 PWs)   bands (ev):

   -38.1531 -38.1232 -37.9208 -37.7579  -5.1314  -2.0202   3.1744   5.9177
     7.1925   7.8084   9.0795   9.5205  11.4116  12.9743

          k = 0.7929-0.1133-0.0000 (  4001 PWs)   bands (ev):

   -38.2065 -38.1746 -37.9700 -37.8032  -6.2299  -3.0931   2.1634   5.2532
     6.4513   6.9297   8.4645   9.4759  11.7229  12.6419

          k = 0.1133-0.9061-0.0099 (  3985 PWs)   bands (ev):

   -38.2622 -38.2282 -38.0211 -37.8500  -7.3364  -4.1764   1.1527   4.7154
     5.7472   6.1514   7.5298  11.9611  12.9277  15.0790

          k = 0.4531-0.5663-0.0099 (  3940 PWs)   bands (ev):

   -37.9591 -37.9358 -37.7408 -37.5924   3.2155   5.1771   5.8948   7.6509
     8.3642   9.8323  11.0490  11.5491  11.9400  12.5235

     the Fermi energy is     8.1725 ev

!    total energy              =     -74.12309571 Ry
     estimated scf accuracy    <          1.5E-11 Ry
     smearing contrib. (-TS)   =      -0.00007551 Ry
     internal energy E=F+TS    =     -74.12302020 Ry

     The total energy is F=E-TS. E is the sum of the following terms:
     one-electron contribution =     -19.74010997 Ry
     hartree contribution      =      12.58721417 Ry
     xc contribution           =     -20.58592900 Ry
     ewald contribution        =     -46.38419539 Ry

     convergence has been achieved in  17 iterations

     Forces acting on atoms (cartesian axes, Ry/au):

     atom    1 type  1   force =    -0.00000000    0.00000000   -0.00026611
     atom    2 type  1   force =    -0.00000000    0.00000000    0.00026611
     atom    3 type  1   force =     0.00000000   -0.00000000   -0.00007714
     atom    4 type  1   force =    -0.00000000    0.00000000    0.00007714
     atom    5 type  2   force =     0.00000000   -0.00000000   -0.00002575
     atom    6 type  2   force =     0.00000000    0.00000000    0.00002575

     Total force =     0.000394     Total SCF correction =     0.000006


     Computing stress (Cartesian axis) and pressure

          total   stress  (Ry/bohr**3)                   (kbar)     P=      499.27
   0.00339661  -0.00000000   0.00000000          499.66       -0.00        0.00
   0.00000000   0.00339661   0.00000000            0.00      499.66        0.00
   0.00000000  -0.00000000   0.00338866            0.00       -0.00      498.49


     Writing all to output data dir ./output/LiSi.save/ :
     XML data file, charge density, pseudopotentials, collected wavefunctions

     init_run     :      3.08s CPU      3.51s WALL (       2 calls)
     electrons    :    643.43s CPU    657.78s WALL (      16 calls)
     update_pot   :      0.71s CPU      0.78s WALL (      14 calls)
     forces       :      1.34s CPU      1.48s WALL (      16 calls)
     stress       :      4.34s CPU      4.48s WALL (      16 calls)

     Called by init_run:
     wfcinit      :      2.37s CPU      2.46s WALL (       2 calls)
     potinit      :      0.09s CPU      0.21s WALL (       2 calls)
     hinit0       :      0.58s CPU      0.71s WALL (       2 calls)

     Called by electrons:
     c_bands      :    544.31s CPU    555.87s WALL (     157 calls)
     sum_band     :     91.86s CPU     93.21s WALL (     157 calls)
     v_of_rho     :      7.41s CPU      7.86s WALL (     172 calls)
     mix_rho      :      0.29s CPU      0.52s WALL (     157 calls)

     Called by c_bands:
     init_us_2    :      1.17s CPU      1.43s WALL (   18792 calls)
     cegterg      :    541.05s CPU    548.90s WALL (    8478 calls)

     Called by *egterg:
     cdiaghg      :      9.34s CPU      9.85s WALL (   39385 calls)
     h_psi        :    528.82s CPU    535.77s WALL (   40303 calls)
     g_psi        :      0.14s CPU      0.15s WALL (   31717 calls)

     Called by h_psi:
     h_psi:calbec :      4.40s CPU      4.66s WALL (   40303 calls)
     vloc_psi     :    522.46s CPU    528.95s WALL (   40303 calls)
     add_vuspsi   :      1.69s CPU      1.77s WALL (   40303 calls)

     General routines
     calbec       :      4.85s CPU      5.12s WALL (   44623 calls)
     fft          :      2.51s CPU      3.01s WALL (    2119 calls)
     ffts         :      0.16s CPU      0.24s WALL (     157 calls)
     fftw         :    553.43s CPU    559.69s WALL (  794564 calls)

     Parallel routines

     PWSCF        :    653.35s CPU    669.73s WALL


   This run was terminated on:  21:20:27   3Mar2025            

=------------------------------------------------------------------------------=
   JOB DONE.
=------------------------------------------------------------------------------=
