
     Program PWSCF v.7.2 starts on 27Dec2024 at 12:51:30 

     This program is part of the open-source Quantum ESPRESSO suite
     for quantum simulation of materials; please cite
         "P. Giannozzi et al., J. Phys.:Condens. Matter 21 395502 (2009);
         "P. Giannozzi et al., J. Phys.:Condens. Matter 29 465901 (2017);
         "P. Giannozzi et al., J. Chem. Phys. 152 154105 (2020);
          URL http://www.quantum-espresso.org", 
     in publications or presentations arising from this work. More details at
     http://www.quantum-espresso.org/quote

     Parallel version (MPI & OpenMP), running on       8 processor cores
     Number of MPI processes:                 8
     Threads/MPI process:                     1

     MPI processes distributed on     1 nodes
     482397 MiB available memory on the printing compute node when the environment starts

     Waiting for input...
     Reading input from standard input

     Current dimensions of program PWSCF are:
     Max number of different atomic species (ntypx) = 10
     Max number of k-points (npk) =  40000
     Max angular momentum in pseudopotentials (lmaxx) =  4

     R & G space division:  proc/nbgrp/npool/nimage =       8
     Subspace diagonalization in iterative solution of the eigenvalue problem:
     a serial algorithm will be used


     Parallelization info
     --------------------
     sticks:   dense  smooth     PW     G-vecs:    dense   smooth      PW
     Min         122     122     42                 2323     2323     472
     Max         123     123     43                 2326     2326     473
     Sum         979     979    339                18593    18593    3781

     Using Slab Decomposition



     bravais-lattice index     =            7
     lattice parameter (alat)  =       5.4478  a.u.
     unit-cell volume          =     192.4646 (a.u.)^3
     number of atoms/cell      =            3
     number of atomic types    =            2
     number of electrons       =        10.00
     number of Kohn-Sham states=            9
     kinetic-energy cutoff     =      80.0000  Ry
     charge density cutoff     =     320.0000  Ry
     scf convergence threshold =      1.0E-08
     mixing beta               =       0.7000
     number of iterations used =            8  plain     mixing
     energy convergence thresh.=      1.0E-04
     force convergence thresh. =      1.0E-03
     press convergence thresh. =      1.0E+00
     Exchange-correlation= PBE
                           (   1   4   3   4   0   0   0)
     nstep                     =           50


     celldm(1)=   5.447826  celldm(2)=   0.000000  celldm(3)=   2.380736
     celldm(4)=   0.000000  celldm(5)=   0.000000  celldm(6)=   0.000000

     crystal axes: (cart. coord. in units of alat)
               a(1) = (   0.500000  -0.500000   1.190368 )  
               a(2) = (   0.500000   0.500000   1.190368 )  
               a(3) = (  -0.500000  -0.500000   1.190368 )  

     reciprocal axes: (cart. coord. in units 2 pi/alat)
               b(1) = (  1.000000 -1.000000  0.000000 )  
               b(2) = (  0.000000  1.000000  0.420038 )  
               b(3) = ( -1.000000  0.000000  0.420038 )  


     PseudoPot. # 1 for Li read from file:
     ../pseudo/Li_ONCV_PBE_sr.upf
     MD5 check sum: 50ff420e78310ffa21704f3361e624a4
     Pseudo is Norm-conserving, Zval =  3.0
     Generated using ONCVPSP code by D. R. Hamann
     Using radial grid of 1944 points,  4 beta functions with: 
                l(1) =   0
                l(2) =   0
                l(3) =   1
                l(4) =   1

     PseudoPot. # 2 for Si read from file:
     ../pseudo/Si_ONCV_PBE_sr.upf
     MD5 check sum: e543d271109d17c80368dfa7c482276d
     Pseudo is Norm-conserving + core correction, Zval =  4.0
     Generated using ONCVPSP code by D. R. Hamann
     Using radial grid of 1510 points,  6 beta functions with: 
                l(1) =   0
                l(2) =   0
                l(3) =   1
                l(4) =   1
                l(5) =   2
                l(6) =   2

     atomic species   valence    mass     pseudopotential
        Li             3.00     6.94100     Li( 1.00)
        Si             4.00    28.08550     Si( 1.00)

     16 Sym. Ops., with inversion, found



   Cartesian axes

     site n.     atom                  positions (alat units)
         1           Li  tau(   1) = (   0.0000000   0.0000000   0.7917227  )
         2           Li  tau(   2) = (   0.0000000   0.0000000   1.5890134  )
         3           Si  tau(   3) = (   0.0000000   0.0000000   0.0000000  )

     number of k points=   147  Marzari-Vanderbilt smearing, width (Ry)=  0.0200

     Number of k-points >= 100: set verbosity='high' to print them.

     Dense  grid:    18593 G-vectors     FFT dimensions: (  45,  45,  45)

     Estimated max dynamical RAM per process >      19.58 MB

     Estimated total dynamical RAM >     156.67 MB

     Initial potential from superposition of free atoms

     starting charge       9.9903, renormalised to      10.0000
     Starting wfcs are    8 randomized atomic wfcs +    1 random wfcs

     total cpu time spent up to now is        1.1 secs

     Self-consistent Calculation

     iteration #  1     ecut=    80.00 Ry     beta= 0.70
     Davidson diagonalization with overlap
     ethr =  1.00E-02,  avg # of iterations =  6.1

     Threshold (ethr) on eigenvalues was too large:
     Diagonalizing with lowered threshold

     Davidson diagonalization with overlap
     ethr =  1.18E-04,  avg # of iterations =  3.6

     total cpu time spent up to now is        5.6 secs

     total energy              =     -37.20938650 Ry
     estimated scf accuracy    <       0.01174340 Ry

     iteration #  2     ecut=    80.00 Ry     beta= 0.70
     Davidson diagonalization with overlap
     ethr =  1.17E-04,  avg # of iterations =  1.1

     total cpu time spent up to now is        7.4 secs

     total energy              =     -37.21002662 Ry
     estimated scf accuracy    <       0.00074997 Ry

     iteration #  3     ecut=    80.00 Ry     beta= 0.70
     Davidson diagonalization with overlap
     ethr =  7.50E-06,  avg # of iterations =  2.9

     total cpu time spent up to now is        9.4 secs

     total energy              =     -37.21007860 Ry
     estimated scf accuracy    <       0.00003917 Ry

     iteration #  4     ecut=    80.00 Ry     beta= 0.70
     Davidson diagonalization with overlap
     ethr =  3.92E-07,  avg # of iterations =  2.4

     total cpu time spent up to now is       11.2 secs

     total energy              =     -37.21008396 Ry
     estimated scf accuracy    <       0.00000043 Ry

     iteration #  5     ecut=    80.00 Ry     beta= 0.70
     Davidson diagonalization with overlap
     ethr =  4.32E-09,  avg # of iterations =  3.1

     total cpu time spent up to now is       13.3 secs

     total energy              =     -37.21008415 Ry
     estimated scf accuracy    <       0.00000001 Ry

     iteration #  6     ecut=    80.00 Ry     beta= 0.70
     Davidson diagonalization with overlap
     ethr =  1.05E-10,  avg # of iterations =  2.4

     total cpu time spent up to now is       15.1 secs

     End of self-consistent calculation

     Number of k-points >= 100: set verbosity='high' to print the bands.

     the Fermi energy is     7.9849 ev

!    total energy              =     -37.21008415 Ry
     estimated scf accuracy    <          1.1E-09 Ry
     smearing contrib. (-TS)   =       0.00062260 Ry
     internal energy E=F+TS    =     -37.21070675 Ry

     The total energy is F=E-TS. E is the sum of the following terms:
     one-electron contribution =      -8.63511971 Ry
     hartree contribution      =       5.88788758 Ry
     xc contribution           =     -10.22127573 Ry
     ewald contribution        =     -24.24219890 Ry

     convergence has been achieved in   6 iterations

     Forces acting on atoms (cartesian axes, Ry/au):

     atom    1 type  1   force =     0.00000000    0.00000000   -0.00465544
     atom    2 type  1   force =     0.00000000    0.00000000    0.00465544
     atom    3 type  2   force =     0.00000000    0.00000000   -0.00000000
     The non-local contrib.  to forces
     atom    1 type  1   force =     0.00000000    0.00000000    0.02790171
     atom    2 type  1   force =     0.00000000    0.00000000   -0.02790171
     atom    3 type  2   force =     0.00000000    0.00000000    0.00000000
     The ionic contribution  to forces
     atom    1 type  1   force =    -0.00000000   -0.00000000   -0.09460758
     atom    2 type  1   force =     0.00000000    0.00000000    0.09460758
     atom    3 type  2   force =    -0.00000000   -0.00000000    0.00000000
     The local contribution  to forces
     atom    1 type  1   force =    -0.00000000    0.00000000    0.06204731
     atom    2 type  1   force =     0.00000000   -0.00000000   -0.06204731
     atom    3 type  2   force =     0.00000000   -0.00000000   -0.00000000
     The core correction contribution to forces
     atom    1 type  1   force =     0.00000000    0.00000000    0.00000000
     atom    2 type  1   force =     0.00000000    0.00000000    0.00000000
     atom    3 type  2   force =     0.00000000    0.00000000    0.00000000
     The Hubbard contrib.    to forces
     atom    1 type  1   force =     0.00000000    0.00000000    0.00000000
     atom    2 type  1   force =     0.00000000    0.00000000    0.00000000
     atom    3 type  2   force =     0.00000000    0.00000000    0.00000000
     The SCF correction term to forces
     atom    1 type  1   force =     0.00000000    0.00000000    0.00000311
     atom    2 type  1   force =    -0.00000000    0.00000000   -0.00000311
     atom    3 type  2   force =    -0.00000000    0.00000000   -0.00000000

     Total force =     0.006584     Total SCF correction =     0.000004


     Computing stress (Cartesian axis) and pressure

          total   stress  (Ry/bohr**3)                   (kbar)     P=      384.05
   0.00186749   0.00000000  -0.00000000          274.72        0.00       -0.00
  -0.00000000   0.00186749   0.00000000           -0.00      274.72        0.00
   0.00000000  -0.00000000   0.00409723            0.00       -0.00      602.72


     BFGS Geometry Optimization
     Energy error            =      0.0E+00 Ry
     Gradient error          =      4.7E-03 Ry/Bohr
     Cell gradient error     =      2.3E+02 kbar

     number of scf cycles    =   1
     number of bfgs steps    =   0

     enthalpy           new  =     -36.5559101573 Ry

     new trust radius        =       0.1062295683 bohr
ibrav =      7
 celldm(1) =      5.23925051
 celldm(3) =      2.51872979
Input lattice vectors:
     0.48085700    -0.48085700     1.21114885
     0.48085700     0.48085700     1.21114885
    -0.48085700    -0.48085700     1.21114885
New lattice vectors in INITIAL alat:
     0.48085700    -0.48085700     1.21114885
     0.48085700     0.48085700     1.21114885
    -0.48085700    -0.48085700     1.21114885
New lattice vectors in NEW alat (for information only):
     0.50000000    -0.50000000     1.25936489
     0.50000000     0.50000000     1.25936489
    -0.50000000    -0.50000000     1.25936489
Discrepancy in bohr =     0.000000    0.000000    0.000000
     new conv_thr            =       0.0000000100 Ry

     new unit-cell volume =    181.11694 a.u.^3 (    26.83876 Ang^3 )
     density =      2.59657 g/cm^3

CELL_PARAMETERS (alat=  5.44782596)
   0.480857002  -0.480857002   1.211148853
   0.480857002   0.480857002   1.211148853
  -0.480857002  -0.480857002   1.211148853

ATOMIC_POSITIONS (crystal)
Li           -0.0000000000        0.3321948065        0.3321948065
Li           -0.0000000000        0.6678051935        0.6678051935
Si            0.0000000000       -0.0000000000       -0.0000000000



     Writing config-only to output data dir ./output/LiSi.save/
     NEW-OLD atomic charge density approx. for the potential
     extrapolated charge    9.37407, renormalised to   10.00000

     total cpu time spent up to now is       16.4 secs

     Self-consistent Calculation

     iteration #  1     ecut=    80.00 Ry     beta= 0.70
     Davidson diagonalization with overlap
     c_bands:  1 eigenvalues not converged
     ethr =  1.00E-06,  avg # of iterations =  8.1

     total cpu time spent up to now is       20.4 secs

     total energy              =     -37.18561320 Ry
     estimated scf accuracy    <       0.00152240 Ry

     iteration #  2     ecut=    80.00 Ry     beta= 0.70
     Davidson diagonalization with overlap
     ethr =  1.52E-05,  avg # of iterations =  2.6

     total cpu time spent up to now is       23.1 secs

     total energy              =     -37.19072287 Ry
     estimated scf accuracy    <       0.00124660 Ry

     iteration #  3     ecut=    80.00 Ry     beta= 0.70
     Davidson diagonalization with overlap
     ethr =  1.25E-05,  avg # of iterations =  1.0

     total cpu time spent up to now is       25.0 secs

     total energy              =     -37.19064385 Ry
     estimated scf accuracy    <       0.00028780 Ry

     iteration #  4     ecut=    80.00 Ry     beta= 0.70
     Davidson diagonalization with overlap
     ethr =  2.88E-06,  avg # of iterations =  1.1

     total cpu time spent up to now is       26.8 secs

     total energy              =     -37.19061704 Ry
     estimated scf accuracy    <       0.00006021 Ry

     iteration #  5     ecut=    80.00 Ry     beta= 0.70
     Davidson diagonalization with overlap
     ethr =  6.02E-07,  avg # of iterations =  2.0

     total cpu time spent up to now is       28.5 secs

     total energy              =     -37.19062552 Ry
     estimated scf accuracy    <       0.00000015 Ry

     iteration #  6     ecut=    80.00 Ry     beta= 0.70
     Davidson diagonalization with overlap
     ethr =  1.53E-09,  avg # of iterations =  3.4

     total cpu time spent up to now is       30.4 secs

     total energy              =     -37.19062569 Ry
     estimated scf accuracy    <       0.00000004 Ry

     iteration #  7     ecut=    80.00 Ry     beta= 0.70
     Davidson diagonalization with overlap
     ethr =  3.73E-10,  avg # of iterations =  2.0

     total cpu time spent up to now is       32.1 secs

     End of self-consistent calculation

     Number of k-points >= 100: set verbosity='high' to print the bands.

     the Fermi energy is     8.8345 ev

!    total energy              =     -37.19062569 Ry
     estimated scf accuracy    <          4.8E-10 Ry
     smearing contrib. (-TS)   =       0.00020481 Ry
     internal energy E=F+TS    =     -37.19083050 Ry

     The total energy is F=E-TS. E is the sum of the following terms:
     one-electron contribution =      -7.91121171 Ry
     hartree contribution      =       5.77694736 Ry
     xc contribution           =     -10.28935571 Ry
     ewald contribution        =     -24.76721043 Ry

     convergence has been achieved in   7 iterations

     Forces acting on atoms (cartesian axes, Ry/au):

     atom    1 type  1   force =     0.00000000    0.00000000   -0.01690736
     atom    2 type  1   force =    -0.00000000   -0.00000000    0.01690736
     atom    3 type  2   force =     0.00000000   -0.00000000   -0.00000000
     The non-local contrib.  to forces
     atom    1 type  1   force =    -0.00000000   -0.00000000    0.01578866
     atom    2 type  1   force =     0.00000000   -0.00000000   -0.01578866
     atom    3 type  2   force =    -0.00000000    0.00000000    0.00000000
     The ionic contribution  to forces
     atom    1 type  1   force =    -0.00000000   -0.00000000   -0.13565831
     atom    2 type  1   force =     0.00000000    0.00000000    0.13565831
     atom    3 type  2   force =     0.00000000    0.00000000    0.00000000
     The local contribution  to forces
     atom    1 type  1   force =    -0.00000000   -0.00000000    0.10296626
     atom    2 type  1   force =     0.00000000   -0.00000000   -0.10296626
     atom    3 type  2   force =    -0.00000000    0.00000000    0.00000000
     The core correction contribution to forces
     atom    1 type  1   force =     0.00000000    0.00000000    0.00000000
     atom    2 type  1   force =     0.00000000    0.00000000    0.00000000
     atom    3 type  2   force =     0.00000000   -0.00000000    0.00000000
     The Hubbard contrib.    to forces
     atom    1 type  1   force =     0.00000000    0.00000000    0.00000000
     atom    2 type  1   force =     0.00000000    0.00000000    0.00000000
     atom    3 type  2   force =     0.00000000    0.00000000    0.00000000
     The SCF correction term to forces
     atom    1 type  1   force =    -0.00000000   -0.00000000   -0.00000396
     atom    2 type  1   force =     0.00000000    0.00000000    0.00000396
     atom    3 type  2   force =     0.00000000   -0.00000000    0.00000000

     Total force =     0.023911     Total SCF correction =     0.000006


     Computing stress (Cartesian axis) and pressure

          total   stress  (Ry/bohr**3)                   (kbar)     P=      474.64
   0.00270422  -0.00000000  -0.00000000          397.80       -0.00       -0.00
  -0.00000000   0.00270422   0.00000000           -0.00      397.80        0.00
   0.00000000   0.00000000   0.00427119            0.00        0.00      628.31

     Energy error            =      1.9E-02 Ry
     Gradient error          =      1.7E-02 Ry/Bohr
     Cell gradient error     =      1.3E+02 kbar

     number of scf cycles    =   2
     number of bfgs steps    =   1

     enthalpy           old  =     -36.5559101573 Ry
     enthalpy           new  =     -36.5750217174 Ry

     CASE: enthalpy          _new < enthalpy          _old

     new trust radius        =       0.1178680862 bohr
ibrav =      7
 celldm(1) =      5.00981752
 celldm(3) =      2.74591408
Input lattice vectors:
     0.45979970    -0.45979970     1.26257048
     0.45979970     0.45979970     1.26257048
    -0.45979970    -0.45979970     1.26257048
New lattice vectors in INITIAL alat:
     0.45979970    -0.45979970     1.26257048
     0.45979970     0.45979970     1.26257048
    -0.45979970    -0.45979970     1.26257048
New lattice vectors in NEW alat (for information only):
     0.50000000    -0.50000000     1.37295704
     0.50000000     0.50000000     1.37295704
    -0.50000000    -0.50000000     1.37295704
Discrepancy in bohr =     0.000000    0.000000    0.000000
     new conv_thr            =       0.0000000017 Ry

     new unit-cell volume =    172.63254 a.u.^3 (    25.58150 Ang^3 )
     density =      2.72418 g/cm^3

CELL_PARAMETERS (alat=  5.44782596)
   0.459799704  -0.459799704   1.262570482
   0.459799704   0.459799704   1.262570482
  -0.459799704  -0.459799704   1.262570482

ATOMIC_POSITIONS (crystal)
Li            0.0000000000        0.3295452550        0.3295452550
Li            0.0000000000        0.6704547450        0.6704547450
Si            0.0000000000       -0.0000000000       -0.0000000000



     Writing config-only to output data dir ./output/LiSi.save/
     NEW-OLD atomic charge density approx. for the potential
     extrapolated charge    9.50901, renormalised to   10.00000

     total cpu time spent up to now is       33.4 secs

     Self-consistent Calculation

     iteration #  1     ecut=    80.00 Ry     beta= 0.70
     Davidson diagonalization with overlap
     c_bands:  1 eigenvalues not converged
     c_bands:  1 eigenvalues not converged
     ethr =  1.00E-06,  avg # of iterations =  9.2

     total cpu time spent up to now is       36.8 secs

     total energy              =     -37.17100933 Ry
     estimated scf accuracy    <       0.00151466 Ry

     iteration #  2     ecut=    80.00 Ry     beta= 0.70
     Davidson diagonalization with overlap
     ethr =  1.51E-05,  avg # of iterations =  2.2

     total cpu time spent up to now is       38.3 secs

     total energy              =     -37.17453710 Ry
     estimated scf accuracy    <       0.00135312 Ry

     iteration #  3     ecut=    80.00 Ry     beta= 0.70
     Davidson diagonalization with overlap
     ethr =  1.35E-05,  avg # of iterations =  1.0

     total cpu time spent up to now is       39.5 secs

     total energy              =     -37.17455959 Ry
     estimated scf accuracy    <       0.00021356 Ry

     iteration #  4     ecut=    80.00 Ry     beta= 0.70
     Davidson diagonalization with overlap
     ethr =  2.14E-06,  avg # of iterations =  1.1

     total cpu time spent up to now is       40.7 secs

     total energy              =     -37.17451647 Ry
     estimated scf accuracy    <       0.00007389 Ry

     iteration #  5     ecut=    80.00 Ry     beta= 0.70
     Davidson diagonalization with overlap
     ethr =  7.39E-07,  avg # of iterations =  2.0

     total cpu time spent up to now is       41.9 secs

     total energy              =     -37.17453004 Ry
     estimated scf accuracy    <       0.00000059 Ry

     iteration #  6     ecut=    80.00 Ry     beta= 0.70
     Davidson diagonalization with overlap
     ethr =  5.89E-09,  avg # of iterations =  2.5

     total cpu time spent up to now is       43.2 secs

     total energy              =     -37.17453017 Ry
     estimated scf accuracy    <       0.00000010 Ry

     iteration #  7     ecut=    80.00 Ry     beta= 0.70
     Davidson diagonalization with overlap
     ethr =  9.79E-10,  avg # of iterations =  2.0

     total cpu time spent up to now is       44.4 secs

     total energy              =     -37.17453019 Ry
     estimated scf accuracy    <          5.8E-09 Ry

     iteration #  8     ecut=    80.00 Ry     beta= 0.70
     Davidson diagonalization with overlap
     ethr =  5.79E-11,  avg # of iterations =  2.0

     total cpu time spent up to now is       45.6 secs

     End of self-consistent calculation

     Number of k-points >= 100: set verbosity='high' to print the bands.

     the Fermi energy is     9.7043 ev

!    total energy              =     -37.17453019 Ry
     estimated scf accuracy    <          7.1E-12 Ry
     smearing contrib. (-TS)   =      -0.00009821 Ry
     internal energy E=F+TS    =     -37.17443198 Ry

     The total energy is F=E-TS. E is the sum of the following terms:
     one-electron contribution =      -7.32114290 Ry
     hartree contribution      =       5.68612799 Ry
     xc contribution           =     -10.34371922 Ry
     ewald contribution        =     -25.19569784 Ry

     convergence has been achieved in   8 iterations

     Forces acting on atoms (cartesian axes, Ry/au):

     atom    1 type  1   force =     0.00000000   -0.00000000   -0.01941521
     atom    2 type  1   force =    -0.00000000    0.00000000    0.01941521
     atom    3 type  2   force =     0.00000000   -0.00000000   -0.00000000
     The non-local contrib.  to forces
     atom    1 type  1   force =     0.00000000    0.00000000    0.00508263
     atom    2 type  1   force =     0.00000000   -0.00000000   -0.00508263
     atom    3 type  2   force =    -0.00000000   -0.00000000   -0.00000000
     The ionic contribution  to forces
     atom    1 type  1   force =     0.00000000    0.00000000   -0.13281606
     atom    2 type  1   force =     0.00000000    0.00000000    0.13281606
     atom    3 type  2   force =     0.00000000    0.00000000    0.00000000
     The local contribution  to forces
     atom    1 type  1   force =    -0.00000000   -0.00000000    0.10831661
     atom    2 type  1   force =    -0.00000000   -0.00000000   -0.10831661
     atom    3 type  2   force =     0.00000000   -0.00000000    0.00000000
     The core correction contribution to forces
     atom    1 type  1   force =     0.00000000    0.00000000    0.00000000
     atom    2 type  1   force =     0.00000000    0.00000000    0.00000000
     atom    3 type  2   force =     0.00000000   -0.00000000   -0.00000000
     The Hubbard contrib.    to forces
     atom    1 type  1   force =     0.00000000    0.00000000    0.00000000
     atom    2 type  1   force =     0.00000000    0.00000000    0.00000000
     atom    3 type  2   force =     0.00000000    0.00000000    0.00000000
     The SCF correction term to forces
     atom    1 type  1   force =    -0.00000000   -0.00000000    0.00000160
     atom    2 type  1   force =     0.00000000    0.00000000   -0.00000160
     atom    3 type  2   force =    -0.00000000    0.00000000    0.00000000

     Total force =     0.027457     Total SCF correction =     0.000002


     Computing stress (Cartesian axis) and pressure

          total   stress  (Ry/bohr**3)                   (kbar)     P=      536.43
   0.00335864  -0.00000000  -0.00000000          494.07       -0.00       -0.00
   0.00000000   0.00335864   0.00000000            0.00      494.07        0.00
  -0.00000000   0.00000000   0.00422246           -0.00        0.00      621.15

     Energy error            =      1.3E-02 Ry
     Gradient error          =      1.9E-02 Ry/Bohr
     Cell gradient error     =      1.2E+02 kbar

     number of scf cycles    =   3
     number of bfgs steps    =   2

     enthalpy           old  =     -36.5750217174 Ry
     enthalpy           new  =     -36.5877640974 Ry

     CASE: enthalpy          _new < enthalpy          _old

     new trust radius        =       0.1267602581 bohr
ibrav =      7
 celldm(1) =      4.85310437
 celldm(3) =      2.97131869
Input lattice vectors:
     0.44541661    -0.44541661     1.32347471
     0.44541661     0.44541661     1.32347471
    -0.44541661    -0.44541661     1.32347471
New lattice vectors in INITIAL alat:
     0.44541661    -0.44541661     1.32347471
     0.44541661     0.44541661     1.32347471
    -0.44541661    -0.44541661     1.32347471
New lattice vectors in NEW alat (for information only):
     0.50000000    -0.50000000     1.48565935
     0.50000000     0.50000000     1.48565935
    -0.50000000    -0.50000000     1.48565935
Discrepancy in bohr =     0.000000    0.000000    0.000000
     new conv_thr            =       0.0000000019 Ry

     new unit-cell volume =    169.81581 a.u.^3 (    25.16411 Ang^3 )
     density =      2.76937 g/cm^3

CELL_PARAMETERS (alat=  5.44782596)
   0.445416613  -0.445416613   1.323474707
   0.445416613   0.445416613   1.323474707
  -0.445416613  -0.445416613   1.323474707

ATOMIC_POSITIONS (crystal)
Li            0.0000000000        0.3257266623        0.3257266623
Li            0.0000000000        0.6742733377        0.6742733377
Si            0.0000000000       -0.0000000000       -0.0000000000



     Writing config-only to output data dir ./output/LiSi.save/
     NEW-OLD atomic charge density approx. for the potential
     extrapolated charge    9.83429, renormalised to   10.00000

     total cpu time spent up to now is       46.7 secs

     Self-consistent Calculation

     iteration #  1     ecut=    80.00 Ry     beta= 0.70
     Davidson diagonalization with overlap
     c_bands:  1 eigenvalues not converged
     c_bands:  1 eigenvalues not converged
     ethr =  1.00E-06,  avg # of iterations =  9.3

     total cpu time spent up to now is       49.5 secs

     total energy              =     -37.16889302 Ry
     estimated scf accuracy    <       0.00033742 Ry

     iteration #  2     ecut=    80.00 Ry     beta= 0.70
     Davidson diagonalization with overlap
     ethr =  3.37E-06,  avg # of iterations =  2.2

     total cpu time spent up to now is       50.9 secs

     total energy              =     -37.16937820 Ry
     estimated scf accuracy    <       0.00034769 Ry

     iteration #  3     ecut=    80.00 Ry     beta= 0.70
     Davidson diagonalization with overlap
     ethr =  3.37E-06,  avg # of iterations =  1.2

     total cpu time spent up to now is       51.9 secs

     total energy              =     -37.16939874 Ry
     estimated scf accuracy    <       0.00003552 Ry

     iteration #  4     ecut=    80.00 Ry     beta= 0.70
     Davidson diagonalization with overlap
     ethr =  3.55E-07,  avg # of iterations =  1.1

     total cpu time spent up to now is       52.9 secs

     total energy              =     -37.16939544 Ry
     estimated scf accuracy    <       0.00000857 Ry

     iteration #  5     ecut=    80.00 Ry     beta= 0.70
     Davidson diagonalization with overlap
     ethr =  8.57E-08,  avg # of iterations =  1.9

     total cpu time spent up to now is       54.0 secs

     total energy              =     -37.16939701 Ry
     estimated scf accuracy    <       0.00000002 Ry

     iteration #  6     ecut=    80.00 Ry     beta= 0.70
     Davidson diagonalization with overlap
     ethr =  1.76E-10,  avg # of iterations =  3.8

     total cpu time spent up to now is       55.4 secs

     total energy              =     -37.16939703 Ry
     estimated scf accuracy    <          9.6E-09 Ry

     iteration #  7     ecut=    80.00 Ry     beta= 0.70
     Davidson diagonalization with overlap
     ethr =  9.62E-11,  avg # of iterations =  2.0

     total cpu time spent up to now is       56.4 secs

     End of self-consistent calculation

     Number of k-points >= 100: set verbosity='high' to print the bands.

     the Fermi energy is    10.1851 ev

!    total energy              =     -37.16939703 Ry
     estimated scf accuracy    <          2.5E-10 Ry
     smearing contrib. (-TS)   =       0.00002969 Ry
     internal energy E=F+TS    =     -37.16942672 Ry

     The total energy is F=E-TS. E is the sum of the following terms:
     one-electron contribution =      -7.10125939 Ry
     hartree contribution      =       5.64573756 Ry
     xc contribution           =     -10.36408039 Ry
     ewald contribution        =     -25.34982450 Ry

     convergence has been achieved in   7 iterations

     Forces acting on atoms (cartesian axes, Ry/au):

     atom    1 type  1   force =    -0.00000000    0.00000000   -0.00864349
     atom    2 type  1   force =    -0.00000000   -0.00000000    0.00864349
     atom    3 type  2   force =     0.00000000   -0.00000000   -0.00000000
     The non-local contrib.  to forces
     atom    1 type  1   force =    -0.00000000   -0.00000000   -0.00769068
     atom    2 type  1   force =     0.00000000    0.00000000    0.00769068
     atom    3 type  2   force =    -0.00000000    0.00000000    0.00000000
     The ionic contribution  to forces
     atom    1 type  1   force =    -0.00000000   -0.00000000   -0.06619211
     atom    2 type  1   force =    -0.00000000    0.00000000    0.06619211
     atom    3 type  2   force =     0.00000000    0.00000000    0.00000000
     The local contribution  to forces
     atom    1 type  1   force =    -0.00000000   -0.00000000    0.06525057
     atom    2 type  1   force =    -0.00000000    0.00000000   -0.06525057
     atom    3 type  2   force =    -0.00000000    0.00000000    0.00000000
     The core correction contribution to forces
     atom    1 type  1   force =     0.00000000    0.00000000    0.00000000
     atom    2 type  1   force =     0.00000000    0.00000000    0.00000000
     atom    3 type  2   force =     0.00000000    0.00000000    0.00000000
     The Hubbard contrib.    to forces
     atom    1 type  1   force =     0.00000000    0.00000000    0.00000000
     atom    2 type  1   force =     0.00000000    0.00000000    0.00000000
     atom    3 type  2   force =     0.00000000    0.00000000    0.00000000
     The SCF correction term to forces
     atom    1 type  1   force =     0.00000000   -0.00000000   -0.00001128
     atom    2 type  1   force =     0.00000000   -0.00000000    0.00001128
     atom    3 type  2   force =    -0.00000000   -0.00000000    0.00000000

     Total force =     0.012224     Total SCF correction =     0.000016


     Computing stress (Cartesian axis) and pressure

          total   stress  (Ry/bohr**3)                   (kbar)     P=      551.62
   0.00375964   0.00000000   0.00000000          553.06        0.00        0.00
   0.00000000   0.00375964  -0.00000000            0.00      553.06       -0.00
   0.00000000  -0.00000000   0.00373028            0.00       -0.00      548.74

     Energy error            =      4.4E-03 Ry
     Gradient error          =      8.6E-03 Ry/Bohr
     Cell gradient error     =      5.3E+01 kbar

     number of scf cycles    =   4
     number of bfgs steps    =   3

     enthalpy           old  =     -36.5877640974 Ry
     enthalpy           new  =     -36.5922048091 Ry

     CASE: enthalpy          _new < enthalpy          _old

     new trust radius        =       0.0204554658 bohr
ibrav =      7
 celldm(1) =      4.89119428
 celldm(3) =      2.96343123
Input lattice vectors:
     0.44891249    -0.44891249     1.33032131
     0.44891249     0.44891249     1.33032131
    -0.44891249    -0.44891249     1.33032131
New lattice vectors in INITIAL alat:
     0.44891249    -0.44891249     1.33032131
     0.44891249     0.44891249     1.33032131
    -0.44891249    -0.44891249     1.33032131
New lattice vectors in NEW alat (for information only):
     0.50000000    -0.50000000     1.48171562
     0.50000000     0.50000000     1.48171562
    -0.50000000    -0.50000000     1.48171562
Discrepancy in bohr =     0.000000    0.000000    0.000000
     new conv_thr            =       0.0000000009 Ry

     new unit-cell volume =    173.38423 a.u.^3 (    25.69289 Ang^3 )
     density =      2.71237 g/cm^3

CELL_PARAMETERS (alat=  5.44782596)
   0.448912494  -0.448912494   1.330321306
   0.448912494   0.448912494   1.330321306
  -0.448912494  -0.448912494   1.330321306

ATOMIC_POSITIONS (crystal)
Li            0.0000000000        0.3251204080        0.3251204080
Li            0.0000000000        0.6748795920        0.6748795920
Si            0.0000000000       -0.0000000000       -0.0000000000



     Writing config-only to output data dir ./output/LiSi.save/
     NEW-OLD atomic charge density approx. for the potential
     extrapolated charge   10.20561, renormalised to   10.00000

     total cpu time spent up to now is       57.5 secs

     Self-consistent Calculation

     iteration #  1     ecut=    80.00 Ry     beta= 0.70
     Davidson diagonalization with overlap
     ethr =  1.00E-06,  avg # of iterations =  4.6

     total cpu time spent up to now is       59.3 secs

     total energy              =     -37.18177541 Ry
     estimated scf accuracy    <       0.00016784 Ry

     iteration #  2     ecut=    80.00 Ry     beta= 0.70
     Davidson diagonalization with overlap
     ethr =  1.68E-06,  avg # of iterations =  3.0

     total cpu time spent up to now is       60.8 secs

     total energy              =     -37.18235503 Ry
     estimated scf accuracy    <       0.00027209 Ry

     iteration #  3     ecut=    80.00 Ry     beta= 0.70
     Davidson diagonalization with overlap
     ethr =  1.68E-06,  avg # of iterations =  1.3

     total cpu time spent up to now is       61.8 secs

     total energy              =     -37.18235555 Ry
     estimated scf accuracy    <       0.00005192 Ry

     iteration #  4     ecut=    80.00 Ry     beta= 0.70
     Davidson diagonalization with overlap
     ethr =  5.19E-07,  avg # of iterations =  1.0

     total cpu time spent up to now is       62.7 secs

     total energy              =     -37.18234485 Ry
     estimated scf accuracy    <       0.00001845 Ry

     iteration #  5     ecut=    80.00 Ry     beta= 0.70
     Davidson diagonalization with overlap
     ethr =  1.84E-07,  avg # of iterations =  1.9

     total cpu time spent up to now is       63.8 secs

     total energy              =     -37.18234845 Ry
     estimated scf accuracy    <       0.00000018 Ry

     iteration #  6     ecut=    80.00 Ry     beta= 0.70
     Davidson diagonalization with overlap
     ethr =  1.77E-09,  avg # of iterations =  2.5

     total cpu time spent up to now is       65.0 secs

     total energy              =     -37.18234850 Ry
     estimated scf accuracy    <       0.00000001 Ry

     iteration #  7     ecut=    80.00 Ry     beta= 0.70
     Davidson diagonalization with overlap
     ethr =  1.45E-10,  avg # of iterations =  2.1

     total cpu time spent up to now is       66.1 secs

     total energy              =     -37.18234850 Ry
     estimated scf accuracy    <          3.2E-09 Ry

     iteration #  8     ecut=    80.00 Ry     beta= 0.70
     Davidson diagonalization with overlap
     ethr =  3.24E-11,  avg # of iterations =  1.9

     total cpu time spent up to now is       67.2 secs

     End of self-consistent calculation

     Number of k-points >= 100: set verbosity='high' to print the bands.

     the Fermi energy is     9.9313 ev

!    total energy              =     -37.18234851 Ry
     estimated scf accuracy    <          7.1E-11 Ry
     smearing contrib. (-TS)   =      -0.00001126 Ry
     internal energy E=F+TS    =     -37.18233724 Ry

     The total energy is F=E-TS. E is the sum of the following terms:
     one-electron contribution =      -7.34410168 Ry
     hartree contribution      =       5.67610190 Ry
     xc contribution           =     -10.33871247 Ry
     ewald contribution        =     -25.17562500 Ry

     convergence has been achieved in   8 iterations

     Forces acting on atoms (cartesian axes, Ry/au):

     atom    1 type  1   force =     0.00000000   -0.00000000   -0.00447961
     atom    2 type  1   force =     0.00000000    0.00000000    0.00447961
     atom    3 type  2   force =     0.00000000    0.00000000    0.00000000
     The non-local contrib.  to forces
     atom    1 type  1   force =    -0.00000000   -0.00000000   -0.00888263
     atom    2 type  1   force =     0.00000000    0.00000000    0.00888263
     atom    3 type  2   force =     0.00000000    0.00000000    0.00000000
     The ionic contribution  to forces
     atom    1 type  1   force =     0.00000000    0.00000000   -0.04577746
     atom    2 type  1   force =    -0.00000000    0.00000000    0.04577746
     atom    3 type  2   force =     0.00000000    0.00000000    0.00000000
     The local contribution  to forces
     atom    1 type  1   force =    -0.00000000   -0.00000000    0.05018586
     atom    2 type  1   force =    -0.00000000   -0.00000000   -0.05018586
     atom    3 type  2   force =     0.00000000   -0.00000000    0.00000000
     The core correction contribution to forces
     atom    1 type  1   force =     0.00000000    0.00000000    0.00000000
     atom    2 type  1   force =     0.00000000    0.00000000    0.00000000
     atom    3 type  2   force =     0.00000000    0.00000000    0.00000000
     The Hubbard contrib.    to forces
     atom    1 type  1   force =     0.00000000    0.00000000    0.00000000
     atom    2 type  1   force =     0.00000000    0.00000000    0.00000000
     atom    3 type  2   force =     0.00000000    0.00000000    0.00000000
     The SCF correction term to forces
     atom    1 type  1   force =    -0.00000000   -0.00000000   -0.00000538
     atom    2 type  1   force =    -0.00000000    0.00000000    0.00000538
     atom    3 type  2   force =     0.00000000   -0.00000000    0.00000000

     Total force =     0.006335     Total SCF correction =     0.000008


     Computing stress (Cartesian axis) and pressure

          total   stress  (Ry/bohr**3)                   (kbar)     P=      506.69
   0.00345427   0.00000000   0.00000000          508.14        0.00        0.00
  -0.00000000   0.00345427  -0.00000000           -0.00      508.14       -0.00
   0.00000000  -0.00000000   0.00342469            0.00       -0.00      503.79

     Energy error            =      8.2E-04 Ry
     Gradient error          =      4.5E-03 Ry/Bohr
     Cell gradient error     =      8.1E+00 kbar

     number of scf cycles    =   5
     number of bfgs steps    =   4

     enthalpy           old  =     -36.5922048091 Ry
     enthalpy           new  =     -36.5930274791 Ry

     CASE: enthalpy          _new < enthalpy          _old

     new trust radius        =       0.0074111662 bohr
ibrav =      7
 celldm(1) =      4.89714218
 celldm(3) =      2.96342700
Input lattice vectors:
     0.44945839    -0.44945839     1.33193713
     0.44945839     0.44945839     1.33193713
    -0.44945839    -0.44945839     1.33193713
New lattice vectors in INITIAL alat:
     0.44945839    -0.44945839     1.33193713
     0.44945839     0.44945839     1.33193713
    -0.44945839    -0.44945839     1.33193713
New lattice vectors in NEW alat (for information only):
     0.50000000    -0.50000000     1.48171350
     0.50000000     0.50000000     1.48171350
    -0.50000000    -0.50000000     1.48171350
Discrepancy in bohr =     0.000000    0.000000    0.000000
     new conv_thr            =       0.0000000004 Ry

     new unit-cell volume =    174.01728 a.u.^3 (    25.78670 Ang^3 )
     density =      2.70250 g/cm^3

CELL_PARAMETERS (alat=  5.44782596)
   0.449458391  -0.449458391   1.331937133
   0.449458391   0.449458391   1.331937133
  -0.449458391  -0.449458391   1.331937133

ATOMIC_POSITIONS (crystal)
Li            0.0000000000        0.3246091068        0.3246091068
Li            0.0000000000        0.6753908932        0.6753908932
Si            0.0000000000       -0.0000000000       -0.0000000000



     Writing config-only to output data dir ./output/LiSi.save/
     NEW-OLD atomic charge density approx. for the potential
     extrapolated charge   10.03634, renormalised to   10.00000

     total cpu time spent up to now is       68.2 secs

     Self-consistent Calculation

     iteration #  1     ecut=    80.00 Ry     beta= 0.70
     Davidson diagonalization with overlap
     ethr =  1.00E-06,  avg # of iterations =  3.0

     Threshold (ethr) on eigenvalues was too large:
     Diagonalizing with lowered threshold

     Davidson diagonalization with overlap
     ethr =  6.33E-08,  avg # of iterations =  1.1

     total cpu time spent up to now is       70.7 secs

     total energy              =     -37.18454502 Ry
     estimated scf accuracy    <       0.00000642 Ry

     iteration #  2     ecut=    80.00 Ry     beta= 0.70
     Davidson diagonalization with overlap
     ethr =  6.42E-08,  avg # of iterations =  2.1

     total cpu time spent up to now is       71.9 secs

     total energy              =     -37.18456061 Ry
     estimated scf accuracy    <       0.00000407 Ry

     iteration #  3     ecut=    80.00 Ry     beta= 0.70
     Davidson diagonalization with overlap
     ethr =  4.07E-08,  avg # of iterations =  1.0

     total cpu time spent up to now is       72.8 secs

     total energy              =     -37.18456069 Ry
     estimated scf accuracy    <       0.00000064 Ry

     iteration #  4     ecut=    80.00 Ry     beta= 0.70
     Davidson diagonalization with overlap
     ethr =  6.42E-09,  avg # of iterations =  1.1

     total cpu time spent up to now is       73.8 secs

     total energy              =     -37.18456055 Ry
     estimated scf accuracy    <       0.00000025 Ry

     iteration #  5     ecut=    80.00 Ry     beta= 0.70
     Davidson diagonalization with overlap
     ethr =  2.47E-09,  avg # of iterations =  2.0

     total cpu time spent up to now is       74.9 secs

     total energy              =     -37.18456061 Ry
     estimated scf accuracy    <       0.00000001 Ry

     iteration #  6     ecut=    80.00 Ry     beta= 0.70
     Davidson diagonalization with overlap
     ethr =  1.04E-10,  avg # of iterations =  1.7

     total cpu time spent up to now is       76.0 secs

     End of self-consistent calculation

     Number of k-points >= 100: set verbosity='high' to print the bands.

     the Fermi energy is     9.8927 ev

!    total energy              =     -37.18456061 Ry
     estimated scf accuracy    <          1.5E-10 Ry
     smearing contrib. (-TS)   =      -0.00002289 Ry
     internal energy E=F+TS    =     -37.18453772 Ry

     The total energy is F=E-TS. E is the sum of the following terms:
     one-electron contribution =      -7.38653742 Ry
     hartree contribution      =       5.68156197 Ry
     xc contribution           =     -10.33393858 Ry
     ewald contribution        =     -25.14562368 Ry

     convergence has been achieved in   6 iterations

     Forces acting on atoms (cartesian axes, Ry/au):

     atom    1 type  1   force =     0.00000000    0.00000000   -0.00225328
     atom    2 type  1   force =    -0.00000000   -0.00000000    0.00225328
     atom    3 type  2   force =    -0.00000000   -0.00000000    0.00000000
     The non-local contrib.  to forces
     atom    1 type  1   force =    -0.00000000   -0.00000000   -0.00912801
     atom    2 type  1   force =     0.00000000   -0.00000000    0.00912801
     atom    3 type  2   force =     0.00000000    0.00000000    0.00000000
     The ionic contribution  to forces
     atom    1 type  1   force =     0.00000000    0.00000000   -0.03039472
     atom    2 type  1   force =     0.00000000    0.00000000    0.03039472
     atom    3 type  2   force =     0.00000000   -0.00000000    0.00000000
     The local contribution  to forces
     atom    1 type  1   force =    -0.00000000   -0.00000000    0.03727725
     atom    2 type  1   force =    -0.00000000   -0.00000000   -0.03727725
     atom    3 type  2   force =    -0.00000000    0.00000000    0.00000000
     The core correction contribution to forces
     atom    1 type  1   force =     0.00000000    0.00000000    0.00000000
     atom    2 type  1   force =     0.00000000    0.00000000    0.00000000
     atom    3 type  2   force =     0.00000000   -0.00000000   -0.00000000
     The Hubbard contrib.    to forces
     atom    1 type  1   force =     0.00000000    0.00000000    0.00000000
     atom    2 type  1   force =     0.00000000    0.00000000    0.00000000
     atom    3 type  2   force =     0.00000000    0.00000000    0.00000000
     The SCF correction term to forces
     atom    1 type  1   force =     0.00000000    0.00000000   -0.00000781
     atom    2 type  1   force =    -0.00000000    0.00000000    0.00000781
     atom    3 type  2   force =    -0.00000000   -0.00000000    0.00000000

     Total force =     0.003187     Total SCF correction =     0.000011


     Computing stress (Cartesian axis) and pressure

          total   stress  (Ry/bohr**3)                   (kbar)     P=      498.22
   0.00339927   0.00000000   0.00000000          500.05        0.00        0.00
   0.00000000   0.00339927  -0.00000000            0.00      500.05       -0.00
   0.00000000  -0.00000000   0.00336202            0.00       -0.00      494.57

     Energy error            =      6.0E-05 Ry
     Gradient error          =      2.3E-03 Ry/Bohr
     Cell gradient error     =      5.4E+00 kbar

     number of scf cycles    =   6
     number of bfgs steps    =   5

     enthalpy           old  =     -36.5930274791 Ry
     enthalpy           new  =     -36.5930878914 Ry

     CASE: enthalpy          _new < enthalpy          _old

     new trust radius        =       0.0052895035 bohr
ibrav =      7
 celldm(1) =      4.90005520
 celldm(3) =      2.95920153
Input lattice vectors:
     0.44972575    -0.44972575     1.33082912
     0.44972575     0.44972575     1.33082912
    -0.44972575    -0.44972575     1.33082912
New lattice vectors in INITIAL alat:
     0.44972575    -0.44972575     1.33082912
     0.44972575     0.44972575     1.33082912
    -0.44972575    -0.44972575     1.33082912
New lattice vectors in NEW alat (for information only):
     0.50000000    -0.50000000     1.47960076
     0.50000000     0.50000000     1.47960076
    -0.50000000    -0.50000000     1.47960076
Discrepancy in bohr =     0.000000    0.000000    0.000000
     new conv_thr            =            1.0E-10 Ry

     new unit-cell volume =    174.07943 a.u.^3 (    25.79591 Ang^3 )
     density =      2.70154 g/cm^3

CELL_PARAMETERS (alat=  5.44782596)
   0.449725747  -0.449725747   1.330829118
   0.449725747   0.449725747   1.330829118
  -0.449725747  -0.449725747   1.330829118

ATOMIC_POSITIONS (crystal)
Li            0.0000000000        0.3242446233        0.3242446233
Li            0.0000000000        0.6757553767        0.6757553767
Si            0.0000000000       -0.0000000000       -0.0000000000



     Writing config-only to output data dir ./output/LiSi.save/
     NEW-OLD atomic charge density approx. for the potential
     extrapolated charge   10.00357, renormalised to   10.00000

     total cpu time spent up to now is       77.0 secs

     Self-consistent Calculation

     iteration #  1     ecut=    80.00 Ry     beta= 0.70
     Davidson diagonalization with overlap
     ethr =  1.00E-06,  avg # of iterations =  3.1

     Threshold (ethr) on eigenvalues was too large:
     Diagonalizing with lowered threshold

     Davidson diagonalization with overlap
     ethr =  3.34E-08,  avg # of iterations =  1.2

     total cpu time spent up to now is       79.3 secs

     total energy              =     -37.18479176 Ry
     estimated scf accuracy    <       0.00000347 Ry

     iteration #  2     ecut=    80.00 Ry     beta= 0.70
     Davidson diagonalization with overlap
     ethr =  3.47E-08,  avg # of iterations =  2.0

     total cpu time spent up to now is       80.4 secs

     total energy              =     -37.18479271 Ry
     estimated scf accuracy    <       0.00000068 Ry

     iteration #  3     ecut=    80.00 Ry     beta= 0.70
     Davidson diagonalization with overlap
     ethr =  6.79E-09,  avg # of iterations =  1.8

     total cpu time spent up to now is       81.4 secs

     total energy              =     -37.18479286 Ry
     estimated scf accuracy    <          9.3E-09 Ry

     iteration #  4     ecut=    80.00 Ry     beta= 0.70
     Davidson diagonalization with overlap
     ethr =  9.30E-11,  avg # of iterations =  1.8

     total cpu time spent up to now is       82.5 secs

     total energy              =     -37.18479286 Ry
     estimated scf accuracy    <          2.7E-10 Ry

     iteration #  5     ecut=    80.00 Ry     beta= 0.70
     Davidson diagonalization with overlap
     ethr =  2.73E-12,  avg # of iterations =  2.4

     total cpu time spent up to now is       83.6 secs

     End of self-consistent calculation

     Number of k-points >= 100: set verbosity='high' to print the bands.

     the Fermi energy is     9.8886 ev

!    total energy              =     -37.18479286 Ry
     estimated scf accuracy    <          7.2E-12 Ry
     smearing contrib. (-TS)   =      -0.00002623 Ry
     internal energy E=F+TS    =     -37.18476663 Ry

     The total energy is F=E-TS. E is the sum of the following terms:
     one-electron contribution =      -7.39141563 Ry
     hartree contribution      =       5.68259059 Ry
     xc contribution           =     -10.33310477 Ry
     ewald contribution        =     -25.14283682 Ry

     convergence has been achieved in   5 iterations

     Forces acting on atoms (cartesian axes, Ry/au):

     atom    1 type  1   force =     0.00000000    0.00000000   -0.00090979
     atom    2 type  1   force =     0.00000000   -0.00000000    0.00090979
     atom    3 type  2   force =     0.00000000   -0.00000000    0.00000000
     The non-local contrib.  to forces
     atom    1 type  1   force =    -0.00000000    0.00000000   -0.00894853
     atom    2 type  1   force =     0.00000000    0.00000000    0.00894853
     atom    3 type  2   force =     0.00000000    0.00000000    0.00000000
     The ionic contribution  to forces
     atom    1 type  1   force =     0.00000000    0.00000000   -0.01904385
     atom    2 type  1   force =     0.00000000    0.00000000    0.01904385
     atom    3 type  2   force =    -0.00000000    0.00000000    0.00000000
     The local contribution  to forces
     atom    1 type  1   force =    -0.00000000   -0.00000000    0.02708357
     atom    2 type  1   force =    -0.00000000   -0.00000000   -0.02708357
     atom    3 type  2   force =     0.00000000   -0.00000000    0.00000000
     The core correction contribution to forces
     atom    1 type  1   force =     0.00000000    0.00000000    0.00000000
     atom    2 type  1   force =     0.00000000    0.00000000    0.00000000
     atom    3 type  2   force =     0.00000000   -0.00000000   -0.00000000
     The Hubbard contrib.    to forces
     atom    1 type  1   force =     0.00000000    0.00000000    0.00000000
     atom    2 type  1   force =     0.00000000    0.00000000    0.00000000
     atom    3 type  2   force =     0.00000000    0.00000000    0.00000000
     The SCF correction term to forces
     atom    1 type  1   force =     0.00000000   -0.00000000   -0.00000098
     atom    2 type  1   force =    -0.00000000    0.00000000    0.00000098
     atom    3 type  2   force =     0.00000000    0.00000000    0.00000000

     Total force =     0.001287     Total SCF correction =     0.000001


     Computing stress (Cartesian axis) and pressure

          total   stress  (Ry/bohr**3)                   (kbar)     P=      496.97
   0.00338714   0.00000000   0.00000000          498.27        0.00        0.00
   0.00000000   0.00338714  -0.00000000            0.00      498.27       -0.00
  -0.00000000   0.00000000   0.00336070           -0.00        0.00      494.38

     Energy error            =      2.1E-05 Ry
     Gradient error          =      9.1E-04 Ry/Bohr
     Cell gradient error     =      5.6E+00 kbar

     number of scf cycles    =   7
     number of bfgs steps    =   6

     enthalpy           old  =     -36.5930878914 Ry
     enthalpy           new  =     -36.5931088910 Ry

     CASE: enthalpy          _new < enthalpy          _old

     new trust radius        =       0.0045921747 bohr
ibrav =      7
 celldm(1) =      4.90204571
 celldm(3) =      2.95285223
Input lattice vectors:
     0.44990844    -0.44990844     1.32851313
     0.44990844     0.44990844     1.32851313
    -0.44990844    -0.44990844     1.32851313
New lattice vectors in INITIAL alat:
     0.44990844    -0.44990844     1.32851313
     0.44990844     0.44990844     1.32851313
    -0.44990844    -0.44990844     1.32851313
New lattice vectors in NEW alat (for information only):
     0.50000000    -0.50000000     1.47642612
     0.50000000     0.50000000     1.47642612
    -0.50000000    -0.50000000     1.47642612
Discrepancy in bohr =     0.000000    0.000000    0.000000
     new conv_thr            =            1.0E-10 Ry

     new unit-cell volume =    173.91770 a.u.^3 (    25.77194 Ang^3 )
     density =      2.70405 g/cm^3

CELL_PARAMETERS (alat=  5.44782596)
   0.449908435  -0.449908435   1.328513127
   0.449908435   0.449908435   1.328513127
  -0.449908435  -0.449908435   1.328513127

ATOMIC_POSITIONS (crystal)
Li            0.0000000000        0.3239520610        0.3239520610
Li            0.0000000000        0.6760479390        0.6760479390
Si            0.0000000000       -0.0000000000       -0.0000000000



     Writing config-only to output data dir ./output/LiSi.save/
     NEW-OLD atomic charge density approx. for the potential
     extrapolated charge    9.99071, renormalised to   10.00000

     total cpu time spent up to now is       84.9 secs

     Self-consistent Calculation

     iteration #  1     ecut=    80.00 Ry     beta= 0.70
     Davidson diagonalization with overlap
     ethr =  1.00E-06,  avg # of iterations =  3.0

     Threshold (ethr) on eigenvalues was too large:
     Diagonalizing with lowered threshold

     Davidson diagonalization with overlap
     ethr =  4.02E-08,  avg # of iterations =  1.3

     total cpu time spent up to now is       87.2 secs

     total energy              =     -37.18425010 Ry
     estimated scf accuracy    <       0.00000440 Ry

     iteration #  2     ecut=    80.00 Ry     beta= 0.70
     Davidson diagonalization with overlap
     ethr =  4.40E-08,  avg # of iterations =  2.0

     total cpu time spent up to now is       88.4 secs

     total energy              =     -37.18425296 Ry
     estimated scf accuracy    <       0.00000290 Ry

     iteration #  3     ecut=    80.00 Ry     beta= 0.70
     Davidson diagonalization with overlap
     ethr =  2.90E-08,  avg # of iterations =  1.5

     total cpu time spent up to now is       89.4 secs

     total energy              =     -37.18425330 Ry
     estimated scf accuracy    <       0.00000010 Ry

     iteration #  4     ecut=    80.00 Ry     beta= 0.70
     Davidson diagonalization with overlap
     ethr =  1.05E-09,  avg # of iterations =  1.8

     total cpu time spent up to now is       90.5 secs

     total energy              =     -37.18425331 Ry
     estimated scf accuracy    <       0.00000001 Ry

     iteration #  5     ecut=    80.00 Ry     beta= 0.70
     Davidson diagonalization with overlap
     ethr =  1.14E-10,  avg # of iterations =  1.9

     total cpu time spent up to now is       91.5 secs

     total energy              =     -37.18425331 Ry
     estimated scf accuracy    <          3.5E-10 Ry

     iteration #  6     ecut=    80.00 Ry     beta= 0.70
     Davidson diagonalization with overlap
     ethr =  3.47E-12,  avg # of iterations =  3.0

     total cpu time spent up to now is       92.8 secs

     End of self-consistent calculation

     Number of k-points >= 100: set verbosity='high' to print the bands.

     the Fermi energy is     9.8974 ev

!    total energy              =     -37.18425331 Ry
     estimated scf accuracy    <          1.9E-11 Ry
     smearing contrib. (-TS)   =      -0.00002356 Ry
     internal energy E=F+TS    =     -37.18422975 Ry

     The total energy is F=E-TS. E is the sum of the following terms:
     one-electron contribution =      -7.38167797 Ry
     hartree contribution      =       5.68192097 Ry
     xc contribution           =     -10.33382032 Ry
     ewald contribution        =     -25.15065243 Ry

     convergence has been achieved in   6 iterations

     Forces acting on atoms (cartesian axes, Ry/au):

     atom    1 type  1   force =     0.00000000    0.00000000    0.00004609
     atom    2 type  1   force =    -0.00000000   -0.00000000   -0.00004609
     atom    3 type  2   force =     0.00000000   -0.00000000    0.00000000
     The non-local contrib.  to forces
     atom    1 type  1   force =     0.00000000   -0.00000000   -0.00857384
     atom    2 type  1   force =     0.00000000   -0.00000000    0.00857384
     atom    3 type  2   force =     0.00000000    0.00000000    0.00000000
     The ionic contribution  to forces
     atom    1 type  1   force =     0.00000000    0.00000000   -0.00965535
     atom    2 type  1   force =     0.00000000    0.00000000    0.00965535
     atom    3 type  2   force =     0.00000000    0.00000000    0.00000000
     The local contribution  to forces
     atom    1 type  1   force =    -0.00000000   -0.00000000    0.01827243
     atom    2 type  1   force =    -0.00000000   -0.00000000   -0.01827243
     atom    3 type  2   force =     0.00000000    0.00000000   -0.00000000
     The core correction contribution to forces
     atom    1 type  1   force =     0.00000000    0.00000000    0.00000000
     atom    2 type  1   force =     0.00000000    0.00000000    0.00000000
     atom    3 type  2   force =    -0.00000000   -0.00000000    0.00000000
     The Hubbard contrib.    to forces
     atom    1 type  1   force =     0.00000000    0.00000000    0.00000000
     atom    2 type  1   force =     0.00000000    0.00000000    0.00000000
     atom    3 type  2   force =     0.00000000    0.00000000    0.00000000
     The SCF correction term to forces
     atom    1 type  1   force =     0.00000000    0.00000000    0.00000285
     atom    2 type  1   force =    -0.00000000   -0.00000000   -0.00000285
     atom    3 type  2   force =    -0.00000000    0.00000000    0.00000000

     Total force =     0.000065     Total SCF correction =     0.000004


     Computing stress (Cartesian axis) and pressure

          total   stress  (Ry/bohr**3)                   (kbar)     P=      498.57
   0.00339115  -0.00000000  -0.00000000          498.86       -0.00       -0.00
   0.00000000   0.00339115  -0.00000000            0.00      498.86       -0.00
  -0.00000000   0.00000000   0.00338529           -0.00        0.00      497.99

     Energy error            =      1.0E-05 Ry
     Gradient error          =      4.6E-05 Ry/Bohr
     Cell gradient error     =      2.0E+00 kbar

     number of scf cycles    =   8
     number of bfgs steps    =   7

     enthalpy           old  =     -36.5931088910 Ry
     enthalpy           new  =     -36.5931190566 Ry

     CASE: enthalpy          _new < enthalpy          _old

     new trust radius        =       0.0013193841 bohr
ibrav =      7
 celldm(1) =      4.90190509
 celldm(3) =      2.95145979
Input lattice vectors:
     0.44989553    -0.44989553     1.32784857
     0.44989553     0.44989553     1.32784857
    -0.44989553    -0.44989553     1.32784857
New lattice vectors in INITIAL alat:
     0.44989553    -0.44989553     1.32784857
     0.44989553     0.44989553     1.32784857
    -0.44989553    -0.44989553     1.32784857
New lattice vectors in NEW alat (for information only):
     0.50000000    -0.50000000     1.47572989
     0.50000000     0.50000000     1.47572989
    -0.50000000    -0.50000000     1.47572989
Discrepancy in bohr =     0.000000    0.000000    0.000000
     new conv_thr            =            1.0E-10 Ry

     new unit-cell volume =    173.82073 a.u.^3 (    25.75757 Ang^3 )
     density =      2.70556 g/cm^3

CELL_PARAMETERS (alat=  5.44782596)
   0.449895530  -0.449895530   1.327848565
   0.449895530   0.449895530   1.327848565
  -0.449895530  -0.449895530   1.327848565

ATOMIC_POSITIONS (crystal)
Li           -0.0000000000        0.3239350649        0.3239350649
Li           -0.0000000000        0.6760649351        0.6760649351
Si            0.0000000000       -0.0000000000       -0.0000000000



     Writing config-only to output data dir ./output/LiSi.save/
     NEW-OLD atomic charge density approx. for the potential
     extrapolated charge    9.99443, renormalised to   10.00000

     total cpu time spent up to now is       93.8 secs

     Self-consistent Calculation

     iteration #  1     ecut=    80.00 Ry     beta= 0.70
     Davidson diagonalization with overlap
     ethr =  1.00E-06,  avg # of iterations =  2.0

     Threshold (ethr) on eigenvalues was too large:
     Diagonalizing with lowered threshold

     Davidson diagonalization with overlap
     ethr =  1.80E-09,  avg # of iterations =  3.0

     total cpu time spent up to now is       96.0 secs

     total energy              =     -37.18392391 Ry
     estimated scf accuracy    <       0.00000024 Ry

     iteration #  2     ecut=    80.00 Ry     beta= 0.70
     Davidson diagonalization with overlap
     ethr =  2.35E-09,  avg # of iterations =  2.1

     total cpu time spent up to now is       97.2 secs

     total energy              =     -37.18392441 Ry
     estimated scf accuracy    <       0.00000033 Ry

     iteration #  3     ecut=    80.00 Ry     beta= 0.70
     Davidson diagonalization with overlap
     ethr =  2.35E-09,  avg # of iterations =  1.3

     total cpu time spent up to now is       98.2 secs

     total energy              =     -37.18392443 Ry
     estimated scf accuracy    <       0.00000005 Ry

     iteration #  4     ecut=    80.00 Ry     beta= 0.70
     Davidson diagonalization with overlap
     ethr =  4.54E-10,  avg # of iterations =  1.0

     total cpu time spent up to now is       99.1 secs

     total energy              =     -37.18392442 Ry
     estimated scf accuracy    <       0.00000002 Ry

     iteration #  5     ecut=    80.00 Ry     beta= 0.70
     Davidson diagonalization with overlap
     ethr =  1.90E-10,  avg # of iterations =  1.6

     total cpu time spent up to now is      100.1 secs

     total energy              =     -37.18392442 Ry
     estimated scf accuracy    <          7.7E-10 Ry

     iteration #  6     ecut=    80.00 Ry     beta= 0.70
     Davidson diagonalization with overlap
     ethr =  7.71E-12,  avg # of iterations =  2.1

     total cpu time spent up to now is      101.3 secs

     End of self-consistent calculation

     Number of k-points >= 100: set verbosity='high' to print the bands.

     the Fermi energy is     9.9031 ev

!    total energy              =     -37.18392442 Ry
     estimated scf accuracy    <          2.5E-11 Ry
     smearing contrib. (-TS)   =      -0.00002180 Ry
     internal energy E=F+TS    =     -37.18390262 Ry

     The total energy is F=E-TS. E is the sum of the following terms:
     one-electron contribution =      -7.37538369 Ry
     hartree contribution      =       5.68122804 Ry
     xc contribution           =     -10.33443700 Ry
     ewald contribution        =     -25.15530998 Ry

     convergence has been achieved in   6 iterations

     Forces acting on atoms (cartesian axes, Ry/au):

     atom    1 type  1   force =     0.00000000    0.00000000    0.00005444
     atom    2 type  1   force =    -0.00000000   -0.00000000   -0.00005444
     atom    3 type  2   force =     0.00000000    0.00000000    0.00000000
     The non-local contrib.  to forces
     atom    1 type  1   force =     0.00000000   -0.00000000   -0.00846699
     atom    2 type  1   force =    -0.00000000    0.00000000    0.00846699
     atom    3 type  2   force =     0.00000000    0.00000000    0.00000000
     The ionic contribution  to forces
     atom    1 type  1   force =     0.00000000   -0.00000000   -0.00898719
     atom    2 type  1   force =     0.00000000   -0.00000000    0.00898719
     atom    3 type  2   force =     0.00000000   -0.00000000   -0.00000000
     The local contribution  to forces
     atom    1 type  1   force =    -0.00000000   -0.00000000    0.01750613
     atom    2 type  1   force =    -0.00000000   -0.00000000   -0.01750613
     atom    3 type  2   force =    -0.00000000    0.00000000    0.00000000
     The core correction contribution to forces
     atom    1 type  1   force =     0.00000000    0.00000000    0.00000000
     atom    2 type  1   force =     0.00000000    0.00000000    0.00000000
     atom    3 type  2   force =    -0.00000000    0.00000000    0.00000000
     The Hubbard contrib.    to forces
     atom    1 type  1   force =     0.00000000    0.00000000    0.00000000
     atom    2 type  1   force =     0.00000000    0.00000000    0.00000000
     atom    3 type  2   force =     0.00000000    0.00000000    0.00000000
     The SCF correction term to forces
     atom    1 type  1   force =     0.00000000    0.00000000    0.00000249
     atom    2 type  1   force =    -0.00000000    0.00000000   -0.00000249
     atom    3 type  2   force =     0.00000000   -0.00000000   -0.00000000

     Total force =     0.000077     Total SCF correction =     0.000004


     Computing stress (Cartesian axis) and pressure

          total   stress  (Ry/bohr**3)                   (kbar)     P=      499.73
   0.00339724   0.00000000  -0.00000000          499.75        0.00       -0.00
   0.00000000   0.00339724  -0.00000000            0.00      499.75       -0.00
   0.00000000  -0.00000000   0.00339680            0.00       -0.00      499.69

     Energy error            =      7.1E-07 Ry
     Gradient error          =      5.4E-05 Ry/Bohr
     Cell gradient error     =      3.1E-01 kbar
ibrav =      7
 celldm(1) =      4.90190509
 celldm(3) =      2.95145979
Input lattice vectors:
     0.44989553    -0.44989553     1.32784857
     0.44989553     0.44989553     1.32784857
    -0.44989553    -0.44989553     1.32784857
New lattice vectors in INITIAL alat:
     0.44989553    -0.44989553     1.32784857
     0.44989553     0.44989553     1.32784857
    -0.44989553    -0.44989553     1.32784857
New lattice vectors in NEW alat (for information only):
     0.50000000    -0.50000000     1.47572989
     0.50000000     0.50000000     1.47572989
    -0.50000000    -0.50000000     1.47572989
Discrepancy in bohr =     0.000000    0.000000    0.000000

     bfgs converged in   9 scf cycles and   8 bfgs steps
     (criteria: energy <  1.0E-04 Ry, force <  1.0E-03 Ry/Bohr, cell <  1.0E+00 kbar)

     End of BFGS Geometry Optimization

     Final enthalpy           =     -36.5931197644 Ry

     File ./output/LiSi.bfgs deleted, as requested
Begin final coordinates
     new unit-cell volume =    173.82073 a.u.^3 (    25.75757 Ang^3 )
     density =      2.70556 g/cm^3

CELL_PARAMETERS (alat=  5.44782596)
   0.449895530  -0.449895530   1.327848565
   0.449895530   0.449895530   1.327848565
  -0.449895530  -0.449895530   1.327848565

ATOMIC_POSITIONS (crystal)
Li           -0.0000000000        0.3239350649        0.3239350649
Li           -0.0000000000        0.6760649351        0.6760649351
Si            0.0000000000       -0.0000000000       -0.0000000000
End final coordinates



     Writing config-only to output data dir ./output/LiSi.save/

     Final scf calculation at the relaxed structure.
     The G-vectors are recalculated for the final unit cell
     Results may differ from those at the preceding step.

     Parallelization info
     --------------------
     sticks:   dense  smooth     PW     G-vecs:    dense   smooth      PW
     Min         118     118     42                 2097     2097     443
     Max         119     119     43                 2099     2099     445
     Sum         947     947    337                16781    16781    3549

     Using Slab Decomposition



     bravais-lattice index     =            7
     lattice parameter (alat)  =       5.4478  a.u.
     unit-cell volume          =     173.8207 (a.u.)^3
     number of atoms/cell      =            3
     number of atomic types    =            2
     number of electrons       =        10.00
     number of Kohn-Sham states=            9
     kinetic-energy cutoff     =      80.0000  Ry
     charge density cutoff     =     320.0000  Ry
     scf convergence threshold =      1.0E-10
     mixing beta               =       0.7000
     number of iterations used =            8  plain     mixing
     press convergence thresh. =      1.0E+00
     Exchange-correlation= PBE
                           (   1   4   3   4   0   0   0)

     celldm(1)=   5.447826  celldm(2)=   0.000000  celldm(3)=   2.380736
     celldm(4)=   0.000000  celldm(5)=   0.000000  celldm(6)=   0.000000

     crystal axes: (cart. coord. in units of alat)
               a(1) = (   0.449896  -0.449896   1.327849 )  
               a(2) = (   0.449896   0.449896   1.327849 )  
               a(3) = (  -0.449896  -0.449896   1.327849 )  

     reciprocal axes: (cart. coord. in units 2 pi/alat)
               b(1) = (  1.111369 -1.111369 -0.000000 )  
               b(2) = ( -0.000000  1.111369  0.376549 )  
               b(3) = ( -1.111369  0.000000  0.376549 )  


     PseudoPot. # 1 for Li read from file:
     ../pseudo/Li_ONCV_PBE_sr.upf
     MD5 check sum: 50ff420e78310ffa21704f3361e624a4
     Pseudo is Norm-conserving, Zval =  3.0
     Generated using ONCVPSP code by D. R. Hamann
     Using radial grid of 1944 points,  4 beta functions with: 
                l(1) =   0
                l(2) =   0
                l(3) =   1
                l(4) =   1

     PseudoPot. # 2 for Si read from file:
     ../pseudo/Si_ONCV_PBE_sr.upf
     MD5 check sum: e543d271109d17c80368dfa7c482276d
     Pseudo is Norm-conserving + core correction, Zval =  4.0
     Generated using ONCVPSP code by D. R. Hamann
     Using radial grid of 1510 points,  6 beta functions with: 
                l(1) =   0
                l(2) =   0
                l(3) =   1
                l(4) =   1
                l(5) =   2
                l(6) =   2

     atomic species   valence    mass     pseudopotential
        Li             3.00     6.94100     Li( 1.00)
        Si             4.00    28.08550     Si( 1.00)

     16 Sym. Ops., with inversion, found



   Cartesian axes

     site n.     atom                  positions (alat units)
         1           Li  tau(   1) = (   0.0000000   0.0000000   0.8602734  )
         2           Li  tau(   2) = (   0.0000000   0.0000000   1.7954237  )
         3           Si  tau(   3) = (   0.0000000  -0.0000000  -0.0000000  )

     number of k points=   147  Marzari-Vanderbilt smearing, width (Ry)=  0.0200

     Number of k-points >= 100: set verbosity='high' to print them.

     Dense  grid:    16781 G-vectors     FFT dimensions: (  45,  45,  45)

     Estimated max dynamical RAM per process >      18.92 MB

     Estimated total dynamical RAM >     151.36 MB

     Initial potential from superposition of free atoms

     starting charge       9.9903, renormalised to      10.0000
     Starting wfcs are    8 randomized atomic wfcs +    1 random wfcs

     total cpu time spent up to now is      102.7 secs

     Self-consistent Calculation

     iteration #  1     ecut=    80.00 Ry     beta= 0.70
     Davidson diagonalization with overlap
     c_bands:  1 eigenvalues not converged
     c_bands:  1 eigenvalues not converged
     c_bands:  1 eigenvalues not converged
     c_bands:  1 eigenvalues not converged
     c_bands:  1 eigenvalues not converged
     c_bands:  1 eigenvalues not converged
     c_bands:  1 eigenvalues not converged
     c_bands:  1 eigenvalues not converged
     c_bands:  1 eigenvalues not converged
     c_bands:  1 eigenvalues not converged
     c_bands:  1 eigenvalues not converged
     c_bands:  1 eigenvalues not converged
     c_bands:  1 eigenvalues not converged
     c_bands:  1 eigenvalues not converged
     c_bands:  1 eigenvalues not converged
     c_bands:  1 eigenvalues not converged
     c_bands:  1 eigenvalues not converged
     c_bands:  1 eigenvalues not converged
     c_bands:  2 eigenvalues not converged
     c_bands:  1 eigenvalues not converged
     c_bands:  1 eigenvalues not converged
     c_bands:  1 eigenvalues not converged
     c_bands:  1 eigenvalues not converged
     c_bands:  1 eigenvalues not converged
     c_bands:  1 eigenvalues not converged
     c_bands:  1 eigenvalues not converged
     c_bands:  1 eigenvalues not converged
     ethr =  1.00E-06,  avg # of iterations = 16.8

     total cpu time spent up to now is      106.7 secs

     total energy              =     -37.18192764 Ry
     estimated scf accuracy    <       0.01757268 Ry

     iteration #  2     ecut=    80.00 Ry     beta= 0.70
     Davidson diagonalization with overlap
     ethr =  1.76E-04,  avg # of iterations =  1.7

     total cpu time spent up to now is      107.8 secs

     total energy              =     -37.18346306 Ry
     estimated scf accuracy    <       0.00250322 Ry

     iteration #  3     ecut=    80.00 Ry     beta= 0.70
     Davidson diagonalization with overlap
     ethr =  2.50E-05,  avg # of iterations =  1.9

     total cpu time spent up to now is      108.9 secs

     total energy              =     -37.18393348 Ry
     estimated scf accuracy    <       0.00029510 Ry

     iteration #  4     ecut=    80.00 Ry     beta= 0.70
     Davidson diagonalization with overlap
     ethr =  2.95E-06,  avg # of iterations =  2.2

     total cpu time spent up to now is      110.0 secs

     total energy              =     -37.18397458 Ry
     estimated scf accuracy    <       0.00000099 Ry

     iteration #  5     ecut=    80.00 Ry     beta= 0.70
     Davidson diagonalization with overlap
     ethr =  9.85E-09,  avg # of iterations =  3.6

     total cpu time spent up to now is      111.2 secs

     total energy              =     -37.18397558 Ry
     estimated scf accuracy    <       0.00000016 Ry

     iteration #  6     ecut=    80.00 Ry     beta= 0.70
     Davidson diagonalization with overlap
     ethr =  1.57E-09,  avg # of iterations =  1.9

     total cpu time spent up to now is      112.3 secs

     total energy              =     -37.18397561 Ry
     estimated scf accuracy    <          3.7E-09 Ry

     iteration #  7     ecut=    80.00 Ry     beta= 0.70
     Davidson diagonalization with overlap
     ethr =  3.66E-11,  avg # of iterations =  2.1

     total cpu time spent up to now is      113.4 secs

     total energy              =     -37.18397561 Ry
     estimated scf accuracy    <          2.4E-10 Ry

     iteration #  8     ecut=    80.00 Ry     beta= 0.70
     Davidson diagonalization with overlap
     ethr =  2.42E-12,  avg # of iterations =  2.0

     total cpu time spent up to now is      114.6 secs

     End of self-consistent calculation

     Number of k-points >= 100: set verbosity='high' to print the bands.

     the Fermi energy is     9.9030 ev

!    total energy              =     -37.18397561 Ry
     estimated scf accuracy    <          3.9E-13 Ry
     smearing contrib. (-TS)   =      -0.00002182 Ry
     internal energy E=F+TS    =     -37.18395379 Ry

     The total energy is F=E-TS. E is the sum of the following terms:
     one-electron contribution =      -7.37558327 Ry
     hartree contribution      =       5.68144029 Ry
     xc contribution           =     -10.33450082 Ry
     ewald contribution        =     -25.15530998 Ry

     convergence has been achieved in   8 iterations

     Forces acting on atoms (cartesian axes, Ry/au):

     atom    1 type  1   force =    -0.00000000   -0.00000000    0.00005274
     atom    2 type  1   force =     0.00000000    0.00000000   -0.00005274
     atom    3 type  2   force =    -0.00000000    0.00000000    0.00000000
     The non-local contrib.  to forces
     atom    1 type  1   force =     0.00000000    0.00000000   -0.00845398
     atom    2 type  1   force =    -0.00000000   -0.00000000    0.00845398
     atom    3 type  2   force =     0.00000000   -0.00000000   -0.00000000
     The ionic contribution  to forces
     atom    1 type  1   force =    -0.00000000   -0.00000000   -0.00898719
     atom    2 type  1   force =     0.00000000    0.00000000    0.00898719
     atom    3 type  2   force =     0.00000000   -0.00000000   -0.00000000
     The local contribution  to forces
     atom    1 type  1   force =    -0.00000000   -0.00000000    0.01749380
     atom    2 type  1   force =    -0.00000000   -0.00000000   -0.01749380
     atom    3 type  2   force =     0.00000000   -0.00000000    0.00000000
     The core correction contribution to forces
     atom    1 type  1   force =     0.00000000    0.00000000    0.00000000
     atom    2 type  1   force =     0.00000000    0.00000000    0.00000000
     atom    3 type  2   force =    -0.00000000    0.00000000    0.00000000
     The Hubbard contrib.    to forces
     atom    1 type  1   force =     0.00000000    0.00000000    0.00000000
     atom    2 type  1   force =     0.00000000    0.00000000    0.00000000
     atom    3 type  2   force =     0.00000000    0.00000000    0.00000000
     The SCF correction term to forces
     atom    1 type  1   force =     0.00000000   -0.00000000    0.00000011
     atom    2 type  1   force =     0.00000000    0.00000000   -0.00000011
     atom    3 type  2   force =    -0.00000000    0.00000000    0.00000000

     Total force =     0.000075     Total SCF correction =     0.000000


     Computing stress (Cartesian axis) and pressure

          total   stress  (Ry/bohr**3)                   (kbar)     P=      500.36
   0.00339749  -0.00000000   0.00000000          499.79       -0.00        0.00
  -0.00000000   0.00339749  -0.00000000           -0.00      499.79       -0.00
  -0.00000000  -0.00000000   0.00340916           -0.00       -0.00      501.51


     Writing all to output data dir ./output/LiSi.save/

     init_run     :      1.20s CPU      1.36s WALL (       2 calls)
     electrons    :     87.23s CPU    103.33s WALL (      10 calls)
     update_pot   :      1.53s CPU      1.57s WALL (       8 calls)
     forces       :      1.55s CPU      1.62s WALL (      10 calls)
     stress       :      6.59s CPU      6.79s WALL (      10 calls)

     Called by init_run:
     wfcinit      :      0.75s CPU      0.78s WALL (       2 calls)
     potinit      :      0.22s CPU      0.31s WALL (       2 calls)
     hinit0       :      0.20s CPU      0.24s WALL (       2 calls)

     Called by electrons:
     c_bands      :     74.23s CPU     89.28s WALL (      72 calls)
     sum_band     :     12.26s CPU     12.65s WALL (      72 calls)
     v_of_rho     :      0.82s CPU      1.22s WALL (      77 calls)
     mix_rho      :      0.06s CPU      0.10s WALL (      72 calls)

     Called by c_bands:
     init_us_2    :      1.68s CPU      1.77s WALL (   24402 calls)
     init_us_2:cp :      1.66s CPU      1.75s WALL (   24402 calls)
     cegterg      :     70.85s CPU     73.29s WALL (   10584 calls)

     Called by *egterg:
     cdiaghg      :      3.45s CPU      3.69s WALL (   36269 calls)
     h_psi        :     64.42s CPU     66.50s WALL (   38474 calls)
     g_psi        :      0.17s CPU      0.18s WALL (   27596 calls)

     Called by h_psi:
     h_psi:calbec :      1.96s CPU      2.10s WALL (   38474 calls)
     vloc_psi     :     61.25s CPU     63.13s WALL (   38474 calls)
     add_vuspsi   :      1.02s CPU      1.06s WALL (   38474 calls)

     General routines
     calbec       :      2.48s CPU      2.63s WALL (   45824 calls)
     fft          :      0.81s CPU      1.32s WALL (    1023 calls)
     ffts         :      0.06s CPU      0.09s WALL (      72 calls)
     fftw         :     65.15s CPU     67.07s WALL (  607854 calls)

     Parallel routines

     PWSCF        :   1m38.47s CPU   1m55.93s WALL


   This run was terminated on:  12:53:26  27Dec2024            

=------------------------------------------------------------------------------=
   JOB DONE.
=------------------------------------------------------------------------------=
