
     Program PWSCF v.7.2 starts on 28Dec2024 at 16:50:13 

     This program is part of the open-source Quantum ESPRESSO suite
     for quantum simulation of materials; please cite
         "P. Giannozzi et al., J. Phys.:Condens. Matter 21 395502 (2009);
         "P. Giannozzi et al., J. Phys.:Condens. Matter 29 465901 (2017);
         "P. Giannozzi et al., J. Chem. Phys. 152 154105 (2020);
          URL http://www.quantum-espresso.org", 
     in publications or presentations arising from this work. More details at
     http://www.quantum-espresso.org/quote

     Parallel version (MPI & OpenMP), running on       8 processor cores
     Number of MPI processes:                 8
     Threads/MPI process:                     1

     MPI processes distributed on     1 nodes
     479416 MiB available memory on the printing compute node when the environment starts

     Waiting for input...
     Reading input from standard input

     Current dimensions of program PWSCF are:
     Max number of different atomic species (ntypx) = 10
     Max number of k-points (npk) =  40000
     Max angular momentum in pseudopotentials (lmaxx) =  4

     R & G space division:  proc/nbgrp/npool/nimage =       8
     Subspace diagonalization in iterative solution of the eigenvalue problem:
     a serial algorithm will be used


     Parallelization info
     --------------------
     sticks:   dense  smooth     PW     G-vecs:    dense   smooth      PW
     Min         222     222     67                 6046     6046    1022
     Max         223     223     68                 6047     6047    1026
     Sum        1779    1779    541                48375    48375    8189

     Using Slab Decomposition



     bravais-lattice index     =            7
     lattice parameter (alat)  =       9.6683  a.u.
     unit-cell volume          =     499.6714 (a.u.)^3
     number of atoms/cell      =            6
     number of atomic types    =            2
     number of electrons       =        22.00
     number of Kohn-Sham states=           15
     kinetic-energy cutoff     =      80.0000  Ry
     charge density cutoff     =     320.0000  Ry
     scf convergence threshold =      1.0E-08
     mixing beta               =       0.7000
     number of iterations used =            8  plain     mixing
     energy convergence thresh.=      1.0E-04
     force convergence thresh. =      1.0E-03
     press convergence thresh. =      1.0E+00
     Exchange-correlation= PBE
                           (   1   4   3   4   0   0   0)
     nstep                     =           50


     celldm(1)=   9.668342  celldm(2)=   0.000000  celldm(3)=   1.105754
     celldm(4)=   0.000000  celldm(5)=   0.000000  celldm(6)=   0.000000

     crystal axes: (cart. coord. in units of alat)
               a(1) = (   0.500000  -0.500000   0.552877 )  
               a(2) = (   0.500000   0.500000   0.552877 )  
               a(3) = (  -0.500000  -0.500000   0.552877 )  

     reciprocal axes: (cart. coord. in units 2 pi/alat)
               b(1) = (  1.000000 -1.000000  0.000000 )  
               b(2) = (  0.000000  1.000000  0.904360 )  
               b(3) = ( -1.000000  0.000000  0.904360 )  


     PseudoPot. # 1 for Li read from file:
     ../pseudo/Li_ONCV_PBE_sr.upf
     MD5 check sum: 50ff420e78310ffa21704f3361e624a4
     Pseudo is Norm-conserving, Zval =  3.0
     Generated using ONCVPSP code by D. R. Hamann
     Using radial grid of 1944 points,  4 beta functions with: 
                l(1) =   0
                l(2) =   0
                l(3) =   1
                l(4) =   1

     PseudoPot. # 2 for Si read from file:
     ../pseudo/Si_ONCV_PBE_sr.upf
     MD5 check sum: e543d271109d17c80368dfa7c482276d
     Pseudo is Norm-conserving + core correction, Zval =  4.0
     Generated using ONCVPSP code by D. R. Hamann
     Using radial grid of 1510 points,  6 beta functions with: 
                l(1) =   0
                l(2) =   0
                l(3) =   1
                l(4) =   1
                l(5) =   2
                l(6) =   2

     atomic species   valence    mass     pseudopotential
        Li             3.00     6.94100     Li( 1.00)
        Si             4.00    28.08550     Si( 1.00)

     16 Sym. Ops., with inversion, found ( 8 have fractional translation)



   Cartesian axes

     site n.     atom                  positions (alat units)
         1           Li  tau(   1) = (   0.0000000   0.0000000   0.2764384  )
         2           Li  tau(   2) = (   0.0000000   0.0000000   0.8293153  )
         3           Si  tau(   3) = (   0.1372385   0.3627615   0.0000000  )
         4           Si  tau(   4) = (   0.8627615   0.6372385   0.0000000  )
         5           Si  tau(   5) = (   0.6372385   0.1372385  -0.0000000  )
         6           Si  tau(   6) = (   0.3627615   0.8627615  -0.0000000  )

     number of k points=    47  Marzari-Vanderbilt smearing, width (Ry)=  0.0200
                       cart. coord. in units 2pi/alat
        k(    1) = (   0.0000000   0.0000000   0.0000000), wk =   0.0200000
        k(    2) = (  -0.2500000   0.0000000   0.2260901), wk =   0.0400000
        k(    3) = (   0.5000000   0.0000000  -0.4521802), wk =   0.0200000
        k(    4) = (   0.0000000   0.2000000   0.1808721), wk =   0.0800000
        k(    5) = (  -0.2500000   0.2000000   0.4069622), wk =   0.0400000
        k(    6) = (   0.5000000   0.2000000  -0.2713081), wk =   0.0400000
        k(    7) = (   0.2500000   0.2000000  -0.0452180), wk =   0.0400000
        k(    8) = (   0.0000000   0.4000000   0.3617442), wk =   0.0800000
        k(    9) = (  -0.2500000   0.4000000   0.5878343), wk =   0.0400000
        k(   10) = (   0.5000000   0.4000000  -0.0904360), wk =   0.0400000
        k(   11) = (   0.2500000   0.4000000   0.1356541), wk =   0.0400000
        k(   12) = (   0.2000000  -0.2000000   0.0000000), wk =   0.0400000
        k(   13) = (  -0.0500000  -0.2000000   0.2260901), wk =   0.0400000
        k(   14) = (   0.7000000  -0.2000000  -0.4521802), wk =   0.0400000
        k(   15) = (   0.4500000  -0.2000000  -0.2260901), wk =   0.0400000
        k(   16) = (  -0.0500000   0.0000000   0.4069622), wk =   0.0400000
        k(   17) = (   0.7000000   0.0000000  -0.2713081), wk =   0.0400000
        k(   18) = (   0.4500000   0.0000000  -0.0452180), wk =   0.0400000
        k(   19) = (   0.2000000   0.2000000   0.3617442), wk =   0.0400000
        k(   20) = (  -0.0500000   0.2000000   0.5878343), wk =   0.0400000
        k(   21) = (   0.7000000   0.2000000  -0.0904360), wk =   0.0400000
        k(   22) = (   0.4500000   0.2000000   0.1356541), wk =   0.0400000
        k(   23) = (   0.2000000  -0.6000000  -0.3617442), wk =   0.0800000
        k(   24) = (  -0.0500000  -0.6000000  -0.1356541), wk =   0.0400000
        k(   25) = (   0.7000000  -0.6000000  -0.8139244), wk =   0.0400000
        k(   26) = (   0.4500000  -0.6000000  -0.5878343), wk =   0.0400000
        k(   27) = (   0.2000000  -0.4000000  -0.1808721), wk =   0.0800000
        k(   28) = (  -0.0500000  -0.4000000   0.0452180), wk =   0.0400000
        k(   29) = (   0.7000000  -0.4000000  -0.6330523), wk =   0.0400000
        k(   30) = (   0.4500000  -0.4000000  -0.4069622), wk =   0.0400000
        k(   31) = (   0.4000000  -0.4000000   0.0000000), wk =   0.0400000
        k(   32) = (   0.1500000  -0.4000000   0.2260901), wk =   0.0400000
        k(   33) = (   0.9000000  -0.4000000  -0.4521802), wk =   0.0400000
        k(   34) = (   0.6500000  -0.4000000  -0.2260901), wk =   0.0400000
        k(   35) = (   0.1500000  -0.2000000   0.4069622), wk =   0.0400000
        k(   36) = (   0.9000000  -0.2000000  -0.2713081), wk =   0.0400000
        k(   37) = (   0.6500000  -0.2000000  -0.0452180), wk =   0.0400000
        k(   38) = (   0.1500000   0.0000000   0.5878343), wk =   0.0400000
        k(   39) = (   0.9000000   0.0000000  -0.0904360), wk =   0.0400000
        k(   40) = (   0.6500000   0.0000000   0.1356541), wk =   0.0400000
        k(   41) = (   0.1500000  -0.8000000  -0.1356541), wk =   0.0400000
        k(   42) = (   0.9000000  -0.8000000  -0.8139244), wk =   0.0400000
        k(   43) = (   0.6500000  -0.8000000  -0.5878343), wk =   0.0400000
        k(   44) = (   0.4000000  -0.6000000  -0.1808721), wk =   0.0400000
        k(   45) = (   0.1500000  -0.6000000   0.0452180), wk =   0.0400000
        k(   46) = (   0.9000000  -0.6000000  -0.6330523), wk =   0.0400000
        k(   47) = (   0.6500000  -0.6000000  -0.4069622), wk =   0.0400000

     Dense  grid:    48375 G-vectors     FFT dimensions: (  50,  50,  50)

     Estimated max dynamical RAM per process >      25.44 MB

     Estimated total dynamical RAM >     203.50 MB

     Initial potential from superposition of free atoms

     starting charge      21.9884, renormalised to      22.0000
     Starting wfcs are   20 randomized atomic wfcs

     total cpu time spent up to now is        1.4 secs

     Self-consistent Calculation

     iteration #  1     ecut=    80.00 Ry     beta= 0.70
     Davidson diagonalization with overlap
     ethr =  1.00E-02,  avg # of iterations =  3.3

     Threshold (ethr) on eigenvalues was too large:
     Diagonalizing with lowered threshold

     Davidson diagonalization with overlap
     ethr =  2.77E-04,  avg # of iterations =  4.2

     total cpu time spent up to now is        4.4 secs

     total energy              =     -62.31421757 Ry
     estimated scf accuracy    <       0.07399686 Ry

     iteration #  2     ecut=    80.00 Ry     beta= 0.70
     Davidson diagonalization with overlap
     ethr =  3.36E-04,  avg # of iterations =  1.6

     total cpu time spent up to now is        5.5 secs

     total energy              =     -62.32006827 Ry
     estimated scf accuracy    <       0.00172538 Ry

     iteration #  3     ecut=    80.00 Ry     beta= 0.70
     Davidson diagonalization with overlap
     ethr =  7.84E-06,  avg # of iterations =  6.2

     total cpu time spent up to now is        7.1 secs

     total energy              =     -62.32055175 Ry
     estimated scf accuracy    <       0.00007753 Ry

     iteration #  4     ecut=    80.00 Ry     beta= 0.70
     Davidson diagonalization with overlap
     ethr =  3.52E-07,  avg # of iterations =  3.9

     total cpu time spent up to now is        8.4 secs

     total energy              =     -62.32057540 Ry
     estimated scf accuracy    <       0.00000721 Ry

     iteration #  5     ecut=    80.00 Ry     beta= 0.70
     Davidson diagonalization with overlap
     ethr =  3.28E-08,  avg # of iterations =  2.2

     total cpu time spent up to now is        9.6 secs

     total energy              =     -62.32057703 Ry
     estimated scf accuracy    <       0.00000027 Ry

     iteration #  6     ecut=    80.00 Ry     beta= 0.70
     Davidson diagonalization with overlap
     ethr =  1.22E-09,  avg # of iterations =  3.4

     total cpu time spent up to now is       10.9 secs

     total energy              =     -62.32057711 Ry
     estimated scf accuracy    <       0.00000001 Ry

     iteration #  7     ecut=    80.00 Ry     beta= 0.70
     Davidson diagonalization with overlap
     ethr =  5.00E-11,  avg # of iterations =  3.3

     total cpu time spent up to now is       12.2 secs

     End of self-consistent calculation

          k = 0.0000 0.0000 0.0000 (  6043 PWs)   bands (ev):

   -36.1452 -36.1226  -3.9433   2.0043   4.6148   4.6148   5.9037   5.9329
     6.4759   6.4759   6.8145   6.9402   6.9402   7.1113  11.8368

          k =-0.2500 0.0000 0.2261 (  6036 PWs)   bands (ev):

   -36.1418 -36.1258  -3.4270   0.4361   3.9063   3.9258   4.5779   5.0728
     5.8791   7.3182   8.8001   9.0220   9.6994   9.7395   9.8326

          k = 0.5000 0.0000-0.4522 (  6048 PWs)   bands (ev):

   -36.1337 -36.1337  -1.8996  -1.8996   3.6683   3.6683   4.1330   4.1330
     7.1936   7.1936   9.4694   9.4694  11.8970  11.8970  12.8682

          k = 0.0000 0.2000 0.1809 (  6045 PWs)   bands (ev):

   -36.1430 -36.1247  -3.6126   0.9198   3.9999   4.0650   4.8948   5.3471
     5.7803   6.9361   8.2322   8.6230   9.0190   9.1093  10.1804

          k =-0.2500 0.2000 0.4070 (  6048 PWs)   bands (ev):

   -36.1361 -36.1313  -2.7338  -0.5972   1.9435   3.5896   4.5773   7.0585
     7.2853   7.3379   7.8863   8.2618  10.4496  11.7683  12.1255

          k = 0.5000 0.2000-0.2713 (  6043 PWs)   bands (ev):

   -36.1395 -36.1279  -2.4033  -0.9421   1.7610   3.0412   5.2713   5.3358
     6.6237   8.6614   9.2211  10.1151  10.4098  11.5138  12.1443

          k = 0.2500 0.2000-0.0452 (  6044 PWs)   bands (ev):

   -36.1443 -36.1233  -3.4944   1.0540   2.8855   3.3220   4.5532   6.3785
     6.6437   7.0094   7.5505   8.3175   9.4444  11.0334  12.1035

          k = 0.0000 0.4000 0.3617 (  6040 PWs)   bands (ev):

   -36.1372 -36.1302  -2.6273  -1.0328   3.6380   3.8518   3.9945   4.4201
     6.5204   8.0266   8.6048   9.9927  10.7973  11.5912  12.1533

          k =-0.2500 0.4000 0.5878 (  6033 PWs)   bands (ev):

   -36.1378 -36.1295  -1.8687  -1.4557   1.2709   2.9912   5.2869   5.5482
     7.5173   8.0844   9.7196   9.8712  10.2869  11.9972  12.4012

          k = 0.5000 0.4000-0.0904 (  6038 PWs)   bands (ev):

   -36.1430 -36.1243  -2.5279   0.1911   0.5641   2.6133   3.9582   6.9801
     7.2168   8.8524   9.4487   9.7978  11.5665  12.2213  12.5314

          k = 0.2500 0.4000 0.1357 (  6032 PWs)   bands (ev):

   -36.1428 -36.1247  -2.9462   0.1771   1.6835   2.9333   4.4562   6.2157
     7.1530   7.7155   8.6545   9.9640  10.9064  11.2780  11.6449

          k = 0.2000-0.2000 0.0000 (  6051 PWs)   bands (ev):

   -36.1446 -36.1230  -3.5979   1.2415   3.2420   3.4615   4.6561   6.1392
     6.8944   6.9499   7.1371   7.9092   9.0116  10.6048  12.1778

          k =-0.0500-0.2000 0.2261 (  6039 PWs)   bands (ev):

   -36.1419 -36.1257  -3.5161   0.6863   3.4769   4.1387   4.6993   5.7245
     6.1132   6.8953   8.4342   8.6672   9.3927   9.5135   9.6215

          k = 0.7000-0.2000-0.4522 (  6042 PWs)   bands (ev):

   -36.1344 -36.1330  -2.4421  -0.9788   1.7741   3.4057   4.6905   6.8143
     7.1306   7.3066   8.3246   8.9435  10.9555  11.9273  12.2655

          k = 0.4500-0.2000-0.2261 (  6044 PWs)   bands (ev):

   -36.1408 -36.1266  -2.6940  -0.5062   1.8936   3.0381   5.0285   5.5157
     6.5681   8.6019   8.9228  10.1004  10.4875  11.1831  11.8277

          k =-0.0500 0.0000 0.4070 (  6025 PWs)   bands (ev):

   -36.1367 -36.1308  -3.1750   0.4252   2.5584   2.5852   5.6296   6.7767
     6.9290   7.0696   7.8379   8.0045   8.8976  10.5953  10.6439

          k = 0.7000 0.0000-0.2713 (  6037 PWs)   bands (ev):

   -36.1385 -36.1287  -1.7992  -1.5343   2.1412   2.7043   4.5530   5.8790
     5.9086   6.6765  10.6497  10.7144  11.4440  11.9606  12.3793

          k = 0.4500 0.0000-0.0452 (  6040 PWs)   bands (ev):

   -36.1437 -36.1238  -3.0512   0.0708   2.9178   3.6743   3.8155   5.0151
     5.6217   8.1015   8.8277   9.8779  10.2717  12.2228  12.4254

          k = 0.2000 0.2000 0.3617 (  6052 PWs)   bands (ev):

   -36.1377 -36.1297  -2.9879  -0.2301   2.1968   3.8099   4.4725   6.8652
     7.4328   7.5556   7.6313   7.8031   9.9691  11.2057  11.6143

          k =-0.0500 0.2000 0.5878 (  6035 PWs)   bands (ev):

   -36.1369 -36.1304  -2.2336  -0.8875   1.8553   2.5568   4.8350   5.9804
     6.0352   6.8981   9.5561  10.4433  10.8386  12.2295  12.6567

          k = 0.7000 0.2000-0.0904 (  6021 PWs)   bands (ev):

   -36.1423 -36.1250  -1.9339  -0.8568   0.9179   3.3065   3.7597   4.8664
     6.8717   8.4867   9.1132  10.6275  12.4510  12.7360  13.1922

          k = 0.4500 0.2000 0.1357 (  6045 PWs)   bands (ev):

   -36.1426 -36.1248  -2.8520  -0.0800   1.7496   3.3780   4.2986   5.3722
     6.9544   8.0338   8.8468  10.3084  11.0717  11.2449  11.7167

          k = 0.2000-0.6000-0.3617 (  6031 PWs)   bands (ev):

   -36.1364 -36.1310  -1.7525  -1.7313   1.6496   3.1503   4.9564   5.9811
     6.8188   7.9381   9.2246  10.1688  10.6107  11.8776  12.3251

          k =-0.0500-0.6000-0.1357 (  6023 PWs)   bands (ev):

   -36.1419 -36.1253  -2.3118  -0.8490   2.0597   3.1568   3.7046   5.3235
     6.3427   7.4623   9.3986  11.1122  11.5938  12.0902  13.1276

          k = 0.7000-0.6000-0.8139 (  6033 PWs)   bands (ev):

   -36.1427 -36.1246  -2.3265  -0.3251   0.6888   3.4636   3.7341   5.3391
     7.8189   8.0319   9.1479  11.0710  11.3799  12.5817  12.9988

          k = 0.4500-0.6000-0.5878 (  6050 PWs)   bands (ev):

   -36.1382 -36.1292  -2.1649  -0.8289   1.0658   1.7774   5.9844   7.6058
     8.2088   8.6439   8.9388   9.5689  10.4087  10.5151  11.5157

          k = 0.2000-0.4000-0.1809 (  6049 PWs)   bands (ev):

   -36.1420 -36.1254  -2.9502  -0.0646   2.0739   3.0664   4.8059   5.7532
     6.5360   8.0572   8.8971   9.6917  10.7251  11.2050  11.3605

          k =-0.0500-0.4000 0.0452 (  6039 PWs)   bands (ev):

   -36.1439 -36.1236  -3.2247   0.3361   3.0207   4.0275   4.1783   4.5881
     5.6668   7.8234   9.1314   9.4927   9.7815  11.4713  12.3541

          k = 0.7000-0.4000-0.6331 (  6045 PWs)   bands (ev):

   -36.1398 -36.1277  -2.5938  -0.4852   1.6225   2.1945   5.6098   6.9712
     7.1532   8.2650   8.6492   9.7519   9.9780  11.0687  12.3127

          k = 0.4500-0.4000-0.4070 (  6042 PWs)   bands (ev):

   -36.1353 -36.1321  -1.8484  -1.2768   1.3250   1.4377   6.8958   7.5981
     8.0138   8.5025   9.2508   9.3640  10.3331  10.5491  10.9585

          k = 0.4000-0.4000 0.0000 (  6020 PWs)   bands (ev):

   -36.1437 -36.1237  -2.7595   0.5330   0.8279   2.6420   3.8289   6.9642
     7.3921   8.1614   8.9576  10.2591  11.0951  12.1417  12.3923

          k = 0.1500-0.4000 0.2261 (  6044 PWs)   bands (ev):

   -36.1411 -36.1264  -2.9212  -0.3189   2.5107   3.2153   5.1830   5.3239
     5.8423   8.4917   9.0600   9.5346  10.2521  11.2455  11.3896

          k = 0.9000-0.4000-0.4522 (  6040 PWs)   bands (ev):

   -36.1341 -36.1333  -2.2566  -1.4185   2.5973   3.5580   4.3511   5.4473
     6.9513   7.4116   8.6026  10.1445  11.4522  11.7265  12.1943

          k = 0.6500-0.4000-0.2261 (  6035 PWs)   bands (ev):

   -36.1404 -36.1269  -2.1307  -0.7948   0.7406   2.7636   4.7734   5.9891
     8.2565   8.4192   9.2716  10.2853  10.7292  11.4468  12.5862

          k = 0.1500-0.2000 0.4070 (  6044 PWs)   bands (ev):

   -36.1363 -36.1311  -2.9065  -0.3258   2.1306   3.9048   4.3663   6.5612
     7.1152   7.2143   8.0512   8.1893  10.5013  10.8862  11.7650

          k = 0.9000-0.2000-0.2713 (  6027 PWs)   bands (ev):

   -36.1383 -36.1290  -1.9879  -1.0656   1.5134   2.7407   4.3986   5.7410
     6.0655   7.5794   9.3975  10.9112  11.4251  11.8214  12.8700

          k = 0.6500-0.2000-0.0452 (  6027 PWs)   bands (ev):

   -36.1428 -36.1245  -2.1595  -0.5991   0.9650   3.2561   4.0451   4.6286
     7.2371   8.3181   8.6307  11.2133  12.1174  12.6280  13.2357

          k = 0.1500 0.0000 0.5878 (  6035 PWs)   bands (ev):

   -36.1368 -36.1305  -2.3269  -0.6189   1.9130   2.1616   4.7710   5.7293
     6.7785   6.8698   9.3223   9.9241  10.7727  12.4799  12.6920

          k = 0.9000 0.0000-0.0904 (  6050 PWs)   bands (ev):

   -36.1415 -36.1256  -1.4404  -0.8417   1.3646   1.5138   2.8929   5.3599
     7.6768   8.5714   9.9203  10.5276  11.3941  12.1438  12.9033

          k = 0.6500 0.0000 0.1357 (  6019 PWs)   bands (ev):

   -36.1417 -36.1255  -2.0646  -1.0388   2.0297   2.7133   3.5590   5.9073
     6.3568   6.9749   9.7949  11.1728  11.8254  12.2424  12.9921

          k = 0.1500-0.8000-0.1357 (  6018 PWs)   bands (ev):

   -36.1413 -36.1259  -1.4234  -1.3311   1.0844   2.8030   3.3270   5.8439
     6.0888   8.5949   9.7183  10.2740  12.3230  12.6106  12.7934

          k = 0.9000-0.8000-0.8139 (  6030 PWs)   bands (ev):

   -36.1418 -36.1253  -1.3868  -1.2420   1.1955   2.4179   3.0376   5.9184
     6.3709   8.3596  10.1284  10.3642  12.0767  12.2442  13.1202

          k = 0.6500-0.8000-0.5878 (  6026 PWs)   bands (ev):

   -36.1376 -36.1297  -1.6994  -1.6758   1.3995   3.6184   4.5202   5.3574
     7.3193   7.5017   9.8471   9.9483  10.6374  12.3237  12.6858

          k = 0.4000-0.6000-0.1809 (  6041 PWs)   bands (ev):

   -36.1415 -36.1259  -2.2630  -0.4480   0.5991   2.6908   4.4471   6.3345
     7.8967   8.6348   9.5022  10.4959  10.5935  11.6841  12.5914

          k = 0.1500-0.6000 0.0452 (  6038 PWs)   bands (ev):

   -36.1429 -36.1243  -2.3716  -0.5003   1.3657   3.3401   3.9017   4.7152
     7.5348   7.6451   8.4710  11.4472  11.7057  12.5669  13.1137

          k = 0.9000-0.6000-0.6331 (  6027 PWs)   bands (ev):

   -36.1390 -36.1283  -2.0352  -1.4353   2.0092   3.7797   4.2902   4.9499
     6.1914   7.6498  10.2248  10.4724  10.9188  11.9706  12.8646

          k = 0.6500-0.6000-0.4070 (  6057 PWs)   bands (ev):

   -36.1354 -36.1320  -2.0585  -1.1769   1.5145   1.7333   6.6318   7.4736
     7.6298   8.1779   8.7984   9.0063  10.3423  11.0606  11.4854

     the Fermi energy is     9.1876 ev

!    total energy              =     -62.32057712 Ry
     estimated scf accuracy    <          1.0E-09 Ry
     smearing contrib. (-TS)   =       0.00040952 Ry
     internal energy E=F+TS    =     -62.32098664 Ry

     The total energy is F=E-TS. E is the sum of the following terms:
     one-electron contribution =       3.67248940 Ry
     hartree contribution      =       6.63825161 Ry
     xc contribution           =     -19.66033099 Ry
     ewald contribution        =     -52.97139666 Ry

     convergence has been achieved in   7 iterations

     Forces acting on atoms (cartesian axes, Ry/au):

     atom    1 type  1   force =     0.00000000    0.00000000   -0.00000000
     atom    2 type  1   force =    -0.00000000    0.00000000    0.00000000
     atom    3 type  2   force =     0.16910192   -0.16910192    0.00000000
     atom    4 type  2   force =    -0.16910192    0.16910192    0.00000000
     atom    5 type  2   force =     0.16910192    0.16910192   -0.00000000
     atom    6 type  2   force =    -0.16910192   -0.16910192    0.00000000
     The non-local contrib.  to forces
     atom    1 type  1   force =    -0.00000000    0.00000000    0.00000000
     atom    2 type  1   force =    -0.00000000    0.00000000    0.00000000
     atom    3 type  2   force =     0.18459379   -0.18459379   -0.00000000
     atom    4 type  2   force =    -0.18459379    0.18459379   -0.00000000
     atom    5 type  2   force =     0.18459379    0.18459379    0.00000000
     atom    6 type  2   force =    -0.18459379   -0.18459379    0.00000000
     The ionic contribution  to forces
     atom    1 type  1   force =     0.00000000   -0.00000000   -0.00000000
     atom    2 type  1   force =     0.00000000   -0.00000000    0.00000000
     atom    3 type  2   force =     0.39517727   -0.39517727    0.00000000
     atom    4 type  2   force =    -0.39517727    0.39517727    0.00000000
     atom    5 type  2   force =     0.39517727    0.39517727   -0.00000000
     atom    6 type  2   force =    -0.39517727   -0.39517727   -0.00000000
     The local contribution  to forces
     atom    1 type  1   force =     0.00000000   -0.00000000    0.00000000
     atom    2 type  1   force =    -0.00000000   -0.00000000   -0.00000000
     atom    3 type  2   force =    -0.39667239    0.39667239    0.00000000
     atom    4 type  2   force =     0.39667239   -0.39667239    0.00000000
     atom    5 type  2   force =    -0.39667239   -0.39667239    0.00000000
     atom    6 type  2   force =     0.39667239    0.39667239    0.00000000
     The core correction contribution to forces
     atom    1 type  1   force =     0.00000000    0.00000000    0.00000000
     atom    2 type  1   force =     0.00000000    0.00000000    0.00000000
     atom    3 type  2   force =    -0.01398787    0.01398787    0.00000000
     atom    4 type  2   force =     0.01398787   -0.01398787   -0.00000000
     atom    5 type  2   force =    -0.01398787   -0.01398787   -0.00000000
     atom    6 type  2   force =     0.01398787    0.01398787    0.00000000
     The Hubbard contrib.    to forces
     atom    1 type  1   force =     0.00000000    0.00000000    0.00000000
     atom    2 type  1   force =     0.00000000    0.00000000    0.00000000
     atom    3 type  2   force =     0.00000000    0.00000000    0.00000000
     atom    4 type  2   force =     0.00000000    0.00000000    0.00000000
     atom    5 type  2   force =     0.00000000    0.00000000    0.00000000
     atom    6 type  2   force =     0.00000000    0.00000000    0.00000000
     The SCF correction term to forces
     atom    1 type  1   force =    -0.00000000   -0.00000000    0.00000000
     atom    2 type  1   force =    -0.00000000   -0.00000000    0.00000000
     atom    3 type  2   force =    -0.00000888    0.00000888   -0.00000000
     atom    4 type  2   force =     0.00000888   -0.00000888    0.00000000
     atom    5 type  2   force =    -0.00000888   -0.00000888    0.00000000
     atom    6 type  2   force =     0.00000888    0.00000888   -0.00000000

     Total force =     0.478292     Total SCF correction =     0.000025


     Computing stress (Cartesian axis) and pressure

          total   stress  (Ry/bohr**3)                   (kbar)     P=      290.82
   0.00284916   0.00000000   0.00000000          419.13        0.00        0.00
   0.00000000   0.00284916  -0.00000000            0.00      419.13       -0.00
   0.00000000   0.00000000   0.00023252            0.00        0.00       34.21


     BFGS Geometry Optimization
     Energy error            =      0.0E+00 Ry
     Gradient error          =      1.7E-01 Ry/Bohr
     Cell gradient error     =      4.7E+02 kbar

     number of scf cycles    =   1
     number of bfgs steps    =   0

     enthalpy           new  =     -60.6222285072 Ry

     new trust radius        =       0.3538989636 bohr
ibrav =      7
 celldm(1) =      9.53545844
 celldm(3) =      1.03241177
Input lattice vectors:
     0.49312788    -0.49312788     0.50911103
     0.49312788     0.49312788     0.50911103
    -0.49312788    -0.49312788     0.50911103
New lattice vectors in INITIAL alat:
     0.49312788    -0.49312788     0.50911103
     0.49312788     0.49312788     0.50911103
    -0.49312788    -0.49312788     0.50911103
New lattice vectors in NEW alat (for information only):
     0.50000000    -0.50000000     0.51620588
     0.50000000     0.50000000     0.51620588
    -0.50000000    -0.50000000     0.51620588
Discrepancy in bohr =     0.000000    0.000000    0.000000
     new conv_thr            =       0.0000000100 Ry

     new unit-cell volume =    447.55631 a.u.^3 (    66.32100 Ang^3 )
     density =      3.16038 g/cm^3

CELL_PARAMETERS (alat=  9.66834238)
   0.493127884  -0.493127884   0.509111030
   0.493127884   0.493127884   0.509111030
  -0.493127884  -0.493127884   0.509111030

ATOMIC_POSITIONS (crystal)
Li            0.0000000000        0.2500000000        0.2500000000
Li            0.0000000000        0.7500000000        0.7500000000
Si           -0.1905424588        0.3452712294       -0.1547287706
Si            0.1905424588        0.6547287706       -0.8452712294
Si            0.5000000000        0.1547287706       -0.6547287706
Si           -0.5000000000        0.8452712294       -0.3452712294



     Writing config-only to output data dir ./output/LiSi.save/
     NEW-OLD atomic charge density approx. for the potential
     extrapolated charge   19.43959, renormalised to   22.00000

     total cpu time spent up to now is       15.4 secs

     Self-consistent Calculation

     iteration #  1     ecut=    80.00 Ry     beta= 0.70
     Davidson diagonalization with overlap
     c_bands:  1 eigenvalues not converged
     c_bands:  1 eigenvalues not converged
     c_bands:  1 eigenvalues not converged
     c_bands:  1 eigenvalues not converged
     c_bands:  2 eigenvalues not converged
     c_bands:  1 eigenvalues not converged
     c_bands:  1 eigenvalues not converged
     c_bands:  1 eigenvalues not converged
     c_bands:  1 eigenvalues not converged
     ethr =  1.00E-06,  avg # of iterations = 15.3

     total cpu time spent up to now is       19.5 secs

     total energy              =     -62.35207723 Ry
     estimated scf accuracy    <       0.02957656 Ry

     iteration #  2     ecut=    80.00 Ry     beta= 0.70
     Davidson diagonalization with overlap
     ethr =  1.34E-04,  avg # of iterations =  2.6

     total cpu time spent up to now is       20.8 secs

     total energy              =     -62.38704322 Ry
     estimated scf accuracy    <       0.02108366 Ry

     iteration #  3     ecut=    80.00 Ry     beta= 0.70
     Davidson diagonalization with overlap
     ethr =  9.58E-05,  avg # of iterations =  1.3

     total cpu time spent up to now is       21.8 secs

     total energy              =     -62.38686605 Ry
     estimated scf accuracy    <       0.00290978 Ry

     iteration #  4     ecut=    80.00 Ry     beta= 0.70
     Davidson diagonalization with overlap
     ethr =  1.32E-05,  avg # of iterations =  2.4

     total cpu time spent up to now is       23.0 secs

     total energy              =     -62.38755015 Ry
     estimated scf accuracy    <       0.00003540 Ry

     iteration #  5     ecut=    80.00 Ry     beta= 0.70
     Davidson diagonalization with overlap
     ethr =  1.61E-07,  avg # of iterations =  4.2

     total cpu time spent up to now is       24.4 secs

     total energy              =     -62.38756462 Ry
     estimated scf accuracy    <       0.00000309 Ry

     iteration #  6     ecut=    80.00 Ry     beta= 0.70
     Davidson diagonalization with overlap
     ethr =  1.40E-08,  avg # of iterations =  2.3

     total cpu time spent up to now is       25.6 secs

     total energy              =     -62.38756564 Ry
     estimated scf accuracy    <       0.00000014 Ry

     iteration #  7     ecut=    80.00 Ry     beta= 0.70
     Davidson diagonalization with overlap
     ethr =  6.46E-10,  avg # of iterations =  3.0

     total cpu time spent up to now is       26.9 secs

     total energy              =     -62.38756569 Ry
     estimated scf accuracy    <       0.00000002 Ry

     iteration #  8     ecut=    80.00 Ry     beta= 0.70
     Davidson diagonalization with overlap
     ethr =  8.39E-11,  avg # of iterations =  2.5

     total cpu time spent up to now is       28.0 secs

     End of self-consistent calculation

          k = 0.0000 0.0000 0.0000 (  6043 PWs)   bands (ev):

   -34.7621 -34.7114  -3.0203   4.8282   6.2793   6.2793   6.7005   7.2112
     7.2112   7.4054   7.5304   7.5304   7.7876   8.9889  15.4569

          k =-0.2535 0.0000 0.2455 (  6036 PWs)   bands (ev):

   -34.7544 -34.7186  -2.4334   2.2292   4.9378   5.0935   5.5087   6.2361
     7.3488   8.6740  10.1714  10.5032  10.6310  11.6143  12.3639

          k = 0.5070-0.0000-0.4911 (  6048 PWs)   bands (ev):

   -34.7363 -34.7363  -0.6668  -0.6668   4.3876   4.3876   5.4782   5.4782
     9.1438   9.1438  10.7650  10.7650  14.0063  14.0065  14.6842

          k =-0.0000 0.2028 0.1964 (  6045 PWs)   bands (ev):

   -34.7571 -34.7161  -2.6449   2.9111   5.1957   5.3267   5.6685   6.4607
     7.1616   8.2791   9.4610   9.8685  10.1181  10.7253  13.0469

          k =-0.2535 0.2028 0.4419 (  6048 PWs)   bands (ev):

   -34.7412 -34.7315  -1.5979   0.9155   2.7120   4.4704   5.9123   7.7082
     8.4458   9.4379   9.7169  10.3933  12.2107  13.0567  14.3032

          k = 0.5070 0.2028-0.2946 (  6043 PWs)   bands (ev):

   -34.7499 -34.7227  -1.2983   0.5767   2.4611   4.1380   6.4328   7.1485
     8.0243   9.4738  10.6366  11.6561  12.7283  13.0589  14.1022

          k = 0.2535 0.2028-0.0491 (  6044 PWs)   bands (ev):

   -34.7607 -34.7124  -2.5417   3.4154   3.5799   4.6088   5.8462   7.5205
     7.6544   8.4718   8.7684   9.5784  10.7873  12.0567  13.7035

          k =-0.0000 0.4056 0.3928 (  6040 PWs)   bands (ev):

   -34.7442 -34.7285  -1.5150   0.3661   4.4542   4.5279   5.3832   5.6975
     8.2703   9.9466  10.1648  11.3478  12.5657  13.1758  13.7589

          k =-0.2535 0.4056 0.6384 (  6033 PWs)   bands (ev):

   -34.7463 -34.7262  -0.6581  -0.0455   1.9370   4.0383   6.5148   7.4881
     8.6988   8.9199  11.2398  11.7613  12.5984  13.6897  13.9187

          k = 0.5070 0.4056-0.0982 (  6038 PWs)   bands (ev):

   -34.7583 -34.7142  -1.4345   1.1264   2.2699   3.8631   5.3527   8.0031
     8.2968   9.4173  11.0021  11.7568  12.9719  13.4904  14.3752

          k = 0.2535 0.4056 0.1473 (  6032 PWs)   bands (ev):

   -34.7575 -34.7152  -1.9314   2.1072   2.3480   4.1731   5.9997   7.2890
     8.1906   9.4406   9.6457  11.2531  11.9455  13.0376  13.8028

          k = 0.2028-0.2028 0.0000 (  6051 PWs)   bands (ev):

   -34.7612 -34.7120  -2.6542   3.7178   3.9420   4.7459   5.9034   7.5859
     7.5867   8.2592   8.5172   9.1237  10.2743  11.6527  14.1054

          k =-0.0507-0.2028 0.2455 (  6039 PWs)   bands (ev):

   -34.7547 -34.7185  -2.5276   2.5727   4.5825   5.2860   5.6463   6.7531
     7.2867   8.5178   9.6436  10.0494  10.5569  11.3182  12.3067

          k = 0.7098-0.2028-0.4911 (  6042 PWs)   bands (ev):

   -34.7373 -34.7353  -1.2508   0.4292   2.5210   4.3232   5.9872   7.9659
     8.3132   9.0780  10.2024  10.9042  12.7913  13.4367  14.0697

          k = 0.4563-0.2028-0.2455 (  6044 PWs)   bands (ev):

   -34.7530 -34.7197  -1.6360   1.1327   2.5865   4.1876   6.5940   6.8065
     7.9814   9.7828   9.9653  11.3675  12.3498  13.3638  13.7416

          k =-0.0507 0.0000 0.4419 (  6025 PWs)   bands (ev):

   -34.7421 -34.7307  -2.0691   2.3709   3.2946   3.4229   6.2874   7.7467
     8.0228   8.8458   8.9417   9.9054  11.7479  12.4490  12.6032

          k = 0.7098-0.0000-0.2946 (  6037 PWs)   bands (ev):

   -34.7486 -34.7238  -0.3792  -0.3337   2.6839   3.8574   6.1440   6.9343
     7.2944   7.6357  12.3916  12.8675  13.3381  13.8553  14.0978

          k = 0.4563-0.0000-0.0491 (  6040 PWs)   bands (ev):

   -34.7596 -34.7131  -2.0695   2.0409   3.4145   4.8175   5.0052   6.8311
     7.2690   8.8302   9.5893  11.2951  11.9129  13.1765  14.2252

          k = 0.2028 0.2028 0.3928 (  6052 PWs)   bands (ev):

   -34.7450 -34.7279  -1.8993   1.3882   3.0046   4.6557   5.8377   7.5177
     8.3947   9.0380   9.8754  10.2662  11.6556  12.4223  13.7967

          k =-0.0507 0.2028 0.6384 (  6035 PWs)   bands (ev):

   -34.7450 -34.7273  -0.9005   0.4703   2.4598   3.5864   6.4997   6.6192
     7.2571   8.3382  11.0935  12.0626  13.5278  14.1330  14.8573

          k = 0.7098 0.2028-0.0982 (  6021 PWs)   bands (ev):

   -34.7571 -34.7150  -0.7798   0.9339   1.4503   4.5388   4.8092   6.5509
     7.3716   9.6143  10.8324  12.4930  13.9553  15.1736  15.6059

          k = 0.4563 0.2028 0.1473 (  6045 PWs)   bands (ev):

   -34.7573 -34.7154  -1.8312   1.7605   2.4052   4.6834   5.8209   6.4490
     8.2694   9.4507   9.6579  11.6522  12.2861  12.9642  14.4187

          k = 0.2028-0.6084-0.3928 (  6031 PWs)   bands (ev):

   -34.7429 -34.7296  -0.5000  -0.4222   2.3698   4.1502   6.1688   7.8926
     8.2541   8.6741  11.4361  11.8916  12.1854  13.7616  13.9440

          k =-0.0507-0.6084-0.1473 (  6023 PWs)   bands (ev):

   -34.7562 -34.7161  -1.2465   0.8627   2.6058   4.2527   5.0397   6.9463
     7.8688   8.0860  10.5437  12.6389  13.2541  15.1935  15.3342

          k = 0.7098-0.6084-0.8839 (  6033 PWs)   bands (ev):

   -34.7579 -34.7145  -1.2149   1.2410   1.5550   4.7298   5.2604   6.5289
     8.5055   8.6637  11.2439  12.8634  12.9833  14.3277  14.8861

          k = 0.4563-0.6084-0.6384 (  6050 PWs)   bands (ev):

   -34.7469 -34.7257  -0.9798   0.7422   1.7421   2.6627   8.0935   9.1067
     9.5422   9.8413  10.1413  11.3903  11.5487  12.0145  13.2308

          k = 0.2028-0.4056-0.1964 (  6049 PWs)   bands (ev):

   -34.7557 -34.7171  -1.9301   1.7178   2.7623   4.2689   6.4596   6.8231
     7.9502   9.3494   9.8993  10.9773  12.0847  13.0504  13.8304

          k =-0.0507-0.4056 0.0491 (  6039 PWs)   bands (ev):

   -34.7600 -34.7129  -2.2558   2.3574   3.5947   5.2264   5.2483   6.3045
     7.3735   8.5705  10.0213  10.8961  11.3580  12.3859  13.9283

          k = 0.7098-0.4056-0.6875 (  6045 PWs)   bands (ev):

   -34.7504 -34.7223  -1.5019   1.1625   2.3342   3.1667   7.5650   8.1614
     8.5823   9.4857   9.7482  11.2037  11.8812  12.5279  14.1438

          k = 0.4563-0.4056-0.4419 (  6042 PWs)   bands (ev):

   -34.7400 -34.7326  -0.5810   0.1495   2.0698   2.2213   8.9516   9.3831
     9.7939  10.1268  10.3067  10.8298  11.4653  11.7936  12.4487

          k = 0.4056-0.4056 0.0000 (  6020 PWs)   bands (ev):

   -34.7597 -34.7129  -1.7169   1.4228   2.8959   3.8682   5.0274   7.6762
     8.8353   8.8634  11.1359  11.3574  12.4091  13.2907  13.6635

          k = 0.1521-0.4056 0.2455 (  6044 PWs)   bands (ev):

   -34.7534 -34.7194  -1.8888   1.3399   3.2199   4.3709   6.3822   6.9369
     7.2626   9.7256  10.1254  10.8688  12.2008  13.1092  13.3097

          k = 0.9125-0.4056-0.4911 (  6040 PWs)   bands (ev):

   -34.7370 -34.7357  -1.0532  -0.1241   3.4234   4.4423   5.5857   6.6372
     8.6230   9.1590  10.6178  11.3287  13.1509  13.4293  14.1944

          k = 0.6591-0.4056-0.2455 (  6035 PWs)   bands (ev):

   -34.7524 -34.7201  -0.9565   0.8183   1.3238   3.9036   6.5412   7.2747
     8.8975   9.3910  11.1144  11.7847  12.6496  13.9840  14.0997

          k = 0.1521-0.2028 0.4419 (  6044 PWs)   bands (ev):

   -34.7415 -34.7312  -1.7838   1.2383   2.8935   5.0398   5.3892   7.2061
     8.2480   9.2338   9.6644  10.6779  12.1218  12.3065  14.0143

          k = 0.9125-0.2028-0.2946 (  6027 PWs)   bands (ev):

   -34.7481 -34.7241  -0.5810   0.2615   2.0913   3.7451   5.9922   6.6289
     7.1299   9.0295  10.8924  12.8131  13.3430  14.2713  15.0052

          k = 0.6591-0.2028-0.0491 (  6027 PWs)   bands (ev):

   -34.7583 -34.7140  -1.0499   1.2841   1.5161   4.4224   5.0987   6.3539
     7.7459   9.2011  10.5476  13.1480  13.5380  14.5815  15.5359

          k = 0.1521 0.0000 0.6384 (  6035 PWs)   bands (ev):

   -34.7448 -34.7275  -0.9999   0.8294   2.4752   3.1325   6.3192   6.4977
     7.8768   8.4230  11.0284  11.0831  13.7927  14.4999  14.9168

          k = 0.9125-0.0000-0.0982 (  6050 PWs)   bands (ev):

   -34.7560 -34.7158   0.2899   0.6099   1.8186   2.2522   4.1124   5.9108
     9.7869  10.1518  11.7055  12.1615  12.5666  13.5751  14.4824

          k = 0.6591 0.0000 0.1473 (  6019 PWs)   bands (ev):

   -34.7558 -34.7164  -0.9698   0.6535   2.5148   3.8438   4.8915   7.5088
     7.7506   7.7604  10.9352  12.7237  13.5900  14.9124  15.5762

          k = 0.1521-0.8111-0.1473 (  6018 PWs)   bands (ev):

   -34.7552 -34.7169  -0.1712   0.3362   1.5913   3.7766   4.6497   6.6106
     7.4922  10.2268  11.1081  11.9190  14.1017  14.3658  15.4223

          k = 0.9125-0.8111-0.8839 (  6030 PWs)   bands (ev):

   -34.7564 -34.7155  -0.1434   0.5063   1.6981   3.3536   4.2622   6.4461
     8.1615  10.0738  11.2444  12.1791  13.5938  14.1224  15.3915

          k = 0.6591-0.8111-0.6384 (  6026 PWs)   bands (ev):

   -34.7460 -34.7265  -0.4457  -0.3202   2.0584   4.6884   5.7128   7.2495
     8.0971   8.7249  11.2685  12.2768  12.8147  14.1674  14.3701

          k = 0.4056-0.6084-0.1964 (  6041 PWs)   bands (ev):

   -34.7548 -34.7177  -1.1120   1.1614   1.2951   3.8761   6.1131   7.6405
     8.8833   9.0688  11.7260  11.9472  12.0451  13.9196  14.1473

          k = 0.1521-0.6084 0.0491 (  6038 PWs)   bands (ev):

   -34.7585 -34.7138  -1.3088   1.3934   1.9480   4.5092   4.9387   6.4446
     8.1008   9.0643   9.7403  12.8478  13.5731  14.3751  15.3970

          k = 0.9125-0.6084-0.6875 (  6027 PWs)   bands (ev):

   -34.7493 -34.7232  -0.8992   0.0164   2.6682   4.8634   5.4866   6.6632
     7.6658   8.3149  11.8716  12.3189  13.2410  13.7375  14.7426

          k = 0.6591-0.6084-0.4419 (  6057 PWs)   bands (ev):

   -34.7402 -34.7324  -0.8388   0.2597   2.2958   2.5277   8.2934   9.1881
     9.4034   9.8623  10.0318  10.4267  11.7463  12.3534  13.0389

     the Fermi energy is    10.7473 ev

!    total energy              =     -62.38756570 Ry
     estimated scf accuracy    <          2.5E-10 Ry
     smearing contrib. (-TS)   =      -0.00035590 Ry
     internal energy E=F+TS    =     -62.38720980 Ry

     The total energy is F=E-TS. E is the sum of the following terms:
     one-electron contribution =       6.44579674 Ry
     hartree contribution      =       6.42519245 Ry
     xc contribution           =     -19.87745268 Ry
     ewald contribution        =     -55.38074631 Ry

     convergence has been achieved in   8 iterations

     Forces acting on atoms (cartesian axes, Ry/au):

     atom    1 type  1   force =     0.00000000    0.00000000   -0.00000000
     atom    2 type  1   force =    -0.00000000   -0.00000000    0.00000000
     atom    3 type  2   force =     0.03846654   -0.03846654    0.00000000
     atom    4 type  2   force =    -0.03846654    0.03846654   -0.00000000
     atom    5 type  2   force =     0.03846654    0.03846654   -0.00000000
     atom    6 type  2   force =    -0.03846654   -0.03846654    0.00000000
     The non-local contrib.  to forces
     atom    1 type  1   force =    -0.00000000    0.00000000    0.00000000
     atom    2 type  1   force =    -0.00000000    0.00000000    0.00000000
     atom    3 type  2   force =     0.06133415   -0.06133415    0.00000000
     atom    4 type  2   force =    -0.06133415    0.06133415   -0.00000000
     atom    5 type  2   force =     0.06133415    0.06133415   -0.00000000
     atom    6 type  2   force =    -0.06133415   -0.06133415    0.00000000
     The ionic contribution  to forces
     atom    1 type  1   force =    -0.00000000    0.00000000    0.00000000
     atom    2 type  1   force =    -0.00000000   -0.00000000   -0.00000000
     atom    3 type  2   force =    -0.00656772    0.00656772   -0.00000000
     atom    4 type  2   force =     0.00656772   -0.00656772    0.00000000
     atom    5 type  2   force =    -0.00656772   -0.00656772    0.00000000
     atom    6 type  2   force =     0.00656772    0.00656772    0.00000000
     The local contribution  to forces
     atom    1 type  1   force =    -0.00000000   -0.00000000   -0.00000000
     atom    2 type  1   force =    -0.00000000   -0.00000000   -0.00000000
     atom    3 type  2   force =    -0.01125645    0.01125645   -0.00000000
     atom    4 type  2   force =     0.01125645   -0.01125645    0.00000000
     atom    5 type  2   force =    -0.01125645   -0.01125645   -0.00000000
     atom    6 type  2   force =     0.01125645    0.01125645    0.00000000
     The core correction contribution to forces
     atom    1 type  1   force =     0.00000000    0.00000000    0.00000000
     atom    2 type  1   force =     0.00000000    0.00000000    0.00000000
     atom    3 type  2   force =    -0.00503969    0.00503969   -0.00000000
     atom    4 type  2   force =     0.00503969   -0.00503969    0.00000000
     atom    5 type  2   force =    -0.00503969   -0.00503969   -0.00000000
     atom    6 type  2   force =     0.00503969    0.00503969   -0.00000000
     The Hubbard contrib.    to forces
     atom    1 type  1   force =     0.00000000    0.00000000    0.00000000
     atom    2 type  1   force =     0.00000000    0.00000000    0.00000000
     atom    3 type  2   force =     0.00000000    0.00000000    0.00000000
     atom    4 type  2   force =     0.00000000    0.00000000    0.00000000
     atom    5 type  2   force =     0.00000000    0.00000000    0.00000000
     atom    6 type  2   force =     0.00000000    0.00000000    0.00000000
     The SCF correction term to forces
     atom    1 type  1   force =     0.00000000   -0.00000000   -0.00000000
     atom    2 type  1   force =     0.00000000    0.00000000    0.00000000
     atom    3 type  2   force =    -0.00000375    0.00000375   -0.00000000
     atom    4 type  2   force =     0.00000375   -0.00000375    0.00000000
     atom    5 type  2   force =    -0.00000375   -0.00000375    0.00000000
     atom    6 type  2   force =     0.00000375    0.00000375   -0.00000000

     Total force =     0.108800     Total SCF correction =     0.000011


     Computing stress (Cartesian axis) and pressure

          total   stress  (Ry/bohr**3)                   (kbar)     P=      317.22
   0.00262047  -0.00000000  -0.00000000          385.49       -0.00       -0.00
  -0.00000000   0.00262047   0.00000000           -0.00      385.49        0.00
  -0.00000000   0.00000000   0.00122823           -0.00        0.00      180.68

     Energy error            =      2.4E-01 Ry
     Gradient error          =      3.8E-02 Ry/Bohr
     Cell gradient error     =      3.2E+02 kbar

     number of scf cycles    =   2
     number of bfgs steps    =   1

     enthalpy           old  =     -60.6222285072 Ry
     enthalpy           new  =     -60.8663527229 Ry

     CASE: enthalpy          _new < enthalpy          _old

     new trust radius        =       0.4652610726 bohr
ibrav =      7
 celldm(1) =      9.22840561
 celldm(3) =      0.94945933
Input lattice vectors:
     0.47724859    -0.47724859     0.45312813
     0.47724859     0.47724859     0.45312813
    -0.47724859    -0.47724859     0.45312813
New lattice vectors in INITIAL alat:
     0.47724859    -0.47724859     0.45312813
     0.47724859     0.47724859     0.45312813
    -0.47724859    -0.47724859     0.45312813
New lattice vectors in NEW alat (for information only):
     0.50000000    -0.50000000     0.47472967
     0.50000000     0.50000000     0.47472967
    -0.50000000    -0.50000000     0.47472967
Discrepancy in bohr =     0.000000    0.000000    0.000000
     new conv_thr            =       0.0000000038 Ry

     new unit-cell volume =    373.10098 a.u.^3 (    55.28786 Ang^3 )
     density =      3.79107 g/cm^3

CELL_PARAMETERS (alat=  9.66834238)
   0.477248594  -0.477248594   0.453128131
   0.477248594   0.477248594   0.453128131
  -0.477248594  -0.477248594   0.453128131

ATOMIC_POSITIONS (crystal)
Li            0.0000000000        0.2500000000        0.2500000000
Li            0.0000000000        0.7500000000        0.7500000000
Si           -0.1715851147        0.3357925574       -0.1642074426
Si            0.1715851147        0.6642074426       -0.8357925574
Si            0.5000000000        0.1642074426       -0.6642074426
Si           -0.5000000000        0.8357925574       -0.3357925574



     Writing config-only to output data dir ./output/LiSi.save/
     NEW-OLD atomic charge density approx. for the potential
     extrapolated charge   17.61203, renormalised to   22.00000

     total cpu time spent up to now is       31.2 secs

     Self-consistent Calculation

     iteration #  1     ecut=    80.00 Ry     beta= 0.70
     Davidson diagonalization with overlap
     c_bands:  1 eigenvalues not converged
     c_bands:  1 eigenvalues not converged
     c_bands:  1 eigenvalues not converged
     c_bands:  1 eigenvalues not converged
     c_bands:  1 eigenvalues not converged
     c_bands:  1 eigenvalues not converged
     c_bands:  1 eigenvalues not converged
     c_bands:  1 eigenvalues not converged
     c_bands:  2 eigenvalues not converged
     c_bands:  1 eigenvalues not converged
     c_bands:  1 eigenvalues not converged
     c_bands:  1 eigenvalues not converged
     c_bands:  1 eigenvalues not converged
     ethr =  1.00E-06,  avg # of iterations = 16.0

     total cpu time spent up to now is       35.3 secs

     total energy              =     -62.08445088 Ry
     estimated scf accuracy    <       0.05476163 Ry

     iteration #  2     ecut=    80.00 Ry     beta= 0.70
     Davidson diagonalization with overlap
     ethr =  2.49E-04,  avg # of iterations =  3.4

     total cpu time spent up to now is       36.7 secs

     total energy              =     -62.20197706 Ry
     estimated scf accuracy    <       0.09656890 Ry

     iteration #  3     ecut=    80.00 Ry     beta= 0.70
     Davidson diagonalization with overlap
     ethr =  2.49E-04,  avg # of iterations =  1.6

     total cpu time spent up to now is       37.7 secs

     total energy              =     -62.19604644 Ry
     estimated scf accuracy    <       0.02171585 Ry

     iteration #  4     ecut=    80.00 Ry     beta= 0.70
     Davidson diagonalization with overlap
     ethr =  9.87E-05,  avg # of iterations =  2.0

     total cpu time spent up to now is       38.8 secs

     total energy              =     -62.19851568 Ry
     estimated scf accuracy    <       0.00109537 Ry

     iteration #  5     ecut=    80.00 Ry     beta= 0.70
     Davidson diagonalization with overlap
     ethr =  4.98E-06,  avg # of iterations =  4.3

     total cpu time spent up to now is       40.1 secs

     total energy              =     -62.19885036 Ry
     estimated scf accuracy    <       0.00000253 Ry

     iteration #  6     ecut=    80.00 Ry     beta= 0.70
     Davidson diagonalization with overlap
     ethr =  1.15E-08,  avg # of iterations =  5.2

     total cpu time spent up to now is       41.7 secs

     total energy              =     -62.19885686 Ry
     estimated scf accuracy    <       0.00000040 Ry

     iteration #  7     ecut=    80.00 Ry     beta= 0.70
     Davidson diagonalization with overlap
     ethr =  1.83E-09,  avg # of iterations =  2.1

     total cpu time spent up to now is       42.9 secs

     total energy              =     -62.19885697 Ry
     estimated scf accuracy    <       0.00000003 Ry

     iteration #  8     ecut=    80.00 Ry     beta= 0.70
     Davidson diagonalization with overlap
     ethr =  1.53E-10,  avg # of iterations =  2.1

     total cpu time spent up to now is       44.0 secs

     End of self-consistent calculation

          k = 0.0000 0.0000 0.0000 (  6043 PWs)   bands (ev):

   -32.5203 -32.3765  -1.7322   7.9986   8.3579   8.3579   8.8314   9.1504
     9.1504   9.6068   9.8814   9.8814  10.1227  11.5427  17.2661

          k =-0.2619 0.0000 0.2759 (  6036 PWs)   bands (ev):

   -32.4987 -32.3971  -1.0566   4.4523   6.4881   6.8294   7.9782   8.1080
     9.6496  11.5318  12.6326  12.7212  13.3080  15.0211  16.1949

          k = 0.5238-0.0000-0.5517 (  6048 PWs)   bands (ev):

   -32.4474 -32.4474   0.9969   0.9969   5.9185   5.9185   7.6441   7.6441
    11.6746  11.6746  13.9958  13.9958  17.2092  17.2093  17.6771

          k =-0.0000 0.2095 0.2207 (  6045 PWs)   bands (ev):

   -32.5062 -32.3899  -1.3004   5.3018   6.7737   7.1779   8.1571   8.2673
     9.3926  11.0009  11.8761  12.3841  12.4697  13.9630  16.9094

          k =-0.2619 0.2095 0.4965 (  6048 PWs)   bands (ev):

   -32.4604 -32.4347  -0.0233   2.7276   4.3905   6.1062   8.0862   9.5633
    10.2965  11.7582  13.3730  14.3096  15.3488  15.6850  16.9698

          k = 0.5238 0.2095-0.3310 (  6043 PWs)   bands (ev):

   -32.4872 -32.4073   0.1348   2.6105   3.9293   6.1259   8.3249   9.8902
    10.5767  11.2647  13.4816  14.3054  15.2116  16.9924  17.4247

          k = 0.2619 0.2095-0.0552 (  6044 PWs)   bands (ev):

   -32.5172 -32.3785  -1.2467   4.9796   6.4653   7.1278   7.9465   9.0714
     9.3981  10.9198  11.8637  12.5123  13.3054  14.0471  15.7720

          k =-0.0000 0.4191 0.4414 (  6040 PWs)   bands (ev):

   -32.4697 -32.4253   0.0072   2.2127   5.9695   6.1071   7.6676   7.7502
    10.7370  12.6026  13.0695  14.7631  15.3176  16.1901  17.3543

          k =-0.2619 0.4191 0.7172 (  6033 PWs)   bands (ev):

   -32.4772 -32.4172   0.8361   1.8688   3.4336   5.9539   8.4827  10.3708
    10.5605  11.3336  13.7156  14.6953  16.1959  16.7552  16.8731

          k = 0.5238 0.4191-0.1103 (  6038 PWs)   bands (ev):

   -32.5117 -32.3825  -0.1259   2.5202   4.9605   6.2663   7.7624   9.9279
    10.2694  10.9942  13.0195  15.0950  15.5862  15.9423  17.6266

          k = 0.2619 0.4191 0.1655 (  6032 PWs)   bands (ev):

   -32.5088 -32.3860  -0.6037   3.7582   4.5963   6.4678   8.5491   9.1028
    10.2445  11.5348  12.4660  13.7562  14.3876  15.9303  16.2308

          k = 0.2095-0.2095 0.0000 (  6051 PWs)   bands (ev):

   -32.5185 -32.3774  -1.3634   5.3404   7.1082   7.2715   7.7241   9.0492
     9.2728  10.7345  11.9276  12.0482  12.4728  13.6593  16.1648

          k =-0.0524-0.2095 0.2759 (  6039 PWs)   bands (ev):

   -32.4992 -32.3968  -1.1522   4.8274   6.5566   6.7478   8.0486   8.5050
     9.3910  11.2693  12.0080  12.7541  13.1971  14.7248  16.4470

          k = 0.7334-0.2095-0.5517 (  6042 PWs)   bands (ev):

   -32.4493 -32.4455   0.3944   2.1425   4.1463   6.0178   8.0970   9.7950
    10.3291  12.3302  12.7473  14.9422  15.7714  16.3176  17.0141

          k = 0.4715-0.2095-0.2759 (  6044 PWs)   bands (ev):

   -32.4959 -32.3988  -0.2474   3.2979   4.0307   6.2674   8.4412   9.5601
    10.4126  11.5892  12.7752  14.0387  14.6751  16.8613  17.1022

          k =-0.0524 0.0000 0.4965 (  6025 PWs)   bands (ev):

   -32.4622 -32.4331  -0.5026   4.3914   4.8512   5.2019   8.2371   9.5145
     9.8101  10.7177  11.8515  13.4373  15.8854  16.2895  16.6201

          k = 0.7334-0.0000-0.3310 (  6037 PWs)   bands (ev):

   -32.4845 -32.4092   1.1450   1.6251   3.9740   5.6801   8.7143   8.8411
     9.1902  10.4279  15.1007  15.4909  16.8624  17.0205  18.5067

          k = 0.4715-0.0000-0.0552 (  6040 PWs)   bands (ev):

   -32.5150 -32.3796  -0.7635   4.6497   4.8747   6.6019   6.9083   9.8123
     9.9021  11.0369  11.5897  13.6970  15.1476  15.2863  16.7644

          k = 0.2095 0.2095 0.4414 (  6052 PWs)   bands (ev):

   -32.4712 -32.4241  -0.3866   3.3080   4.7447   6.2362   8.0777   9.4015
    10.0744  11.3538  13.6129  14.1272  14.6946  15.0881  17.1329

          k =-0.0524 0.2095 0.7172 (  6035 PWs)   bands (ev):

   -32.4746 -32.4192   0.9917   2.0392   3.8072   5.3361   8.4048   8.9919
     9.6187  10.8468  13.5861  14.5609  17.8909  18.2981  18.7398

          k = 0.7334 0.2095-0.1103 (  6021 PWs)   bands (ev):

   -32.5093 -32.3838   0.5743   2.7535   3.5324   6.4536   6.6004   8.9802
     9.4639  11.7442  13.9800  15.7805  16.7390  17.8082  18.5605

          k = 0.4715 0.2095 0.1655 (  6045 PWs)   bands (ev):

   -32.5083 -32.3862  -0.4994   3.7958   4.2258   6.9154   8.1063   8.5848
    10.4591  11.3638  12.5084  14.2288  14.7081  16.0562  16.7455

          k = 0.2095-0.6286-0.4414 (  6031 PWs)   bands (ev):

   -32.4673 -32.4273   1.0512   1.3939   3.9051   5.9782   8.1640  10.1560
    10.5271  11.3937  13.7581  15.1031  16.0353  16.7151  17.2163

          k =-0.0524-0.6286-0.1655 (  6023 PWs)   bands (ev):

   -32.5062 -32.3874   0.1089   3.2909   3.8557   6.0242   7.2759   9.4107
     9.8296  10.5872  13.4563  15.2531  16.2950  17.5819  18.8084

          k = 0.7334-0.6286-0.9931 (  6033 PWs)   bands (ev):

   -32.5108 -32.3830   0.1088   2.6042   4.1834   6.8008   7.7569   8.6599
    10.0539  10.7039  14.4238  15.2934  16.1411  16.9509  17.1105

          k = 0.4715-0.6286-0.7172 (  6050 PWs)   bands (ev):

   -32.4784 -32.4163   0.4943   2.6895   3.2766   4.5602  11.0142  11.3409
    11.8133  11.8951  12.9653  13.4159  13.8823  14.9119  16.1055

          k = 0.2095-0.4191-0.2207 (  6049 PWs)   bands (ev):

   -32.5034 -32.3915  -0.5771   4.0335   4.1903   6.4494   8.5688   9.1962
    10.2659  11.7422  12.1939  13.6636  14.3532  16.3232  16.4095

          k =-0.0524-0.4191 0.0552 (  6039 PWs)   bands (ev):

   -32.5158 -32.3792  -0.9540   4.8787   5.2142   6.9781   7.1410   9.2412
     9.8957  11.0906  11.8794  13.3293  14.3448  14.6300  16.3837

          k = 0.7334-0.4191-0.7724 (  6045 PWs)   bands (ev):

   -32.4881 -32.4068  -0.0781   3.2273   3.8341   5.1476   9.9517  10.6203
    10.8050  11.7553  12.2624  13.7227  14.3141  15.5334  17.5641

          k = 0.4715-0.4191-0.4965 (  6042 PWs)   bands (ev):

   -32.4582 -32.4366   1.0127   1.9052   3.7027   3.9670  11.4933  11.5718
    12.0436  12.1962  13.6463  13.8620  14.0703  14.2271  15.4056

          k = 0.4191-0.4191 0.0000 (  6020 PWs)   bands (ev):

   -32.5155 -32.3789  -0.4235   2.8094   6.2316   6.3761   6.8149   9.4767
    10.3290  11.0466  12.9215  14.9779  15.5656  15.6285  16.1230

          k = 0.1572-0.4191 0.2759 (  6044 PWs)   bands (ev):

   -32.4966 -32.3984  -0.5038   3.5145   4.6606   6.4335   8.2174   9.3849
     9.9710  11.9681  12.4449  13.7506  14.4913  16.5164  16.6956

          k = 0.9429-0.4191-0.5517 (  6040 PWs)   bands (ev):

   -32.4486 -32.4463   0.5982   1.5595   5.0379   6.0812   7.6929   8.6794
    10.6486  12.4623  13.7098  14.3880  15.6579  16.9920  17.4095

          k = 0.6810-0.4191-0.2759 (  6035 PWs)   bands (ev):

   -32.4946 -32.3996   0.4407   2.7620   2.9699   6.0003   9.1198   9.5680
    10.4659  11.8333  13.6463  14.7798  14.9920  16.3186  16.9340

          k = 0.1572-0.2095 0.4965 (  6044 PWs)   bands (ev):

   -32.4610 -32.4341  -0.2125   3.0766   4.5422   6.6654   7.5337   9.0809
    10.0785  11.6015  13.2790  14.2580  14.7940  15.9316  17.7954

          k = 0.9429-0.2095-0.3310 (  6027 PWs)   bands (ev):

   -32.4837 -32.4098   1.4180   1.7813   3.4255   5.4315   8.3871   8.5491
     9.5613  11.4362  13.4479  15.3988  16.9829  18.7279  19.0638

          k = 0.6810-0.2095-0.0552 (  6027 PWs)   bands (ev):

   -32.5123 -32.3809   0.2810   2.8260   4.0671   6.3031   6.7682   9.2518
     9.5145  11.1056  13.9463  15.8427  16.7904  17.0284  18.4545

          k = 0.1572-0.0000 0.7172 (  6035 PWs)   bands (ev):

   -32.4742 -32.4195   0.8900   2.4304   3.7889   4.8486   8.1394   9.2939
     9.9093  10.9050  13.2970  13.8381  18.3961  18.6686  19.0755

          k = 0.9429-0.0000-0.1103 (  6050 PWs)   bands (ev):

   -32.5069 -32.3851   2.0895   2.8601   2.9711   3.7420   6.1594   7.6918
    12.8063  12.8768  14.6235  14.6695  15.8560  16.4176  17.6679

          k = 0.6810-0.0000 0.1655 (  6019 PWs)   bands (ev):

   -32.5054 -32.3879   0.3973   3.0748   3.7225   5.6220   7.1308   9.1753
    10.1260  10.6851  13.8592  15.3256  16.6610  18.0665  19.3057

          k = 0.1572-0.8381-0.1655 (  6018 PWs)   bands (ev):

   -32.5041 -32.3886   1.2423   2.7471   2.8533   5.3804   6.8819   8.3134
    10.1945  12.7641  13.6653  15.4420  16.8900  17.4113  19.2063

          k = 0.9429-0.8381-0.9931 (  6030 PWs)   bands (ev):

   -32.5078 -32.3846   1.2580   2.9194   3.0860   4.9384   6.3123   8.1571
    11.0456  12.6448  13.9852  15.4176  16.4001  17.1532  18.8858

          k = 0.6810-0.8381-0.7172 (  6026 PWs)   bands (ev):

   -32.4765 -32.4177   1.0617   1.5864   3.5289   6.5503   7.7162   9.8125
    10.2046  11.1749  13.6952  15.4235  17.0167  17.3048  17.3833

          k = 0.4191-0.6286-0.2207 (  6041 PWs)   bands (ev):

   -32.5016 -32.3925   0.2470   2.5800   3.5928   6.0699   8.8327   9.6920
    10.5649  11.1918  14.2502  14.3643  15.1017  16.0050  17.0473

          k = 0.1572-0.6286 0.0552 (  6038 PWs)   bands (ev):

   -32.5128 -32.3807   0.0152   3.2505   4.1833   6.3928   6.6274   9.4018
     9.8052  10.9875  13.0865  15.2720  16.7259  17.0404  18.4199

          k = 0.9429-0.6286-0.7724 (  6027 PWs)   bands (ev):

   -32.4859 -32.4083   0.5521   2.0317   4.0595   6.6083   7.6567   9.2253
    10.0692  10.3935  14.8342  14.9866  16.8946  17.4064  17.6207

          k = 0.6810-0.6286-0.4965 (  6057 PWs)   bands (ev):

   -32.4586 -32.4362   0.7497   2.0232   4.0323   4.1683  10.6371  11.1640
    11.4225  12.1476  13.7209  13.7736  14.4665  14.7602  16.1719

     the Fermi energy is    13.6052 ev

!    total energy              =     -62.19885698 Ry
     estimated scf accuracy    <          2.3E-11 Ry
     smearing contrib. (-TS)   =      -0.00136280 Ry
     internal energy E=F+TS    =     -62.19749418 Ry

     The total energy is F=E-TS. E is the sum of the following terms:
     one-electron contribution =      10.83419163 Ry
     hartree contribution      =       6.32689512 Ry
     xc contribution           =     -20.47231500 Ry
     ewald contribution        =     -58.88626592 Ry

     convergence has been achieved in   8 iterations

     Forces acting on atoms (cartesian axes, Ry/au):

     atom    1 type  1   force =     0.00000000    0.00000000   -0.00000000
     atom    2 type  1   force =    -0.00000000   -0.00000000    0.00000000
     atom    3 type  2   force =     0.00452539   -0.00452539    0.00000000
     atom    4 type  2   force =    -0.00452539    0.00452539   -0.00000000
     atom    5 type  2   force =     0.00452539    0.00452539   -0.00000000
     atom    6 type  2   force =    -0.00452539   -0.00452539    0.00000000
     The non-local contrib.  to forces
     atom    1 type  1   force =    -0.00000000    0.00000000    0.00000000
     atom    2 type  1   force =     0.00000000   -0.00000000   -0.00000000
     atom    3 type  2   force =     0.02038135   -0.02038135    0.00000000
     atom    4 type  2   force =    -0.02038135    0.02038135   -0.00000000
     atom    5 type  2   force =     0.02038135    0.02038135    0.00000000
     atom    6 type  2   force =    -0.02038135   -0.02038135    0.00000000
     The ionic contribution  to forces
     atom    1 type  1   force =    -0.00000000   -0.00000000    0.00000000
     atom    2 type  1   force =     0.00000000    0.00000000    0.00000000
     atom    3 type  2   force =    -0.21526668    0.21526668    0.00000000
     atom    4 type  2   force =     0.21526668   -0.21526668   -0.00000000
     atom    5 type  2   force =    -0.21526668   -0.21526668   -0.00000000
     atom    6 type  2   force =     0.21526668    0.21526668   -0.00000000
     The local contribution  to forces
     atom    1 type  1   force =    -0.00000000   -0.00000000   -0.00000000
     atom    2 type  1   force =    -0.00000000   -0.00000000   -0.00000000
     atom    3 type  2   force =     0.20106937   -0.20106937    0.00000000
     atom    4 type  2   force =    -0.20106937    0.20106937   -0.00000000
     atom    5 type  2   force =     0.20106937    0.20106937   -0.00000000
     atom    6 type  2   force =    -0.20106937   -0.20106937   -0.00000000
     The core correction contribution to forces
     atom    1 type  1   force =     0.00000000    0.00000000    0.00000000
     atom    2 type  1   force =     0.00000000    0.00000000    0.00000000
     atom    3 type  2   force =    -0.00165935    0.00165935    0.00000000
     atom    4 type  2   force =     0.00165935   -0.00165935   -0.00000000
     atom    5 type  2   force =    -0.00165935   -0.00165935   -0.00000000
     atom    6 type  2   force =     0.00165935    0.00165935    0.00000000
     The Hubbard contrib.    to forces
     atom    1 type  1   force =     0.00000000    0.00000000    0.00000000
     atom    2 type  1   force =     0.00000000    0.00000000    0.00000000
     atom    3 type  2   force =     0.00000000    0.00000000    0.00000000
     atom    4 type  2   force =     0.00000000    0.00000000    0.00000000
     atom    5 type  2   force =     0.00000000    0.00000000    0.00000000
     atom    6 type  2   force =     0.00000000    0.00000000    0.00000000
     The SCF correction term to forces
     atom    1 type  1   force =     0.00000000   -0.00000000    0.00000000
     atom    2 type  1   force =    -0.00000000   -0.00000000    0.00000000
     atom    3 type  2   force =     0.00000069   -0.00000069    0.00000000
     atom    4 type  2   force =    -0.00000069    0.00000069    0.00000000
     atom    5 type  2   force =     0.00000069    0.00000069   -0.00000000
     atom    6 type  2   force =    -0.00000069   -0.00000069   -0.00000000

     Total force =     0.012800     Total SCF correction =     0.000002


     Computing stress (Cartesian axis) and pressure

          total   stress  (Ry/bohr**3)                   (kbar)     P=      666.54
   0.00500751   0.00000000   0.00000000          736.63        0.00        0.00
   0.00000000   0.00500751  -0.00000000            0.00      736.63       -0.00
   0.00000000  -0.00000000   0.00357822            0.00       -0.00      526.37

     Energy error            =      6.4E-02 Ry
     Gradient error          =      4.5E-03 Ry/Bohr
     Cell gradient error     =      2.4E+02 kbar

     number of scf cycles    =   3
     number of bfgs steps    =   2

     enthalpy           old  =     -60.8663527229 Ry
     enthalpy           new  =     -60.9307125038 Ry

     CASE: enthalpy          _new < enthalpy          _old

     new trust radius        =       0.0922517867 bohr
ibrav =      7
 celldm(1) =      9.44877856
 celldm(3) =      0.92751833
Input lattice vectors:
     0.48864522    -0.48864522     0.45322740
     0.48864522     0.48864522     0.45322740
    -0.48864522    -0.48864522     0.45322740
New lattice vectors in INITIAL alat:
     0.48864522    -0.48864522     0.45322740
     0.48864522     0.48864522     0.45322740
    -0.48864522    -0.48864522     0.45322740
New lattice vectors in NEW alat (for information only):
     0.50000000    -0.50000000     0.46375916
     0.50000000     0.50000000     0.46375916
    -0.50000000    -0.50000000     0.46375916
Discrepancy in bohr =     0.000000    0.000000    0.000000
     new conv_thr            =       0.0000000005 Ry

     new unit-cell volume =    391.21862 a.u.^3 (    57.97262 Ang^3 )
     density =      3.61550 g/cm^3

CELL_PARAMETERS (alat=  9.66834238)
   0.488645219  -0.488645219   0.453227397
   0.488645219   0.488645219   0.453227397
  -0.488645219  -0.488645219   0.453227397

ATOMIC_POSITIONS (crystal)
Li           -0.0000000000        0.2500000000        0.2500000000
Li           -0.0000000000        0.7500000000        0.7500000000
Si           -0.1716345413        0.3358172707       -0.1641827293
Si            0.1716345413        0.6641827293       -0.8358172707
Si            0.5000000000        0.1641827293       -0.6641827293
Si           -0.5000000000        0.8358172707       -0.3358172707



     Writing config-only to output data dir ./output/LiSi.save/
     NEW-OLD atomic charge density approx. for the potential
     extrapolated charge   23.01830, renormalised to   22.00000

     total cpu time spent up to now is       47.1 secs

     Self-consistent Calculation

     iteration #  1     ecut=    80.00 Ry     beta= 0.70
     Davidson diagonalization with overlap
     c_bands:  1 eigenvalues not converged
     c_bands:  1 eigenvalues not converged
     ethr =  1.00E-06,  avg # of iterations = 11.1

     total cpu time spent up to now is       50.0 secs

     total energy              =     -62.27504381 Ry
     estimated scf accuracy    <       0.00131607 Ry

     iteration #  2     ecut=    80.00 Ry     beta= 0.70
     Davidson diagonalization with overlap
     ethr =  5.98E-06,  avg # of iterations =  4.1

     total cpu time spent up to now is       51.6 secs

     total energy              =     -62.28024034 Ry
     estimated scf accuracy    <       0.00385890 Ry

     iteration #  3     ecut=    80.00 Ry     beta= 0.70
     Davidson diagonalization with overlap
     ethr =  5.98E-06,  avg # of iterations =  2.0

     total cpu time spent up to now is       52.6 secs

     total energy              =     -62.27995541 Ry
     estimated scf accuracy    <       0.00114500 Ry

     iteration #  4     ecut=    80.00 Ry     beta= 0.70
     Davidson diagonalization with overlap
     ethr =  5.20E-06,  avg # of iterations =  1.5

     total cpu time spent up to now is       53.6 secs

     total energy              =     -62.27989249 Ry
     estimated scf accuracy    <       0.00024925 Ry

     iteration #  5     ecut=    80.00 Ry     beta= 0.70
     Davidson diagonalization with overlap
     ethr =  1.13E-06,  avg # of iterations =  2.5

     total cpu time spent up to now is       54.7 secs

     total energy              =     -62.27992865 Ry
     estimated scf accuracy    <       0.00000869 Ry

     iteration #  6     ecut=    80.00 Ry     beta= 0.70
     Davidson diagonalization with overlap
     ethr =  3.95E-08,  avg # of iterations =  4.1

     total cpu time spent up to now is       56.0 secs

     total energy              =     -62.27993336 Ry
     estimated scf accuracy    <       0.00000010 Ry

     iteration #  7     ecut=    80.00 Ry     beta= 0.70
     Davidson diagonalization with overlap
     ethr =  4.75E-10,  avg # of iterations =  3.9

     total cpu time spent up to now is       57.3 secs

     total energy              =     -62.27993336 Ry
     estimated scf accuracy    <       0.00000021 Ry

     iteration #  8     ecut=    80.00 Ry     beta= 0.70
     Davidson diagonalization with overlap
     ethr =  4.75E-10,  avg # of iterations =  2.2

     total cpu time spent up to now is       58.5 secs

     total energy              =     -62.27993341 Ry
     estimated scf accuracy    <          2.0E-09 Ry

     iteration #  9     ecut=    80.00 Ry     beta= 0.70
     Davidson diagonalization with overlap
     ethr =  9.08E-12,  avg # of iterations =  3.4

     total cpu time spent up to now is       59.7 secs

     End of self-consistent calculation

          k = 0.0000 0.0000 0.0000 (  6043 PWs)   bands (ev):

   -33.0982 -32.9610  -2.0635   7.5584   7.7631   7.7631   8.4996   8.6331
     8.6331   8.6542   9.2203   9.2203   9.6174  10.7678  16.4669

          k =-0.2558 0.0000 0.2758 (  6036 PWs)   bands (ev):

   -33.0777 -32.9808  -1.3936   4.0496   5.8685   6.3203   7.4224   7.4454
     9.1661  11.0149  11.6565  11.8893  12.7640  14.3906  15.4474

          k = 0.5116-0.0000-0.5516 (  6048 PWs)   bands (ev):

   -33.0289 -33.0289   0.6378   0.6378   5.3542   5.3542   7.0432   7.0432
    11.0185  11.0185  13.5214  13.5214  16.1692  16.1692  16.8545

          k =-0.0000 0.2046 0.2206 (  6045 PWs)   bands (ev):

   -33.0848 -32.9739  -1.6353   4.8895   6.1472   6.6798   7.5662   7.6330
     8.9251  10.4293  10.9809  11.5906  11.8985  13.3509  16.0214

          k =-0.2558 0.2046 0.4964 (  6048 PWs)   bands (ev):

   -33.0409 -33.0170  -0.3570   2.3166   3.9020   5.5509   7.4040   9.0123
     9.5732  10.9799  12.9990  13.8659  14.3995  15.1323  15.9325

          k = 0.5116 0.2046-0.3310 (  6043 PWs)   bands (ev):

   -33.0673 -32.9902  -0.2362   2.2616   3.3916   5.6612   7.6244   9.4381
    10.0250  10.4948  12.8155  13.6074  14.2451  16.2261  16.6204

          k = 0.2558 0.2046-0.0552 (  6044 PWs)   bands (ev):

   -33.0957 -32.9626  -1.5934   4.3786   6.0901   6.7816   7.5411   8.3447
     8.8719  10.0356  11.2108  11.8986  12.6488  13.0580  14.6992

          k =-0.0000 0.4093 0.4413 (  6040 PWs)   bands (ev):

   -33.0501 -33.0078  -0.3406   1.8386   5.3817   5.5654   7.0980   7.1155
    10.1720  11.8238  12.5679  14.2452  14.3411  15.6198  16.2406

          k =-0.2558 0.4093 0.7171 (  6033 PWs)   bands (ev):

   -33.0579 -32.9995   0.4496   1.5290   2.9238   5.4742   7.7658   9.7239
    10.1025  10.6942  12.9744  13.9949  15.2472  15.9704  16.1377

          k = 0.5116 0.4093-0.1103 (  6038 PWs)   bands (ev):

   -33.0910 -32.9662  -0.5029   2.0050   4.6156   5.9254   7.3917   9.3401
     9.4949  10.1837  12.0980  14.3203  14.6553  15.1285  16.7531

          k = 0.2558 0.4093 0.1655 (  6032 PWs)   bands (ev):

   -33.0879 -32.9697  -0.9661   3.2063   4.2388   6.0817   8.1308   8.3899
     9.7396  10.6764  11.7782  12.9283  13.5171  14.9389  15.4581

          k = 0.2046-0.2046 0.0000 (  6051 PWs)   bands (ev):

   -33.0968 -32.9617  -1.7070   4.7266   6.7314   6.9500   7.2940   8.3324
     8.7348   9.8424  11.2732  11.4571  11.8363  12.6973  15.0731

          k =-0.0512-0.2046 0.2758 (  6039 PWs)   bands (ev):

   -33.0781 -32.9806  -1.4859   4.4090   6.0606   6.1398   7.4601   7.8132
     8.9117  10.5666  11.3275  11.8964  12.6429  14.1162  15.8366

          k = 0.7163-0.2046-0.5516 (  6042 PWs)   bands (ev):

   -33.0303 -33.0275   0.0593   1.7399   3.6504   5.4789   7.4113   9.2063
     9.6187  11.6227  12.2918  14.4977  14.8467  15.7169  16.0319

          k = 0.4605-0.2046-0.2758 (  6044 PWs)   bands (ev):

   -33.0756 -32.9820  -0.6123   2.9437   3.4808   5.8236   7.7385   9.1579
     9.8344  10.7878  12.1348  13.3179  13.7059  15.8603  16.3685

          k =-0.0512 0.0000 0.4964 (  6025 PWs)   bands (ev):

   -33.0422 -33.0159  -0.8185   3.9136   4.3259   4.6948   7.7511   8.7465
     9.1132   9.8542  11.3127  12.9544  15.3737  15.7507  16.0760

          k = 0.7163-0.0000-0.3310 (  6037 PWs)   bands (ev):

   -33.0653 -32.9916   0.7330   1.3178   3.4223   5.1167   8.2270   8.3807
     8.4743   9.8522  14.3231  14.6029  16.1084  16.2445  18.0275

          k = 0.4605-0.0000-0.0552 (  6040 PWs)   bands (ev):

   -33.0940 -32.9634  -1.1280   4.0480   4.5814   5.9983   6.5209   9.3168
     9.3574  10.3828  10.8137  13.0017  14.0322  14.5369  15.7480

          k = 0.2046 0.2046 0.4413 (  6052 PWs)   bands (ev):

   -33.0513 -33.0069  -0.7194   2.8900   4.2610   5.6657   7.4033   8.8846
     9.3507  10.5583  13.1823  13.5841  13.9278  14.5312  16.0619

          k =-0.0512 0.2046 0.7171 (  6035 PWs)   bands (ev):

   -33.0560 -33.0010   0.6877   1.6015   3.2733   4.7805   7.8230   8.4214
     9.1372  10.2321  12.7546  13.7398  17.1728  17.7554  17.8950

          k = 0.7163 0.2046-0.1103 (  6021 PWs)   bands (ev):

   -33.0892 -32.9671   0.1666   2.2297   3.2627   5.8360   6.2466   8.3191
     8.8840  11.1574  13.2582  14.9927  15.9698  16.6756  17.6594

          k = 0.4605 0.2046 0.1655 (  6045 PWs)   bands (ev):

   -33.0876 -32.9699  -0.8661   3.2415   3.8873   6.5276   7.4966   8.0611
     9.9383  10.5561  11.8271  13.3684  13.8201  15.3220  15.6822

          k = 0.2046-0.6139-0.4413 (  6031 PWs)   bands (ev):

   -33.0483 -33.0092   0.6655   1.0534   3.3900   5.4747   7.4721   9.5450
     9.8227  10.9829  12.9530  14.3945  15.5411  15.8601  16.3673

          k =-0.0512-0.6139-0.1655 (  6023 PWs)   bands (ev):

   -33.0860 -32.9708  -0.2821   2.9964   3.2906   5.4317   6.9432   8.8149
     9.1018  10.0251  12.8042  14.5588  15.4718  16.4013  17.5918

          k = 0.7163-0.6139-0.9929 (  6033 PWs)   bands (ev):

   -33.0903 -32.9665  -0.2786   2.0860   3.8824   6.4576   7.2988   7.9183
     9.3268  10.1455  13.6887  14.2652  15.3093  15.9631  16.3125

          k = 0.4605-0.6139-0.7171 (  6050 PWs)   bands (ev):

   -33.0587 -32.9989   0.1227   2.3158   2.7747   4.1225  10.2827  10.7901
    11.1005  11.2731  12.2638  12.5786  13.1175  14.2034  15.1986

          k = 0.2046-0.4093-0.2206 (  6049 PWs)   bands (ev):

   -33.0827 -32.9750  -0.9365   3.6224   3.6788   6.0280   7.8744   8.7780
     9.7280  10.9138  11.5332  12.9527  13.3858  15.3396  15.6272

          k =-0.0512-0.4093 0.0552 (  6039 PWs)   bands (ev):

   -33.0946 -32.9632  -1.3116   4.2713   4.9060   6.3701   6.7469   8.7383
     9.3708  10.5086  11.0198  12.6502  13.2644  13.9104  15.3702

          k = 0.7163-0.4093-0.7722 (  6045 PWs)   bands (ev):

   -33.0680 -32.9898  -0.4403   2.8514   3.3024   4.7118   9.2218  10.1677
    10.2358  10.9177  11.6211  12.9953  13.4443  14.6992  16.9555

          k = 0.4605-0.4093-0.4964 (  6042 PWs)   bands (ev):

   -33.0393 -33.0184   0.6431   1.5294   3.2143   3.5045  10.7488  10.8001
    11.3747  11.4106  13.0301  13.1880  13.4758  13.6158  14.5677

          k = 0.4093-0.4093 0.0000 (  6020 PWs)   bands (ev):

   -33.0946 -32.9627  -0.7949   2.2825   5.8810   6.0839   6.4284   8.9025
     9.5619  10.1501  12.0326  14.2160  14.6555  14.7871  15.3112

          k = 0.1535-0.4093 0.2758 (  6044 PWs)   bands (ev):

   -33.0761 -32.9817  -0.8601   3.1512   4.0872   5.9786   7.5230   8.8989
     9.4790  11.1592  11.8002  13.0912  13.5132  15.6410  15.8256

          k = 0.9209-0.4093-0.5516 (  6040 PWs)   bands (ev):

   -33.0297 -33.0280   0.2549   1.1784   4.5053   5.5339   7.0545   8.0480
     9.9966  11.9258  13.0539  13.9528  14.7131  16.3011  16.4826

          k = 0.6651-0.4093-0.2758 (  6035 PWs)   bands (ev):

   -33.0746 -32.9826   0.0562   2.2555   2.6295   5.5728   8.4354   9.1002
     9.7461  11.3053  12.9024  13.9268  14.0149  15.4678  15.9644

          k = 0.1535-0.2046 0.4964 (  6044 PWs)   bands (ev):

   -33.0414 -33.0166  -0.5391   2.6511   4.0431   6.1570   6.8012   8.5507
     9.3649  10.8305  12.9198  13.4349  14.2443  15.3884  16.7169

          k = 0.9209-0.2046-0.3310 (  6027 PWs)   bands (ev):

   -33.0647 -32.9920   1.1194   1.3458   2.8989   4.8588   7.7911   8.1493
     8.9816  10.7535  12.6738  14.5397  16.2571  17.9020  18.5066

          k = 0.6651-0.2046-0.0552 (  6027 PWs)   bands (ev):

   -33.0920 -32.9645  -0.1181   2.2978   3.8108   5.9338   6.1377   8.6223
     8.9157  10.5083  13.2386  15.1039  15.9001  15.9750  17.3952

          k = 0.1535-0.0000 0.7171 (  6035 PWs)   bands (ev):

   -33.0557 -33.0012   0.5902   1.9766   3.2539   4.3072   7.5690   8.9797
     9.1680  10.2714  12.4101  13.1147  17.6955  18.1182  18.2722

          k = 0.9209-0.0000-0.1103 (  6050 PWs)   bands (ev):

   -33.0874 -32.9681   1.6169   2.4367   2.6222   3.2054   5.8190   7.0856
    12.0564  12.2668  13.8752  13.9534  15.0452  15.7047  16.7892

          k = 0.6651-0.0000 0.1655 (  6019 PWs)   bands (ev):

   -33.0854 -32.9711  -0.0049   2.7901   3.1611   5.0380   6.8018   8.5128
     9.4440  10.1401  13.1945  14.6438  15.8157  17.0627  17.3675

          k = 0.1535-0.8186-0.1655 (  6018 PWs)   bands (ev):

   -33.0844 -32.9716   0.8108   2.3285   2.4774   4.7852   6.5577   7.6846
     9.5678  12.1221  12.9656  14.6498  16.0333  16.6565  18.2873

          k = 0.9209-0.8186-0.9929 (  6030 PWs)   bands (ev):

   -33.0881 -32.9677   0.8207   2.3884   2.8374   4.3560   5.9699   7.5290
    10.4214  12.0067  13.2803  14.6699  15.6019  16.3136  17.9559

          k = 0.6651-0.8186-0.7171 (  6026 PWs)   bands (ev):

   -33.0574 -32.9999   0.6655   1.2581   3.0139   6.0729   7.0019   9.1620
     9.7811  10.5464  12.9317  14.6976  16.2129  16.3942  16.7146

          k = 0.4093-0.6139-0.2206 (  6041 PWs)   bands (ev):

   -33.0814 -32.9758  -0.1353   2.0720   3.2513   5.6708   8.4493   8.8946
     9.8320  10.6731  13.2854  13.6122  14.2332  15.1256  16.0905

          k = 0.1535-0.6139 0.0552 (  6038 PWs)   bands (ev):

   -33.0923 -32.9643  -0.3760   2.7068   3.9217   5.9978   6.0280   8.8594
     9.1041  10.4014  12.4045  14.5373  15.6105  16.2060  17.3332

          k = 0.9209-0.6139-0.7722 (  6027 PWs)   bands (ev):

   -33.0663 -32.9909   0.1639   1.7072   3.5107   6.0559   7.0531   8.7900
     9.3667   9.8382  14.0274  14.3191  16.1585  16.4196  16.6700

          k = 0.6651-0.6139-0.4964 (  6057 PWs)   bands (ev):

   -33.0396 -33.0182   0.3887   1.6423   3.5660   3.6641   9.8985  10.4294
    10.7717  11.3455  13.2412  13.2773  13.7552  14.0443  15.4632

     the Fermi energy is    12.9233 ev

!    total energy              =     -62.27993341 Ry
     estimated scf accuracy    <          1.8E-10 Ry
     smearing contrib. (-TS)   =      -0.00170006 Ry
     internal energy E=F+TS    =     -62.27823336 Ry

     The total energy is F=E-TS. E is the sum of the following terms:
     one-electron contribution =       9.62491915 Ry
     hartree contribution      =       6.37012883 Ry
     xc contribution           =     -20.29141690 Ry
     ewald contribution        =     -57.98186444 Ry

     convergence has been achieved in   9 iterations

     Forces acting on atoms (cartesian axes, Ry/au):

     atom    1 type  1   force =     0.00000000   -0.00000000   -0.00000000
     atom    2 type  1   force =     0.00000000    0.00000000    0.00000000
     atom    3 type  2   force =    -0.00147947    0.00147947    0.00000000
     atom    4 type  2   force =     0.00147947   -0.00147947   -0.00000000
     atom    5 type  2   force =    -0.00147947   -0.00147947    0.00000000
     atom    6 type  2   force =     0.00147947    0.00147947    0.00000000
     The non-local contrib.  to forces
     atom    1 type  1   force =     0.00000000   -0.00000000   -0.00000000
     atom    2 type  1   force =    -0.00000000    0.00000000    0.00000000
     atom    3 type  2   force =     0.01060836   -0.01060836   -0.00000000
     atom    4 type  2   force =    -0.01060836    0.01060836    0.00000000
[...]
     c_bands:  1 eigenvalues not converged
     c_bands:  2 eigenvalues not converged
     c_bands:  1 eigenvalues not converged
     c_bands:  1 eigenvalues not converged
     c_bands:  1 eigenvalues not converged
     c_bands:  2 eigenvalues not converged
     c_bands:  1 eigenvalues not converged
     c_bands:  1 eigenvalues not converged
     c_bands:  1 eigenvalues not converged
     c_bands:  1 eigenvalues not converged
     c_bands:  1 eigenvalues not converged
     c_bands:  1 eigenvalues not converged
     c_bands:  1 eigenvalues not converged
     c_bands:  2 eigenvalues not converged
     c_bands:  2 eigenvalues not converged
     c_bands:  1 eigenvalues not converged
     c_bands:  2 eigenvalues not converged
     c_bands:  2 eigenvalues not converged
     c_bands:  2 eigenvalues not converged
     c_bands:  2 eigenvalues not converged
     c_bands:  1 eigenvalues not converged
     ethr =  1.00E-06,  avg # of iterations = 18.5

     total cpu time spent up to now is      144.4 secs

     total energy              =     -62.28759359 Ry
     estimated scf accuracy    <       0.11144912 Ry

     iteration #  2     ecut=    80.00 Ry     beta= 0.70
     Davidson diagonalization with overlap
     ethr =  5.07E-04,  avg # of iterations =  2.1

     total cpu time spent up to now is      145.3 secs

     total energy              =     -62.31428298 Ry
     estimated scf accuracy    <       0.02853595 Ry

     iteration #  3     ecut=    80.00 Ry     beta= 0.70
     Davidson diagonalization with overlap
     ethr =  1.30E-04,  avg # of iterations =  2.0

     total cpu time spent up to now is      146.2 secs

     total energy              =     -62.31978850 Ry
     estimated scf accuracy    <       0.00035090 Ry

     iteration #  4     ecut=    80.00 Ry     beta= 0.70
     Davidson diagonalization with overlap
     ethr =  1.59E-06,  avg # of iterations =  5.4

     total cpu time spent up to now is      147.2 secs

     total energy              =     -62.31984741 Ry
     estimated scf accuracy    <       0.00003494 Ry

     iteration #  5     ecut=    80.00 Ry     beta= 0.70
     Davidson diagonalization with overlap
     ethr =  1.59E-07,  avg # of iterations =  2.2

     total cpu time spent up to now is      148.1 secs

     total energy              =     -62.31985529 Ry
     estimated scf accuracy    <       0.00000019 Ry

     iteration #  6     ecut=    80.00 Ry     beta= 0.70
     Davidson diagonalization with overlap
     ethr =  8.71E-10,  avg # of iterations =  4.6

     total cpu time spent up to now is      149.3 secs

     total energy              =     -62.31985564 Ry
     estimated scf accuracy    <       0.00000003 Ry

     iteration #  7     ecut=    80.00 Ry     beta= 0.70
     Davidson diagonalization with overlap
     ethr =  1.25E-10,  avg # of iterations =  2.1

     total cpu time spent up to now is      150.1 secs

     total energy              =     -62.31985565 Ry
     estimated scf accuracy    <          2.1E-09 Ry

     iteration #  8     ecut=    80.00 Ry     beta= 0.70
     Davidson diagonalization with overlap
     ethr =  9.63E-12,  avg # of iterations =  2.3

     total cpu time spent up to now is      150.9 secs

     total energy              =     -62.31985565 Ry
     estimated scf accuracy    <          1.3E-10 Ry

     iteration #  9     ecut=    80.00 Ry     beta= 0.70
     Davidson diagonalization with overlap
     ethr =  6.09E-13,  avg # of iterations =  2.9

     total cpu time spent up to now is      151.8 secs

     End of self-consistent calculation

          k = 0.0000 0.0000 0.0000 (  4735 PWs)   bands (ev):

   -33.1573 -32.8611  -2.2790   6.6693   6.8311   6.8311   9.1224   9.1224
     9.2934   9.3465   9.6180  10.1591  10.7846  10.7846  16.2076

          k =-0.2416-0.0000 0.3086 (  4740 PWs)   bands (ev):

   -33.1142 -32.9048  -1.5335   4.4670   5.0805   6.4656   6.7439   7.6735
    10.0194  10.1005  10.4164  12.7470  14.1226  14.8150  15.6450

          k = 0.4832 0.0000-0.6172 (  4746 PWs)   bands (ev):

   -33.0098 -33.0098   0.7168   0.7168   5.0375   5.0375   6.6899   6.6899
    10.6386  10.6386  14.7645  14.7645  15.5925  15.5925  16.4470

          k =-0.0000 0.1933 0.2469 (  4740 PWs)   bands (ev):

   -33.1292 -32.8896  -1.8023   5.2745   5.3968   6.5994   7.1655   7.9915
     9.2648  10.0183  10.1153  12.1076  13.6919  14.4992  14.5910

          k =-0.2416 0.1933 0.5555 (  4747 PWs)   bands (ev):

   -33.0336 -32.9860  -0.2659   2.2296   3.9948   5.1988   6.7688   8.8299
     9.2899   9.9728  12.8815  14.4072  15.7818  16.4519  16.9710

          k = 0.4832 0.1933-0.3703 (  4737 PWs)   bands (ev):

   -33.0954 -32.9232  -0.4857   2.7423   2.9975   6.0120   6.6965   9.5555
     9.6266  11.5569  12.7040  13.1184  14.5252  14.8043  16.4152

          k = 0.2416 0.1933-0.0617 (  4753 PWs)   bands (ev):

   -33.1545 -32.8633  -1.8728   3.6476   7.0105   7.2191   8.2852   8.4656
     8.9316   9.6348  11.3382  11.5002  12.7627  13.1426  13.4747

          k =-0.0000 0.3865 0.4938 (  4751 PWs)   bands (ev):

   -33.0555 -32.9640  -0.3653   2.0407   4.8580   5.4741   6.5645   6.9629
    10.3773  10.8263  12.7233  14.5155  14.7429  16.9307  17.1564

          k =-0.2416 0.3865 0.8024 (  4736 PWs)   bands (ev):

   -33.0756 -32.9433   0.1620   1.9354   2.6994   5.6973   6.7597   9.2003
    10.1713  12.2471  12.6332  13.6199  14.3885  15.5226  15.9581

          k = 0.4832 0.3865-0.1234 (  4732 PWs)   bands (ev):

   -33.1479 -32.8692  -0.9792   1.6540   5.5418   7.2801   7.9303   8.8777
     9.0496  10.2807  10.4551  13.5301  14.2534  15.3880  16.4833

          k = 0.2416 0.3865 0.1852 (  4742 PWs)   bands (ev):

   -33.1398 -32.8780  -1.2932   2.6788   5.0241   6.9930   7.2726   9.2138
     9.7896  10.7486  11.4938  11.9385  13.2456  14.1109  16.1504

          k = 0.1933-0.1933 0.0000 (  4752 PWs)   bands (ev):

   -33.1565 -32.8614  -1.9757   3.9475   7.2214   7.6457   8.1609   8.6845
     8.8578   9.1917  10.9939  11.5470  12.5555  12.7680  13.2770

          k =-0.0483-0.1933 0.3086 (  4740 PWs)   bands (ev):

   -33.1144 -32.9047  -1.6126   4.7579   5.3501   6.3910   6.9656   7.5421
     9.3241   9.8465  10.4227  12.9335  14.4048  14.7370  15.5261

          k = 0.6765-0.1933-0.6172 (  4743 PWs)   bands (ev):

   -33.0105 -33.0091   0.2185   1.6059   3.6395   5.2528   6.6865   8.9696
     9.2667  10.6875  13.3298  14.5825  15.2270  16.1888  16.9293

          k = 0.4349-0.1933-0.3086 (  4739 PWs)   bands (ev):

   -33.1130 -32.9054  -0.8783   3.0060   3.5157   6.3315   6.7892   9.6221
     9.8527  11.0127  12.1202  12.7511  14.0817  14.3532  16.7884

          k =-0.0483 0.0000 0.5555 (  4736 PWs)   bands (ev):

   -33.0343 -32.9854  -0.6564   3.6141   4.2272   4.4146   7.9224   8.3222
     8.4382   8.9202  10.6303  15.7997  17.3849  17.7247  18.4915

          k = 0.6765 0.0000-0.3703 (  4726 PWs)   bands (ev):

   -33.0943 -32.9239   0.3612   1.9664   2.9240   4.3729   8.0704   8.2004
     9.2192  11.2961  13.7383  13.9697  16.1568  16.5776  17.0624

          k = 0.4349 0.0000-0.0617 (  4747 PWs)   bands (ev):

   -33.1536 -32.8636  -1.4702   3.2800   5.1589   6.0531   7.5372   9.2673
     9.8027  10.6588  12.0967  12.2103  12.7398  13.9160  15.3870

          k = 0.1933 0.1933 0.4938 (  4733 PWs)   bands (ev):

   -33.0561 -32.9635  -0.6911   2.8694   4.4475   5.1949   6.8879   8.5417
     9.3643   9.4752  12.2253  14.4427  15.6356  16.3574  16.6124

          k =-0.0483 0.1933 0.8024 (  4741 PWs)   bands (ev):

   -33.0745 -32.9440   1.1845   1.2401   2.8799   4.0638   7.8176   8.2334
     9.5520  11.7639  12.2352  13.0819  17.0376  18.0222  18.5518

          k = 0.6765 0.1933-0.1234 (  4714 PWs)   bands (ev):

   -33.1469 -32.8696  -0.3813   1.7707   4.6031   4.7382   7.5653   7.8197
     9.6320  12.0013  13.6885  14.4594  15.1627  16.0642  16.2943

          k = 0.4349 0.1933 0.1852 (  4739 PWs)   bands (ev):

   -33.1396 -32.8781  -1.2048   2.6938   4.7778   6.4153   7.5096   9.2893
     9.5003  10.7649  11.8384  12.3370  13.8004  14.2703  15.9571

          k = 0.1933-0.5798-0.4938 (  4748 PWs)   bands (ev):

   -33.0545 -32.9647   0.4635   1.3641   3.1761   5.5226   6.6246   9.2288
     9.3648  12.0200  13.1633  14.3103  14.4919  16.0071  16.1109

          k =-0.0483-0.5798-0.1852 (  4738 PWs)   bands (ev):

   -33.1386 -32.8785  -0.6925   2.6583   4.0788   4.5666   8.3025   8.4572
     9.2903  10.7109  14.0550  14.3783  14.8564  15.4452  15.4864

          k = 0.6765-0.5798-1.1109 (  4726 PWs)   bands (ev):

   -33.1475 -32.8694  -0.7788   1.6971   5.0727   6.2685   7.7280   8.5264
     8.8007  11.0825  12.2787  13.9516  14.5537  15.2769  16.5204

          k = 0.4349-0.5798-0.8024 (  4744 PWs)   bands (ev):

   -33.0761 -32.9429  -0.1300   2.5176   2.6118   4.6102   9.1221   9.7723
    10.7879  11.2405  11.8868  13.6615  13.7586  13.8590  14.3714

          k = 0.1933-0.3865-0.2469 (  4732 PWs)   bands (ev):

   -33.1280 -32.8901  -1.2139   3.0772   4.3409   6.6666   6.9529   9.5348
    10.0834  10.4858  11.7599  12.1672  13.4961  14.0257  16.4849

          k =-0.0483-0.3865 0.0617 (  4752 PWs)   bands (ev):

   -33.1539 -32.8635  -1.6283   3.4935   5.5121   6.2994   7.7783   9.5007
     9.5988  10.4353  11.5301  11.8844  12.5165  13.6041  14.8632

          k = 0.6765-0.3865-0.8641 (  4739 PWs)   bands (ev):

   -33.0958 -32.9230  -0.6666   2.9496   3.1779   5.2661   8.1782   9.5748
    10.0382  11.3566  11.7795  12.9827  13.6234  14.2821  16.0781

          k = 0.4349-0.3865-0.5555 (  4729 PWs)   bands (ev):

   -33.0327 -32.9868   0.5305   1.5297   3.2053   3.7457   9.7428   9.8747
    10.4096  11.1372  11.8733  13.0343  14.0643  14.3688  16.0717

          k = 0.3865-0.3865 0.0000 (  4748 PWs)   bands (ev):

   -33.1552 -32.8619  -1.2352   1.8497   6.8663   7.6820   7.9838   8.4632
     8.5077   9.3050  10.4858  13.1556  14.6372  15.3347  15.8059

          k = 0.1450-0.3865 0.3086 (  4736 PWs)   bands (ev):

   -33.1133 -32.9052  -1.0825   3.5230   3.6975   6.3875   6.6874   9.1820
     9.8627  10.8836  11.9500  12.5505  13.8053  14.5785  16.8022

          k = 0.8697-0.3865-0.6172 (  4735 PWs)   bands (ev):

   -33.0102 -33.0093   0.3880   1.1692   4.3226   5.2598   6.5521   7.5973
     9.7970  11.4231  13.2879  14.9798  15.6368  15.9274  16.7002

          k = 0.6281-0.3865-0.3086 (  4739 PWs)   bands (ev):

   -33.1124 -32.9057  -0.3633   2.0030   3.2397   6.1843   7.1692   9.0316
    10.9842  12.0319  12.1883  12.9169  13.7947  14.5290  15.2708

          k = 0.1450-0.1933 0.5555 (  4746 PWs)   bands (ev):

   -33.0339 -32.9858  -0.4190   2.5265   4.0772   5.7871   6.1612   8.6500
     8.9248   9.8722  12.1702  15.0856  15.7748  16.7785  17.5875

          k = 0.8697-0.1933-0.3703 (  4733 PWs)   bands (ev):

   -33.0940 -32.9241   0.8645   1.7984   2.4972   4.0393   7.6960   8.4189
    10.2497  11.1430  12.3117  13.8987  17.1403  17.3754  17.9329

          k = 0.6281-0.1933-0.0617 (  4721 PWs)   bands (ev):

   -33.1524 -32.8641  -0.6392   1.8122   5.0250   5.4423   6.9370   8.0159
     9.9445  11.1985  13.7441  13.9889  15.2122  15.5420  16.1924

          k = 0.1450 0.0000 0.8024 (  4732 PWs)   bands (ev):

   -33.0744 -32.9441   1.1575   1.5089   2.8496   3.6225   7.6373   8.7913
     9.6566  11.6519  11.7195  12.7617  17.6847  18.9309  19.0837

          k = 0.8697 0.0000-0.1234 (  4704 PWs)   bands (ev):

   -33.1459 -32.8701   0.8974   1.8529   2.3557   4.0937   6.9386   7.1465
    12.1254  12.8476  14.0577  14.2117  15.8207  16.4812  17.5471

          k = 0.6281 0.0000 0.1852 (  4730 PWs)   bands (ev):

   -33.1383 -32.8786  -0.4532   2.5308   3.9100   4.1719   7.9683   8.3571
     9.6509  10.8561  14.5745  14.8716  15.2659  15.5984  15.9620

          k = 0.1450-0.7731-0.1852 (  4716 PWs)   bands (ev):

   -33.1377 -32.8788   0.2110   1.8534   3.6513   3.7959   7.4060   8.1228
     9.9756  12.5236  13.2554  15.2359  15.7578  16.4335  17.3753

          k = 0.8697-0.7731-1.1109 (  4704 PWs)   bands (ev):

   -33.1463 -32.8699   0.2015   1.8465   3.3908   4.2668   7.2500   7.2969
    10.8886  12.5755  13.8602  15.2052  15.5789  16.5954  16.8719

          k = 0.6281-0.7731-0.8024 (  4741 PWs)   bands (ev):

   -33.0753 -32.9434   0.3546   1.7158   2.7504   5.9225   6.3489   8.7896
     9.9522  12.3199  12.3546  14.6572  14.6946  16.0830  16.3197

          k = 0.3865-0.5798-0.2469 (  4729 PWs)   bands (ev):

   -33.1272 -32.8905  -0.5929   1.7944   3.9678   6.5026   7.4208   9.0195
    10.2709  11.4913  11.9223  13.5423  13.7265  14.1378  15.5230

          k = 0.1450-0.5798 0.0617 (  4732 PWs)   bands (ev):

   -33.1526 -32.8640  -0.8418   2.1442   4.9776   5.5318   7.0249   8.2376
     9.9691  11.1453  13.2735  13.6371  14.5129  15.2590  16.5000

          k = 0.8697-0.5798-0.8641 (  4737 PWs)   bands (ev):

   -33.0949 -32.9235  -0.1329   2.2925   3.0452   5.3137   7.1481   8.7783
     9.2312  11.4767  13.4974  14.5956  14.8612  16.0071  16.2951

          k = 0.6281-0.5798-0.5555 (  4730 PWs)   bands (ev):

   -33.0329 -32.9866   0.3389   1.6302   3.5705   3.7857   9.0549   9.5440
    10.2467  10.6804  12.3824  13.9768  14.0513  14.9734  16.1907

     the Fermi energy is    12.7592 ev

!    total energy              =     -62.31985565 Ry
     estimated scf accuracy    <          3.6E-12 Ry
     smearing contrib. (-TS)   =      -0.00008730 Ry
     internal energy E=F+TS    =     -62.31976835 Ry

     The total energy is F=E-TS. E is the sum of the following terms:
     one-electron contribution =       9.80445879 Ry
     hartree contribution      =       6.25557987 Ry
     xc contribution           =     -20.28266343 Ry
     ewald contribution        =     -58.09714359 Ry

     convergence has been achieved in   9 iterations

     Forces acting on atoms (cartesian axes, Ry/au):

     atom    1 type  1   force =    -0.00000000    0.00000000   -0.00000000
     atom    2 type  1   force =     0.00000000   -0.00000000    0.00000000
     atom    3 type  2   force =    -0.00001193    0.00001193    0.00000000
     atom    4 type  2   force =     0.00001193   -0.00001193   -0.00000000
     atom    5 type  2   force =    -0.00001193   -0.00001193   -0.00000000
     atom    6 type  2   force =     0.00001193    0.00001193    0.00000000
     The non-local contrib.  to forces
     atom    1 type  1   force =     0.00000000   -0.00000000   -0.00000000
     atom    2 type  1   force =    -0.00000000    0.00000000    0.00000000
     atom    3 type  2   force =     0.00694768   -0.00694768    0.00000000
     atom    4 type  2   force =    -0.00694768    0.00694768    0.00000000
     atom    5 type  2   force =     0.00694768    0.00694768   -0.00000000
     atom    6 type  2   force =    -0.00694768   -0.00694768   -0.00000000
     The ionic contribution  to forces
     atom    1 type  1   force =    -0.00000000   -0.00000000   -0.00000000
     atom    2 type  1   force =    -0.00000000   -0.00000000    0.00000000
     atom    3 type  2   force =    -0.17216530    0.17216530    0.00000000
     atom    4 type  2   force =     0.17216530   -0.17216530   -0.00000000
     atom    5 type  2   force =    -0.17216530   -0.17216530   -0.00000000
     atom    6 type  2   force =     0.17216530    0.17216530    0.00000000
     The local contribution  to forces
     atom    1 type  1   force =    -0.00000000   -0.00000000    0.00000000
     atom    2 type  1   force =    -0.00000000    0.00000000    0.00000000
     atom    3 type  2   force =     0.16607582   -0.16607582   -0.00000000
     atom    4 type  2   force =    -0.16607582    0.16607582    0.00000000
     atom    5 type  2   force =     0.16607582    0.16607582   -0.00000000
     atom    6 type  2   force =    -0.16607582   -0.16607582    0.00000000
     The core correction contribution to forces
     atom    1 type  1   force =     0.00000000    0.00000000    0.00000000
     atom    2 type  1   force =     0.00000000    0.00000000    0.00000000
     atom    3 type  2   force =    -0.00086952    0.00086952    0.00000000
     atom    4 type  2   force =     0.00086952   -0.00086952    0.00000000
     atom    5 type  2   force =    -0.00086952   -0.00086952    0.00000000
     atom    6 type  2   force =     0.00086952    0.00086952    0.00000000
     The Hubbard contrib.    to forces
     atom    1 type  1   force =     0.00000000    0.00000000    0.00000000
     atom    2 type  1   force =     0.00000000    0.00000000    0.00000000
     atom    3 type  2   force =     0.00000000    0.00000000    0.00000000
     atom    4 type  2   force =     0.00000000    0.00000000    0.00000000
     atom    5 type  2   force =     0.00000000    0.00000000    0.00000000
     atom    6 type  2   force =     0.00000000    0.00000000    0.00000000
     The SCF correction term to forces
     atom    1 type  1   force =     0.00000000    0.00000000   -0.00000000
     atom    2 type  1   force =     0.00000000    0.00000000    0.00000000
     atom    3 type  2   force =    -0.00000061    0.00000061    0.00000000
     atom    4 type  2   force =     0.00000061   -0.00000061   -0.00000000
     atom    5 type  2   force =    -0.00000061   -0.00000061    0.00000000
     atom    6 type  2   force =     0.00000061    0.00000061   -0.00000000

     Total force =     0.000034     Total SCF correction =     0.000002


     Computing stress (Cartesian axis) and pressure

          total   stress  (Ry/bohr**3)                   (kbar)     P=      499.86
   0.00339819  -0.00000000  -0.00000000          499.89       -0.00       -0.00
  -0.00000000   0.00339819   0.00000000           -0.00      499.89        0.00
  -0.00000000   0.00000000   0.00339758           -0.00        0.00      499.80


     Writing all to output data dir ./output/LiSi.save/

     init_run     :      1.88s CPU      2.17s WALL (       2 calls)
     electrons    :    111.50s CPU    117.26s WALL (      12 calls)
     update_pot   :      5.23s CPU      5.31s WALL (      10 calls)
     forces       :      4.57s CPU      4.70s WALL (      12 calls)
     stress       :     22.78s CPU     23.71s WALL (      12 calls)

     Called by init_run:
     wfcinit      :      0.79s CPU      0.82s WALL (       2 calls)
     potinit      :      0.41s CPU      0.54s WALL (       2 calls)
     hinit0       :      0.62s CPU      0.69s WALL (       2 calls)

     Called by electrons:
     c_bands      :     98.93s CPU    103.35s WALL (      88 calls)
     sum_band     :     11.40s CPU     12.02s WALL (      88 calls)
     v_of_rho     :      1.14s CPU      1.77s WALL (      97 calls)
     mix_rho      :      0.10s CPU      0.17s WALL (      88 calls)

     Called by c_bands:
     init_us_2    :      2.59s CPU      2.90s WALL (    9494 calls)
     init_us_2:cp :      2.57s CPU      2.88s WALL (    9494 calls)
     cegterg      :     91.93s CPU     94.32s WALL (    4136 calls)

     Called by *egterg:
     cdiaghg      :      5.54s CPU      5.72s WALL (   19162 calls)
     h_psi        :     76.39s CPU     78.35s WALL (   19867 calls)
     g_psi        :      0.38s CPU      0.39s WALL (   15637 calls)

     Called by h_psi:
     h_psi:calbec :      7.39s CPU      7.58s WALL (   19867 calls)
     vloc_psi     :     62.85s CPU     64.47s WALL (   19867 calls)
     add_vuspsi   :      5.80s CPU      5.92s WALL (   19867 calls)

     General routines
     calbec       :      8.85s CPU      9.09s WALL (   22687 calls)
     fft          :      1.30s CPU      2.22s WALL (    1271 calls)
     ffts         :      0.06s CPU      0.15s WALL (      88 calls)
     fftw         :     63.14s CPU     64.70s WALL (  463076 calls)

     Parallel routines

     PWSCF        :   2m26.31s CPU   2m33.87s WALL


   This run was terminated on:  16:52:47  28Dec2024            

=------------------------------------------------------------------------------=
   JOB DONE.
=------------------------------------------------------------------------------=
