
     Program PWSCF v.7.2 starts on 27Dec2024 at 11:14:54 

     This program is part of the open-source Quantum ESPRESSO suite
     for quantum simulation of materials; please cite
         "P. Giannozzi et al., J. Phys.:Condens. Matter 21 395502 (2009);
         "P. Giannozzi et al., J. Phys.:Condens. Matter 29 465901 (2017);
         "P. Giannozzi et al., J. Chem. Phys. 152 154105 (2020);
          URL http://www.quantum-espresso.org", 
     in publications or presentations arising from this work. More details at
     http://www.quantum-espresso.org/quote

     Parallel version (MPI & OpenMP), running on       8 processor cores
     Number of MPI processes:                 8
     Threads/MPI process:                     1

     MPI processes distributed on     1 nodes
     482396 MiB available memory on the printing compute node when the environment starts

     Waiting for input...
     Reading input from standard input

     Current dimensions of program PWSCF are:
     Max number of different atomic species (ntypx) = 10
     Max number of k-points (npk) =  40000
     Max angular momentum in pseudopotentials (lmaxx) =  4

     R & G space division:  proc/nbgrp/npool/nimage =       8
     Subspace diagonalization in iterative solution of the eigenvalue problem:
     a serial algorithm will be used


     Parallelization info
     --------------------
     sticks:   dense  smooth     PW     G-vecs:    dense   smooth      PW
     Min         185     185     53                 4687     4687     727
     Max         186     186     56                 4691     4691     728
     Sum        1483    1483    433                37509    37509    5817

     Using Slab Decomposition



     bravais-lattice index     =            2
     lattice parameter (alat)  =      11.5910  a.u.
     unit-cell volume          =     389.3129 (a.u.)^3
     number of atoms/cell      =            3
     number of atomic types    =            2
     number of electrons       =        11.00
     number of Kohn-Sham states=           10
     kinetic-energy cutoff     =      80.0000  Ry
     charge density cutoff     =     320.0000  Ry
     scf convergence threshold =      1.0E-08
     mixing beta               =       0.7000
     number of iterations used =            8  plain     mixing
     energy convergence thresh.=      1.0E-04
     force convergence thresh. =      1.0E-03
     press convergence thresh. =      1.0E+00
     Exchange-correlation= PBE
                           (   1   4   3   4   0   0   0)
     nstep                     =           50


     celldm(1)=  11.590965  celldm(2)=   0.000000  celldm(3)=   0.000000
     celldm(4)=   0.000000  celldm(5)=   0.000000  celldm(6)=   0.000000

     crystal axes: (cart. coord. in units of alat)
               a(1) = (  -0.500000   0.000000   0.500000 )  
               a(2) = (   0.000000   0.500000   0.500000 )  
               a(3) = (  -0.500000   0.500000   0.000000 )  

     reciprocal axes: (cart. coord. in units 2 pi/alat)
               b(1) = ( -1.000000 -1.000000  1.000000 )  
               b(2) = (  1.000000  1.000000  1.000000 )  
               b(3) = ( -1.000000  1.000000 -1.000000 )  


     PseudoPot. # 1 for Li read from file:
     ../pseudo/Li_ONCV_PBE_sr.upf
     MD5 check sum: 50ff420e78310ffa21704f3361e624a4
     Pseudo is Norm-conserving, Zval =  3.0
     Generated using ONCVPSP code by D. R. Hamann
     Using radial grid of 1944 points,  4 beta functions with: 
                l(1) =   0
                l(2) =   0
                l(3) =   1
                l(4) =   1

     PseudoPot. # 2 for Si read from file:
     ../pseudo/Si_ONCV_PBE_sr.upf
     MD5 check sum: e543d271109d17c80368dfa7c482276d
     Pseudo is Norm-conserving + core correction, Zval =  4.0
     Generated using ONCVPSP code by D. R. Hamann
     Using radial grid of 1510 points,  6 beta functions with: 
                l(1) =   0
                l(2) =   0
                l(3) =   1
                l(4) =   1
                l(5) =   2
                l(6) =   2

     atomic species   valence    mass     pseudopotential
        Li             3.00     6.94100     Li( 1.00)
        Si             4.00    28.08550     Si( 1.00)

     48 Sym. Ops., with inversion, found



   Cartesian axes

     site n.     atom                  positions (alat units)
         1           Li  tau(   1) = (   0.0000000   0.0000000   0.5000000  )
         2           Si  tau(   2) = (   0.2500000   0.2500000   0.2500000  )
         3           Si  tau(   3) = (   0.7500000   0.7500000   0.7500000  )

     number of k points=    10  Marzari-Vanderbilt smearing, width (Ry)=  0.0200
                       cart. coord. in units 2pi/alat
        k(    1) = (   0.0000000   0.0000000   0.0000000), wk =   0.0160000
        k(    2) = (  -0.2000000   0.2000000  -0.2000000), wk =   0.1280000
        k(    3) = (  -0.4000000   0.4000000  -0.4000000), wk =   0.1280000
        k(    4) = (   0.0000000   0.4000000   0.0000000), wk =   0.0960000
        k(    5) = (  -0.2000000   0.6000000  -0.2000000), wk =   0.3840000
        k(    6) = (   0.6000000  -0.2000000   0.6000000), wk =   0.3840000
        k(    7) = (   0.4000000   0.0000000   0.4000000), wk =   0.1920000
        k(    8) = (   0.0000000   0.8000000   0.0000000), wk =   0.0960000
        k(    9) = (   0.8000000   0.0000000   0.8000000), wk =   0.1920000
        k(   10) = (   0.6000000  -0.2000000   1.0000000), wk =   0.3840000

     Dense  grid:    37509 G-vectors     FFT dimensions: (  48,  48,  48)

     Estimated max dynamical RAM per process >      16.30 MB

     Estimated total dynamical RAM >     130.38 MB

     Initial potential from superposition of free atoms

     starting charge      10.9942, renormalised to      11.0000
     Starting wfcs are   10 randomized atomic wfcs

     total cpu time spent up to now is        1.2 secs

     Self-consistent Calculation

     iteration #  1     ecut=    80.00 Ry     beta= 0.70
     Davidson diagonalization with overlap
     ethr =  1.00E-02,  avg # of iterations =  5.1

     Threshold (ethr) on eigenvalues was too large:
     Diagonalizing with lowered threshold

     Davidson diagonalization with overlap
     ethr =  1.41E-04,  avg # of iterations =  5.7

     total cpu time spent up to now is        1.6 secs

     total energy              =     -31.23557379 Ry
     estimated scf accuracy    <       0.01793520 Ry

     iteration #  2     ecut=    80.00 Ry     beta= 0.70
     Davidson diagonalization with overlap
     ethr =  1.63E-04,  avg # of iterations =  1.1

     total cpu time spent up to now is        1.8 secs

     total energy              =     -31.23686411 Ry
     estimated scf accuracy    <       0.00059050 Ry

     iteration #  3     ecut=    80.00 Ry     beta= 0.70
     Davidson diagonalization with overlap
     ethr =  5.37E-06,  avg # of iterations =  3.9

     total cpu time spent up to now is        2.0 secs

     total energy              =     -31.23697093 Ry
     estimated scf accuracy    <       0.00003408 Ry

     iteration #  4     ecut=    80.00 Ry     beta= 0.70
     Davidson diagonalization with overlap
     ethr =  3.10E-07,  avg # of iterations =  2.1

     total cpu time spent up to now is        2.1 secs

     total energy              =     -31.23697503 Ry
     estimated scf accuracy    <       0.00000036 Ry

     iteration #  5     ecut=    80.00 Ry     beta= 0.70
     Davidson diagonalization with overlap
     ethr =  3.26E-09,  avg # of iterations =  3.9

     total cpu time spent up to now is        2.3 secs

     total energy              =     -31.23697541 Ry
     estimated scf accuracy    <       0.00000004 Ry

     iteration #  6     ecut=    80.00 Ry     beta= 0.70
     Davidson diagonalization with overlap
     ethr =  3.37E-10,  avg # of iterations =  2.0

     total cpu time spent up to now is        2.4 secs

     End of self-consistent calculation

          k = 0.0000 0.0000 0.0000 (  4693 PWs)   bands (ev):

   -40.9336  -5.3230   2.2142   4.2165   4.2165   4.2165   7.3126   7.3127
     7.3128   9.1346

          k =-0.2000 0.2000-0.2000 (  4732 PWs)   bands (ev):

   -40.9335  -4.9325   0.5055   4.1152   4.1152   4.7345   6.5505   6.5505
     7.5019   9.3536

          k =-0.4000 0.4000-0.4000 (  4702 PWs)   bands (ev):

   -40.9333  -3.7734  -1.8851   4.2062   4.2062   5.2318   5.2318   5.4784
     6.4571  11.6018

          k = 0.0000 0.4000 0.0000 (  4725 PWs)   bands (ev):

   -40.9335  -4.8129   0.7167   3.1481   3.1481   4.5047   6.7198   7.9121
     8.4091   8.4091

          k =-0.2000 0.6000-0.2000 (  4700 PWs)   bands (ev):

   -40.9333  -3.9510  -0.9898   2.8340   2.8415   3.3250   7.6070   7.7662
     8.2205   8.8315

          k = 0.6000-0.2000 0.6000 (  4703 PWs)   bands (ev):

   -40.9333  -2.9375  -2.4315   2.0009   3.3045   4.1890   6.3918   7.0583
     8.8649  11.0353

          k = 0.4000 0.0000 0.4000 (  4716 PWs)   bands (ev):

   -40.9334  -4.2953  -0.6780   2.3273   4.5703   5.3376   5.4970   5.9025
     9.0691   9.5337

          k = 0.0000 0.8000 0.0000 (  4696 PWs)   bands (ev):

   -40.9332  -3.5378  -0.3998   1.1430   2.1668   2.1668   7.4161   9.7196
     9.7196  10.4912

          k = 0.8000 0.0000 0.8000 (  4700 PWs)   bands (ev):

   -40.9332  -2.8820  -1.5496   0.7140   2.3236   2.8492   8.3284   8.5519
     8.9770  11.1060

          k = 0.6000-0.2000 1.0000 (  4712 PWs)   bands (ev):

   -40.9332  -2.9889  -1.7792   1.4435   1.5921   4.6277   6.2076   9.1618
     9.5921  10.2251

     the Fermi energy is     4.4526 ev

!    total energy              =     -31.23697542 Ry
     estimated scf accuracy    <          2.0E-09 Ry
     smearing contrib. (-TS)   =       0.00048161 Ry
     internal energy E=F+TS    =     -31.23745703 Ry

     The total energy is F=E-TS. E is the sum of the following terms:
     one-electron contribution =      -3.58770901 Ry
     hartree contribution      =       4.14016049 Ry
     xc contribution           =      -9.24271646 Ry
     ewald contribution        =     -22.54719205 Ry

     convergence has been achieved in   6 iterations

     Forces acting on atoms (cartesian axes, Ry/au):

     atom    1 type  1   force =     0.00000000    0.00000000    0.00000000
     atom    2 type  2   force =    -0.00000000   -0.00000000   -0.00000000
     atom    3 type  2   force =    -0.00000000   -0.00000000    0.00000000
     The non-local contrib.  to forces
     atom    1 type  1   force =    -0.00000000   -0.00000000    0.00000000
     atom    2 type  2   force =     0.00000000   -0.00000000    0.00000000
     atom    3 type  2   force =    -0.00000000    0.00000000   -0.00000000
     The ionic contribution  to forces
     atom    1 type  1   force =    -0.00000000   -0.00000000   -0.00000000
     atom    2 type  2   force =     0.00000000   -0.00000000    0.00000000
     atom    3 type  2   force =    -0.00000000    0.00000000    0.00000000
     The local contribution  to forces
     atom    1 type  1   force =     0.00000000   -0.00000000    0.00000000
     atom    2 type  2   force =    -0.00000000   -0.00000000   -0.00000000
     atom    3 type  2   force =     0.00000000    0.00000000    0.00000000
     The core correction contribution to forces
     atom    1 type  1   force =     0.00000000    0.00000000    0.00000000
     atom    2 type  2   force =     0.00000000   -0.00000000   -0.00000000
     atom    3 type  2   force =    -0.00000000   -0.00000000   -0.00000000
     The Hubbard contrib.    to forces
     atom    1 type  1   force =     0.00000000    0.00000000    0.00000000
     atom    2 type  2   force =     0.00000000    0.00000000    0.00000000
     atom    3 type  2   force =     0.00000000    0.00000000    0.00000000
     The SCF correction term to forces
     atom    1 type  1   force =    -0.00000000    0.00000000   -0.00000000
     atom    2 type  2   force =    -0.00000000    0.00000000    0.00000000
     atom    3 type  2   force =     0.00000000    0.00000000   -0.00000000

     Total force =     0.000000     Total SCF correction =     0.000000


     Computing stress (Cartesian axis) and pressure

          total   stress  (Ry/bohr**3)                   (kbar)     P=      -93.37
  -0.00063472   0.00000000   0.00000000          -93.37        0.00        0.00
   0.00000000  -0.00063472   0.00000000            0.00      -93.37        0.00
  -0.00000000  -0.00000000  -0.00063472           -0.00       -0.00      -93.37


     BFGS Geometry Optimization
     Energy error            =      0.0E+00 Ry
     Gradient error          =      1.6E-32 Ry/Bohr
     Cell gradient error     =      5.9E+02 kbar

     number of scf cycles    =   1
     number of bfgs steps    =   0

     enthalpy           new  =     -29.9137276242 Ry

     new trust radius        =       0.3979397154 bohr
ibrav =      2
 celldm(1) =     10.42211895
Input lattice vectors:
    -0.44957942     0.00000000     0.44957942
     0.00000000     0.44957942     0.44957942
    -0.44957942     0.44957942    -0.00000000
New lattice vectors in INITIAL alat:
    -0.44957942     0.00000000     0.44957942
     0.00000000     0.44957942     0.44957942
    -0.44957942     0.44957942     0.00000000
New lattice vectors in NEW alat (for information only):
    -0.50000000     0.00000000     0.50000000
     0.00000000     0.50000000     0.50000000
    -0.50000000     0.50000000     0.00000000
Discrepancy in bohr =     0.000000    0.000000    0.000000
     new conv_thr            =       0.0000000100 Ry

     new unit-cell volume =    283.01411 a.u.^3 (    41.93836 Ang^3 )
     density =      2.49890 g/cm^3

CELL_PARAMETERS (alat= 11.59096544)
  -0.449579416   0.000000000   0.449579416
   0.000000000   0.449579416   0.449579416
  -0.449579416   0.449579416   0.000000000

ATOMIC_POSITIONS (crystal)
Li            0.5000000000        0.5000000000       -0.5000000000
Si           -0.2500000000        0.7500000000       -0.2500000000
Si           -0.7500000000        2.2500000000       -0.7500000000



     Writing config-only to output data dir ./output/LiSi.save/
     NEW-OLD atomic charge density approx. for the potential
     extrapolated charge    6.87062, renormalised to   11.00000

     total cpu time spent up to now is        3.9 secs

     Self-consistent Calculation

     iteration #  1     ecut=    80.00 Ry     beta= 0.70
     Davidson diagonalization with overlap
     ethr =  1.00E-06,  avg # of iterations = 10.4

     total cpu time spent up to now is        4.3 secs

     total energy              =     -31.07026281 Ry
     estimated scf accuracy    <       0.16510675 Ry

     iteration #  2     ecut=    80.00 Ry     beta= 0.70
     Davidson diagonalization with overlap
     ethr =  1.50E-03,  avg # of iterations =  2.1

     total cpu time spent up to now is        4.4 secs

     total energy              =     -31.27485931 Ry
     estimated scf accuracy    <       0.07452249 Ry

     iteration #  3     ecut=    80.00 Ry     beta= 0.70
     Davidson diagonalization with overlap
     ethr =  6.77E-04,  avg # of iterations =  1.0

     total cpu time spent up to now is        4.5 secs

     total energy              =     -31.26970358 Ry
     estimated scf accuracy    <       0.01315441 Ry

     iteration #  4     ecut=    80.00 Ry     beta= 0.70
     Davidson diagonalization with overlap
     ethr =  1.20E-04,  avg # of iterations =  2.0

     total cpu time spent up to now is        4.7 secs

     total energy              =     -31.27195644 Ry
     estimated scf accuracy    <       0.00002471 Ry

     iteration #  5     ecut=    80.00 Ry     beta= 0.70
     Davidson diagonalization with overlap
     ethr =  2.25E-07,  avg # of iterations =  4.7

     total cpu time spent up to now is        4.8 secs

     total energy              =     -31.27197159 Ry
     estimated scf accuracy    <       0.00000173 Ry

     iteration #  6     ecut=    80.00 Ry     beta= 0.70
     Davidson diagonalization with overlap
     ethr =  1.57E-08,  avg # of iterations =  2.6

     total cpu time spent up to now is        5.0 secs

     total energy              =     -31.27197207 Ry
     estimated scf accuracy    <       0.00000004 Ry

     iteration #  7     ecut=    80.00 Ry     beta= 0.70
     Davidson diagonalization with overlap
     ethr =  3.41E-10,  avg # of iterations =  3.3

     total cpu time spent up to now is        5.1 secs

     total energy              =     -31.27197209 Ry
     estimated scf accuracy    <       0.00000001 Ry

     iteration #  8     ecut=    80.00 Ry     beta= 0.70
     Davidson diagonalization with overlap
     ethr =  1.26E-10,  avg # of iterations =  1.9

     total cpu time spent up to now is        5.2 secs

     End of self-consistent calculation

          k = 0.0000 0.0000 0.0000 (  4693 PWs)   bands (ev):

   -37.6958  -4.0633   7.2354   7.2354   7.2354   7.7504  10.3003  10.3003
    10.3003  13.1179

          k =-0.2224 0.2224-0.2224 (  4732 PWs)   bands (ev):

   -37.6951  -3.5708   3.7421   6.9513   6.9513   9.0987   9.8552   9.8552
    11.8312  12.4397

          k =-0.4449 0.4449-0.4449 (  4702 PWs)   bands (ev):

   -37.6940  -2.1005   0.4056   6.9132   6.9132   8.2044   8.2044   9.8794
    10.8163  15.3669

          k =-0.0000 0.4449-0.0000 (  4725 PWs)   bands (ev):

   -37.6949  -3.4152   4.6170   5.6175   5.6175   7.4035  10.5573  11.5885
    12.5447  12.5447

          k =-0.2224 0.6673-0.2224 (  4700 PWs)   bands (ev):

   -37.6939  -2.3014   1.7163   5.1645   5.3177   6.3808  11.3120  11.3687
    12.5931  13.1759

          k = 0.6673-0.2224 0.6673 (  4703 PWs)   bands (ev):

   -37.6935  -1.0104  -0.2342   4.2115   5.7234   7.4565   9.8271  11.6534
    13.5287  14.7287

          k = 0.4449 0.0000 0.4449 (  4716 PWs)   bands (ev):

   -37.6943  -2.7576   2.2052   4.5225   7.3000   8.6258   8.9825  10.3812
    12.5081  13.7573

          k =-0.0000 0.8897-0.0000 (  4696 PWs)   bands (ev):

   -37.6934  -1.6897   3.1241   3.1475   4.3102   4.3102  10.0526  14.7507
    14.7507  16.3833

          k = 0.8897-0.0000 0.8897 (  4700 PWs)   bands (ev):

   -37.6932  -0.7334   0.9794   2.4873   4.4970   5.8069  11.2115  12.7636
    14.1005  16.9558

          k = 0.6673-0.2224 1.1122 (  4712 PWs)   bands (ev):

   -37.6933  -0.9860   0.7432   3.2901   3.7927   8.0238   9.8859  12.2125
    14.6995  15.5831

     the Fermi energy is     7.5405 ev

!    total energy              =     -31.27197209 Ry
     estimated scf accuracy    <          3.1E-10 Ry
     smearing contrib. (-TS)   =      -0.00022339 Ry
     internal energy E=F+TS    =     -31.27174870 Ry

     The total energy is F=E-TS. E is the sum of the following terms:
     one-electron contribution =      -0.37424817 Ry
     hartree contribution      =       3.80750793 Ry
     xc contribution           =      -9.62913614 Ry
     ewald contribution        =     -25.07587231 Ry

     convergence has been achieved in   8 iterations

     Forces acting on atoms (cartesian axes, Ry/au):

     atom    1 type  1   force =    -0.00000000    0.00000000   -0.00000000
     atom    2 type  2   force =    -0.00000000    0.00000000   -0.00000000
     atom    3 type  2   force =     0.00000000   -0.00000000    0.00000000
     The non-local contrib.  to forces
     atom    1 type  1   force =     0.00000000    0.00000000    0.00000000
     atom    2 type  2   force =     0.00000000   -0.00000000   -0.00000000
     atom    3 type  2   force =    -0.00000000    0.00000000   -0.00000000
     The ionic contribution  to forces
     atom    1 type  1   force =     0.00000000   -0.00000000   -0.00000000
     atom    2 type  2   force =    -0.00000000   -0.00000000   -0.00000000
     atom    3 type  2   force =     0.00000000    0.00000000   -0.00000000
     The local contribution  to forces
     atom    1 type  1   force =    -0.00000000    0.00000000    0.00000000
     atom    2 type  2   force =    -0.00000000    0.00000000   -0.00000000
     atom    3 type  2   force =     0.00000000   -0.00000000    0.00000000
     The core correction contribution to forces
     atom    1 type  1   force =     0.00000000    0.00000000    0.00000000
     atom    2 type  2   force =    -0.00000000   -0.00000000    0.00000000
     atom    3 type  2   force =    -0.00000000   -0.00000000   -0.00000000
     The Hubbard contrib.    to forces
     atom    1 type  1   force =     0.00000000    0.00000000    0.00000000
     atom    2 type  2   force =     0.00000000    0.00000000    0.00000000
     atom    3 type  2   force =     0.00000000    0.00000000    0.00000000
     The SCF correction term to forces
     atom    1 type  1   force =     0.00000000    0.00000000   -0.00000000
     atom    2 type  2   force =    -0.00000000   -0.00000000   -0.00000000
     atom    3 type  2   force =     0.00000000    0.00000000    0.00000000

     Total force =     0.000000     Total SCF correction =     0.000000


     Computing stress (Cartesian axis) and pressure

          total   stress  (Ry/bohr**3)                   (kbar)     P=       33.45
   0.00022739  -0.00000000  -0.00000000           33.45       -0.00       -0.00
   0.00000000   0.00022739  -0.00000000            0.00       33.45       -0.00
  -0.00000000   0.00000000   0.00022739           -0.00        0.00       33.45

     Energy error            =      4.0E-01 Ry
     Gradient error          =      1.7E-31 Ry/Bohr
     Cell gradient error     =      4.7E+02 kbar

     number of scf cycles    =   2
     number of bfgs steps    =   1

     enthalpy           old  =     -29.9137276242 Ry
     enthalpy           new  =     -30.3100266864 Ry

     CASE: enthalpy          _new < enthalpy          _old

     new trust radius        =       0.5660134499 bohr
ibrav =      2
 celldm(1) =      8.66884920
Input lattice vectors:
    -0.37394854    -0.00000000     0.37394854
    -0.00000000     0.37394854     0.37394854
    -0.37394854     0.37394854     0.00000000
New lattice vectors in INITIAL alat:
    -0.37394854     0.00000000     0.37394854
     0.00000000     0.37394854     0.37394854
    -0.37394854     0.37394854     0.00000000
New lattice vectors in NEW alat (for information only):
    -0.50000000     0.00000000     0.50000000
     0.00000000     0.50000000     0.50000000
    -0.50000000     0.50000000     0.00000000
Discrepancy in bohr =     0.000000    0.000000    0.000000
     new conv_thr            =            1.0E-10 Ry

     new unit-cell volume =    162.86372 a.u.^3 (    24.13391 Ang^3 )
     density =      4.34243 g/cm^3

CELL_PARAMETERS (alat= 11.59096544)
  -0.373948540   0.000000000   0.373948540
   0.000000000   0.373948540   0.373948540
  -0.373948540   0.373948540   0.000000000

ATOMIC_POSITIONS (crystal)
Li            0.5000000000        0.5000000000       -0.5000000000
Si           -0.2500000000        0.7500000000       -0.2500000000
Si           -0.7500000000        2.2500000000       -0.7500000000



     Writing config-only to output data dir ./output/LiSi.save/
     NEW-OLD atomic charge density approx. for the potential

     negative rho (up, down):  4.185E-01 0.000E+00
     extrapolated charge    2.88918, renormalised to   11.00000

     total cpu time spent up to now is        6.6 secs

     Self-consistent Calculation

     iteration #  1     ecut=    80.00 Ry     beta= 0.70
     Davidson diagonalization with overlap
     ethr =  1.00E-06,  avg # of iterations = 14.4

     negative rho (up, down):  4.009E-02 0.000E+00

     total cpu time spent up to now is        7.0 secs

     total energy              =     -29.71110070 Ry
     estimated scf accuracy    <       3.40027844 Ry

     iteration #  2     ecut=    80.00 Ry     beta= 0.70
     Davidson diagonalization with overlap
     ethr =  1.00E-02,  avg # of iterations =  2.2

     total cpu time spent up to now is        7.1 secs

     total energy              =     -30.84386515 Ry
     estimated scf accuracy    <       1.03389948 Ry

     iteration #  3     ecut=    80.00 Ry     beta= 0.70
     Davidson diagonalization with overlap
     ethr =  9.40E-03,  avg # of iterations =  1.0

     total cpu time spent up to now is        7.2 secs

     total energy              =     -30.87199624 Ry
     estimated scf accuracy    <       0.06554943 Ry

     iteration #  4     ecut=    80.00 Ry     beta= 0.70
     Davidson diagonalization with overlap
     ethr =  5.96E-04,  avg # of iterations =  2.0

     total cpu time spent up to now is        7.3 secs

     total energy              =     -30.88298894 Ry
     estimated scf accuracy    <       0.00602118 Ry

     iteration #  5     ecut=    80.00 Ry     beta= 0.70
     Davidson diagonalization with overlap
     ethr =  5.47E-05,  avg # of iterations =  2.2

     total cpu time spent up to now is        7.4 secs

     total energy              =     -30.88361979 Ry
     estimated scf accuracy    <       0.00009197 Ry

     iteration #  6     ecut=    80.00 Ry     beta= 0.70
     Davidson diagonalization with overlap
     ethr =  8.36E-07,  avg # of iterations =  4.4

     total cpu time spent up to now is        7.6 secs

     total energy              =     -30.88366058 Ry
     estimated scf accuracy    <       0.00001065 Ry

     iteration #  7     ecut=    80.00 Ry     beta= 0.70
     Davidson diagonalization with overlap
     ethr =  9.68E-08,  avg # of iterations =  1.3

     total cpu time spent up to now is        7.7 secs

     total energy              =     -30.88366041 Ry
     estimated scf accuracy    <       0.00000152 Ry

     iteration #  8     ecut=    80.00 Ry     beta= 0.70
     Davidson diagonalization with overlap
     ethr =  1.38E-08,  avg # of iterations =  2.0

     total cpu time spent up to now is        7.8 secs

     total energy              =     -30.88366073 Ry
     estimated scf accuracy    <          7.3E-09 Ry

     iteration #  9     ecut=    80.00 Ry     beta= 0.70
     Davidson diagonalization with overlap
     ethr =  6.66E-11,  avg # of iterations =  4.1

     total cpu time spent up to now is        8.0 secs

     End of self-consistent calculation

          k = 0.0000 0.0000 0.0000 (  4693 PWs)   bands (ev):

   -31.4341  -0.3636  15.2141  15.2141  15.2141  16.6908  16.6908  16.6908
    21.6520  22.9419

          k =-0.2674 0.2674-0.2674 (  4732 PWs)   bands (ev):

   -31.4248   0.2768  10.5256  14.0390  14.0390  17.6929  17.6929  19.6112
    20.0264  20.0264

          k =-0.5348 0.5348-0.5348 (  4702 PWs)   bands (ev):

   -31.4099   2.1468   5.9938  13.6004  13.6004  15.5138  15.5138  20.0730
    21.9748  24.4783

          k =-0.0000 0.5348-0.0000 (  4725 PWs)   bands (ev):

   -31.4218   0.4897  11.8912  11.8912  13.5638  14.4340  16.9606  21.7343
    21.7343  24.8419

          k =-0.2674 0.8022-0.2674 (  4700 PWs)   bands (ev):

   -31.4088   1.9774   7.7682  11.1362  11.5761  14.4412  18.6651  19.8986
    23.7863  24.3352

          k = 0.8022-0.2674 0.8022 (  4703 PWs)   bands (ev):

   -31.4039   3.5191   5.2810  10.0450  11.8515  15.3911  18.1249  22.3692
    23.8965  24.1062

          k = 0.5348 0.0000 0.5348 (  4716 PWs)   bands (ev):

   -31.4137   1.3495   8.6872  10.3031  13.9991  17.0517  17.1360  19.5452
    21.4042  22.8527

          k =-0.0000 1.0697-0.0000 (  4696 PWs)   bands (ev):

   -31.4022   2.9513   8.4003   9.9044   9.9044  11.8577  16.7024  24.7789
    26.5431  26.5431

          k = 1.0697-0.0000 1.0697 (  4700 PWs)   bands (ev):

   -31.3991   4.5309   6.2347   7.8146  10.1462  13.9137  18.3844  22.5148
    25.7921  27.0399

          k = 0.8022-0.2674 1.3371 (  4712 PWs)   bands (ev):

   -31.4009   3.8617   6.6364   8.1942   9.8128  16.7789  18.1751  20.1152
    24.6352  26.8201

     the Fermi energy is    15.4210 ev

!    total energy              =     -30.88366074 Ry
     estimated scf accuracy    <          6.6E-11 Ry
     smearing contrib. (-TS)   =      -0.00197162 Ry
     internal energy E=F+TS    =     -30.88168912 Ry

     The total energy is F=E-TS. E is the sum of the following terms:
     one-electron contribution =       6.40097625 Ry
     hartree contribution      =       3.44505849 Ry
     xc contribution           =     -10.58027085 Ry
     ewald contribution        =     -30.14745301 Ry

     convergence has been achieved in   9 iterations

     Forces acting on atoms (cartesian axes, Ry/au):

     atom    1 type  1   force =     0.00000000    0.00000000    0.00000000
     atom    2 type  2   force =     0.00000000    0.00000000   -0.00000000
     atom    3 type  2   force =    -0.00000000   -0.00000000    0.00000000
     The non-local contrib.  to forces
     atom    1 type  1   force =     0.00000000    0.00000000    0.00000000
     atom    2 type  2   force =    -0.00000000   -0.00000000   -0.00000000
     atom    3 type  2   force =     0.00000000    0.00000000    0.00000000
     The ionic contribution  to forces
     atom    1 type  1   force =     0.00000000   -0.00000000   -0.00000000
     atom    2 type  2   force =     0.00000000   -0.00000000   -0.00000000
     atom    3 type  2   force =    -0.00000000    0.00000000   -0.00000000
     The local contribution  to forces
     atom    1 type  1   force =    -0.00000000   -0.00000000    0.00000000
     atom    2 type  2   force =    -0.00000000    0.00000000   -0.00000000
     atom    3 type  2   force =    -0.00000000   -0.00000000    0.00000000
     The core correction contribution to forces
     atom    1 type  1   force =     0.00000000    0.00000000    0.00000000
     atom    2 type  2   force =     0.00000000    0.00000000   -0.00000000
     atom    3 type  2   force =    -0.00000000   -0.00000000   -0.00000000
     The Hubbard contrib.    to forces
     atom    1 type  1   force =     0.00000000    0.00000000    0.00000000
     atom    2 type  2   force =     0.00000000    0.00000000    0.00000000
     atom    3 type  2   force =     0.00000000    0.00000000    0.00000000
     The SCF correction term to forces
     atom    1 type  1   force =     0.00000000    0.00000000   -0.00000000
     atom    2 type  2   force =    -0.00000000    0.00000000   -0.00000000
     atom    3 type  2   force =     0.00000000   -0.00000000    0.00000000

     Total force =     0.000000     Total SCF correction =     0.000000


     Computing stress (Cartesian axis) and pressure

          total   stress  (Ry/bohr**3)                   (kbar)     P=     1436.15
   0.00976278   0.00000000   0.00000000         1436.15        0.00        0.00
  -0.00000000   0.00976278   0.00000000           -0.00     1436.15        0.00
   0.00000000   0.00000000   0.00976278            0.00        0.00     1436.15

     Energy error            =      2.0E-02 Ry
     Gradient error          =      2.7E-32 Ry/Bohr
     Cell gradient error     =      9.4E+02 kbar

     number of scf cycles    =   3
     number of bfgs steps    =   2

     enthalpy           old  =     -30.3100266864 Ry
     enthalpy           new  =     -30.3300981995 Ry

     CASE: enthalpy          _new < enthalpy          _old

     new trust radius        =       0.3000644336 bohr
ibrav =      2
 celldm(1) =      9.68798908
Input lattice vectors:
    -0.41791122     0.00000000     0.41791122
     0.00000000     0.41791122     0.41791122
    -0.41791122     0.41791122     0.00000000
New lattice vectors in INITIAL alat:
    -0.41791122     0.00000000     0.41791122
     0.00000000     0.41791122     0.41791122
    -0.41791122     0.41791122     0.00000000
New lattice vectors in NEW alat (for information only):
    -0.50000000     0.00000000     0.50000000
     0.00000000     0.50000000     0.50000000
    -0.50000000     0.50000000     0.00000000
Discrepancy in bohr =     0.000000    0.000000    0.000000
     new conv_thr            =            1.0E-10 Ry

     new unit-cell volume =    227.32172 a.u.^3 (    33.68560 Ang^3 )
     density =      3.11112 g/cm^3

CELL_PARAMETERS (alat= 11.59096544)
  -0.417911223   0.000000000   0.417911223
   0.000000000   0.417911223   0.417911223
  -0.417911223   0.417911223   0.000000000

ATOMIC_POSITIONS (crystal)
Li            0.5000000000        0.5000000000       -0.5000000000
Si           -0.2500000000        0.7500000000       -0.2500000000
Si           -0.7500000000        2.2500000000       -0.7500000000



     Writing config-only to output data dir ./output/LiSi.save/
     NEW-OLD atomic charge density approx. for the potential
     extrapolated charge   14.11745, renormalised to   11.00000

     total cpu time spent up to now is        9.2 secs

     Self-consistent Calculation

     iteration #  1     ecut=    80.00 Ry     beta= 0.70
     Davidson diagonalization with overlap
     ethr =  1.00E-06,  avg # of iterations = 11.7

     total cpu time spent up to now is        9.5 secs

     total energy              =     -31.11418026 Ry
     estimated scf accuracy    <       0.02438383 Ry

     iteration #  2     ecut=    80.00 Ry     beta= 0.70
     Davidson diagonalization with overlap
     ethr =  2.22E-04,  avg # of iterations =  4.1

     total cpu time spent up to now is        9.6 secs

     total energy              =     -31.22134530 Ry
     estimated scf accuracy    <       0.04303969 Ry

     iteration #  3     ecut=    80.00 Ry     beta= 0.70
     Davidson diagonalization with overlap
     ethr =  2.22E-04,  avg # of iterations =  1.0

     total cpu time spent up to now is        9.7 secs

     total energy              =     -31.21185589 Ry
     estimated scf accuracy    <       0.01531655 Ry

     iteration #  4     ecut=    80.00 Ry     beta= 0.70
     Davidson diagonalization with overlap
     ethr =  1.39E-04,  avg # of iterations =  2.0

     total cpu time spent up to now is        9.9 secs

     total energy              =     -31.21521020 Ry
     estimated scf accuracy    <       0.00278464 Ry

     iteration #  5     ecut=    80.00 Ry     beta= 0.70
     Davidson diagonalization with overlap
     ethr =  2.53E-05,  avg # of iterations =  1.0

     total cpu time spent up to now is       10.0 secs

     total energy              =     -31.21473655 Ry
     estimated scf accuracy    <       0.00083361 Ry

     iteration #  6     ecut=    80.00 Ry     beta= 0.70
     Davidson diagonalization with overlap
     ethr =  7.58E-06,  avg # of iterations =  2.0

     total cpu time spent up to now is       10.1 secs

     total energy              =     -31.21487755 Ry
     estimated scf accuracy    <       0.00001277 Ry

     iteration #  7     ecut=    80.00 Ry     beta= 0.70
     Davidson diagonalization with overlap
     ethr =  1.16E-07,  avg # of iterations =  2.3

     total cpu time spent up to now is       10.2 secs

     total energy              =     -31.21488018 Ry
     estimated scf accuracy    <       0.00000182 Ry

     iteration #  8     ecut=    80.00 Ry     beta= 0.70
     Davidson diagonalization with overlap
     ethr =  1.66E-08,  avg # of iterations =  1.1

     total cpu time spent up to now is       10.3 secs

     total energy              =     -31.21488028 Ry
     estimated scf accuracy    <       0.00000011 Ry

     iteration #  9     ecut=    80.00 Ry     beta= 0.70
     Davidson diagonalization with overlap
     ethr =  9.59E-10,  avg # of iterations =  2.4

     total cpu time spent up to now is       10.4 secs

     total energy              =     -31.21488029 Ry
     estimated scf accuracy    <       0.00000002 Ry

     iteration # 10     ecut=    80.00 Ry     beta= 0.70
     Davidson diagonalization with overlap
     ethr =  1.85E-10,  avg # of iterations =  1.3

     total cpu time spent up to now is       10.5 secs

     total energy              =     -31.21488029 Ry
     estimated scf accuracy    <       0.00000001 Ry

     iteration # 11     ecut=    80.00 Ry     beta= 0.70
     Davidson diagonalization with overlap
     ethr =  1.13E-10,  avg # of iterations =  2.0

     total cpu time spent up to now is       10.6 secs

     End of self-consistent calculation

          k = 0.0000 0.0000 0.0000 (  4693 PWs)   bands (ev):

   -35.3080  -2.8840   9.9206   9.9206   9.9206  12.5916  12.5916  12.5916
    12.7926  16.7090

          k =-0.2393 0.2393-0.2393 (  4732 PWs)   bands (ev):

   -35.3059  -2.3246   6.1792   9.4057   9.4057  12.5988  12.5988  13.0370
    15.0573  15.0573

          k =-0.4786 0.4786-0.4786 (  4702 PWs)   bands (ev):

   -35.3025  -0.6600   2.3075   9.2290   9.2290  10.7361  10.7361  13.6116
    14.6084  18.5338

          k = 0.0000 0.4786 0.0000 (  4725 PWs)   bands (ev):

   -35.3052  -2.1448   7.7678   7.7678   7.7856   9.8518  12.7820  15.8490
    15.8490  16.2880

          k =-0.2393 0.7179-0.2393 (  4700 PWs)   bands (ev):

   -35.3022  -0.8654   3.8553   7.2010   7.4610   9.1378  13.9070  14.3559
    16.5273  17.1971

          k = 0.7179-0.2393 0.7179 (  4703 PWs)   bands (ev):

   -35.3011   0.5753   1.6282   6.1764   7.8212  10.2382  12.7284  15.5906
    17.2942  18.1095

          k = 0.4786 0.0000 0.4786 (  4716 PWs)   bands (ev):

   -35.3034  -1.3960   4.5060   6.4659   9.6222  11.4980  11.8726  14.3212
    14.9797  16.9877

          k = 0.0000 0.9571 0.0000 (  4696 PWs)   bands (ev):

   -35.3007  -0.1097   4.9013   6.1700   6.2030   6.2030  12.3157  18.9722
    18.9722  19.1043

          k = 0.9571-0.0000 0.9571 (  4700 PWs)   bands (ev):

   -35.3000   1.0830   2.9346   4.1619   6.4111   8.5372  13.6692  16.2302
    18.5663  19.9172

          k = 0.7179-0.2393 1.1964 (  4712 PWs)   bands (ev):

   -35.3004   0.6910   2.8104   4.9344   5.7883  11.0207  12.9196  14.8486
    18.6657  19.0171

     the Fermi energy is    10.3011 ev

!    total energy              =     -31.21488029 Ry
     estimated scf accuracy    <          3.6E-11 Ry
     smearing contrib. (-TS)   =      -0.00060647 Ry
     internal energy E=F+TS    =     -31.21427382 Ry

     The total energy is F=E-TS. E is the sum of the following terms:
     one-electron contribution =       2.08797181 Ry
     hartree contribution      =       3.63775224 Ry
     xc contribution           =      -9.96394312 Ry
     ewald contribution        =     -26.97605475 Ry

     convergence has been achieved in  11 iterations

     Forces acting on atoms (cartesian axes, Ry/au):

     atom    1 type  1   force =    -0.00000000   -0.00000000    0.00000000
     atom    2 type  2   force =     0.00000000    0.00000000    0.00000000
     atom    3 type  2   force =    -0.00000000   -0.00000000    0.00000000
     The non-local contrib.  to forces
     atom    1 type  1   force =    -0.00000000   -0.00000000   -0.00000000
     atom    2 type  2   force =     0.00000000    0.00000000    0.00000000
     atom    3 type  2   force =    -0.00000000   -0.00000000   -0.00000000
     The ionic contribution  to forces
     atom    1 type  1   force =     0.00000000   -0.00000000   -0.00000000
     atom    2 type  2   force =    -0.00000000   -0.00000000   -0.00000000
     atom    3 type  2   force =    -0.00000000   -0.00000000   -0.00000000
     The local contribution  to forces
     atom    1 type  1   force =    -0.00000000    0.00000000    0.00000000
     atom    2 type  2   force =    -0.00000000    0.00000000   -0.00000000
     atom    3 type  2   force =     0.00000000   -0.00000000    0.00000000
     The core correction contribution to forces
     atom    1 type  1   force =     0.00000000    0.00000000    0.00000000
     atom    2 type  2   force =     0.00000000    0.00000000    0.00000000
     atom    3 type  2   force =     0.00000000    0.00000000    0.00000000
     The Hubbard contrib.    to forces
     atom    1 type  1   force =     0.00000000    0.00000000    0.00000000
     atom    2 type  2   force =     0.00000000    0.00000000    0.00000000
     atom    3 type  2   force =     0.00000000    0.00000000    0.00000000
     The SCF correction term to forces
     atom    1 type  1   force =     0.00000000   -0.00000000    0.00000000
     atom    2 type  2   force =     0.00000000   -0.00000000    0.00000000
     atom    3 type  2   force =    -0.00000000    0.00000000   -0.00000000

     Total force =     0.000000     Total SCF correction =     0.000000


     Computing stress (Cartesian axis) and pressure

          total   stress  (Ry/bohr**3)                   (kbar)     P=      319.49
   0.00217185  -0.00000000   0.00000000          319.49       -0.00        0.00
  -0.00000000   0.00217185  -0.00000000           -0.00      319.49       -0.00
   0.00000000  -0.00000000   0.00217185            0.00       -0.00      319.49

     Energy error            =      1.1E-01 Ry
     Gradient error          =      1.2E-31 Ry/Bohr
     Cell gradient error     =      1.8E+02 kbar

     number of scf cycles    =   4
     number of bfgs steps    =   3

     enthalpy           old  =     -30.3300981995 Ry
     enthalpy           new  =     -30.4422294706 Ry

     CASE: enthalpy          _new < enthalpy          _old

     new trust radius        =       0.0615658040 bohr
ibrav =      2
 celldm(1) =      9.49019070
Input lattice vectors:
    -0.40937879     0.00000000     0.40937879
     0.00000000     0.40937879     0.40937879
    -0.40937879     0.40937879    -0.00000000
New lattice vectors in INITIAL alat:
    -0.40937879     0.00000000     0.40937879
     0.00000000     0.40937879     0.40937879
    -0.40937879     0.40937879     0.00000000
New lattice vectors in NEW alat (for information only):
    -0.50000000     0.00000000     0.50000000
     0.00000000     0.50000000     0.50000000
    -0.50000000     0.50000000     0.00000000
Discrepancy in bohr =     0.000000    0.000000    0.000000
     new conv_thr            =            1.0E-10 Ry

     new unit-cell volume =    213.68047 a.u.^3 (    31.66418 Ang^3 )
     density =      3.30973 g/cm^3

CELL_PARAMETERS (alat= 11.59096544)
  -0.409378785   0.000000000   0.409378785
   0.000000000   0.409378785   0.409378785
  -0.409378785   0.409378785   0.000000000

ATOMIC_POSITIONS (crystal)
Li            0.5000000000        0.5000000000       -0.5000000000
Si           -0.2500000000        0.7500000000       -0.2500000000
Si           -0.7500000000        2.2500000000       -0.7500000000



     Writing config-only to output data dir ./output/LiSi.save/
     NEW-OLD atomic charge density approx. for the potential
     extrapolated charge   10.29814, renormalised to   11.00000

     total cpu time spent up to now is       11.9 secs

     Self-consistent Calculation

     iteration #  1     ecut=    80.00 Ry     beta= 0.70
     Davidson diagonalization with overlap
     ethr =  1.00E-06,  avg # of iterations =  7.3

     total cpu time spent up to now is       12.1 secs

     total energy              =     -31.17362421 Ry
     estimated scf accuracy    <       0.00198211 Ry

     iteration #  2     ecut=    80.00 Ry     beta= 0.70
     Davidson diagonalization with overlap
     ethr =  1.80E-05,  avg # of iterations =  3.1

     total cpu time spent up to now is       12.3 secs

     total energy              =     -31.17973031 Ry
     estimated scf accuracy    <       0.00243362 Ry

     iteration #  3     ecut=    80.00 Ry     beta= 0.70
     Davidson diagonalization with overlap
     ethr =  1.80E-05,  avg # of iterations =  1.0

     total cpu time spent up to now is       12.4 secs

     total energy              =     -31.17935848 Ry
     estimated scf accuracy    <       0.00073884 Ry

     iteration #  4     ecut=    80.00 Ry     beta= 0.70
     Davidson diagonalization with overlap
     ethr =  6.72E-06,  avg # of iterations =  1.4

     total cpu time spent up to now is       12.5 secs

     total energy              =     -31.17944164 Ry
     estimated scf accuracy    <       0.00001006 Ry

     iteration #  5     ecut=    80.00 Ry     beta= 0.70
     Davidson diagonalization with overlap
     ethr =  9.14E-08,  avg # of iterations =  2.3

     total cpu time spent up to now is       12.6 secs

     total energy              =     -31.17944447 Ry
     estimated scf accuracy    <       0.00000031 Ry

     iteration #  6     ecut=    80.00 Ry     beta= 0.70
     Davidson diagonalization with overlap
     ethr =  2.79E-09,  avg # of iterations =  2.8

     total cpu time spent up to now is       12.7 secs

     total energy              =     -31.17944457 Ry
     estimated scf accuracy    <       0.00000001 Ry

     iteration #  7     ecut=    80.00 Ry     beta= 0.70
     Davidson diagonalization with overlap
     ethr =  1.31E-10,  avg # of iterations =  2.5

     total cpu time spent up to now is       12.8 secs

     total energy              =     -31.17944458 Ry
     estimated scf accuracy    <          2.4E-10 Ry

     iteration #  8     ecut=    80.00 Ry     beta= 0.70
     Davidson diagonalization with overlap
     ethr =  2.17E-12,  avg # of iterations =  3.3

     total cpu time spent up to now is       13.0 secs

     total energy              =     -31.17944458 Ry
     estimated scf accuracy    <          8.2E-10 Ry

     iteration #  9     ecut=    80.00 Ry     beta= 0.70
     Davidson diagonalization with overlap
     ethr =  2.17E-12,  avg # of iterations =  2.0

     total cpu time spent up to now is       13.1 secs

     End of self-consistent calculation

          k = 0.0000 0.0000 0.0000 (  4693 PWs)   bands (ev):

   -34.6127  -2.4909  10.7843  10.7843  10.7843  13.2902  13.2902  13.2902
    14.4324  17.8522

          k =-0.2443 0.2443-0.2443 (  4732 PWs)   bands (ev):

   -34.6098  -1.9138   6.9175  10.1807  10.1807  13.4535  13.4535  14.2238
    15.8826  15.8826

          k =-0.4885 0.4885-0.4885 (  4702 PWs)   bands (ev):

   -34.6052  -0.2004   2.9092   9.9583   9.9583  11.5331  11.5331  14.7433
    15.8229  19.5273

          k =-0.0000 0.4885-0.0000 (  4725 PWs)   bands (ev):

   -34.6089  -1.7275   8.4506   8.4506   8.7619  10.6190  13.4800  16.8530
    16.8530  17.8524

          k =-0.2443 0.7328-0.2443 (  4700 PWs)   bands (ev):

   -34.6049  -0.4041   4.5128   7.8496   8.1412  10.0186  14.6972  15.2967
    17.7578  18.4384

          k = 0.7328-0.2443 0.7328 (  4703 PWs)   bands (ev):

   -34.6034   1.0689   2.2219   6.8079   8.4873  11.1073  13.6361  16.7999
    18.4143  19.2475

          k = 0.4885 0.0000 0.4885 (  4716 PWs)   bands (ev):

   -34.6064  -0.9547   5.2133   7.0906  10.3526  12.4132  12.7667  15.5445
    15.7492  17.9607

          k =-0.0000 0.9771-0.0000 (  4696 PWs)   bands (ev):

   -34.6028   0.3924   5.4735   6.8093   6.8093   7.1202  13.0355  20.0577
    20.2752  20.2752

          k = 0.9771-0.0000 0.9771 (  4700 PWs)   bands (ev):

   -34.6019   1.6551   3.5151   4.7275   7.0235   9.4201  14.4474  17.3001
    19.9803  20.9094

          k = 0.7328-0.2443 1.2214 (  4712 PWs)   bands (ev):

   -34.6025   1.2179   3.4524   5.4644   6.4368  11.9749  13.8419  15.6975
    19.6689  20.3538

     the Fermi energy is    11.1736 ev

!    total energy              =     -31.17944458 Ry
     estimated scf accuracy    <          1.8E-11 Ry
     smearing contrib. (-TS)   =      -0.00085765 Ry
     internal energy E=F+TS    =     -31.17858692 Ry

     The total energy is F=E-TS. E is the sum of the following terms:
     one-electron contribution =       2.83198072 Ry
     hartree contribution      =       3.59640315 Ry
     xc contribution           =     -10.06867023 Ry
     ewald contribution        =     -27.53830056 Ry

     convergence has been achieved in   9 iterations

     Forces acting on atoms (cartesian axes, Ry/au):

     atom    1 type  1   force =     0.00000000    0.00000000    0.00000000
     atom    2 type  2   force =     0.00000000    0.00000000   -0.00000000
     atom    3 type  2   force =    -0.00000000   -0.00000000    0.00000000
     The non-local contrib.  to forces
     atom    1 type  1   force =    -0.00000000    0.00000000    0.00000000
     atom    2 type  2   force =    -0.00000000   -0.00000000    0.00000000
     atom    3 type  2   force =    -0.00000000   -0.00000000    0.00000000
     The ionic contribution  to forces
     atom    1 type  1   force =     0.00000000   -0.00000000   -0.00000000
     atom    2 type  2   force =    -0.00000000   -0.00000000   -0.00000000
     atom    3 type  2   force =    -0.00000000   -0.00000000   -0.00000000
     The local contribution  to forces
     atom    1 type  1   force =    -0.00000000    0.00000000    0.00000000
     atom    2 type  2   force =     0.00000000   -0.00000000   -0.00000000
     atom    3 type  2   force =    -0.00000000    0.00000000    0.00000000
     The core correction contribution to forces
     atom    1 type  1   force =     0.00000000    0.00000000    0.00000000
     atom    2 type  2   force =     0.00000000    0.00000000    0.00000000
     atom    3 type  2   force =     0.00000000   -0.00000000    0.00000000
     The Hubbard contrib.    to forces
     atom    1 type  1   force =     0.00000000    0.00000000    0.00000000
     atom    2 type  2   force =     0.00000000    0.00000000    0.00000000
     atom    3 type  2   force =     0.00000000    0.00000000    0.00000000
     The SCF correction term to forces
     atom    1 type  1   force =     0.00000000   -0.00000000    0.00000000
     atom    2 type  2   force =    -0.00000000    0.00000000   -0.00000000
     atom    3 type  2   force =    -0.00000000   -0.00000000   -0.00000000

     Total force =     0.000000     Total SCF correction =     0.000000


     Computing stress (Cartesian axis) and pressure

          total   stress  (Ry/bohr**3)                   (kbar)     P=      450.55
   0.00306278   0.00000000  -0.00000000          450.55        0.00       -0.00
   0.00000000   0.00306278  -0.00000000            0.00      450.55       -0.00
  -0.00000000  -0.00000000   0.00306278           -0.00       -0.00      450.55

     Energy error            =      1.1E-02 Ry
     Gradient error          =      1.0E-31 Ry/Bohr
     Cell gradient error     =      4.9E+01 kbar

     number of scf cycles    =   5
     number of bfgs steps    =   4

     enthalpy           old  =     -30.4422294706 Ry
     enthalpy           new  =     -30.4531594273 Ry

     CASE: enthalpy          _new < enthalpy          _old

     new trust radius        =       0.0217298488 bohr
ibrav =      2
 celldm(1) =      9.41965334
Input lattice vectors:
    -0.40633601    -0.00000000     0.40633601
     0.00000000     0.40633601     0.40633601
    -0.40633601     0.40633601    -0.00000000
New lattice vectors in INITIAL alat:
    -0.40633601     0.00000000     0.40633601
     0.00000000     0.40633601     0.40633601
    -0.40633601     0.40633601     0.00000000
New lattice vectors in NEW alat (for information only):
    -0.50000000     0.00000000     0.50000000
     0.00000000     0.50000000     0.50000000
    -0.50000000     0.50000000     0.00000000
Discrepancy in bohr =     0.000000    0.000000    0.000000
     new conv_thr            =            1.0E-10 Ry

     new unit-cell volume =    208.95115 a.u.^3 (    30.96337 Ang^3 )
     density =      3.38464 g/cm^3

CELL_PARAMETERS (alat= 11.59096544)
  -0.406336012   0.000000000   0.406336012
   0.000000000   0.406336012   0.406336012
  -0.406336012   0.406336012   0.000000000

ATOMIC_POSITIONS (crystal)
Li            0.5000000000        0.5000000000       -0.5000000000
Si           -0.2500000000        0.7500000000       -0.2500000000
Si           -0.7500000000        2.2500000000       -0.7500000000



     Writing config-only to output data dir ./output/LiSi.save/
     NEW-OLD atomic charge density approx. for the potential
     extrapolated charge   10.75116, renormalised to   11.00000

     total cpu time spent up to now is       14.3 secs

     Self-consistent Calculation

     iteration #  1     ecut=    80.00 Ry     beta= 0.70
     Davidson diagonalization with overlap
     ethr =  1.00E-06,  avg # of iterations =  4.8

     total cpu time spent up to now is       14.5 secs

     total energy              =     -31.16337846 Ry
     estimated scf accuracy    <       0.00023052 Ry

     iteration #  2     ecut=    80.00 Ry     beta= 0.70
     Davidson diagonalization with overlap
     ethr =  2.10E-06,  avg # of iterations =  3.1

     total cpu time spent up to now is       14.6 secs

     total energy              =     -31.16413871 Ry
     estimated scf accuracy    <       0.00030396 Ry

     iteration #  3     ecut=    80.00 Ry     beta= 0.70
     Davidson diagonalization with overlap
     ethr =  2.10E-06,  avg # of iterations =  1.0

     total cpu time spent up to now is       14.7 secs

     total energy              =     -31.16409205 Ry
     estimated scf accuracy    <       0.00009514 Ry

     iteration #  4     ecut=    80.00 Ry     beta= 0.70
     Davidson diagonalization with overlap
     ethr =  8.65E-07,  avg # of iterations =  1.3

     total cpu time spent up to now is       14.8 secs

     total energy              =     -31.16410073 Ry
     estimated scf accuracy    <       0.00000262 Ry

     iteration #  5     ecut=    80.00 Ry     beta= 0.70
     Davidson diagonalization with overlap
     ethr =  2.38E-08,  avg # of iterations =  2.1

     total cpu time spent up to now is       15.0 secs

     total energy              =     -31.16410134 Ry
     estimated scf accuracy    <       0.00000001 Ry

     iteration #  6     ecut=    80.00 Ry     beta= 0.70
     Davidson diagonalization with overlap
     ethr =  1.14E-10,  avg # of iterations =  3.6

     total cpu time spent up to now is       15.1 secs

     total energy              =     -31.16410134 Ry
     estimated scf accuracy    <       0.00000001 Ry

     iteration #  7     ecut=    80.00 Ry     beta= 0.70
     Davidson diagonalization with overlap
     ethr =  1.14E-10,  avg # of iterations =  1.7

     total cpu time spent up to now is       15.2 secs

     total energy              =     -31.16410135 Ry
     estimated scf accuracy    <          5.5E-10 Ry

     iteration #  8     ecut=    80.00 Ry     beta= 0.70
     Davidson diagonalization with overlap
     ethr =  5.00E-12,  avg # of iterations =  2.4

     total cpu time spent up to now is       15.3 secs

     total energy              =     -31.16410135 Ry
     estimated scf accuracy    <          7.5E-10 Ry

     iteration #  9     ecut=    80.00 Ry     beta= 0.70
     Davidson diagonalization with overlap
     ethr =  5.00E-12,  avg # of iterations =  1.5

     total cpu time spent up to now is       15.4 secs

     End of self-consistent calculation

          k = 0.0000 0.0000 0.0000 (  4693 PWs)   bands (ev):

   -34.3582  -2.3413  11.1091  11.1091  11.1091  13.5494  13.5494  13.5494
    15.0508  18.2800

          k =-0.2461 0.2461-0.2461 (  4732 PWs)   bands (ev):

   -34.3551  -1.7581   7.1912  10.4702  10.4702  13.7721  13.7721  14.6569
    16.1912  16.1912

          k =-0.4922 0.4922-0.4922 (  4702 PWs)   bands (ev):

   -34.3500  -0.0279   3.1350  10.2307  10.2307  11.8308  11.8308  15.1597
    16.2791  19.8982

          k =-0.0000 0.4922-0.0000 (  4725 PWs)   bands (ev):

   -34.3541  -1.5694   8.7063   8.7063   9.1247  10.9053  13.7406  17.2248
    17.2248  18.4458

          k =-0.2461 0.7383-0.2461 (  4700 PWs)   bands (ev):

   -34.3496  -0.2305   4.7574   8.0928   8.3960  10.3485  14.9924  15.6463
    18.2157  18.8971

          k = 0.7383-0.2461 0.7383 (  4703 PWs)   bands (ev):

   -34.3479   1.2528   2.4451   7.0453   8.7369  11.4310  13.9744  17.2453
    18.8292  19.6786

          k = 0.4922 0.0000 0.4922 (  4716 PWs)   bands (ev):

   -34.3513  -0.7882   5.4761   7.3255  10.6254  12.7564  13.0989  15.9976
    16.0358  18.3248

          k =-0.0000 0.9844-0.0000 (  4696 PWs)   bands (ev):

   -34.3473   0.5807   5.6886   7.0370   7.0370   7.4750  13.3055  20.4132
    20.7581  20.7581

          k = 0.9844-0.0000 0.9844 (  4700 PWs)   bands (ev):

   -34.3463   1.8690   3.7280   4.9438   7.2534   9.7519  14.7388  17.6973
    20.5089  21.2787

          k = 0.7383-0.2461 1.2305 (  4712 PWs)   bands (ev):

   -34.3469   1.4149   3.6916   5.6638   6.6815  12.3322  14.1818  16.0176
    20.0428  20.8498

     the Fermi energy is    11.4974 ev

!    total energy              =     -31.16410135 Ry
     estimated scf accuracy    <          2.3E-11 Ry
     smearing contrib. (-TS)   =      -0.00093698 Ry
     internal energy E=F+TS    =     -31.16316437 Ry

     The total energy is F=E-TS. E is the sum of the following terms:
     one-electron contribution =       3.10681590 Ry
     hartree contribution      =       3.58216349 Ry
     xc contribution           =     -10.10762763 Ry
     ewald contribution        =     -27.74451613 Ry

     convergence has been achieved in   9 iterations

     Forces acting on atoms (cartesian axes, Ry/au):

     atom    1 type  1   force =    -0.00000000    0.00000000    0.00000000
     atom    2 type  2   force =     0.00000000    0.00000000   -0.00000000
     atom    3 type  2   force =     0.00000000   -0.00000000    0.00000000
     The non-local contrib.  to forces
     atom    1 type  1   force =     0.00000000    0.00000000   -0.00000000
     atom    2 type  2   force =    -0.00000000    0.00000000   -0.00000000
     atom    3 type  2   force =    -0.00000000    0.00000000    0.00000000
     The ionic contribution  to forces
     atom    1 type  1   force =     0.00000000   -0.00000000   -0.00000000
     atom    2 type  2   force =    -0.00000000   -0.00000000   -0.00000000
     atom    3 type  2   force =    -0.00000000   -0.00000000   -0.00000000
     The local contribution  to forces
     atom    1 type  1   force =    -0.00000000    0.00000000    0.00000000
     atom    2 type  2   force =    -0.00000000   -0.00000000   -0.00000000
     atom    3 type  2   force =     0.00000000    0.00000000    0.00000000
     The core correction contribution to forces
     atom    1 type  1   force =     0.00000000    0.00000000    0.00000000
     atom    2 type  2   force =     0.00000000    0.00000000    0.00000000
     atom    3 type  2   force =     0.00000000   -0.00000000   -0.00000000
     The Hubbard contrib.    to forces
     atom    1 type  1   force =     0.00000000    0.00000000    0.00000000
     atom    2 type  2   force =     0.00000000    0.00000000    0.00000000
     atom    3 type  2   force =     0.00000000    0.00000000    0.00000000
     The SCF correction term to forces
     atom    1 type  1   force =    -0.00000000    0.00000000   -0.00000000
     atom    2 type  2   force =    -0.00000000    0.00000000    0.00000000
     atom    3 type  2   force =     0.00000000   -0.00000000   -0.00000000

     Total force =     0.000000     Total SCF correction =     0.000000


     Computing stress (Cartesian axis) and pressure

          total   stress  (Ry/bohr**3)                   (kbar)     P=      504.80
   0.00343154  -0.00000000  -0.00000000          504.80       -0.00       -0.00
  -0.00000000   0.00343154   0.00000000           -0.00      504.80        0.00
   0.00000000   0.00000000   0.00343154            0.00        0.00      504.80

     Energy error            =      7.3E-04 Ry
     Gradient error          =      9.1E-32 Ry/Bohr
     Cell gradient error     =      4.8E+00 kbar

     number of scf cycles    =   6
     number of bfgs steps    =   5

     enthalpy           old  =     -30.4531594273 Ry
     enthalpy           new  =     -30.4538908155 Ry

     CASE: enthalpy          _new < enthalpy          _old

     new trust radius        =       0.0018886542 bohr
ibrav =      2
 celldm(1) =      9.42580702
Input lattice vectors:
    -0.40660146     0.00000000     0.40660146
    -0.00000000     0.40660146     0.40660146
    -0.40660146     0.40660146     0.00000000
New lattice vectors in INITIAL alat:
    -0.40660146     0.00000000     0.40660146
     0.00000000     0.40660146     0.40660146
    -0.40660146     0.40660146     0.00000000
New lattice vectors in NEW alat (for information only):
    -0.50000000     0.00000000     0.50000000
     0.00000000     0.50000000     0.50000000
    -0.50000000     0.50000000     0.00000000
Discrepancy in bohr =     0.000000    0.000000    0.000000
     new conv_thr            =            1.0E-10 Ry

     new unit-cell volume =    209.36093 a.u.^3 (    31.02409 Ang^3 )
     density =      3.37802 g/cm^3

CELL_PARAMETERS (alat= 11.59096544)
  -0.406601463   0.000000000   0.406601463
   0.000000000   0.406601463   0.406601463
  -0.406601463   0.406601463   0.000000000

ATOMIC_POSITIONS (crystal)
Li            0.5000000000        0.5000000000       -0.5000000000
Si           -0.2500000000        0.7500000000       -0.2500000000
Si           -0.7500000000        2.2500000000       -0.7500000000



     Writing config-only to output data dir ./output/LiSi.save/
     NEW-OLD atomic charge density approx. for the potential
     extrapolated charge   11.02152, renormalised to   11.00000

     total cpu time spent up to now is       16.6 secs

     Self-consistent Calculation

     iteration #  1     ecut=    80.00 Ry     beta= 0.70
     Davidson diagonalization with overlap
     ethr =  1.00E-06,  avg # of iterations =  2.0

     Threshold (ethr) on eigenvalues was too large:
     Diagonalizing with lowered threshold

     Davidson diagonalization with overlap
     ethr =  1.37E-08,  avg # of iterations =  2.5

     total cpu time spent up to now is       16.9 secs

     total energy              =     -31.16549531 Ry
     estimated scf accuracy    <       0.00000166 Ry

     iteration #  2     ecut=    80.00 Ry     beta= 0.70
     Davidson diagonalization with overlap
     ethr =  1.51E-08,  avg # of iterations =  2.9

     total cpu time spent up to now is       17.0 secs

     total energy              =     -31.16550096 Ry
     estimated scf accuracy    <       0.00000226 Ry

     iteration #  3     ecut=    80.00 Ry     beta= 0.70
     Davidson diagonalization with overlap
     ethr =  1.51E-08,  avg # of iterations =  1.0

     total cpu time spent up to now is       17.1 secs

     total energy              =     -31.16550062 Ry
     estimated scf accuracy    <       0.00000072 Ry

     iteration #  4     ecut=    80.00 Ry     beta= 0.70
     Davidson diagonalization with overlap
     ethr =  6.50E-09,  avg # of iterations =  1.2

     total cpu time spent up to now is       17.2 secs

     total energy              =     -31.16550067 Ry
     estimated scf accuracy    <       0.00000003 Ry

     iteration #  5     ecut=    80.00 Ry     beta= 0.70
     Davidson diagonalization with overlap
     ethr =  2.77E-10,  avg # of iterations =  2.2

     total cpu time spent up to now is       17.3 secs

     End of self-consistent calculation

          k = 0.0000 0.0000 0.0000 (  4693 PWs)   bands (ev):

   -34.3804  -2.3545  11.0804  11.0804  11.0804  13.5266  13.5266  13.5266
    14.9961  18.2422

          k =-0.2459 0.2459-0.2459 (  4732 PWs)   bands (ev):

   -34.3773  -1.7719   7.1671  10.4447  10.4447  13.7440  13.7440  14.6189
    16.1639  16.1639

          k =-0.4919 0.4919-0.4919 (  4702 PWs)   bands (ev):

   -34.3723  -0.0431   3.1150  10.2067  10.2067  11.8045  11.8045  15.1231
    16.2388  19.8655

          k =-0.0000 0.4919-0.0000 (  4725 PWs)   bands (ev):

   -34.3763  -1.5834   8.6838   8.6838   9.0927  10.8801  13.7176  17.1921
    17.1921  18.3932

          k =-0.2459 0.7378-0.2459 (  4700 PWs)   bands (ev):

   -34.3719  -0.2459   4.7358   8.0713   8.3735  10.3194  14.9664  15.6155
    18.1753  18.8567

          k = 0.7378-0.2459 0.7378 (  4703 PWs)   bands (ev):

   -34.3702   1.2366   2.4254   7.0243   8.7148  11.4024  13.9446  17.2061
    18.7926  19.6404

          k = 0.4919 0.0000 0.4919 (  4716 PWs)   bands (ev):

   -34.3735  -0.8030   5.4529   7.3048  10.6013  12.7261  13.0696  15.9577
    16.0106  18.2927

          k =-0.0000 0.9838-0.0000 (  4696 PWs)   bands (ev):

   -34.3696   0.5641   5.6696   7.0169   7.0169   7.4437  13.2816  20.3819
    20.7155  20.7155

          k = 0.9838-0.0000 0.9838 (  4700 PWs)   bands (ev):

   -34.3686   1.8501   3.7092   4.9246   7.2331   9.7226  14.7131  17.6623
    20.4623  21.2461

          k = 0.7378-0.2459 1.2297 (  4712 PWs)   bands (ev):

   -34.3692   1.3975   3.6705   5.6462   6.6598  12.3006  14.1519  15.9893
    20.0098  20.8061

     the Fermi energy is    11.4688 ev

!    total energy              =     -31.16550068 Ry
     estimated scf accuracy    <          2.8E-11 Ry
     smearing contrib. (-TS)   =      -0.00093015 Ry
     internal energy E=F+TS    =     -31.16457053 Ry

     The total energy is F=E-TS. E is the sum of the following terms:
     one-electron contribution =       3.08263250 Ry
     hartree contribution      =       3.58339341 Ry
     xc contribution           =     -10.10419345 Ry
     ewald contribution        =     -27.72640300 Ry

     convergence has been achieved in   5 iterations

     Forces acting on atoms (cartesian axes, Ry/au):

     atom    1 type  1   force =    -0.00000000   -0.00000000    0.00000000
     atom    2 type  2   force =     0.00000000    0.00000000    0.00000000
     atom    3 type  2   force =     0.00000000    0.00000000   -0.00000000
     The non-local contrib.  to forces
     atom    1 type  1   force =     0.00000000   -0.00000000    0.00000000
     atom    2 type  2   force =    -0.00000000    0.00000000   -0.00000000
     atom    3 type  2   force =     0.00000000   -0.00000000    0.00000000
     The ionic contribution  to forces
     atom    1 type  1   force =     0.00000000   -0.00000000   -0.00000000
     atom    2 type  2   force =    -0.00000000   -0.00000000   -0.00000000
     atom    3 type  2   force =    -0.00000000   -0.00000000   -0.00000000
     The local contribution  to forces
     atom    1 type  1   force =    -0.00000000    0.00000000    0.00000000
     atom    2 type  2   force =    -0.00000000   -0.00000000   -0.00000000
     atom    3 type  2   force =     0.00000000    0.00000000    0.00000000
     The core correction contribution to forces
     atom    1 type  1   force =     0.00000000    0.00000000    0.00000000
     atom    2 type  2   force =     0.00000000    0.00000000    0.00000000
     atom    3 type  2   force =     0.00000000    0.00000000    0.00000000
     The Hubbard contrib.    to forces
     atom    1 type  1   force =     0.00000000    0.00000000    0.00000000
     atom    2 type  2   force =     0.00000000    0.00000000    0.00000000
     atom    3 type  2   force =     0.00000000    0.00000000    0.00000000
     The SCF correction term to forces
     atom    1 type  1   force =    -0.00000000    0.00000000    0.00000000
     atom    2 type  2   force =     0.00000000    0.00000000    0.00000000
     atom    3 type  2   force =    -0.00000000   -0.00000000   -0.00000000

     Total force =     0.000000     Total SCF correction =     0.000000


     Computing stress (Cartesian axis) and pressure

          total   stress  (Ry/bohr**3)                   (kbar)     P=      499.89
   0.00339819  -0.00000000   0.00000000          499.89       -0.00        0.00
   0.00000000   0.00339819  -0.00000000            0.00      499.89       -0.00
   0.00000000  -0.00000000   0.00339819            0.00       -0.00      499.89

     Energy error            =      6.5E-06 Ry
     Gradient error          =      2.8E-31 Ry/Bohr
     Cell gradient error     =      1.1E-01 kbar
ibrav =      2
 celldm(1) =      9.42580702
Input lattice vectors:
    -0.40660146     0.00000000     0.40660146
     0.00000000     0.40660146     0.40660146
    -0.40660146     0.40660146     0.00000000
New lattice vectors in INITIAL alat:
    -0.40660146     0.00000000     0.40660146
     0.00000000     0.40660146     0.40660146
    -0.40660146     0.40660146     0.00000000
New lattice vectors in NEW alat (for information only):
    -0.50000000     0.00000000     0.50000000
     0.00000000     0.50000000     0.50000000
    -0.50000000     0.50000000     0.00000000
Discrepancy in bohr =     0.000000    0.000000    0.000000

     bfgs converged in   7 scf cycles and   6 bfgs steps
     (criteria: energy <  1.0E-04 Ry, force <  1.0E-03 Ry/Bohr, cell <  1.0E+00 kbar)

     End of BFGS Geometry Optimization

     Final enthalpy           =     -30.4538973365 Ry

     File ./output/LiSi.bfgs deleted, as requested
Begin final coordinates
     new unit-cell volume =    209.36093 a.u.^3 (    31.02409 Ang^3 )
     density =      3.37802 g/cm^3

CELL_PARAMETERS (alat= 11.59096544)
  -0.406601463   0.000000000   0.406601463
   0.000000000   0.406601463   0.406601463
  -0.406601463   0.406601463   0.000000000

ATOMIC_POSITIONS (crystal)
Li            0.5000000000        0.5000000000       -0.5000000000
Si           -0.2500000000        0.7500000000       -0.2500000000
Si           -0.7500000000        2.2500000000       -0.7500000000
End final coordinates



     Writing config-only to output data dir ./output/LiSi.save/

     Final scf calculation at the relaxed structure.
     The G-vectors are recalculated for the final unit cell
     Results may differ from those at the preceding step.

     Parallelization info
     --------------------
     sticks:   dense  smooth     PW     G-vecs:    dense   smooth      PW
     Min         120     120     36                 2521     2521     410
     Max         121     121     37                 2524     2524     412
     Sum         967     967    295                20179    20179    3287

     Using Slab Decomposition



     bravais-lattice index     =            2
     lattice parameter (alat)  =      11.5910  a.u.
     unit-cell volume          =     209.3609 (a.u.)^3
     number of atoms/cell      =            3
     number of atomic types    =            2
     number of electrons       =        11.00
     number of Kohn-Sham states=           10
     kinetic-energy cutoff     =      80.0000  Ry
     charge density cutoff     =     320.0000  Ry
     scf convergence threshold =      1.0E-10
     mixing beta               =       0.7000
     number of iterations used =            8  plain     mixing
     press convergence thresh. =      1.0E+00
     Exchange-correlation= PBE
                           (   1   4   3   4   0   0   0)

     celldm(1)=  11.590965  celldm(2)=   0.000000  celldm(3)=   0.000000
     celldm(4)=   0.000000  celldm(5)=   0.000000  celldm(6)=   0.000000

     crystal axes: (cart. coord. in units of alat)
               a(1) = (  -0.406601   0.000000   0.406601 )  
               a(2) = (   0.000000   0.406601   0.406601 )  
               a(3) = (  -0.406601   0.406601   0.000000 )  

     reciprocal axes: (cart. coord. in units 2 pi/alat)
               b(1) = ( -1.229705 -1.229705  1.229705 )  
               b(2) = (  1.229705  1.229705  1.229705 )  
               b(3) = ( -1.229705  1.229705 -1.229705 )  


     PseudoPot. # 1 for Li read from file:
     ../pseudo/Li_ONCV_PBE_sr.upf
     MD5 check sum: 50ff420e78310ffa21704f3361e624a4
     Pseudo is Norm-conserving, Zval =  3.0
     Generated using ONCVPSP code by D. R. Hamann
     Using radial grid of 1944 points,  4 beta functions with: 
                l(1) =   0
                l(2) =   0
                l(3) =   1
                l(4) =   1

     PseudoPot. # 2 for Si read from file:
     ../pseudo/Si_ONCV_PBE_sr.upf
     MD5 check sum: e543d271109d17c80368dfa7c482276d
     Pseudo is Norm-conserving + core correction, Zval =  4.0
     Generated using ONCVPSP code by D. R. Hamann
     Using radial grid of 1510 points,  6 beta functions with: 
                l(1) =   0
                l(2) =   0
                l(3) =   1
                l(4) =   1
                l(5) =   2
                l(6) =   2

     atomic species   valence    mass     pseudopotential
        Li             3.00     6.94100     Li( 1.00)
        Si             4.00    28.08550     Si( 1.00)

     48 Sym. Ops., with inversion, found



   Cartesian axes

     site n.     atom                  positions (alat units)
         1           Li  tau(   1) = (   0.0000000   0.0000000   0.4066015  )
         2           Si  tau(   2) = (   0.2033007   0.2033007   0.2033007  )
         3           Si  tau(   3) = (   0.6099022   0.6099022   0.6099022  )

     number of k points=    10  Marzari-Vanderbilt smearing, width (Ry)=  0.0200
                       cart. coord. in units 2pi/alat
        k(    1) = (   0.0000000   0.0000000   0.0000000), wk =   0.0160000
        k(    2) = (  -0.2459411   0.2459411  -0.2459411), wk =   0.1280000
        k(    3) = (  -0.4918821   0.4918821  -0.4918821), wk =   0.1280000
        k(    4) = (  -0.0000000   0.4918821  -0.0000000), wk =   0.0960000
        k(    5) = (  -0.2459411   0.7378232  -0.2459411), wk =   0.3840000
        k(    6) = (   0.7378232  -0.2459411   0.7378232), wk =   0.3840000
        k(    7) = (   0.4918821   0.0000000   0.4918821), wk =   0.1920000
        k(    8) = (  -0.0000000   0.9837643  -0.0000000), wk =   0.0960000
        k(    9) = (   0.9837643  -0.0000000   0.9837643), wk =   0.1920000
        k(   10) = (   0.7378232  -0.2459411   1.2297054), wk =   0.3840000

     Dense  grid:    20179 G-vectors     FFT dimensions: (  40,  40,  40)

     Estimated max dynamical RAM per process >      14.20 MB

     Estimated total dynamical RAM >     113.57 MB

     Initial potential from superposition of free atoms

     starting charge      10.9942, renormalised to      11.0000
     Starting wfcs are   10 randomized atomic wfcs

     total cpu time spent up to now is       18.6 secs

     Self-consistent Calculation

     iteration #  1     ecut=    80.00 Ry     beta= 0.70
     Davidson diagonalization with overlap
     c_bands:  1 eigenvalues not converged
     c_bands:  1 eigenvalues not converged
     c_bands:  1 eigenvalues not converged
     c_bands:  1 eigenvalues not converged
     c_bands:  1 eigenvalues not converged
     ethr =  1.00E-06,  avg # of iterations = 17.9

     total cpu time spent up to now is       19.0 secs

     total energy              =     -31.16355862 Ry
     estimated scf accuracy    <       0.03424317 Ry

     iteration #  2     ecut=    80.00 Ry     beta= 0.70
     Davidson diagonalization with overlap
     ethr =  3.11E-04,  avg # of iterations =  1.0

     total cpu time spent up to now is       19.1 secs

     total energy              =     -31.16538872 Ry
     estimated scf accuracy    <       0.00124549 Ry

     iteration #  3     ecut=    80.00 Ry     beta= 0.70
     Davidson diagonalization with overlap
     ethr =  1.13E-05,  avg # of iterations =  2.0

     total cpu time spent up to now is       19.2 secs

     total energy              =     -31.16545571 Ry
     estimated scf accuracy    <       0.00004828 Ry

     iteration #  4     ecut=    80.00 Ry     beta= 0.70
     Davidson diagonalization with overlap
     ethr =  4.39E-07,  avg # of iterations =  3.1

     total cpu time spent up to now is       19.3 secs

     total energy              =     -31.16546300 Ry
     estimated scf accuracy    <       0.00000067 Ry

     iteration #  5     ecut=    80.00 Ry     beta= 0.70
     Davidson diagonalization with overlap
     ethr =  6.07E-09,  avg # of iterations =  2.8

     total cpu time spent up to now is       19.4 secs

     total energy              =     -31.16546335 Ry
     estimated scf accuracy    <          1.0E-08 Ry

     iteration #  6     ecut=    80.00 Ry     beta= 0.70
     Davidson diagonalization with overlap
     ethr =  9.07E-11,  avg # of iterations =  3.1

     total cpu time spent up to now is       19.5 secs

     total energy              =     -31.16546335 Ry
     estimated scf accuracy    <          2.9E-10 Ry

     iteration #  7     ecut=    80.00 Ry     beta= 0.70
     Davidson diagonalization with overlap
     ethr =  2.68E-12,  avg # of iterations =  2.8

     total cpu time spent up to now is       19.5 secs

     End of self-consistent calculation

          k = 0.0000 0.0000 0.0000 (  2637 PWs)   bands (ev):

   -34.3806  -2.3545  11.0804  11.0804  11.0804  13.5266  13.5266  13.5266
    14.9963  17.7951

          k =-0.2459 0.2459-0.2459 (  2553 PWs)   bands (ev):

   -34.3774  -1.7718   7.1672  10.4447  10.4447  13.7440  13.7440  14.6190
    16.1640  16.1640

          k =-0.4919 0.4919-0.4919 (  2515 PWs)   bands (ev):

   -34.3724  -0.0431   3.1151  10.2068  10.2068  11.8046  11.8046  15.1231
    16.2388  19.8655

          k =-0.0000 0.4919-0.0000 (  2561 PWs)   bands (ev):

   -34.3764  -1.5833   8.6838   8.6838   9.0928  10.8801  13.7176  17.1921
    17.1921  18.3933

          k =-0.2459 0.7378-0.2459 (  2532 PWs)   bands (ev):

   -34.3720  -0.2458   4.7359   8.0714   8.3735  10.3194  14.9664  15.6155
    18.1754  18.8568

          k = 0.7378-0.2459 0.7378 (  2541 PWs)   bands (ev):

   -34.3704   1.2367   2.4255   7.0244   8.7149  11.4025  13.9446  17.2062
    18.7926  19.4938

          k = 0.4919 0.0000 0.4919 (  2533 PWs)   bands (ev):

   -34.3737  -0.8029   5.4530   7.3048  10.6014  12.7261  13.0697  15.9578
    16.0106  18.2927

          k =-0.0000 0.9838-0.0000 (  2518 PWs)   bands (ev):

   -34.3698   0.5642   5.6697   7.0169   7.0169   7.4437  13.2817  20.3819
    20.7156  20.7156

          k = 0.9838-0.0000 0.9838 (  2530 PWs)   bands (ev):

   -34.3687   1.8502   3.7093   4.9247   7.2332   9.7227  14.7131  17.6623
    20.4624  21.2461

          k = 0.7378-0.2459 1.2297 (  2525 PWs)   bands (ev):

   -34.3694   1.3976   3.6706   5.6462   6.6599  12.3007  14.1520  15.9893
    20.0099  20.8064

     the Fermi energy is    11.4689 ev

!    total energy              =     -31.16546335 Ry
     estimated scf accuracy    <          5.0E-12 Ry
     smearing contrib. (-TS)   =      -0.00093016 Ry
     internal energy E=F+TS    =     -31.16453319 Ry

     The total energy is F=E-TS. E is the sum of the following terms:
     one-electron contribution =       3.08268247 Ry
     hartree contribution      =       3.58338696 Ry
     xc contribution           =     -10.10419962 Ry
     ewald contribution        =     -27.72640300 Ry

     convergence has been achieved in   7 iterations

     Forces acting on atoms (cartesian axes, Ry/au):

     atom    1 type  1   force =    -0.00000000   -0.00000000    0.00000000
     atom    2 type  2   force =    -0.00000000    0.00000000    0.00000000
     atom    3 type  2   force =     0.00000000   -0.00000000   -0.00000000
     The non-local contrib.  to forces
     atom    1 type  1   force =    -0.00000000   -0.00000000    0.00000000
     atom    2 type  2   force =    -0.00000000    0.00000000   -0.00000000
     atom    3 type  2   force =     0.00000000   -0.00000000    0.00000000
     The ionic contribution  to forces
     atom    1 type  1   force =     0.00000000   -0.00000000   -0.00000000
     atom    2 type  2   force =     0.00000000   -0.00000000   -0.00000000
     atom    3 type  2   force =    -0.00000000    0.00000000    0.00000000
     The local contribution  to forces
     atom    1 type  1   force =     0.00000000    0.00000000    0.00000000
     atom    2 type  2   force =     0.00000000   -0.00000000    0.00000000
     atom    3 type  2   force =    -0.00000000   -0.00000000   -0.00000000
     The core correction contribution to forces
     atom    1 type  1   force =     0.00000000    0.00000000    0.00000000
     atom    2 type  2   force =    -0.00000000    0.00000000    0.00000000
     atom    3 type  2   force =     0.00000000   -0.00000000   -0.00000000
     The Hubbard contrib.    to forces
     atom    1 type  1   force =     0.00000000    0.00000000    0.00000000
     atom    2 type  2   force =     0.00000000    0.00000000    0.00000000
     atom    3 type  2   force =     0.00000000    0.00000000    0.00000000
     The SCF correction term to forces
     atom    1 type  1   force =     0.00000000    0.00000000   -0.00000000
     atom    2 type  2   force =    -0.00000000    0.00000000    0.00000000
     atom    3 type  2   force =     0.00000000   -0.00000000   -0.00000000

     Total force =     0.000000     Total SCF correction =     0.000000


     Computing stress (Cartesian axis) and pressure

          total   stress  (Ry/bohr**3)                   (kbar)     P=      499.91
   0.00339835  -0.00000000   0.00000000          499.91       -0.00        0.00
  -0.00000000   0.00339835   0.00000000           -0.00      499.91        0.00
   0.00000000   0.00000000   0.00339835            0.00        0.00      499.91


     Writing all to output data dir ./output/LiSi.save/

     init_run     :      1.08s CPU      1.37s WALL (       2 calls)
     electrons    :      8.01s CPU      9.37s WALL (       8 calls)
     update_pot   :      2.41s CPU      2.46s WALL (       6 calls)
     forces       :      1.60s CPU      1.69s WALL (       8 calls)
     stress       :      4.18s CPU      4.58s WALL (       8 calls)

     Called by init_run:
     wfcinit      :      0.07s CPU      0.07s WALL (       2 calls)
     potinit      :      0.30s CPU      0.45s WALL (       2 calls)
     hinit0       :      0.69s CPU      0.79s WALL (       2 calls)

     Called by electrons:
     c_bands      :      6.28s CPU      6.90s WALL (      66 calls)
     sum_band     :      0.98s CPU      1.10s WALL (      66 calls)
     v_of_rho     :      0.78s CPU      1.47s WALL (      72 calls)
     mix_rho      :      0.06s CPU      0.07s WALL (      66 calls)

     Called by c_bands:
     init_us_2    :      0.21s CPU      0.24s WALL (    1500 calls)
     init_us_2:cp :      0.21s CPU      0.23s WALL (    1500 calls)
     cegterg      :      5.76s CPU      5.98s WALL (     660 calls)

     Called by *egterg:
     cdiaghg      :      0.32s CPU      0.33s WALL (    2660 calls)
     h_psi        :      4.93s CPU      5.12s WALL (    2760 calls)
     g_psi        :      0.03s CPU      0.03s WALL (    2080 calls)

     Called by h_psi:
     h_psi:calbec :      0.31s CPU      0.31s WALL (    2760 calls)
     vloc_psi     :      4.38s CPU      4.56s WALL (    2760 calls)
     add_vuspsi   :      0.22s CPU      0.23s WALL (    2760 calls)

     General routines
     calbec       :      0.39s CPU      0.40s WALL (    3160 calls)
     fft          :      1.18s CPU      2.13s WALL (     920 calls)
     ffts         :      0.04s CPU      0.09s WALL (      66 calls)
     fftw         :      4.43s CPU      4.61s WALL (   46362 calls)

     Parallel routines

     PWSCF        :     17.51s CPU     20.14s WALL


   This run was terminated on:  11:15:14  27Dec2024            

=------------------------------------------------------------------------------=
   JOB DONE.
=------------------------------------------------------------------------------=
