
     Program PWSCF v.7.2 starts on 10Jan2025 at 22: 0:18 

     This program is part of the open-source Quantum ESPRESSO suite
     for quantum simulation of materials; please cite
         "P. Giannozzi et al., J. Phys.:Condens. Matter 21 395502 (2009);
         "P. Giannozzi et al., J. Phys.:Condens. Matter 29 465901 (2017);
         "P. Giannozzi et al., J. Chem. Phys. 152 154105 (2020);
          URL http://www.quantum-espresso.org", 
     in publications or presentations arising from this work. More details at
     http://www.quantum-espresso.org/quote

     Parallel version (MPI & OpenMP), running on       8 processor cores
     Number of MPI processes:                 8
     Threads/MPI process:                     1

     MPI processes distributed on     1 nodes
     489029 MiB available memory on the printing compute node when the environment starts

     Waiting for input...
     Reading input from standard input

     Current dimensions of program PWSCF are:
     Max number of different atomic species (ntypx) = 10
     Max number of k-points (npk) =  40000
     Max angular momentum in pseudopotentials (lmaxx) =  4

     R & G space division:  proc/nbgrp/npool/nimage =       8
     Subspace diagonalization in iterative solution of the eigenvalue problem:
     a serial algorithm will be used


     Parallelization info
     --------------------
     sticks:   dense  smooth     PW     G-vecs:    dense   smooth      PW
     Min          81      81     24                 3436     3436     562
     Max          83      83     25                 3439     3439     566
     Sum         657     657    193                27495    27495    4507

     Using Slab Decomposition



     bravais-lattice index     =            6
     lattice parameter (alat)  =       4.5051  a.u.
     unit-cell volume          =     203.4509 (a.u.)^3
     number of atoms/cell      =            3
     number of atomic types    =            2
     number of electrons       =        11.00
     number of Kohn-Sham states=           10
     kinetic-energy cutoff     =     100.0000  Ry
     charge density cutoff     =     400.0000  Ry
     scf convergence threshold =      1.0E-08
     mixing beta               =       0.7000
     number of iterations used =            8  plain     mixing
     energy convergence thresh.=      1.0E-04
     force convergence thresh. =      1.0E-03
     press convergence thresh. =      1.0E+00
     Exchange-correlation= PBE
                           (   1   4   3   4   0   0   0)
     nstep                     =           50


     celldm(1)=   4.505062  celldm(2)=   0.000000  celldm(3)=   2.225140
     celldm(4)=   0.000000  celldm(5)=   0.000000  celldm(6)=   0.000000

     crystal axes: (cart. coord. in units of alat)
               a(1) = (   1.000000   0.000000   0.000000 )  
               a(2) = (   0.000000   1.000000   0.000000 )  
               a(3) = (   0.000000   0.000000   2.225140 )  

     reciprocal axes: (cart. coord. in units 2 pi/alat)
               b(1) = (  1.000000  0.000000  0.000000 )  
               b(2) = (  0.000000  1.000000  0.000000 )  
               b(3) = (  0.000000  0.000000  0.449410 )  


     PseudoPot. # 1 for Li read from file:
     ../pseudo/Li_ONCV_PBE_sr.upf
     MD5 check sum: 50ff420e78310ffa21704f3361e624a4
     Pseudo is Norm-conserving, Zval =  3.0
     Generated using ONCVPSP code by D. R. Hamann
     Using radial grid of 1944 points,  4 beta functions with: 
                l(1) =   0
                l(2) =   0
                l(3) =   1
                l(4) =   1

     PseudoPot. # 2 for Si read from file:
     ../pseudo/Si_ONCV_PBE_sr.upf
     MD5 check sum: e543d271109d17c80368dfa7c482276d
     Pseudo is Norm-conserving + core correction, Zval =  4.0
     Generated using ONCVPSP code by D. R. Hamann
     Using radial grid of 1510 points,  6 beta functions with: 
                l(1) =   0
                l(2) =   0
                l(3) =   1
                l(4) =   1
                l(5) =   2
                l(6) =   2

     atomic species   valence    mass     pseudopotential
        Li             3.00     6.94100     Li( 1.00)
        Si             4.00    28.08550     Si( 1.00)

     16 Sym. Ops., with inversion, found



   Cartesian axes

     site n.     atom                  positions (alat units)
         1           Li  tau(   1) = (   0.0000000   0.0000000   1.1125701  )
         2           Si  tau(   2) = (   0.5000000   0.5000000   0.3867383  )
         3           Si  tau(   3) = (   0.5000000   0.5000000   1.8384019  )

     number of k points=   105  Marzari-Vanderbilt smearing, width (Ry)=  0.0200

     Number of k-points >= 100: set verbosity='high' to print them.

     Dense  grid:    27495 G-vectors     FFT dimensions: (  30,  30,  64)

     Estimated max dynamical RAM per process >      22.39 MB

     Estimated total dynamical RAM >     179.09 MB

     Initial potential from superposition of free atoms

     starting charge      10.9942, renormalised to      11.0000
     Starting wfcs are   10 randomized atomic wfcs

     total cpu time spent up to now is        1.4 secs

     Self-consistent Calculation

     iteration #  1     ecut=   100.00 Ry     beta= 0.70
     Davidson diagonalization with overlap
     ethr =  1.00E-02,  avg # of iterations =  6.6

     Threshold (ethr) on eigenvalues was too large:
     Diagonalizing with lowered threshold

     Davidson diagonalization with overlap
     ethr =  4.34E-04,  avg # of iterations =  3.0

     total cpu time spent up to now is        3.5 secs

     total energy              =     -31.07000267 Ry
     estimated scf accuracy    <       0.04951457 Ry

     iteration #  2     ecut=   100.00 Ry     beta= 0.70
     Davidson diagonalization with overlap
     ethr =  4.50E-04,  avg # of iterations =  2.4

     total cpu time spent up to now is        4.3 secs

     total energy              =     -31.06630643 Ry
     estimated scf accuracy    <       0.03063458 Ry

     iteration #  3     ecut=   100.00 Ry     beta= 0.70
     Davidson diagonalization with overlap
     ethr =  2.78E-04,  avg # of iterations =  2.2

     total cpu time spent up to now is        5.1 secs

     total energy              =     -31.07467020 Ry
     estimated scf accuracy    <       0.01610824 Ry

     iteration #  4     ecut=   100.00 Ry     beta= 0.70
     Davidson diagonalization with overlap
     ethr =  1.46E-04,  avg # of iterations =  1.5

     total cpu time spent up to now is        5.8 secs

     total energy              =     -31.07718726 Ry
     estimated scf accuracy    <       0.00002372 Ry

     iteration #  5     ecut=   100.00 Ry     beta= 0.70
     Davidson diagonalization with overlap
     c_bands:  2 eigenvalues not converged
     c_bands:  1 eigenvalues not converged
     ethr =  2.16E-07,  avg # of iterations =  6.5

     total cpu time spent up to now is        6.9 secs

     total energy              =     -31.07721370 Ry
     estimated scf accuracy    <       0.00000984 Ry

     iteration #  6     ecut=   100.00 Ry     beta= 0.70
     Davidson diagonalization with overlap
     ethr =  8.95E-08,  avg # of iterations =  1.7

     total cpu time spent up to now is        7.6 secs

     total energy              =     -31.07721598 Ry
     estimated scf accuracy    <       0.00000062 Ry

     iteration #  7     ecut=   100.00 Ry     beta= 0.70
     Davidson diagonalization with overlap
     ethr =  5.62E-09,  avg # of iterations =  1.5

     total cpu time spent up to now is        8.3 secs

     End of self-consistent calculation

     Number of k-points >= 100: set verbosity='high' to print the bands.

     the Fermi energy is    12.0487 ev

!    total energy              =     -31.07721610 Ry
     estimated scf accuracy    <          4.8E-10 Ry
     smearing contrib. (-TS)   =      -0.00088058 Ry
     internal energy E=F+TS    =     -31.07633552 Ry

     The total energy is F=E-TS. E is the sum of the following terms:
     one-electron contribution =       4.43081168 Ry
     hartree contribution      =       3.05969935 Ry
     xc contribution           =     -10.23953609 Ry
     ewald contribution        =     -28.32731047 Ry

     convergence has been achieved in   7 iterations

     Forces acting on atoms (cartesian axes, Ry/au):

     atom    1 type  1   force =     0.00000000    0.00000000    0.00000000
     atom    2 type  2   force =     0.00000000    0.00000000    0.44871312
     atom    3 type  2   force =     0.00000000    0.00000000   -0.44871312
     The non-local contrib.  to forces
     atom    1 type  1   force =     0.00000000    0.00000000    0.00000000
     atom    2 type  2   force =     0.00000000    0.00000000    0.35857540
     atom    3 type  2   force =     0.00000000    0.00000000   -0.35857540
     The ionic contribution  to forces
     atom    1 type  1   force =     0.00000000    0.00000000   -0.00000000
     atom    2 type  2   force =     0.00000000    0.00000000    1.04470648
     atom    3 type  2   force =     0.00000000    0.00000000   -1.04470648
     The local contribution  to forces
     atom    1 type  1   force =     0.00000000    0.00000000    0.00000000
     atom    2 type  2   force =     0.00000000   -0.00000000   -0.92859586
     atom    3 type  2   force =    -0.00000000   -0.00000000    0.92859586
     The core correction contribution to forces
     atom    1 type  1   force =     0.00000000    0.00000000    0.00000000
     atom    2 type  2   force =    -0.00000000    0.00000000   -0.02599618
     atom    3 type  2   force =    -0.00000000   -0.00000000    0.02599618
     The Hubbard contrib.    to forces
     atom    1 type  1   force =     0.00000000    0.00000000    0.00000000
     atom    2 type  2   force =     0.00000000    0.00000000    0.00000000
     atom    3 type  2   force =     0.00000000    0.00000000    0.00000000
     The SCF correction term to forces
     atom    1 type  1   force =    -0.00000000   -0.00000000   -0.00000000
     atom    2 type  2   force =     0.00000000    0.00000000    0.00002328
     atom    3 type  2   force =     0.00000000   -0.00000000   -0.00002328

     Total force =     0.634576     Total SCF correction =     0.000033


     Computing stress (Cartesian axis) and pressure

          total   stress  (Ry/bohr**3)                   (kbar)     P=      818.40
   0.00324533   0.00000000   0.00000000          477.41        0.00        0.00
   0.00000000   0.00324533   0.00000000            0.00      477.41        0.00
   0.00000000   0.00000000   0.01019938            0.00        0.00     1500.38


     BFGS Geometry Optimization
     Energy error            =      0.0E+00 Ry
     Gradient error          =      4.5E-01 Ry/Bohr
     Cell gradient error     =      1.0E+03 kbar

     number of scf cycles    =   1
     number of bfgs steps    =   0

     enthalpy           new  =     -30.3857005081 Ry

     new trust radius        =       0.4849955246 bohr
ibrav =      6
 celldm(1) =      4.48776265
 celldm(3) =      2.61347488
Input lattice vectors:
     0.99616007     0.00000000     0.00000000
     0.00000000     0.99616007     0.00000000
     0.00000000     0.00000000     2.60343931
New lattice vectors in INITIAL alat:
     0.99616007     0.00000000     0.00000000
     0.00000000     0.99616007     0.00000000
     0.00000000     0.00000000     2.60343931
New lattice vectors in NEW alat (for information only):
     1.00000000     0.00000000     0.00000000
     0.00000000     1.00000000     0.00000000
     0.00000000     0.00000000     2.61347488
Discrepancy in bohr =     0.000000    0.000000    0.000000
     new conv_thr            =       0.0000000100 Ry

     new unit-cell volume =    236.21527 a.u.^3 (    35.00349 Ang^3 )
     density =      2.99399 g/cm^3

CELL_PARAMETERS (alat=  4.50506179)
   0.996160067   0.000000000   0.000000000
   0.000000000   0.996160067   0.000000000
   0.000000000   0.000000000   2.603439312

ATOMIC_POSITIONS (crystal)
Li            0.0000000000        0.0000000000        0.5000000000
Si            0.5000000000        0.5000000000        0.2185661187
Si            0.5000000000        0.5000000000        0.7814338813



     Writing config-only to output data dir ./output/LiSi.save/
     NEW-OLD atomic charge density approx. for the potential
     extrapolated charge   12.52496, renormalised to   11.00000

     total cpu time spent up to now is       10.1 secs

     Self-consistent Calculation

     iteration #  1     ecut=   100.00 Ry     beta= 0.70
     Davidson diagonalization with overlap
     c_bands:  1 eigenvalues not converged
     c_bands:  1 eigenvalues not converged
     c_bands:  1 eigenvalues not converged
     c_bands:  1 eigenvalues not converged
     c_bands:  1 eigenvalues not converged
     c_bands:  1 eigenvalues not converged
     c_bands:  1 eigenvalues not converged
     c_bands:  1 eigenvalues not converged
     c_bands:  1 eigenvalues not converged
     c_bands:  1 eigenvalues not converged
     c_bands:  1 eigenvalues not converged
     c_bands:  1 eigenvalues not converged
     c_bands:  1 eigenvalues not converged
     ethr =  1.00E-06,  avg # of iterations = 14.3

     total cpu time spent up to now is       12.8 secs

     total energy              =     -31.13303686 Ry
     estimated scf accuracy    <       0.31379778 Ry

     iteration #  2     ecut=   100.00 Ry     beta= 0.70
     Davidson diagonalization with overlap
     ethr =  2.85E-03,  avg # of iterations =  2.2

     total cpu time spent up to now is       13.8 secs

     total energy              =     -31.09671479 Ry
     estimated scf accuracy    <       0.71836005 Ry

     iteration #  3     ecut=   100.00 Ry     beta= 0.70
     Davidson diagonalization with overlap
     ethr =  2.85E-03,  avg # of iterations =  2.0

     total cpu time spent up to now is       14.6 secs

     total energy              =     -31.25614587 Ry
     estimated scf accuracy    <       0.05153291 Ry

     iteration #  4     ecut=   100.00 Ry     beta= 0.70
     Davidson diagonalization with overlap
     ethr =  4.68E-04,  avg # of iterations =  1.2

     total cpu time spent up to now is       15.3 secs

     total energy              =     -31.26205362 Ry
     estimated scf accuracy    <       0.00100020 Ry

     iteration #  5     ecut=   100.00 Ry     beta= 0.70
     Davidson diagonalization with overlap
     ethr =  9.09E-06,  avg # of iterations =  3.4

     total cpu time spent up to now is       16.2 secs

     total energy              =     -31.26239812 Ry
     estimated scf accuracy    <       0.00019838 Ry

     iteration #  6     ecut=   100.00 Ry     beta= 0.70
     Davidson diagonalization with overlap
     ethr =  1.80E-06,  avg # of iterations =  2.5

     total cpu time spent up to now is       17.0 secs

     total energy              =     -31.26242885 Ry
     estimated scf accuracy    <       0.00000057 Ry

     iteration #  7     ecut=   100.00 Ry     beta= 0.70
     Davidson diagonalization with overlap
     ethr =  5.14E-09,  avg # of iterations =  3.9

     total cpu time spent up to now is       17.9 secs

     End of self-consistent calculation

     Number of k-points >= 100: set verbosity='high' to print the bands.

     the Fermi energy is     9.9153 ev

!    total energy              =     -31.26242945 Ry
     estimated scf accuracy    <          8.5E-09 Ry
     smearing contrib. (-TS)   =       0.00042151 Ry
     internal energy E=F+TS    =     -31.26285096 Ry

     The total energy is F=E-TS. E is the sum of the following terms:
     one-electron contribution =       1.41687916 Ry
     hartree contribution      =       3.76023216 Ry
     xc contribution           =      -9.91905238 Ry
     ewald contribution        =     -26.52090990 Ry

     convergence has been achieved in   7 iterations

     Forces acting on atoms (cartesian axes, Ry/au):

     atom    1 type  1   force =     0.00000000    0.00000000    0.00000000
     atom    2 type  2   force =     0.00000000    0.00000000   -0.06657116
     atom    3 type  2   force =     0.00000000    0.00000000    0.06657116
     The non-local contrib.  to forces
     atom    1 type  1   force =     0.00000000    0.00000000    0.00000000
     atom    2 type  2   force =     0.00000000    0.00000000   -0.10078640
     atom    3 type  2   force =     0.00000000    0.00000000    0.10078640
     The ionic contribution  to forces
     atom    1 type  1   force =    -0.00000000   -0.00000000   -0.00000000
     atom    2 type  2   force =     0.00000000   -0.00000000   -1.73964120
     atom    3 type  2   force =     0.00000000   -0.00000000    1.73964120
     The local contribution  to forces
     atom    1 type  1   force =     0.00000000    0.00000000   -0.00000000
     atom    2 type  2   force =     0.00000000   -0.00000000    1.76697133
     atom    3 type  2   force =    -0.00000000    0.00000000   -1.76697133
     The core correction contribution to forces
     atom    1 type  1   force =     0.00000000    0.00000000    0.00000000
     atom    2 type  2   force =    -0.00000000   -0.00000000    0.00697807
     atom    3 type  2   force =    -0.00000000    0.00000000   -0.00697807
     The Hubbard contrib.    to forces
     atom    1 type  1   force =     0.00000000    0.00000000    0.00000000
     atom    2 type  2   force =     0.00000000    0.00000000    0.00000000
     atom    3 type  2   force =     0.00000000    0.00000000    0.00000000
     The SCF correction term to forces
     atom    1 type  1   force =     0.00000000    0.00000000   -0.00000000
     atom    2 type  2   force =     0.00000000    0.00000000   -0.00009297
     atom    3 type  2   force =     0.00000000    0.00000000    0.00009297

     Total force =     0.094146     Total SCF correction =     0.000131


     Computing stress (Cartesian axis) and pressure

          total   stress  (Ry/bohr**3)                   (kbar)     P=      264.20
   0.00226196   0.00000000   0.00000000          332.75        0.00        0.00
   0.00000000   0.00226196   0.00000000            0.00      332.75        0.00
   0.00000000   0.00000000   0.00086399            0.00        0.00      127.10

     Energy error            =      7.4E-02 Ry
     Gradient error          =      6.7E-02 Ry/Bohr
     Cell gradient error     =      3.7E+02 kbar

     number of scf cycles    =   2
     number of bfgs steps    =   1

     enthalpy           old  =     -30.3857005081 Ry
     enthalpy           new  =     -30.4595500660 Ry

     CASE: enthalpy          _new < enthalpy          _old

     new trust radius        =       0.1218023453 bohr
ibrav =      6
 celldm(1) =      4.36722485
 celldm(3) =      2.57919041
Input lattice vectors:
     0.96940398     0.00000000     0.00000000
     0.00000000     0.96940398     0.00000000
     0.00000000     0.00000000     2.50027746
New lattice vectors in INITIAL alat:
     0.96940398     0.00000000     0.00000000
     0.00000000     0.96940398     0.00000000
     0.00000000     0.00000000     2.50027746
New lattice vectors in NEW alat (for information only):
     1.00000000     0.00000000     0.00000000
     0.00000000     1.00000000     0.00000000
     0.00000000     0.00000000     2.57919041
Discrepancy in bohr =     0.000000    0.000000    0.000000
     new conv_thr            =       0.0000000067 Ry

     new unit-cell volume =    214.83254 a.u.^3 (    31.83490 Ang^3 )
     density =      3.29198 g/cm^3

CELL_PARAMETERS (alat=  4.50506179)
   0.969403984   0.000000000   0.000000000
   0.000000000   0.969403984   0.000000000
   0.000000000   0.000000000   2.500277461

ATOMIC_POSITIONS (crystal)
Li            0.0000000000        0.0000000000        0.5000000000
Si            0.5000000000        0.5000000000        0.2134313576
Si            0.5000000000        0.5000000000        0.7865686424



     Writing config-only to output data dir ./output/LiSi.save/
     NEW-OLD atomic charge density approx. for the potential
     extrapolated charge    9.90572, renormalised to   11.00000

     total cpu time spent up to now is       19.6 secs

     Self-consistent Calculation

     iteration #  1     ecut=   100.00 Ry     beta= 0.70
     Davidson diagonalization with overlap
     c_bands:  1 eigenvalues not converged
     c_bands:  1 eigenvalues not converged
     c_bands:  1 eigenvalues not converged
     ethr =  1.00E-06,  avg # of iterations =  9.9

     total cpu time spent up to now is       21.7 secs

     total energy              =     -31.13320757 Ry
     estimated scf accuracy    <       0.07818909 Ry

     iteration #  2     ecut=   100.00 Ry     beta= 0.70
     Davidson diagonalization with overlap
     ethr =  7.11E-04,  avg # of iterations =  3.1

     total cpu time spent up to now is       22.8 secs

     total energy              =     -31.16271904 Ry
     estimated scf accuracy    <       0.78868542 Ry

     iteration #  3     ecut=   100.00 Ry     beta= 0.70
     Davidson diagonalization with overlap
     ethr =  7.11E-04,  avg # of iterations =  2.2

     total cpu time spent up to now is       23.7 secs

     total energy              =     -31.21960529 Ry
     estimated scf accuracy    <       0.05479088 Ry

     iteration #  4     ecut=   100.00 Ry     beta= 0.70
     Davidson diagonalization with overlap
     ethr =  4.98E-04,  avg # of iterations =  1.6

     total cpu time spent up to now is       24.4 secs

     total energy              =     -31.22202154 Ry
     estimated scf accuracy    <       0.00720684 Ry

     iteration #  5     ecut=   100.00 Ry     beta= 0.70
     Davidson diagonalization with overlap
     ethr =  6.55E-05,  avg # of iterations =  2.6

     total cpu time spent up to now is       25.2 secs

     total energy              =     -31.22269052 Ry
     estimated scf accuracy    <       0.00061900 Ry

     iteration #  6     ecut=   100.00 Ry     beta= 0.70
     Davidson diagonalization with overlap
     ethr =  5.63E-06,  avg # of iterations =  4.0

     total cpu time spent up to now is       26.1 secs

     total energy              =     -31.22280429 Ry
     estimated scf accuracy    <       0.00002926 Ry

     iteration #  7     ecut=   100.00 Ry     beta= 0.70
     Davidson diagonalization with overlap
     ethr =  2.66E-07,  avg # of iterations =  2.0

     total cpu time spent up to now is       26.8 secs

     total energy              =     -31.22279729 Ry
     estimated scf accuracy    <       0.00002550 Ry

     iteration #  8     ecut=   100.00 Ry     beta= 0.70
     Davidson diagonalization with overlap
     ethr =  2.32E-07,  avg # of iterations =  1.6

     total cpu time spent up to now is       27.5 secs

     total energy              =     -31.22280161 Ry
     estimated scf accuracy    <       0.00000002 Ry

     iteration #  9     ecut=   100.00 Ry     beta= 0.70
     Davidson diagonalization with overlap
     ethr =  1.61E-10,  avg # of iterations =  4.3

     total cpu time spent up to now is       28.5 secs

     total energy              =     -31.22280168 Ry
     estimated scf accuracy    <       0.00000002 Ry

     iteration # 10     ecut=   100.00 Ry     beta= 0.70
     Davidson diagonalization with overlap
     ethr =  1.61E-10,  avg # of iterations =  1.0

     total cpu time spent up to now is       29.2 secs

     End of self-consistent calculation

     Number of k-points >= 100: set verbosity='high' to print the bands.

     the Fermi energy is    11.1624 ev

!    total energy              =     -31.22280168 Ry
     estimated scf accuracy    <          6.2E-09 Ry
     smearing contrib. (-TS)   =       0.00047163 Ry
     internal energy E=F+TS    =     -31.22327331 Ry

     The total energy is F=E-TS. E is the sum of the following terms:
     one-electron contribution =       2.94084555 Ry
     hartree contribution      =       3.50340135 Ry
     xc contribution           =     -10.07283162 Ry
     ewald contribution        =     -27.59468858 Ry

     convergence has been achieved in  10 iterations

     Forces acting on atoms (cartesian axes, Ry/au):

     atom    1 type  1   force =     0.00000000    0.00000000    0.00000000
     atom    2 type  2   force =     0.00000000    0.00000000   -0.06505144
     atom    3 type  2   force =     0.00000000    0.00000000    0.06505144
     The non-local contrib.  to forces
     atom    1 type  1   force =     0.00000000    0.00000000    0.00000000
     atom    2 type  2   force =     0.00000000    0.00000000   -0.09806198
     atom    3 type  2   force =     0.00000000    0.00000000    0.09806198
     The ionic contribution  to forces
     atom    1 type  1   force =    -0.00000000   -0.00000000    0.00000000
     atom    2 type  2   force =    -0.00000000   -0.00000000   -1.53429082
     atom    3 type  2   force =    -0.00000000   -0.00000000    1.53429082
     The local contribution  to forces
     atom    1 type  1   force =     0.00000000    0.00000000   -0.00000000
     atom    2 type  2   force =    -0.00000000   -0.00000000    1.56104590
     atom    3 type  2   force =     0.00000000    0.00000000   -1.56104590
     The core correction contribution to forces
     atom    1 type  1   force =     0.00000000    0.00000000    0.00000000
     atom    2 type  2   force =    -0.00000000   -0.00000000    0.00638566
     atom    3 type  2   force =    -0.00000000   -0.00000000   -0.00638566
     The Hubbard contrib.    to forces
     atom    1 type  1   force =     0.00000000    0.00000000    0.00000000
     atom    2 type  2   force =     0.00000000    0.00000000    0.00000000
     atom    3 type  2   force =     0.00000000    0.00000000    0.00000000
     The SCF correction term to forces
     atom    1 type  1   force =    -0.00000000   -0.00000000   -0.00000000
     atom    2 type  2   force =     0.00000000   -0.00000000   -0.00013019
     atom    3 type  2   force =    -0.00000000   -0.00000000    0.00013019

     Total force =     0.091997     Total SCF correction =     0.000184


     Computing stress (Cartesian axis) and pressure

          total   stress  (Ry/bohr**3)                   (kbar)     P=      449.83
   0.00373892   0.00000000   0.00000000          550.01        0.00        0.00
   0.00000000   0.00373892   0.00000000            0.00      550.01        0.00
   0.00000000   0.00000000   0.00169578            0.00        0.00      249.46

     Energy error            =      3.3E-02 Ry
     Gradient error          =      6.5E-02 Ry/Bohr
     Cell gradient error     =      2.5E+02 kbar

     number of scf cycles    =   3
     number of bfgs steps    =   2

     enthalpy           old  =     -30.4595500660 Ry
     enthalpy           new  =     -30.4926007145 Ry

     CASE: enthalpy          _new < enthalpy          _old

     new trust radius        =       0.2449653174 bohr
ibrav =      6
 celldm(1) =      4.36959783
 celldm(3) =      2.36237666
Input lattice vectors:
     0.96993072     0.00000000     0.00000000
     0.00000000     0.96993072     0.00000000
     0.00000000     0.00000000     2.29134170
New lattice vectors in INITIAL alat:
     0.96993072     0.00000000     0.00000000
     0.00000000     0.96993072     0.00000000
     0.00000000     0.00000000     2.29134170
New lattice vectors in NEW alat (for information only):
     1.00000000     0.00000000     0.00000000
     0.00000000     1.00000000     0.00000000
     0.00000000     0.00000000     2.36237666
Discrepancy in bohr =     0.000000    0.000000    0.000000
     new conv_thr            =       0.0000000065 Ry

     new unit-cell volume =    197.09406 a.u.^3 (    29.20633 Ang^3 )
     density =      3.58826 g/cm^3

CELL_PARAMETERS (alat=  4.50506179)
   0.969930720   0.000000000   0.000000000
   0.000000000   0.969930720   0.000000000
   0.000000000   0.000000000   2.291341700

ATOMIC_POSITIONS (crystal)
Li            0.0000000000        0.0000000000        0.5000000000
Si            0.5000000000        0.5000000000        0.1981008728
Si            0.5000000000        0.5000000000        0.8018991272



     Writing config-only to output data dir ./output/LiSi.save/
     NEW-OLD atomic charge density approx. for the potential
     extrapolated charge   10.01052, renormalised to   11.00000

     total cpu time spent up to now is       30.9 secs

     Self-consistent Calculation

     iteration #  1     ecut=   100.00 Ry     beta= 0.70
     Davidson diagonalization with overlap
     c_bands:  1 eigenvalues not converged
     c_bands:  1 eigenvalues not converged
     ethr =  1.00E-06,  avg # of iterations = 11.4

     total cpu time spent up to now is       33.2 secs

     total energy              =     -31.16468993 Ry
     estimated scf accuracy    <       0.01192837 Ry

     iteration #  2     ecut=   100.00 Ry     beta= 0.70
     Davidson diagonalization with overlap
     ethr =  1.08E-04,  avg # of iterations =  3.0

     total cpu time spent up to now is       34.1 secs

     total energy              =     -31.17415126 Ry
     estimated scf accuracy    <       0.06709157 Ry

     iteration #  3     ecut=   100.00 Ry     beta= 0.70
     Davidson diagonalization with overlap
     ethr =  1.08E-04,  avg # of iterations =  2.0

     total cpu time spent up to now is       34.9 secs

     total energy              =     -31.17862468 Ry
     estimated scf accuracy    <       0.00509093 Ry

     iteration #  4     ecut=   100.00 Ry     beta= 0.70
     Davidson diagonalization with overlap
     ethr =  4.63E-05,  avg # of iterations =  1.7

     total cpu time spent up to now is       35.5 secs

     total energy              =     -31.17919671 Ry
     estimated scf accuracy    <       0.00020842 Ry

     iteration #  5     ecut=   100.00 Ry     beta= 0.70
     Davidson diagonalization with overlap
     ethr =  1.89E-06,  avg # of iterations =  4.2

     total cpu time spent up to now is       36.4 secs

     total energy              =     -31.17925738 Ry
     estimated scf accuracy    <       0.00000059 Ry

     iteration #  6     ecut=   100.00 Ry     beta= 0.70
     Davidson diagonalization with overlap
     ethr =  5.39E-09,  avg # of iterations =  3.1

     total cpu time spent up to now is       37.2 secs

     total energy              =     -31.17925789 Ry
     estimated scf accuracy    <       0.00000033 Ry

     iteration #  7     ecut=   100.00 Ry     beta= 0.70
     Davidson diagonalization with overlap
     ethr =  2.97E-09,  avg # of iterations =  1.7

     total cpu time spent up to now is       37.9 secs

     total energy              =     -31.17925797 Ry
     estimated scf accuracy    <       0.00000003 Ry

     iteration #  8     ecut=   100.00 Ry     beta= 0.70
     Davidson diagonalization with overlap
     ethr =  2.60E-10,  avg # of iterations =  1.2

     total cpu time spent up to now is       38.6 secs

     End of self-consistent calculation

     Number of k-points >= 100: set verbosity='high' to print the bands.

     the Fermi energy is    12.5037 ev

!    total energy              =     -31.17925797 Ry
     estimated scf accuracy    <          2.0E-09 Ry
     smearing contrib. (-TS)   =      -0.00023193 Ry
     internal energy E=F+TS    =     -31.17902604 Ry

     The total energy is F=E-TS. E is the sum of the following terms:
     one-electron contribution =       4.78119627 Ry
     hartree contribution      =       3.07665058 Ry
     xc contribution           =     -10.22495124 Ry
     ewald contribution        =     -28.81192164 Ry

     convergence has been achieved in   8 iterations

     Forces acting on atoms (cartesian axes, Ry/au):

     atom    1 type  1   force =     0.00000000    0.00000000    0.00000000
     atom    2 type  2   force =     0.00000000    0.00000000    0.04006105
     atom    3 type  2   force =     0.00000000    0.00000000   -0.04006105
     The non-local contrib.  to forces
     atom    1 type  1   force =     0.00000000    0.00000000    0.00000000
     atom    2 type  2   force =     0.00000000    0.00000000    0.02734734
     atom    3 type  2   force =     0.00000000    0.00000000   -0.02734734
     The ionic contribution  to forces
     atom    1 type  1   force =    -0.00000000   -0.00000000    0.00000000
     atom    2 type  2   force =    -0.00000000   -0.00000000   -0.52075888
     atom    3 type  2   force =    -0.00000000   -0.00000000    0.52075888
     The local contribution  to forces
     atom    1 type  1   force =    -0.00000000   -0.00000000    0.00000000
     atom    2 type  2   force =    -0.00000000   -0.00000000    0.53710945
     atom    3 type  2   force =    -0.00000000   -0.00000000   -0.53710945
     The core correction contribution to forces
     atom    1 type  1   force =     0.00000000    0.00000000    0.00000000
     atom    2 type  2   force =     0.00000000    0.00000000   -0.00356668
     atom    3 type  2   force =     0.00000000    0.00000000    0.00356668
     The Hubbard contrib.    to forces
     atom    1 type  1   force =     0.00000000    0.00000000    0.00000000
     atom    2 type  2   force =     0.00000000    0.00000000    0.00000000
     atom    3 type  2   force =     0.00000000    0.00000000    0.00000000
     The SCF correction term to forces
     atom    1 type  1   force =     0.00000000    0.00000000    0.00000000
     atom    2 type  2   force =     0.00000000    0.00000000   -0.00007017
     atom    3 type  2   force =    -0.00000000   -0.00000000    0.00007017

     Total force =     0.056655     Total SCF correction =     0.000099


     Computing stress (Cartesian axis) and pressure

          total   stress  (Ry/bohr**3)                   (kbar)     P=      683.18
   0.00453868   0.00000000   0.00000000          667.66        0.00        0.00
   0.00000000   0.00453868   0.00000000            0.00      667.66        0.00
   0.00000000   0.00000000   0.00485508            0.00        0.00      714.21

     Energy error            =      1.7E-02 Ry
     Gradient error          =      4.0E-02 Ry/Bohr
     Cell gradient error     =      2.1E+02 kbar

     number of scf cycles    =   4
     number of bfgs steps    =   3

     enthalpy           old  =     -30.4926007145 Ry
     enthalpy           new  =     -30.5093488621 Ry

     CASE: enthalpy          _new < enthalpy          _old

     new trust radius        =       0.1015779758 bohr
ibrav =      6
 celldm(1) =      4.42330953
 celldm(3) =      2.41811659
Input lattice vectors:
     0.98185324     0.00000000     0.00000000
     0.00000000     0.98185324     0.00000000
     0.00000000     0.00000000     2.37423561
New lattice vectors in INITIAL alat:
     0.98185324     0.00000000     0.00000000
     0.00000000     0.98185324     0.00000000
     0.00000000     0.00000000     2.37423561
New lattice vectors in NEW alat (for information only):
     1.00000000     0.00000000     0.00000000
     0.00000000     1.00000000     0.00000000
     0.00000000     0.00000000     2.41811659
Discrepancy in bohr =     0.000000    0.000000    0.000000
     new conv_thr            =       0.0000000040 Ry

     new unit-cell volume =    209.27590 a.u.^3 (    31.01149 Ang^3 )
     density =      3.37939 g/cm^3

CELL_PARAMETERS (alat=  4.50506179)
   0.981853242   0.000000000   0.000000000
   0.000000000   0.981853242   0.000000000
   0.000000000   0.000000000   2.374235613

ATOMIC_POSITIONS (crystal)
Li            0.0000000000        0.0000000000        0.5000000000
Si            0.5000000000        0.5000000000        0.2034948462
Si            0.5000000000        0.5000000000        0.7965051538



     Writing config-only to output data dir ./output/LiSi.save/
     NEW-OLD atomic charge density approx. for the potential
     extrapolated charge   11.63997, renormalised to   11.00000

     total cpu time spent up to now is       40.3 secs

     Self-consistent Calculation

     iteration #  1     ecut=   100.00 Ry     beta= 0.70
     Davidson diagonalization with overlap
     ethr =  1.00E-06,  avg # of iterations =  8.4

     total cpu time spent up to now is       42.0 secs

     total energy              =     -31.22486972 Ry
     estimated scf accuracy    <       0.00131460 Ry

     iteration #  2     ecut=   100.00 Ry     beta= 0.70
     Davidson diagonalization with overlap
     ethr =  1.20E-05,  avg # of iterations =  3.6

     total cpu time spent up to now is       43.0 secs

     total energy              =     -31.22853946 Ry
     estimated scf accuracy    <       0.01197139 Ry

     iteration #  3     ecut=   100.00 Ry     beta= 0.70
     Davidson diagonalization with overlap
     ethr =  1.20E-05,  avg # of iterations =  1.8

     total cpu time spent up to now is       43.8 secs

     total energy              =     -31.22807143 Ry
     estimated scf accuracy    <       0.00355440 Ry

     iteration #  4     ecut=   100.00 Ry     beta= 0.70
     Davidson diagonalization with overlap
     ethr =  1.20E-05,  avg # of iterations =  1.9

     total cpu time spent up to now is       44.5 secs

     total energy              =     -31.22801734 Ry
     estimated scf accuracy    <       0.00062393 Ry

     iteration #  5     ecut=   100.00 Ry     beta= 0.70
     Davidson diagonalization with overlap
     ethr =  5.67E-06,  avg # of iterations =  2.1

     total cpu time spent up to now is       45.2 secs

     total energy              =     -31.22814835 Ry
     estimated scf accuracy    <       0.00000751 Ry

     iteration #  6     ecut=   100.00 Ry     beta= 0.70
     Davidson diagonalization with overlap
     ethr =  6.82E-08,  avg # of iterations =  2.7

     total cpu time spent up to now is       46.0 secs

     total energy              =     -31.22815107 Ry
     estimated scf accuracy    <       0.00000018 Ry

     iteration #  7     ecut=   100.00 Ry     beta= 0.70
     Davidson diagonalization with overlap
     ethr =  1.61E-09,  avg # of iterations =  2.7

     total cpu time spent up to now is       46.7 secs

     total energy              =     -31.22815114 Ry
     estimated scf accuracy    <       0.00000013 Ry

     iteration #  8     ecut=   100.00 Ry     beta= 0.70
     Davidson diagonalization with overlap
     ethr =  1.18E-09,  avg # of iterations =  1.6

     total cpu time spent up to now is       47.4 secs

     total energy              =     -31.22815117 Ry
     estimated scf accuracy    <          5.2E-09 Ry

     iteration #  9     ecut=   100.00 Ry     beta= 0.70
     Davidson diagonalization with overlap
     ethr =  4.74E-11,  avg # of iterations =  1.7

     total cpu time spent up to now is       48.1 secs

     End of self-consistent calculation

     Number of k-points >= 100: set verbosity='high' to print the bands.

     the Fermi energy is    11.6049 ev

!    total energy              =     -31.22815117 Ry
     estimated scf accuracy    <          1.9E-10 Ry
     smearing contrib. (-TS)   =      -0.00018178 Ry
     internal energy E=F+TS    =     -31.22796939 Ry

     The total energy is F=E-TS. E is the sum of the following terms:
     one-electron contribution =       3.84016058 Ry
     hartree contribution      =       3.20601960 Ry
     xc contribution           =     -10.11249039 Ry
     ewald contribution        =     -28.16165917 Ry

     convergence has been achieved in   9 iterations

     Forces acting on atoms (cartesian axes, Ry/au):

     atom    1 type  1   force =     0.00000000    0.00000000    0.00000000
     atom    2 type  2   force =     0.00000000    0.00000000   -0.01608932
     atom    3 type  2   force =     0.00000000    0.00000000    0.01608932
     The non-local contrib.  to forces
     atom    1 type  1   force =     0.00000000    0.00000000    0.00000000
     atom    2 type  2   force =     0.00000000    0.00000000   -0.03336047
     atom    3 type  2   force =     0.00000000    0.00000000    0.03336047
     The ionic contribution  to forces
     atom    1 type  1   force =    -0.00000000   -0.00000000    0.00000000
     atom    2 type  2   force =    -0.00000000   -0.00000000   -0.85258129
     atom    3 type  2   force =    -0.00000000   -0.00000000    0.85258129
     The local contribution  to forces
     atom    1 type  1   force =     0.00000000    0.00000000   -0.00000000
     atom    2 type  2   force =    -0.00000000   -0.00000000    0.86875912
     atom    3 type  2   force =    -0.00000000   -0.00000000   -0.86875912
     The core correction contribution to forces
     atom    1 type  1   force =     0.00000000    0.00000000    0.00000000
     atom    2 type  2   force =     0.00000000    0.00000000    0.00107138
     atom    3 type  2   force =     0.00000000   -0.00000000   -0.00107138
     The Hubbard contrib.    to forces
     atom    1 type  1   force =     0.00000000    0.00000000    0.00000000
     atom    2 type  2   force =     0.00000000    0.00000000    0.00000000
     atom    3 type  2   force =     0.00000000    0.00000000    0.00000000
     The SCF correction term to forces
     atom    1 type  1   force =     0.00000000    0.00000000   -0.00000000
     atom    2 type  2   force =     0.00000000   -0.00000000    0.00002194
     atom    3 type  2   force =     0.00000000    0.00000000   -0.00002194

     Total force =     0.022754     Total SCF correction =     0.000031


     Computing stress (Cartesian axis) and pressure

          total   stress  (Ry/bohr**3)                   (kbar)     P=      496.49
   0.00355592   0.00000000   0.00000000          523.09        0.00        0.00
   0.00000000   0.00355592   0.00000000            0.00      523.09        0.00
   0.00000000   0.00000000   0.00301344            0.00        0.00      443.29

     Energy error            =      7.5E-03 Ry
     Gradient error          =      1.6E-02 Ry/Bohr
     Cell gradient error     =      5.7E+01 kbar

     number of scf cycles    =   5
     number of bfgs steps    =   4

     enthalpy           old  =     -30.5093488621 Ry
     enthalpy           new  =     -30.5168368259 Ry

     CASE: enthalpy          _new < enthalpy          _old

     new trust radius        =       0.0263100134 bohr
ibrav =      6
 celldm(1) =      4.44135353
 celldm(3) =      2.38639262
Input lattice vectors:
     0.98585852     0.00000000     0.00000000
     0.00000000     0.98585852     0.00000000
     0.00000000     0.00000000     2.35264548
New lattice vectors in INITIAL alat:
     0.98585852     0.00000000     0.00000000
     0.00000000     0.98585852     0.00000000
     0.00000000     0.00000000     2.35264548
New lattice vectors in NEW alat (for information only):
     1.00000000     0.00000000     0.00000000
     0.00000000     1.00000000     0.00000000
     0.00000000     0.00000000     2.38639262
Discrepancy in bohr =     0.000000    0.000000    0.000000
     new conv_thr            =       0.0000000016 Ry

     new unit-cell volume =    209.06818 a.u.^3 (    30.98071 Ang^3 )
     density =      3.38275 g/cm^3

CELL_PARAMETERS (alat=  4.50506179)
   0.985858516   0.000000000   0.000000000
   0.000000000   0.985858516   0.000000000
   0.000000000   0.000000000   2.352645482

ATOMIC_POSITIONS (crystal)
Li            0.0000000000        0.0000000000        0.5000000000
Si            0.5000000000        0.5000000000        0.2017662223
Si            0.5000000000        0.5000000000        0.7982337777



     Writing config-only to output data dir ./output/LiSi.save/
     NEW-OLD atomic charge density approx. for the potential
     extrapolated charge   10.98908, renormalised to   11.00000

     total cpu time spent up to now is       49.7 secs

     Self-consistent Calculation

     iteration #  1     ecut=   100.00 Ry     beta= 0.70
     Davidson diagonalization with overlap
     ethr =  1.00E-06,  avg # of iterations =  6.4

     total cpu time spent up to now is       51.1 secs

     total energy              =     -31.22831704 Ry
     estimated scf accuracy    <       0.00044529 Ry

     iteration #  2     ecut=   100.00 Ry     beta= 0.70
     Davidson diagonalization with overlap
     ethr =  4.05E-06,  avg # of iterations =  2.3

     total cpu time spent up to now is       51.9 secs

     total energy              =     -31.22828952 Ry
     estimated scf accuracy    <       0.00112303 Ry

     iteration #  3     ecut=   100.00 Ry     beta= 0.70
     Davidson diagonalization with overlap
     ethr =  4.05E-06,  avg # of iterations =  2.0

     total cpu time spent up to now is       52.6 secs

     total energy              =     -31.22850973 Ry
     estimated scf accuracy    <       0.00001324 Ry

     iteration #  4     ecut=   100.00 Ry     beta= 0.70
     Davidson diagonalization with overlap
     ethr =  1.20E-07,  avg # of iterations =  1.6

     total cpu time spent up to now is       53.3 secs

     total energy              =     -31.22851192 Ry
     estimated scf accuracy    <       0.00000019 Ry

     iteration #  5     ecut=   100.00 Ry     beta= 0.70
     Davidson diagonalization with overlap
     ethr =  1.71E-09,  avg # of iterations =  2.8

     total cpu time spent up to now is       54.1 secs

     total energy              =     -31.22851200 Ry
     estimated scf accuracy    <          2.6E-09 Ry

     iteration #  6     ecut=   100.00 Ry     beta= 0.70
     Davidson diagonalization with overlap
     ethr =  2.32E-11,  avg # of iterations =  3.4

     total cpu time spent up to now is       55.0 secs

     End of self-consistent calculation

     Number of k-points >= 100: set verbosity='high' to print the bands.

     the Fermi energy is    11.6404 ev

!    total energy              =     -31.22851200 Ry
     estimated scf accuracy    <          2.1E-10 Ry
     smearing contrib. (-TS)   =      -0.00026613 Ry
     internal energy E=F+TS    =     -31.22824588 Ry

     The total energy is F=E-TS. E is the sum of the following terms:
     one-electron contribution =       3.91651050 Ry
     hartree contribution      =       3.17413726 Ry
     xc contribution           =     -10.11546160 Ry
     ewald contribution        =     -28.20343204 Ry

     convergence has been achieved in   6 iterations

     Forces acting on atoms (cartesian axes, Ry/au):

     atom    1 type  1   force =     0.00000000    0.00000000    0.00000000
     atom    2 type  2   force =     0.00000000    0.00000000   -0.00262601
     atom    3 type  2   force =     0.00000000    0.00000000    0.00262601
     The non-local contrib.  to forces
     atom    1 type  1   force =     0.00000000    0.00000000    0.00000000
     atom    2 type  2   force =     0.00000000    0.00000000   -0.01411783
     atom    3 type  2   force =     0.00000000    0.00000000    0.01411783
     The ionic contribution  to forces
     atom    1 type  1   force =     0.00000000    0.00000000    0.00000000
     atom    2 type  2   force =    -0.00000000   -0.00000000   -0.72702454
     atom    3 type  2   force =    -0.00000000   -0.00000000    0.72702454
     The local contribution  to forces
     atom    1 type  1   force =     0.00000000    0.00000000    0.00000000
     atom    2 type  2   force =    -0.00000000   -0.00000000    0.73889665
     atom    3 type  2   force =    -0.00000000   -0.00000000   -0.73889665
     The core correction contribution to forces
     atom    1 type  1   force =     0.00000000    0.00000000    0.00000000
     atom    2 type  2   force =     0.00000000    0.00000000   -0.00040154
     atom    3 type  2   force =     0.00000000    0.00000000    0.00040154
     The Hubbard contrib.    to forces
     atom    1 type  1   force =     0.00000000    0.00000000    0.00000000
     atom    2 type  2   force =     0.00000000    0.00000000    0.00000000
     atom    3 type  2   force =     0.00000000    0.00000000    0.00000000
     The SCF correction term to forces
     atom    1 type  1   force =     0.00000000    0.00000000    0.00000000
     atom    2 type  2   force =     0.00000000    0.00000000    0.00002124
     atom    3 type  2   force =     0.00000000    0.00000000   -0.00002124

     Total force =     0.003714     Total SCF correction =     0.000030


     Computing stress (Cartesian axis) and pressure

          total   stress  (Ry/bohr**3)                   (kbar)     P=      502.72
   0.00349551   0.00000000   0.00000000          514.21        0.00        0.00
   0.00000000   0.00349551   0.00000000            0.00      514.21        0.00
   0.00000000   0.00000000   0.00326128            0.00        0.00      479.75

     Energy error            =      1.1E-03 Ry
     Gradient error          =      2.6E-03 Ry/Bohr
     Cell gradient error     =      2.0E+01 kbar

     number of scf cycles    =   6
     number of bfgs steps    =   5

     enthalpy           old  =     -30.5168368259 Ry
     enthalpy           new  =     -30.5179037185 Ry

     CASE: enthalpy          _new < enthalpy          _old

     new trust radius        =       0.0163206366 bohr
ibrav =      6
 celldm(1) =      4.45633838
 celldm(3) =      2.36494538
Input lattice vectors:
     0.98918474     0.00000000     0.00000000
     0.00000000     0.98918474     0.00000000
     0.00000000     0.00000000     2.33936788
New lattice vectors in INITIAL alat:
     0.98918474     0.00000000     0.00000000
     0.00000000     0.98918474     0.00000000
     0.00000000     0.00000000     2.33936788
New lattice vectors in NEW alat (for information only):
     1.00000000     0.00000000     0.00000000
     0.00000000     1.00000000     0.00000000
     0.00000000     0.00000000     2.36494538
Discrepancy in bohr =     0.000000    0.000000    0.000000
     new conv_thr            =       0.0000000003 Ry

     new unit-cell volume =    209.29343 a.u.^3 (    31.01409 Ang^3 )
     density =      3.37911 g/cm^3

CELL_PARAMETERS (alat=  4.50506179)
   0.989184741   0.000000000   0.000000000
   0.000000000   0.989184741   0.000000000
   0.000000000   0.000000000   2.339367881

ATOMIC_POSITIONS (crystal)
Li            0.0000000000        0.0000000000        0.5000000000
Si            0.5000000000        0.5000000000        0.2012487695
Si            0.5000000000        0.5000000000        0.7987512305



     Writing config-only to output data dir ./output/LiSi.save/
     NEW-OLD atomic charge density approx. for the potential
     extrapolated charge   11.01183, renormalised to   11.00000

     total cpu time spent up to now is       56.7 secs

     Self-consistent Calculation

     iteration #  1     ecut=   100.00 Ry     beta= 0.70
     Davidson diagonalization with overlap
     ethr =  1.00E-06,  avg # of iterations =  5.0

     total cpu time spent up to now is       57.8 secs

     total energy              =     -31.22938806 Ry
     estimated scf accuracy    <       0.00012796 Ry

     iteration #  2     ecut=   100.00 Ry     beta= 0.70
     Davidson diagonalization with overlap
     ethr =  1.16E-06,  avg # of iterations =  2.2

     total cpu time spent up to now is       58.6 secs

     total energy              =     -31.22938297 Ry
     estimated scf accuracy    <       0.00037355 Ry

     iteration #  3     ecut=   100.00 Ry     beta= 0.70
     Davidson diagonalization with overlap
     ethr =  1.16E-06,  avg # of iterations =  1.8

     total cpu time spent up to now is       59.3 secs

     total energy              =     -31.22944871 Ry
     estimated scf accuracy    <       0.00000092 Ry

     iteration #  4     ecut=   100.00 Ry     beta= 0.70
     Davidson diagonalization with overlap
     ethr =  8.32E-09,  avg # of iterations =  2.8

     total cpu time spent up to now is       60.0 secs

     total energy              =     -31.22944898 Ry
     estimated scf accuracy    <       0.00000015 Ry

     iteration #  5     ecut=   100.00 Ry     beta= 0.70
     Davidson diagonalization with overlap
     ethr =  1.32E-09,  avg # of iterations =  1.5

     total cpu time spent up to now is       60.7 secs

     total energy              =     -31.22944901 Ry
     estimated scf accuracy    <          4.5E-10 Ry

     iteration #  6     ecut=   100.00 Ry     beta= 0.70
     Davidson diagonalization with overlap
     ethr =  4.12E-12,  avg # of iterations =  4.1

     total cpu time spent up to now is       61.5 secs

     End of self-consistent calculation

     Number of k-points >= 100: set verbosity='high' to print the bands.

     the Fermi energy is    11.6337 ev

!    total energy              =     -31.22944901 Ry
     estimated scf accuracy    <          1.2E-10 Ry
     smearing contrib. (-TS)   =      -0.00016344 Ry
     internal energy E=F+TS    =     -31.22928557 Ry

     The total energy is F=E-TS. E is the sum of the following terms:
     one-electron contribution =       3.91923700 Ry
     hartree contribution      =       3.16732039 Ry
     xc contribution           =     -10.11397185 Ry
     ewald contribution        =     -28.20187112 Ry

     convergence has been achieved in   6 iterations

     Forces acting on atoms (cartesian axes, Ry/au):

     atom    1 type  1   force =     0.00000000    0.00000000    0.00000000
     atom    2 type  2   force =     0.00000000    0.00000000    0.00353108
     atom    3 type  2   force =     0.00000000    0.00000000   -0.00353108
     The non-local contrib.  to forces
     atom    1 type  1   force =     0.00000000    0.00000000    0.00000000
     atom    2 type  2   force =     0.00000000    0.00000000   -0.00363864
     atom    3 type  2   force =     0.00000000    0.00000000    0.00363864
     The ionic contribution  to forces
     atom    1 type  1   force =    -0.00000000   -0.00000000    0.00000000
     atom    2 type  2   force =    -0.00000000   -0.00000000   -0.67719198
     atom    3 type  2   force =    -0.00000000   -0.00000000    0.67719198
     The local contribution  to forces
     atom    1 type  1   force =     0.00000000    0.00000000    0.00000000
     atom    2 type  2   force =    -0.00000000   -0.00000000    0.68555838
     atom    3 type  2   force =     0.00000000    0.00000000   -0.68555838
     The core correction contribution to forces
     atom    1 type  1   force =     0.00000000    0.00000000    0.00000000
     atom    2 type  2   force =     0.00000000    0.00000000   -0.00117935
     atom    3 type  2   force =     0.00000000    0.00000000    0.00117935
     The Hubbard contrib.    to forces
     atom    1 type  1   force =     0.00000000    0.00000000    0.00000000
     atom    2 type  2   force =     0.00000000    0.00000000    0.00000000
     atom    3 type  2   force =     0.00000000    0.00000000    0.00000000
     The SCF correction term to forces
     atom    1 type  1   force =     0.00000000    0.00000000    0.00000000
     atom    2 type  2   force =     0.00000000    0.00000000   -0.00001734
     atom    3 type  2   force =    -0.00000000    0.00000000    0.00001734

     Total force =     0.004994     Total SCF correction =     0.000025


     Computing stress (Cartesian axis) and pressure

          total   stress  (Ry/bohr**3)                   (kbar)     P=      501.91
   0.00342304   0.00000000   0.00000000          503.55        0.00        0.00
   0.00000000   0.00342304   0.00000000            0.00      503.55        0.00
   0.00000000   0.00000000   0.00338975            0.00        0.00      498.65

     Energy error            =      1.7E-04 Ry
     Gradient error          =      3.5E-03 Ry/Bohr
     Cell gradient error     =      3.5E+00 kbar

     number of scf cycles    =   7
     number of bfgs steps    =   6

     enthalpy           old  =     -30.5179037185 Ry
     enthalpy           new  =     -30.5180750959 Ry

     CASE: enthalpy          _new < enthalpy          _old

     new trust radius        =       0.0031225223 bohr
ibrav =      6
 celldm(1) =      4.45942938
 celldm(3) =      2.36120254
Input lattice vectors:
     0.98987086     0.00000000     0.00000000
     0.00000000     0.98987086     0.00000000
     0.00000000     0.00000000     2.33728559
New lattice vectors in INITIAL alat:
     0.98987086     0.00000000     0.00000000
     0.00000000     0.98987086     0.00000000
     0.00000000     0.00000000     2.33728559
New lattice vectors in NEW alat (for information only):
     1.00000000     0.00000000     0.00000000
     0.00000000     1.00000000     0.00000000
     0.00000000     0.00000000     2.36120254
Discrepancy in bohr =     0.000000    0.000000    0.000000
     new conv_thr            =       0.0000000002 Ry

     new unit-cell volume =    209.39732 a.u.^3 (    31.02948 Ang^3 )
     density =      3.37743 g/cm^3

CELL_PARAMETERS (alat=  4.50506179)
   0.989870859   0.000000000   0.000000000
   0.000000000   0.989870859   0.000000000
   0.000000000   0.000000000   2.337285588

ATOMIC_POSITIONS (crystal)
Li            0.0000000000        0.0000000000        0.5000000000
Si            0.5000000000        0.5000000000        0.2015450522
Si            0.5000000000        0.5000000000        0.7984549478



     Writing config-only to output data dir ./output/LiSi.save/
     NEW-OLD atomic charge density approx. for the potential
     extrapolated charge   11.00545, renormalised to   11.00000

     total cpu time spent up to now is       63.2 secs

     Self-consistent Calculation

     iteration #  1     ecut=   100.00 Ry     beta= 0.70
     Davidson diagonalization with overlap
     ethr =  1.00E-06,  avg # of iterations =  2.1

     Threshold (ethr) on eigenvalues was too large:
     Diagonalizing with lowered threshold

     Davidson diagonalization with overlap
     ethr =  1.51E-08,  avg # of iterations =  3.1

     total cpu time spent up to now is       64.7 secs

     total energy              =     -31.22982539 Ry
     estimated scf accuracy    <       0.00000268 Ry

     iteration #  2     ecut=   100.00 Ry     beta= 0.70
     Davidson diagonalization with overlap
     ethr =  2.43E-08,  avg # of iterations =  2.1

     total cpu time spent up to now is       65.4 secs

     total energy              =     -31.22982537 Ry
     estimated scf accuracy    <       0.00000523 Ry

     iteration #  3     ecut=   100.00 Ry     beta= 0.70
     Davidson diagonalization with overlap
     ethr =  2.43E-08,  avg # of iterations =  1.7

     total cpu time spent up to now is       66.1 secs

     total energy              =     -31.22982651 Ry
     estimated scf accuracy    <       0.00000023 Ry

     iteration #  4     ecut=   100.00 Ry     beta= 0.70
     Davidson diagonalization with overlap
     ethr =  2.08E-09,  avg # of iterations =  1.4

     total cpu time spent up to now is       66.8 secs

     total energy              =     -31.22982655 Ry
     estimated scf accuracy    <          1.1E-09 Ry

     iteration #  5     ecut=   100.00 Ry     beta= 0.70
     Davidson diagonalization with overlap
     ethr =  1.03E-11,  avg # of iterations =  3.2

     total cpu time spent up to now is       67.5 secs

     End of self-consistent calculation

     Number of k-points >= 100: set verbosity='high' to print the bands.

     the Fermi energy is    11.6280 ev

!    total energy              =     -31.22982655 Ry
     estimated scf accuracy    <          1.6E-10 Ry
     smearing contrib. (-TS)   =      -0.00014379 Ry
     internal energy E=F+TS    =     -31.22968276 Ry

     The total energy is F=E-TS. E is the sum of the following terms:
     one-electron contribution =       3.90333021 Ry
     hartree contribution      =       3.17262766 Ry
     xc contribution           =     -10.11262303 Ry
     ewald contribution        =     -28.19301760 Ry

     convergence has been achieved in   5 iterations

     Forces acting on atoms (cartesian axes, Ry/au):

     atom    1 type  1   force =     0.00000000    0.00000000    0.00000000
     atom    2 type  2   force =     0.00000000    0.00000000    0.00226652
     atom    3 type  2   force =     0.00000000    0.00000000   -0.00226652
     The non-local contrib.  to forces
     atom    1 type  1   force =     0.00000000    0.00000000    0.00000000
     atom    2 type  2   force =     0.00000000    0.00000000   -0.00430368
     atom    3 type  2   force =     0.00000000    0.00000000    0.00430368
     The ionic contribution  to forces
     atom    1 type  1   force =     0.00000000    0.00000000    0.00000000
     atom    2 type  2   force =    -0.00000000   -0.00000000   -0.68963562
     atom    3 type  2   force =    -0.00000000   -0.00000000    0.68963562
     The local contribution  to forces
     atom    1 type  1   force =     0.00000000    0.00000000    0.00000000
     atom    2 type  2   force =    -0.00000000   -0.00000000    0.69731306
     atom    3 type  2   force =     0.00000000   -0.00000000   -0.69731306
     The core correction contribution to forces
     atom    1 type  1   force =     0.00000000    0.00000000    0.00000000
     atom    2 type  2   force =     0.00000000    0.00000000   -0.00112648
     atom    3 type  2   force =     0.00000000    0.00000000    0.00112648
     The Hubbard contrib.    to forces
     atom    1 type  1   force =     0.00000000    0.00000000    0.00000000
     atom    2 type  2   force =     0.00000000    0.00000000    0.00000000
     atom    3 type  2   force =     0.00000000    0.00000000    0.00000000
     The SCF correction term to forces
     atom    1 type  1   force =     0.00000000   -0.00000000    0.00000000
     atom    2 type  2   force =     0.00000000    0.00000000    0.00001924
     atom    3 type  2   force =     0.00000000   -0.00000000   -0.00001924

     Total force =     0.003205     Total SCF correction =     0.000027


     Computing stress (Cartesian axis) and pressure

          total   stress  (Ry/bohr**3)                   (kbar)     P=      499.96
   0.00340471   0.00000000   0.00000000          500.85        0.00        0.00
   0.00000000   0.00340471   0.00000000            0.00      500.85        0.00
   0.00000000   0.00000000   0.00338663            0.00        0.00      498.19

     Energy error            =      2.4E-05 Ry
     Gradient error          =      2.3E-03 Ry/Bohr
     Cell gradient error     =      1.8E+00 kbar

     number of scf cycles    =   8
     number of bfgs steps    =   7

     enthalpy           old  =     -30.5180750959 Ry
     enthalpy           new  =     -30.5180995323 Ry

     CASE: enthalpy          _new < enthalpy          _old

     new trust radius        =       0.0046796143 bohr
ibrav =      6
 celldm(1) =      4.46207739
 celldm(3) =      2.35657052
Input lattice vectors:
     0.99045864     0.00000000     0.00000000
     0.00000000     0.99045864     0.00000000
     0.00000000     0.00000000     2.33408564
New lattice vectors in INITIAL alat:
     0.99045864     0.00000000     0.00000000
     0.00000000     0.99045864     0.00000000
     0.00000000     0.00000000     2.33408564
New lattice vectors in NEW alat (for information only):
     1.00000000     0.00000000     0.00000000
     0.00000000     1.00000000     0.00000000
     0.00000000     0.00000000     2.35657052
Discrepancy in bohr =     0.000000    0.000000    0.000000
     new conv_thr            =            1.0E-10 Ry

     new unit-cell volume =    209.35905 a.u.^3 (    31.02381 Ang^3 )
     density =      3.37805 g/cm^3

CELL_PARAMETERS (alat=  4.50506179)
   0.990458643   0.000000000   0.000000000
   0.000000000   0.990458643   0.000000000
   0.000000000   0.000000000   2.334085635

ATOMIC_POSITIONS (crystal)
Li            0.0000000000        0.0000000000        0.5000000000
Si            0.5000000000        0.5000000000        0.2019894762
Si            0.5000000000        0.5000000000        0.7980105238



     Writing config-only to output data dir ./output/LiSi.save/
     NEW-OLD atomic charge density approx. for the potential
     extrapolated charge   10.99799, renormalised to   11.00000

     total cpu time spent up to now is       69.1 secs

     Self-consistent Calculation

     iteration #  1     ecut=   100.00 Ry     beta= 0.70
     Davidson diagonalization with overlap
     ethr =  1.00E-06,  avg # of iterations =  2.7

     total cpu time spent up to now is       70.0 secs

     total energy              =     -31.22970428 Ry
     estimated scf accuracy    <       0.00001207 Ry

     iteration #  2     ecut=   100.00 Ry     beta= 0.70
     Davidson diagonalization with overlap
     ethr =  1.10E-07,  avg # of iterations =  2.2

     total cpu time spent up to now is       70.7 secs

     total energy              =     -31.22970461 Ry
     estimated scf accuracy    <       0.00004445 Ry

     iteration #  3     ecut=   100.00 Ry     beta= 0.70
     Davidson diagonalization with overlap
     ethr =  1.10E-07,  avg # of iterations =  1.8

     total cpu time spent up to now is       71.3 secs

     total energy              =     -31.22971187 Ry
     estimated scf accuracy    <       0.00000002 Ry

     iteration #  4     ecut=   100.00 Ry     beta= 0.70
     Davidson diagonalization with overlap
     ethr =  1.47E-10,  avg # of iterations =  4.0

     total cpu time spent up to now is       72.1 secs

     total energy              =     -31.22971191 Ry
     estimated scf accuracy    <       0.00000002 Ry

     iteration #  5     ecut=   100.00 Ry     beta= 0.70
     Davidson diagonalization with overlap
     ethr =  1.47E-10,  avg # of iterations =  1.7

     total cpu time spent up to now is       72.8 secs

     End of self-consistent calculation

     Number of k-points >= 100: set verbosity='high' to print the bands.

     the Fermi energy is    11.6322 ev

!    total energy              =     -31.22971191 Ry
     estimated scf accuracy    <          1.6E-11 Ry
     smearing contrib. (-TS)   =      -0.00012250 Ry
     internal energy E=F+TS    =     -31.22958942 Ry

     The total energy is F=E-TS. E is the sum of the following terms:
     one-electron contribution =       3.89096216 Ry
     hartree contribution      =       3.17997591 Ry
     xc contribution           =     -10.11222560 Ry
     ewald contribution        =     -28.18830189 Ry

     convergence has been achieved in   5 iterations

     Forces acting on atoms (cartesian axes, Ry/au):

     atom    1 type  1   force =     0.00000000    0.00000000    0.00000000
     atom    2 type  2   force =     0.00000000    0.00000000    0.00040335
     atom    3 type  2   force =     0.00000000    0.00000000   -0.00040335
     The non-local contrib.  to forces
     atom    1 type  1   force =     0.00000000    0.00000000    0.00000000
     atom    2 type  2   force =     0.00000000    0.00000000   -0.00556970
     atom    3 type  2   force =     0.00000000    0.00000000    0.00556970
     The ionic contribution  to forces
     atom    1 type  1   force =     0.00000000    0.00000000    0.00000000
     atom    2 type  2   force =    -0.00000000   -0.00000000   -0.70959276
     atom    3 type  2   force =    -0.00000000   -0.00000000    0.70959276
     The local contribution  to forces
     atom    1 type  1   force =     0.00000000    0.00000000   -0.00000000
     atom    2 type  2   force =     0.00000000    0.00000000    0.71659330
     atom    3 type  2   force =     0.00000000    0.00000000   -0.71659330
     The core correction contribution to forces
     atom    1 type  1   force =     0.00000000    0.00000000    0.00000000
     atom    2 type  2   force =     0.00000000    0.00000000   -0.00102918
     atom    3 type  2   force =     0.00000000    0.00000000    0.00102918
     The Hubbard contrib.    to forces
     atom    1 type  1   force =     0.00000000    0.00000000    0.00000000
     atom    2 type  2   force =     0.00000000    0.00000000    0.00000000
     atom    3 type  2   force =     0.00000000    0.00000000    0.00000000
     The SCF correction term to forces
     atom    1 type  1   force =    -0.00000000    0.00000000    0.00000000
     atom    2 type  2   force =    -0.00000000   -0.00000000    0.00000169
     atom    3 type  2   force =     0.00000000    0.00000000   -0.00000169

     Total force =     0.000570     Total SCF correction =     0.000002


     Computing stress (Cartesian axis) and pressure

          total   stress  (Ry/bohr**3)                   (kbar)     P=      499.39
   0.00339573   0.00000000   0.00000000          499.53        0.00        0.00
   0.00000000   0.00339573   0.00000000            0.00      499.53        0.00
   0.00000000   0.00000000   0.00339292            0.00        0.00      499.12

     Energy error            =      1.5E-05 Ry
     Gradient error          =      4.0E-04 Ry/Bohr
     Cell gradient error     =      8.8E-01 kbar
ibrav =      6
 celldm(1) =      4.46207739
 celldm(3) =      2.35657052
Input lattice vectors:
     0.99045864     0.00000000     0.00000000
     0.00000000     0.99045864     0.00000000
     0.00000000     0.00000000     2.33408564
New lattice vectors in INITIAL alat:
     0.99045864     0.00000000     0.00000000
     0.00000000     0.99045864     0.00000000
     0.00000000     0.00000000     2.33408564
New lattice vectors in NEW alat (for information only):
     1.00000000     0.00000000     0.00000000
     0.00000000     1.00000000     0.00000000
     0.00000000     0.00000000     2.35657052
Discrepancy in bohr =     0.000000    0.000000    0.000000

     bfgs converged in   9 scf cycles and   8 bfgs steps
     (criteria: energy <  1.0E-04 Ry, force <  1.0E-03 Ry/Bohr, cell <  1.0E+00 kbar)

     End of BFGS Geometry Optimization

     Final enthalpy           =     -30.5181149733 Ry

     File ./output/LiSi.bfgs deleted, as requested
Begin final coordinates
     new unit-cell volume =    209.35905 a.u.^3 (    31.02381 Ang^3 )
     density =      3.37805 g/cm^3

CELL_PARAMETERS (alat=  4.50506179)
   0.990458643   0.000000000   0.000000000
   0.000000000   0.990458643   0.000000000
   0.000000000   0.000000000   2.334085635

ATOMIC_POSITIONS (crystal)
Li            0.0000000000        0.0000000000        0.5000000000
Si            0.5000000000        0.5000000000        0.2019894762
Si            0.5000000000        0.5000000000        0.7980105238
End final coordinates



     Writing config-only to output data dir ./output/LiSi.save/

     Final scf calculation at the relaxed structure.
     The G-vectors are recalculated for the final unit cell
     Results may differ from those at the preceding step.

     Parallelization info
     --------------------
     sticks:   dense  smooth     PW     G-vecs:    dense   smooth      PW
     Min          79      79     23                 3527     3527     577
     Max          80      80     24                 3534     3534     584
     Sum         633     633    185                28243    28243    4629

     Using Slab Decomposition



     bravais-lattice index     =            6
     lattice parameter (alat)  =       4.5051  a.u.
     unit-cell volume          =     209.3590 (a.u.)^3
     number of atoms/cell      =            3
     number of atomic types    =            2
     number of electrons       =        11.00
     number of Kohn-Sham states=           10
     kinetic-energy cutoff     =     100.0000  Ry
     charge density cutoff     =     400.0000  Ry
     scf convergence threshold =      1.0E-10
     mixing beta               =       0.7000
     number of iterations used =            8  plain     mixing
     press convergence thresh. =      1.0E+00
     Exchange-correlation= PBE
                           (   1   4   3   4   0   0   0)

     celldm(1)=   4.505062  celldm(2)=   0.000000  celldm(3)=   2.225140
     celldm(4)=   0.000000  celldm(5)=   0.000000  celldm(6)=   0.000000

     crystal axes: (cart. coord. in units of alat)
               a(1) = (   0.990459   0.000000   0.000000 )  
               a(2) = (   0.000000   0.990459   0.000000 )  
               a(3) = (   0.000000   0.000000   2.334086 )  

     reciprocal axes: (cart. coord. in units 2 pi/alat)
               b(1) = (  1.009633  0.000000  0.000000 )  
               b(2) = (  0.000000  1.009633  0.000000 )  
               b(3) = (  0.000000  0.000000  0.428433 )  


     PseudoPot. # 1 for Li read from file:
     ../pseudo/Li_ONCV_PBE_sr.upf
     MD5 check sum: 50ff420e78310ffa21704f3361e624a4
     Pseudo is Norm-conserving, Zval =  3.0
     Generated using ONCVPSP code by D. R. Hamann
     Using radial grid of 1944 points,  4 beta functions with: 
                l(1) =   0
                l(2) =   0
                l(3) =   1
                l(4) =   1

     PseudoPot. # 2 for Si read from file:
     ../pseudo/Si_ONCV_PBE_sr.upf
     MD5 check sum: e543d271109d17c80368dfa7c482276d
     Pseudo is Norm-conserving + core correction, Zval =  4.0
     Generated using ONCVPSP code by D. R. Hamann
     Using radial grid of 1510 points,  6 beta functions with: 
                l(1) =   0
                l(2) =   0
                l(3) =   1
                l(4) =   1
                l(5) =   2
                l(6) =   2

     atomic species   valence    mass     pseudopotential
        Li             3.00     6.94100     Li( 1.00)
        Si             4.00    28.08550     Si( 1.00)

     16 Sym. Ops., with inversion, found



   Cartesian axes

     site n.     atom                  positions (alat units)
         1           Li  tau(   1) = (   0.0000000   0.0000000   1.1670428  )
         2           Si  tau(   2) = (   0.4952293   0.4952293   0.4714607  )
         3           Si  tau(   3) = (   0.4952293   0.4952293   1.8626249  )

     number of k points=   105  Marzari-Vanderbilt smearing, width (Ry)=  0.0200

     Number of k-points >= 100: set verbosity='high' to print them.

     Dense  grid:    28243 G-vectors     FFT dimensions: (  30,  30,  72)

     Estimated max dynamical RAM per process >      22.75 MB

     Estimated total dynamical RAM >     182.01 MB

     Initial potential from superposition of free atoms

     starting charge      10.9942, renormalised to      11.0000
     Starting wfcs are   10 randomized atomic wfcs

     total cpu time spent up to now is       74.8 secs

     Self-consistent Calculation

     iteration #  1     ecut=   100.00 Ry     beta= 0.70
     Davidson diagonalization with overlap
     c_bands:  1 eigenvalues not converged
     c_bands:  2 eigenvalues not converged
     c_bands:  1 eigenvalues not converged
     c_bands:  4 eigenvalues not converged
     c_bands:  2 eigenvalues not converged
     c_bands:  1 eigenvalues not converged
     c_bands:  1 eigenvalues not converged
     c_bands:  1 eigenvalues not converged
     c_bands:  1 eigenvalues not converged
     c_bands:  1 eigenvalues not converged
     c_bands:  1 eigenvalues not converged
     c_bands:  1 eigenvalues not converged
     c_bands:  2 eigenvalues not converged
     c_bands:  1 eigenvalues not converged
     c_bands:  1 eigenvalues not converged
     c_bands:  1 eigenvalues not converged
     c_bands:  1 eigenvalues not converged
     c_bands:  1 eigenvalues not converged
     c_bands:  1 eigenvalues not converged
     c_bands:  1 eigenvalues not converged
     c_bands:  1 eigenvalues not converged
     c_bands:  1 eigenvalues not converged
     c_bands:  1 eigenvalues not converged
     c_bands:  1 eigenvalues not converged
     c_bands:  1 eigenvalues not converged
     c_bands:  1 eigenvalues not converged
     c_bands:  1 eigenvalues not converged
     c_bands:  1 eigenvalues not converged
     c_bands:  1 eigenvalues not converged
     c_bands:  1 eigenvalues not converged
     c_bands:  1 eigenvalues not converged
     c_bands:  1 eigenvalues not converged
     c_bands:  1 eigenvalues not converged
     c_bands:  1 eigenvalues not converged
     c_bands:  1 eigenvalues not converged
     c_bands:  1 eigenvalues not converged
     c_bands:  1 eigenvalues not converged
     c_bands:  1 eigenvalues not converged
     c_bands:  1 eigenvalues not converged
     c_bands:  1 eigenvalues not converged
     c_bands:  1 eigenvalues not converged
     c_bands:  1 eigenvalues not converged
     c_bands:  1 eigenvalues not converged
     c_bands:  1 eigenvalues not converged
     c_bands:  1 eigenvalues not converged
     c_bands:  2 eigenvalues not converged
     c_bands:  2 eigenvalues not converged
     c_bands:  2 eigenvalues not converged
     c_bands:  1 eigenvalues not converged
     c_bands:  2 eigenvalues not converged
     c_bands:  1 eigenvalues not converged
     c_bands:  1 eigenvalues not converged
     c_bands:  3 eigenvalues not converged
     c_bands:  2 eigenvalues not converged
     ethr =  1.00E-06,  avg # of iterations = 18.9

     total cpu time spent up to now is       78.0 secs

     total energy              =     -31.14018199 Ry
     estimated scf accuracy    <       0.16272348 Ry

     iteration #  2     ecut=   100.00 Ry     beta= 0.70
     Davidson diagonalization with overlap
     ethr =  1.48E-03,  avg # of iterations =  2.4

     total cpu time spent up to now is       78.9 secs

     total energy              =     -31.15004105 Ry
     estimated scf accuracy    <       0.49182391 Ry

     iteration #  3     ecut=   100.00 Ry     beta= 0.70
     Davidson diagonalization with overlap
     ethr =  1.48E-03,  avg # of iterations =  2.0

     total cpu time spent up to now is       79.7 secs

     total energy              =     -31.22898650 Ry
     estimated scf accuracy    <       0.00114389 Ry

     iteration #  4     ecut=   100.00 Ry     beta= 0.70
     Davidson diagonalization with overlap
     ethr =  1.04E-05,  avg # of iterations =  5.1

     total cpu time spent up to now is       80.8 secs

     total energy              =     -31.22961797 Ry
     estimated scf accuracy    <       0.00083114 Ry

     iteration #  5     ecut=   100.00 Ry     beta= 0.70
     Davidson diagonalization with overlap
     ethr =  7.56E-06,  avg # of iterations =  1.2

     total cpu time spent up to now is       81.5 secs

     total energy              =     -31.22970249 Ry
     estimated scf accuracy    <       0.00002561 Ry

     iteration #  6     ecut=   100.00 Ry     beta= 0.70
     Davidson diagonalization with overlap
     ethr =  2.33E-07,  avg # of iterations =  2.6

     total cpu time spent up to now is       82.3 secs

     total energy              =     -31.22971201 Ry
     estimated scf accuracy    <       0.00000542 Ry

     iteration #  7     ecut=   100.00 Ry     beta= 0.70
     Davidson diagonalization with overlap
     ethr =  4.93E-08,  avg # of iterations =  1.4

     total cpu time spent up to now is       83.0 secs

     total energy              =     -31.22971275 Ry
     estimated scf accuracy    <       0.00000009 Ry

     iteration #  8     ecut=   100.00 Ry     beta= 0.70
     Davidson diagonalization with overlap
     ethr =  8.14E-10,  avg # of iterations =  3.1

     total cpu time spent up to now is       83.8 secs

     total energy              =     -31.22971279 Ry
     estimated scf accuracy    <          1.7E-09 Ry

     iteration #  9     ecut=   100.00 Ry     beta= 0.70
     Davidson diagonalization with overlap
     ethr =  1.51E-11,  avg # of iterations =  3.2

     total cpu time spent up to now is       84.6 secs

     total energy              =     -31.22971279 Ry
     estimated scf accuracy    <          3.9E-10 Ry

     iteration # 10     ecut=   100.00 Ry     beta= 0.70
     Davidson diagonalization with overlap
     ethr =  3.56E-12,  avg # of iterations =  1.5

     total cpu time spent up to now is       85.3 secs

     End of self-consistent calculation

     Number of k-points >= 100: set verbosity='high' to print the bands.

     the Fermi energy is    11.6322 ev

!    total energy              =     -31.22971279 Ry
     estimated scf accuracy    <          1.8E-12 Ry
     smearing contrib. (-TS)   =      -0.00012250 Ry
     internal energy E=F+TS    =     -31.22959029 Ry

     The total energy is F=E-TS. E is the sum of the following terms:
     one-electron contribution =       3.89096378 Ry
     hartree contribution      =       3.17997502 Ry
     xc contribution           =     -10.11222719 Ry
     ewald contribution        =     -28.18830189 Ry

     convergence has been achieved in  10 iterations

     Forces acting on atoms (cartesian axes, Ry/au):

     atom    1 type  1   force =     0.00000000    0.00000000    0.00000000
     atom    2 type  2   force =     0.00000000    0.00000000    0.00040235
     atom    3 type  2   force =     0.00000000    0.00000000   -0.00040235
     The non-local contrib.  to forces
     atom    1 type  1   force =     0.00000000    0.00000000    0.00000000
     atom    2 type  2   force =     0.00000000    0.00000000   -0.00556980
     atom    3 type  2   force =     0.00000000    0.00000000    0.00556980
     The ionic contribution  to forces
     atom    1 type  1   force =     0.00000000    0.00000000    0.00000000
     atom    2 type  2   force =     0.00000000    0.00000000   -0.70959276
     atom    3 type  2   force =     0.00000000    0.00000000    0.70959276
     The local contribution  to forces
     atom    1 type  1   force =     0.00000000    0.00000000    0.00000000
     atom    2 type  2   force =     0.00000000    0.00000000    0.71659620
     atom    3 type  2   force =     0.00000000    0.00000000   -0.71659620
     The core correction contribution to forces
     atom    1 type  1   force =     0.00000000    0.00000000    0.00000000
     atom    2 type  2   force =     0.00000000    0.00000000   -0.00102919
     atom    3 type  2   force =     0.00000000    0.00000000    0.00102919
     The Hubbard contrib.    to forces
     atom    1 type  1   force =     0.00000000    0.00000000    0.00000000
     atom    2 type  2   force =     0.00000000    0.00000000    0.00000000
     atom    3 type  2   force =     0.00000000    0.00000000    0.00000000
     The SCF correction term to forces
     atom    1 type  1   force =     0.00000000   -0.00000000    0.00000000
     atom    2 type  2   force =     0.00000000    0.00000000   -0.00000210
     atom    3 type  2   force =    -0.00000000   -0.00000000    0.00000210

     Total force =     0.000569     Total SCF correction =     0.000003


     Computing stress (Cartesian axis) and pressure

          total   stress  (Ry/bohr**3)                   (kbar)     P=      499.39
   0.00339573   0.00000000   0.00000000          499.53        0.00        0.00
   0.00000000   0.00339573   0.00000000            0.00      499.53        0.00
   0.00000000   0.00000000   0.00339288            0.00        0.00      499.11


     Writing all to output data dir ./output/LiSi.save/

     init_run     :      1.23s CPU      1.63s WALL (       2 calls)
     electrons    :     62.24s CPU     68.43s WALL (      10 calls)
     update_pot   :      2.46s CPU      2.50s WALL (       8 calls)
     forces       :      2.35s CPU      2.44s WALL (      10 calls)
     stress       :     10.57s CPU     10.99s WALL (      10 calls)

     Called by init_run:
     wfcinit      :      0.52s CPU      0.53s WALL (       2 calls)
     potinit      :      0.26s CPU      0.52s WALL (       2 calls)
     hinit0       :      0.41s CPU      0.51s WALL (       2 calls)

     Called by electrons:
     c_bands      :     54.39s CPU     59.77s WALL (      75 calls)
     sum_band     :      7.17s CPU      7.50s WALL (      75 calls)
     v_of_rho     :      0.71s CPU      1.33s WALL (      83 calls)
     mix_rho      :      0.05s CPU      0.09s WALL (      75 calls)

     Called by c_bands:
     init_us_2    :      2.05s CPU      2.29s WALL (   18060 calls)
     init_us_2:cp :      2.03s CPU      2.27s WALL (   18060 calls)
     cegterg      :     49.86s CPU     52.13s WALL (    7875 calls)

     Called by *egterg:
     cdiaghg      :      4.19s CPU      4.46s WALL (   32571 calls)
     h_psi        :     40.36s CPU     42.07s WALL (   33831 calls)
     g_psi        :      0.26s CPU      0.28s WALL (   25746 calls)

     Called by h_psi:
     h_psi:calbec :      3.07s CPU      3.20s WALL (   33831 calls)
     vloc_psi     :     34.88s CPU     36.31s WALL (   33831 calls)
     add_vuspsi   :      2.17s CPU      2.27s WALL (   33831 calls)

     General routines
     calbec       :      3.66s CPU      3.83s WALL (   39081 calls)
     fft          :      0.92s CPU      1.74s WALL (    1080 calls)
     ffts         :      0.03s CPU      0.06s WALL (      75 calls)
     fftw         :     35.79s CPU     37.21s WALL (  542374 calls)

     Parallel routines

     PWSCF        :   1m19.32s CPU   1m27.06s WALL


   This run was terminated on:  22: 1:45  10Jan2025            

=------------------------------------------------------------------------------=
   JOB DONE.
=------------------------------------------------------------------------------=
