
     Program PWSCF v.7.2 starts on 26Dec2024 at 19:34:10 

     This program is part of the open-source Quantum ESPRESSO suite
     for quantum simulation of materials; please cite
         "P. Giannozzi et al., J. Phys.:Condens. Matter 21 395502 (2009);
         "P. Giannozzi et al., J. Phys.:Condens. Matter 29 465901 (2017);
         "P. Giannozzi et al., J. Chem. Phys. 152 154105 (2020);
          URL http://www.quantum-espresso.org", 
     in publications or presentations arising from this work. More details at
     http://www.quantum-espresso.org/quote

     Parallel version (MPI & OpenMP), running on       8 processor cores
     Number of MPI processes:                 8
     Threads/MPI process:                     1

     MPI processes distributed on     1 nodes
     481590 MiB available memory on the printing compute node when the environment starts

     Waiting for input...
     Reading input from standard input

     Current dimensions of program PWSCF are:
     Max number of different atomic species (ntypx) = 10
     Max number of k-points (npk) =  40000
     Max angular momentum in pseudopotentials (lmaxx) =  4

     R & G space division:  proc/nbgrp/npool/nimage =       8
     Subspace diagonalization in iterative solution of the eigenvalue problem:
     a serial algorithm will be used


     Parallelization info
     --------------------
     sticks:   dense  smooth     PW     G-vecs:    dense   smooth      PW
     Min         407     407    110                17419    17419    2517
     Max         408     408    111                17421    17421    2520
     Sum        3263    3263    887               139361   139361   20155

     Using Slab Decomposition



     bravais-lattice index     =            5
     lattice parameter (alat)  =      11.3276  a.u.
     unit-cell volume          =    1442.8124 (a.u.)^3
     number of atoms/cell      =            3
     number of atomic types    =            2
     number of electrons       =        10.00
     number of Kohn-Sham states=            9
     kinetic-energy cutoff     =      80.0000  Ry
     charge density cutoff     =     320.0000  Ry
     scf convergence threshold =      1.0E-08
     mixing beta               =       0.7000
     number of iterations used =            8  plain     mixing
     energy convergence thresh.=      1.0E-04
     force convergence thresh. =      1.0E-03
     press convergence thresh. =      1.0E+00
     Exchange-correlation= PBE
                           (   1   4   3   4   0   0   0)
     nstep                     =           50


     celldm(1)=  11.327589  celldm(2)=   0.000000  celldm(3)=   0.000000
     celldm(4)=  -0.068319  celldm(5)=   0.000000  celldm(6)=   0.000000

     crystal axes: (cart. coord. in units of alat)
               a(1) = (   0.730862  -0.421963   0.536458 )  
               a(2) = (   0.000000   0.843927   0.536458 )  
               a(3) = (  -0.730862  -0.421963   0.536458 )  

     reciprocal axes: (cart. coord. in units 2 pi/alat)
               b(1) = (  0.684124 -0.394979  0.621359 )  
               b(2) = (  0.000000  0.789958  0.621359 )  
               b(3) = ( -0.684124 -0.394979  0.621359 )  


     PseudoPot. # 1 for Li read from file:
     ../pseudo/Li_ONCV_PBE_sr.upf
     MD5 check sum: 50ff420e78310ffa21704f3361e624a4
     Pseudo is Norm-conserving, Zval =  3.0
     Generated using ONCVPSP code by D. R. Hamann
     Using radial grid of 1944 points,  4 beta functions with: 
                l(1) =   0
                l(2) =   0
                l(3) =   1
                l(4) =   1

     PseudoPot. # 2 for Si read from file:
     ../pseudo/Si_ONCV_PBE_sr.upf
     MD5 check sum: e543d271109d17c80368dfa7c482276d
     Pseudo is Norm-conserving + core correction, Zval =  4.0
     Generated using ONCVPSP code by D. R. Hamann
     Using radial grid of 1510 points,  6 beta functions with: 
                l(1) =   0
                l(2) =   0
                l(3) =   1
                l(4) =   1
                l(5) =   2
                l(6) =   2

     atomic species   valence    mass     pseudopotential
        Li             3.00     6.94100     Li( 1.00)
        Si             4.00    28.08550     Si( 1.00)

      6 Sym. Ops. (no inversion) found



   Cartesian axes

     site n.     atom                  positions (alat units)
         1           Li  tau(   1) = (  -0.0000000  -0.0000000   0.3766146  )
         2           Li  tau(   2) = (  -0.0000000  -0.0000000   0.7701528  )
         3           Si  tau(   3) = (  -0.0000000  -0.0000000   1.1807385  )

     number of k points=    85  Marzari-Vanderbilt smearing, width (Ry)=  0.0200
                       cart. coord. in units 2pi/alat
        k(    1) = (   0.0000000   0.0000000   0.0000000), wk =   0.0027435
        k(    2) = (  -0.0760137  -0.0438865   0.0690399), wk =   0.0164609
        k(    3) = (  -0.1520275  -0.0877731   0.1380799), wk =   0.0164609
        k(    4) = (  -0.2280412  -0.1316596   0.2071198), wk =   0.0164609
        k(    5) = (  -0.3040549  -0.1755462   0.2761597), wk =   0.0164609
        k(    6) = (  -0.0760137   0.0438865   0.1380799), wk =   0.0164609
        k(    7) = (  -0.1520275  -0.0000000   0.2071198), wk =   0.0329218
        k(    8) = (  -0.2280412  -0.0438865   0.2761597), wk =   0.0329218
        k(    9) = (  -0.3040549  -0.0877731   0.3451997), wk =   0.0329218
        k(   10) = (   0.3040549   0.2633193  -0.2071198), wk =   0.0329218
        k(   11) = (   0.2280412   0.2194327  -0.1380799), wk =   0.0329218
        k(   12) = (   0.1520275   0.1755462  -0.0690399), wk =   0.0329218
        k(   13) = (   0.0760137   0.1316596   0.0000000), wk =   0.0164609
        k(   14) = (  -0.1520275   0.0877731   0.2761597), wk =   0.0164609
        k(   15) = (  -0.2280412   0.0438865   0.3451997), wk =   0.0329218
        k(   16) = (  -0.3040549  -0.0000000   0.4142396), wk =   0.0329218
        k(   17) = (   0.3040549   0.3510924  -0.1380799), wk =   0.0329218
        k(   18) = (   0.2280412   0.3072058  -0.0690399), wk =   0.0329218
        k(   19) = (   0.1520275   0.2633193   0.0000000), wk =   0.0164609
        k(   20) = (  -0.2280412   0.1316596   0.4142396), wk =   0.0164609
        k(   21) = (  -0.3040549   0.0877731   0.4832795), wk =   0.0329218
        k(   22) = (   0.3040549   0.4388655  -0.0690399), wk =   0.0329218
        k(   23) = (   0.2280412   0.3949789   0.0000000), wk =   0.0164609
        k(   24) = (  -0.3040549   0.1755462   0.5523195), wk =   0.0164609
        k(   25) = (   0.3040549   0.5266385   0.0000000), wk =   0.0164609
        k(   26) = (  -0.0000000  -0.0000000   0.2071198), wk =   0.0054870
        k(   27) = (  -0.0760137  -0.0438865   0.2761597), wk =   0.0164609
        k(   28) = (  -0.1520275  -0.0877731   0.3451997), wk =   0.0164609
        k(   29) = (  -0.2280412  -0.1316596   0.4142396), wk =   0.0164609
        k(   30) = (   0.3800686   0.2194327  -0.1380799), wk =   0.0164609
        k(   31) = (   0.3040549   0.1755462  -0.0690399), wk =   0.0164609
        k(   32) = (   0.2280412   0.1316596   0.0000000), wk =   0.0164609
        k(   33) = (   0.1520275   0.0877731   0.0690399), wk =   0.0164609
        k(   34) = (  -0.0760137   0.0438865   0.3451997), wk =   0.0164609
        k(   35) = (  -0.1520275  -0.0000000   0.4142396), wk =   0.0329218
        k(   36) = (  -0.2280412  -0.0438865   0.4832795), wk =   0.0329218
        k(   37) = (   0.3800686   0.3072058  -0.0690399), wk =   0.0329218
        k(   38) = (   0.3040549   0.2633193   0.0000000), wk =   0.0329218
        k(   39) = (   0.2280412   0.2194327   0.0690399), wk =   0.0329218
        k(   40) = (   0.1520275   0.1755462   0.1380799), wk =   0.0329218
        k(   41) = (  -0.1520275   0.0877731   0.4832795), wk =   0.0164609
        k(   42) = (  -0.2280412   0.0438865   0.5523195), wk =   0.0329218
        k(   43) = (   0.3800686   0.3949789   0.0000000), wk =   0.0329218
        k(   44) = (   0.3040549   0.3510924   0.0690399), wk =   0.0329218
        k(   45) = (   0.2280412   0.3072058   0.1380799), wk =   0.0329218
        k(   46) = (   0.1520275   0.2633193   0.2071198), wk =   0.0329218
        k(   47) = (  -0.2280412   0.1316596   0.6213594), wk =   0.0164609
        k(   48) = (   0.3800686   0.4827520   0.0690399), wk =   0.0329218
        k(   49) = (   0.3040549   0.4388655   0.1380799), wk =   0.0329218
        k(   50) = (   0.2280412   0.3949789   0.2071198), wk =   0.0329218
        k(   51) = (   0.1520275   0.3510924   0.2761597), wk =   0.0329218
        k(   52) = (   0.3800686  -0.2194327  -0.4832795), wk =   0.0164609
        k(   53) = (   0.3040549  -0.2633193  -0.4142396), wk =   0.0329218
        k(   54) = (   0.2280412  -0.3072058  -0.3451997), wk =   0.0329218
        k(   55) = (   0.3040549  -0.1755462  -0.3451997), wk =   0.0164609
        k(   56) = (   0.2280412  -0.2194327  -0.2761597), wk =   0.0329218
        k(   57) = (   0.2280412  -0.1316596  -0.2071198), wk =   0.0164609
        k(   58) = (  -0.0000000  -0.0000000   0.4142396), wk =   0.0054870
        k(   59) = (  -0.0760137  -0.0438865   0.4832795), wk =   0.0164609
        k(   60) = (  -0.1520275  -0.0877731   0.5523195), wk =   0.0164609
        k(   61) = (   0.4560824   0.2633193   0.0000000), wk =   0.0164609
        k(   62) = (   0.3800686   0.2194327   0.0690399), wk =   0.0164609
        k(   63) = (   0.3040549   0.1755462   0.1380799), wk =   0.0164609
        k(   64) = (  -0.0760137   0.0438865   0.5523195), wk =   0.0164609
        k(   65) = (  -0.1520275   0.0000000   0.6213594), wk =   0.0329218
        k(   66) = (   0.4560824   0.3510924   0.0690399), wk =   0.0329218
        k(   67) = (   0.3800686   0.3072058   0.1380799), wk =   0.0329218
        k(   68) = (   0.3040549   0.2633193   0.2071198), wk =   0.0329218
        k(   69) = (  -0.1520275   0.0877731   0.6903994), wk =   0.0164609
        k(   70) = (   0.4560824   0.4388655   0.1380799), wk =   0.0329218
        k(   71) = (   0.3800686   0.3949789   0.2071198), wk =   0.0329218
        k(   72) = (   0.3040549   0.3510924   0.2761597), wk =   0.0329218
        k(   73) = (   0.4560824  -0.2633193  -0.4142396), wk =   0.0164609
        k(   74) = (   0.3800686  -0.3072058  -0.3451997), wk =   0.0329218
        k(   75) = (   0.3800686  -0.2194327  -0.2761597), wk =   0.0164609
        k(   76) = (   0.0000000   0.0000000   0.6213594), wk =   0.0054870
        k(   77) = (  -0.0760137  -0.0438865   0.6903994), wk =   0.0164609
        k(   78) = (   0.5320961   0.3072058   0.1380799), wk =   0.0164609
        k(   79) = (   0.4560824   0.2633193   0.2071198), wk =   0.0164609
        k(   80) = (  -0.0760137   0.0438865   0.7594393), wk =   0.0164609
        k(   81) = (   0.5320961   0.3949789   0.2071198), wk =   0.0329218
        k(   82) = (   0.4560824   0.3510924   0.2761597), wk =   0.0329218
        k(   83) = (   0.5320961  -0.3072058  -0.3451997), wk =   0.0164609
        k(   84) = (  -0.0000000  -0.0000000   0.8284792), wk =   0.0054870
        k(   85) = (   0.6081098   0.3510924   0.2761597), wk =   0.0164609

     Dense  grid:   139361 G-vectors     FFT dimensions: (  72,  72,  72)

     Estimated max dynamical RAM per process >      50.55 MB

     Estimated total dynamical RAM >     404.40 MB

     Initial potential from superposition of free atoms

     starting charge       9.9903, renormalised to      10.0000
     Starting wfcs are    8 randomized atomic wfcs +    1 random wfcs

     total cpu time spent up to now is        4.3 secs

     Self-consistent Calculation

     iteration #  1     ecut=    80.00 Ry     beta= 0.70
     Davidson diagonalization with overlap
     ethr =  1.00E-02,  avg # of iterations =  6.1

     total cpu time spent up to now is        7.7 secs

     total energy              =     -36.75503721 Ry
     estimated scf accuracy    <       0.22996938 Ry

     iteration #  2     ecut=    80.00 Ry     beta= 0.70
     Davidson diagonalization with overlap
     ethr =  2.30E-03,  avg # of iterations =  3.2

     total cpu time spent up to now is       10.8 secs

     total energy              =     -36.75138301 Ry
     estimated scf accuracy    <       1.12009892 Ry

     iteration #  3     ecut=    80.00 Ry     beta= 0.70
     Davidson diagonalization with overlap
     ethr =  2.30E-03,  avg # of iterations =  2.0

     total cpu time spent up to now is       13.4 secs

     total energy              =     -36.86623604 Ry
     estimated scf accuracy    <       0.00314353 Ry

     iteration #  4     ecut=    80.00 Ry     beta= 0.70
     Davidson diagonalization with overlap
     ethr =  3.14E-05,  avg # of iterations =  7.3

     total cpu time spent up to now is       17.4 secs

     total energy              =     -36.86784494 Ry
     estimated scf accuracy    <       0.00179687 Ry

     iteration #  5     ecut=    80.00 Ry     beta= 0.70
     Davidson diagonalization with overlap
     ethr =  1.80E-05,  avg # of iterations =  1.2

     total cpu time spent up to now is       19.7 secs

     total energy              =     -36.86814192 Ry
     estimated scf accuracy    <       0.00026095 Ry

     iteration #  6     ecut=    80.00 Ry     beta= 0.70
     Davidson diagonalization with overlap
     c_bands:  1 eigenvalues not converged
     ethr =  2.61E-06,  avg # of iterations =  4.3

     total cpu time spent up to now is       22.4 secs

     total energy              =     -36.86818738 Ry
     estimated scf accuracy    <       0.00003060 Ry

     iteration #  7     ecut=    80.00 Ry     beta= 0.70
     Davidson diagonalization with overlap
     ethr =  3.06E-07,  avg # of iterations =  1.6

     total cpu time spent up to now is       24.7 secs

     total energy              =     -36.86818796 Ry
     estimated scf accuracy    <       0.00000598 Ry

     iteration #  8     ecut=    80.00 Ry     beta= 0.70
     Davidson diagonalization with overlap
     ethr =  5.98E-08,  avg # of iterations =  2.8

     total cpu time spent up to now is       27.1 secs

     total energy              =     -36.86818902 Ry
     estimated scf accuracy    <       0.00000013 Ry

     iteration #  9     ecut=    80.00 Ry     beta= 0.70
     Davidson diagonalization with overlap
     ethr =  1.33E-09,  avg # of iterations =  4.2

     total cpu time spent up to now is       30.0 secs

     End of self-consistent calculation

          k = 0.0000 0.0000 0.0000 ( 17327 PWs)   bands (ev):

   -50.7729 -48.8266  -8.1432  -2.2582  -1.8251  -1.3818  -1.3818   0.9437
     1.0080

          k =-0.0760-0.0439 0.0690 ( 17379 PWs)   bands (ev):

   -50.7729 -48.8266  -8.1396  -2.3084  -1.7952  -1.3802  -1.3736   0.7148
     0.9672

          k =-0.1520-0.0878 0.1381 ( 17420 PWs)   bands (ev):

   -50.7729 -48.8266  -8.1303  -2.4249  -1.7302  -1.3557  -1.3524   0.3917
     1.0274

          k =-0.2280-0.1317 0.2071 ( 17422 PWs)   bands (ev):

   -50.7729 -48.8266  -8.1196  -2.5458  -1.6699  -1.3275  -1.2870   0.0774
     1.1658

          k =-0.3041-0.1755 0.2762 ( 17417 PWs)   bands (ev):

   -50.7729 -48.8266  -8.1125  -2.6200  -1.6372  -1.3108  -1.2091  -0.1319
     1.1446

          k =-0.0760 0.0439 0.1381 ( 17415 PWs)   bands (ev):

   -50.7729 -48.8266  -8.1358  -2.3580  -1.7034  -1.4886  -1.3390   0.7253
     0.8427

          k =-0.1520-0.0000 0.2071 ( 17442 PWs)   bands (ev):

   -50.7729 -48.8266  -8.1266  -2.4416  -1.6435  -1.5407  -1.2895   0.4424
     0.8853

          k =-0.2280-0.0439 0.2762 ( 17436 PWs)   bands (ev):

   -50.7729 -48.8266  -8.1160  -2.5345  -1.6546  -1.4797  -1.2322   0.1457
     0.9490

          k =-0.3041-0.0878 0.3452 ( 17440 PWs)   bands (ev):

   -50.7729 -48.8266  -8.1092  -2.5929  -1.6773  -1.4094  -1.1786  -0.0473
     0.9806

          k = 0.3041 0.2633-0.2071 ( 17419 PWs)   bands (ev):

   -50.7729 -48.8266  -8.1093  -2.5844  -1.7236  -1.3768  -1.1521  -0.0614
     0.9779

          k = 0.2280 0.2194-0.1381 ( 17416 PWs)   bands (ev):

   -50.7729 -48.8266  -8.1164  -2.5067  -1.7963  -1.3805  -1.1667   0.1095
     0.9436

          k = 0.1520 0.1755-0.0690 ( 17419 PWs)   bands (ev):

   -50.7729 -48.8266  -8.1270  -2.3926  -1.8621  -1.3934  -1.2116   0.3827
     0.8961

          k = 0.0760 0.1317 0.0000 ( 17401 PWs)   bands (ev):

   -50.7729 -48.8266  -8.1361  -2.3114  -1.8662  -1.3941  -1.2809   0.6205
     0.8978

          k =-0.1520 0.0878 0.2762 ( 17456 PWs)   bands (ev):

   -50.7729 -48.8266  -8.1176  -2.4539  -1.7274  -1.5665  -1.2296   0.4149
     0.7362

          k =-0.2280 0.0439 0.3452 ( 17444 PWs)   bands (ev):

   -50.7729 -48.8266  -8.1074  -2.4824  -1.8130  -1.5223  -1.1972   0.2395
     0.7605

          k =-0.3041-0.0000 0.4142 ( 17443 PWs)   bands (ev):

   -50.7729 -48.8266  -8.1008  -2.5085  -1.8454  -1.4756  -1.1929   0.1223
     0.7839

          k = 0.3041 0.3511-0.1381 ( 17419 PWs)   bands (ev):

   -50.7729 -48.8266  -8.1011  -2.4908  -1.8993  -1.4279  -1.1831   0.1213
     0.7597

          k = 0.2280 0.3072-0.0690 ( 17421 PWs)   bands (ev):

   -50.7729 -48.8266  -8.1080  -2.4254  -1.9715  -1.4073  -1.1508   0.2247
     0.7117

          k = 0.1520 0.2633 0.0000 ( 17416 PWs)   bands (ev):

   -50.7729 -48.8266  -8.1182  -2.3750  -1.9737  -1.4053  -1.1463   0.3562
     0.7263

          k =-0.2280 0.1317 0.4142 ( 17456 PWs)   bands (ev):

   -50.7729 -48.8266  -8.0976  -2.4213  -1.9578  -1.5272  -1.2180   0.2695
     0.6939

          k =-0.3041 0.0878 0.4833 ( 17447 PWs)   bands (ev):

   -50.7729 -48.8266  -8.0913  -2.3884  -2.0131  -1.5331  -1.2561   0.2737
     0.6854

          k = 0.3041 0.4389-0.0690 ( 17448 PWs)   bands (ev):

   -50.7729 -48.8266  -8.0915  -2.3594  -2.0645  -1.4904  -1.2645   0.3078
     0.6268

          k = 0.2280 0.3950 0.0000 ( 17434 PWs)   bands (ev):

   -50.7729 -48.8266  -8.0981  -2.3481  -2.0916  -1.4305  -1.2160   0.3250
     0.5803

          k =-0.3041 0.1755 0.5523 ( 17453 PWs)   bands (ev):

   -50.7729 -48.8266  -8.0850  -2.2929  -2.0910  -1.6154  -1.2963   0.3489
     0.6827

          k = 0.3041 0.5266 0.0000 ( 17448 PWs)   bands (ev):

   -50.7729 -48.8266  -8.0851  -2.2692  -2.1239  -1.5982  -1.3009   0.3747
     0.6451

          k =-0.0000-0.0000 0.2071 ( 17429 PWs)   bands (ev):

   -50.7729 -48.8266  -8.1320  -2.3980  -1.5623  -1.4901  -1.4901   0.8286
     0.8857

          k =-0.0760-0.0439 0.2762 ( 17444 PWs)   bands (ev):

   -50.7729 -48.8266  -8.1228  -2.4536  -1.6284  -1.4676  -1.4356   0.5265
     0.9298

          k =-0.1520-0.0878 0.3452 ( 17451 PWs)   bands (ev):

   -50.7729 -48.8266  -8.1124  -2.5204  -1.7006  -1.4303  -1.3346   0.2377
     0.9497

          k =-0.2280-0.1317 0.4142 ( 17436 PWs)   bands (ev):

   -50.7729 -48.8266  -8.1058  -2.5630  -1.7450  -1.3948  -1.2450   0.0548
     0.9312

          k = 0.3801 0.2194-0.1381 ( 17411 PWs)   bands (ev):

   -50.7729 -48.8266  -8.1061  -2.5462  -1.8078  -1.3790  -1.1750   0.0300
     0.8876

          k = 0.3041 0.1755-0.0690 ( 17404 PWs)   bands (ev):

   -50.7729 -48.8266  -8.1132  -2.4666  -1.8860  -1.3916  -1.1453   0.1714
     0.8448

          k = 0.2280 0.1317 0.0000 ( 17417 PWs)   bands (ev):

   -50.7729 -48.8266  -8.1236  -2.3693  -1.9232  -1.4257  -1.1610   0.4108
     0.8196

          k = 0.1520 0.0878 0.0690 ( 17397 PWs)   bands (ev):

   -50.7729 -48.8266  -8.1326  -2.3348  -1.8498  -1.4638  -1.2226   0.6114
     0.8185

          k =-0.0760 0.0439 0.3452 ( 17453 PWs)   bands (ev):

   -50.7729 -48.8266  -8.1138  -2.4540  -1.7269  -1.5274  -1.3546   0.5371
     0.7833

          k =-0.1520-0.0000 0.4142 ( 17453 PWs)   bands (ev):

   -50.7729 -48.8266  -8.1038  -2.4653  -1.8231  -1.5088  -1.3078   0.3501
     0.7807

          k =-0.2280-0.0439 0.4833 ( 17445 PWs)   bands (ev):

   -50.7729 -48.8266  -8.0974  -2.4773  -1.8732  -1.4761  -1.2754   0.2210
     0.7358

          k = 0.3801 0.3072-0.0690 ( 17420 PWs)   bands (ev):

   -50.7729 -48.8266  -8.0978  -2.4515  -1.9380  -1.4498  -1.2227   0.2078
     0.6683

          k = 0.3041 0.2633 0.0000 ( 17404 PWs)   bands (ev):

   -50.7729 -48.8266  -8.1047  -2.3883  -2.0022  -1.4568  -1.1543   0.3001
     0.6325

          k = 0.2280 0.2194 0.0690 ( 17423 PWs)   bands (ev):

   -50.7729 -48.8266  -8.1149  -2.3658  -1.9606  -1.4930  -1.1214   0.4124
     0.6777

          k = 0.1520 0.1755 0.1381 ( 17426 PWs)   bands (ev):

   -50.7729 -48.8266  -8.1235  -2.4055  -1.8001  -1.5339  -1.1619   0.4262
     0.8000

          k =-0.1520 0.0878 0.4833 ( 17453 PWs)   bands (ev):

   -50.7729 -48.8266  -8.0942  -2.3999  -1.9484  -1.5353  -1.3175   0.3468
     0.7027

          k =-0.2280 0.0439 0.5523 ( 17443 PWs)   bands (ev):

   -50.7729 -48.8266  -8.0880  -2.3590  -2.0080  -1.5458  -1.3301   0.3110
     0.6424

          k = 0.3801 0.3950 0.0000 ( 17433 PWs)   bands (ev):

   -50.7729 -48.8266  -8.0884  -2.3231  -2.0678  -1.5151  -1.3078   0.3287
     0.5512

          k = 0.3041 0.3511 0.0690 ( 17431 PWs)   bands (ev):

   -50.7729 -48.8266  -8.0950  -2.3255  -2.0738  -1.4965  -1.2256   0.3397
     0.5329

          k = 0.2280 0.3072 0.1381 ( 17413 PWs)   bands (ev):

   -50.7729 -48.8266  -8.1047  -2.4162  -1.9248  -1.5218  -1.1398   0.2639
     0.6629

          k = 0.1520 0.2633 0.2071 ( 17415 PWs)   bands (ev):

   -50.7729 -48.8266  -8.1130  -2.4979  -1.7306  -1.5494  -1.1322   0.1678
     0.8345

          k =-0.2280 0.1317 0.6214 ( 17442 PWs)   bands (ev):

   -50.7729 -48.8266  -8.0820  -2.2688  -2.0704  -1.6217  -1.3591   0.3209
     0.6222

          k = 0.3801 0.4828 0.0690 ( 17458 PWs)   bands (ev):

   -50.7729 -48.8266  -8.0822  -2.2484  -2.0992  -1.6038  -1.3514   0.3285
     0.5652

          k = 0.3041 0.4389 0.1381 ( 17440 PWs)   bands (ev):

   -50.7729 -48.8266  -8.0885  -2.3433  -2.0263  -1.5429  -1.2837   0.2862
     0.5496

          k = 0.2280 0.3950 0.2071 ( 17424 PWs)   bands (ev):

   -50.7729 -48.8266  -8.0980  -2.4716  -1.8500  -1.5434  -1.1764   0.1526
     0.6601

          k = 0.1520 0.3511 0.2762 ( 17426 PWs)   bands (ev):

   -50.7729 -48.8266  -8.1061  -2.5611  -1.6819  -1.5304  -1.1282   0.0046
     0.8423

          k = 0.3801-0.2194-0.4833 ( 17444 PWs)   bands (ev):

   -50.7729 -48.8266  -8.0822  -2.2743  -2.0603  -1.6245  -1.3360   0.3099
     0.5648

          k = 0.3041-0.2633-0.4142 ( 17443 PWs)   bands (ev):

   -50.7729 -48.8266  -8.0884  -2.3662  -1.9762  -1.5927  -1.2610   0.2691
     0.5606

          k = 0.2280-0.3072-0.3452 ( 17426 PWs)   bands (ev):

   -50.7729 -48.8266  -8.0979  -2.4812  -1.8007  -1.5966  -1.1679   0.1525
     0.6571

          k = 0.3041-0.1755-0.3452 ( 17451 PWs)   bands (ev):

   -50.7729 -48.8266  -8.0948  -2.3931  -1.9208  -1.6258  -1.1874   0.2940
     0.5646

          k = 0.2280-0.2194-0.2762 ( 17415 PWs)   bands (ev):

   -50.7729 -48.8266  -8.1045  -2.4493  -1.7726  -1.6665  -1.1317   0.2708
     0.6489

          k = 0.2280-0.1317-0.2071 ( 17439 PWs)   bands (ev):

   -50.7729 -48.8266  -8.1146  -2.4175  -1.7350  -1.6913  -1.1241   0.4382
     0.6454

          k =-0.0000-0.0000 0.4142 ( 17522 PWs)   bands (ev):

   -50.7729 -48.8266  -8.1051  -2.4301  -1.6902  -1.6902  -1.3523   0.7516
     0.7603

          k =-0.0760-0.0439 0.4833 ( 17457 PWs)   bands (ev):

   -50.7729 -48.8266  -8.0954  -2.4083  -1.8281  -1.6304  -1.3527   0.5044
     0.6627

          k =-0.1520-0.0878 0.5523 ( 17424 PWs)   bands (ev):

   -50.7729 -48.8266  -8.0893  -2.3947  -1.9081  -1.5729  -1.3414   0.3559
     0.5375

          k = 0.4561 0.2633 0.0000 ( 17436 PWs)   bands (ev):

   -50.7729 -48.8266  -8.0897  -2.3596  -1.9855  -1.5486  -1.2752   0.3268
     0.4581

          k = 0.3801 0.2194 0.0690 ( 17432 PWs)   bands (ev):

   -50.7729 -48.8266  -8.0965  -2.3177  -2.0277  -1.5732  -1.1797   0.4038
     0.4646

          k = 0.3041 0.1755 0.1381 ( 17425 PWs)   bands (ev):

   -50.7729 -48.8266  -8.1063  -2.3538  -1.9232  -1.6313  -1.1152   0.4890
     0.5416

          k =-0.0760 0.0439 0.5523 ( 17460 PWs)   bands (ev):

   -50.7729 -48.8266  -8.0861  -2.3387  -1.8953  -1.6658  -1.3905   0.4256
     0.5754

          k =-0.1520 0.0000 0.6214 ( 17455 PWs)   bands (ev):

   -50.7729 -48.8266  -8.0802  -2.2872  -1.9685  -1.6384  -1.4053   0.3046
     0.4589

          k = 0.4561 0.3511 0.0690 ( 17437 PWs)   bands (ev):

   -50.7729 -48.8266  -8.0806  -2.2433  -2.0442  -1.6183  -1.3512   0.2690
     0.3905

          k = 0.3801 0.3072 0.1381 ( 17425 PWs)   bands (ev):

   -50.7729 -48.8266  -8.0870  -2.2681  -2.0248  -1.6447  -1.2453   0.3025
     0.4216

          k = 0.3041 0.2633 0.2071 ( 17419 PWs)   bands (ev):

   -50.7729 -48.8266  -8.0965  -2.3696  -1.8618  -1.7075  -1.1565   0.3392
     0.5112

          k =-0.1520 0.0878 0.6904 ( 17445 PWs)   bands (ev):

   -50.7729 -48.8266  -8.0743  -2.2113  -2.0040  -1.6686  -1.4439   0.2121
     0.4142

          k = 0.4561 0.4389 0.1381 ( 17430 PWs)   bands (ev):

   -50.7729 -48.8266  -8.0746  -2.1940  -2.0310  -1.6635  -1.4116   0.1974
     0.3638

          k = 0.3801 0.3950 0.2071 ( 17435 PWs)   bands (ev):

   -50.7729 -48.8266  -8.0808  -2.2809  -1.9579  -1.6803  -1.3094   0.2306
     0.3698

          k = 0.3041 0.3511 0.2762 ( 17428 PWs)   bands (ev):

   -50.7729 -48.8266  -8.0900  -2.3991  -1.7902  -1.7333  -1.2124   0.2290
     0.4733

          k = 0.4561-0.2633-0.4142 ( 17439 PWs)   bands (ev):

   -50.7729 -48.8266  -8.0747  -2.2172  -1.9866  -1.6961  -1.3868   0.2005
     0.3360

          k = 0.3801-0.3072-0.3452 ( 17446 PWs)   bands (ev):

   -50.7729 -48.8266  -8.0808  -2.2958  -1.9049  -1.7302  -1.2939   0.2434
     0.3491

          k = 0.3801-0.2194-0.2762 ( 17433 PWs)   bands (ev):

   -50.7729 -48.8266  -8.0871  -2.3176  -1.8482  -1.7932  -1.2171   0.3291
     0.3749

          k = 0.0000 0.0000 0.6214 ( 17435 PWs)   bands (ev):

   -50.7729 -48.8266  -8.0771  -2.2628  -1.8157  -1.8157  -1.4334   0.3701
     0.3701

          k =-0.0760-0.0439 0.6904 ( 17471 PWs)   bands (ev):

   -50.7729 -48.8266  -8.0714  -2.2018  -1.9215  -1.7441  -1.4423   0.1902
     0.2768

          k = 0.5321 0.3072 0.1381 ( 17440 PWs)   bands (ev):

   -50.7729 -48.8266  -8.0717  -2.1582  -2.0039  -1.7230  -1.3814   0.1248
     0.2491

          k = 0.4561 0.2633 0.2071 ( 17436 PWs)   bands (ev):

   -50.7729 -48.8266  -8.0779  -2.2126  -1.9547  -1.7680  -1.2875   0.2017
     0.2882

          k =-0.0760 0.0439 0.7594 ( 17481 PWs)   bands (ev):

   -50.7729 -48.8266  -8.0657  -2.1461  -1.9133  -1.7697  -1.4541   0.0714
     0.1649

          k = 0.5321 0.3950 0.2071 ( 17447 PWs)   bands (ev):

   -50.7729 -48.8266  -8.0659  -2.1322  -1.9390  -1.7714  -1.4113   0.0469
     0.1384

          k = 0.4561 0.3511 0.2762 ( 17440 PWs)   bands (ev):

   -50.7729 -48.8266  -8.0719  -2.1974  -1.8775  -1.8228  -1.3415   0.1429
     0.1869

          k = 0.5321-0.3072-0.3452 ( 17460 PWs)   bands (ev):

   -50.7729 -48.8266  -8.0660  -2.1435  -1.8951  -1.8104  -1.3935   0.0684
     0.1016

          k =-0.0000-0.0000 0.8285 ( 17457 PWs)   bands (ev):

   -50.7729 -48.8266  -8.0601  -2.1068  -1.8397  -1.8397  -1.4341  -0.0132
    -0.0132

          k = 0.6081 0.3511 0.2762 ( 17431 PWs)   bands (ev):

   -50.7729 -48.8266  -8.0602  -2.1004  -1.8634  -1.8315  -1.4073  -0.0376
    -0.0119

     the Fermi energy is    -1.7127 ev

!    total energy              =     -36.86818912 Ry
     estimated scf accuracy    <          6.8E-09 Ry
     smearing contrib. (-TS)   =      -0.00234102 Ry
     internal energy E=F+TS    =     -36.86584810 Ry

     The total energy is F=E-TS. E is the sum of the following terms:
     one-electron contribution =     -28.76892683 Ry
     hartree contribution      =      11.71357559 Ry
     xc contribution           =      -9.24035201 Ry
     ewald contribution        =     -10.57014484 Ry

     convergence has been achieved in   9 iterations

     Forces acting on atoms (cartesian axes, Ry/au):

     atom    1 type  1   force =     0.00000000   -0.00000000   -0.04771837
     atom    2 type  1   force =     0.00000000    0.00000000    0.02761590
     atom    3 type  2   force =     0.00000000    0.00000000    0.02010247
     The non-local contrib.  to forces
     atom    1 type  1   force =    -0.00000000    0.00000000   -0.05583416
     atom    2 type  1   force =     0.00000000    0.00000000   -0.11947852
     atom    3 type  2   force =     0.00000000    0.00000000    0.00750305
     The ionic contribution  to forces
     atom    1 type  1   force =     0.00000000    0.00000000   -0.74450848
     atom    2 type  1   force =    -0.00000000    0.00000000   -0.14561712
     atom    3 type  2   force =    -0.00000000   -0.00000000    0.89012560
     The local contribution  to forces
     atom    1 type  1   force =     0.00000000   -0.00000000    0.75262654
     atom    2 type  1   force =     0.00000000   -0.00000000    0.29275784
     atom    3 type  2   force =    -0.00000000    0.00000000   -0.87637461
     The core correction contribution to forces
     atom    1 type  1   force =     0.00000000    0.00000000    0.00000000
     atom    2 type  1   force =     0.00000000    0.00000000    0.00000000
     atom    3 type  2   force =     0.00000000   -0.00000000   -0.00115576
     The Hubbard contrib.    to forces
     atom    1 type  1   force =     0.00000000    0.00000000    0.00000000
     atom    2 type  1   force =     0.00000000    0.00000000    0.00000000
     atom    3 type  2   force =     0.00000000    0.00000000    0.00000000
     The SCF correction term to forces
     atom    1 type  1   force =    -0.00000000   -0.00000000    0.00000028
     atom    2 type  1   force =    -0.00000000    0.00000000   -0.00004375
     atom    3 type  2   force =    -0.00000000   -0.00000000    0.00000675

     Total force =     0.058684     Total SCF correction =     0.000044


     Computing stress (Cartesian axis) and pressure

          total   stress  (Ry/bohr**3)                   (kbar)     P=       -7.66
  -0.00012415  -0.00000000   0.00000000          -18.26       -0.00        0.00
   0.00000000  -0.00012415  -0.00000000            0.00      -18.26       -0.00
  -0.00000000  -0.00000000   0.00009212           -0.00       -0.00       13.55


     BFGS Geometry Optimization
     Energy error            =      0.0E+00 Ry
     Gradient error          =      4.8E-02 Ry/Bohr
     Cell gradient error     =      5.2E+02 kbar

     number of scf cycles    =   1
     number of bfgs steps    =   0

     enthalpy           new  =     -31.9641694947 Ry

     new trust radius        =       0.5000000000 bohr
ibrav =      5
 celldm(1) =     10.59523735
 celldm(4) =     -0.06566047
Input lattice vectors:
     0.68275933    -0.39419128     0.50331776
    -0.00000000     0.78838256     0.50331776
    -0.68275933    -0.39419128     0.50331776
New lattice vectors in INITIAL alat:
     0.68275933    -0.39419128     0.50331776
     0.00000000     0.78838256     0.50331776
    -0.68275933    -0.39419128     0.50331776
New lattice vectors in NEW alat (for information only):
     0.72995222    -0.42143811     0.53810750
     0.00000000     0.84287622     0.53810750
    -0.72995222    -0.42143811     0.53810750
Discrepancy in bohr =     0.000000    0.000000    0.000000
     new conv_thr            =       0.0000000100 Ry

     new unit-cell volume =   1181.35549 a.u.^3 (   175.05882 Ang^3 )
     density =      0.39809 g/cm^3

CELL_PARAMETERS (alat= 11.32758892)
   0.682759326  -0.394191281   0.503317763
   0.000000000   0.788382562   0.503317763
  -0.682759326  -0.394191281   0.503317763

ATOMIC_POSITIONS (crystal)
Li            0.2320570254        0.2320570254        0.2320570254
Li            0.4796736449        0.4796736449        0.4796736449
Si            0.7344869997        0.7344869997        0.7344869997



     Writing config-only to output data dir ./output/LiSi.save/
     NEW-OLD atomic charge density approx. for the potential

     negative rho (up, down):  9.620E-06 0.000E+00
     extrapolated charge    7.78896, renormalised to   10.00000

     total cpu time spent up to now is       35.9 secs

     Self-consistent Calculation

     iteration #  1     ecut=    80.00 Ry     beta= 0.70
     Davidson diagonalization with overlap
     ethr =  1.00E-06,  avg # of iterations = 12.9

     total cpu time spent up to now is       43.3 secs

     total energy              =     -36.32521208 Ry
     estimated scf accuracy    <       0.52949506 Ry

     iteration #  2     ecut=    80.00 Ry     beta= 0.70
     Davidson diagonalization with overlap
     ethr =  5.29E-03,  avg # of iterations =  2.2

     total cpu time spent up to now is       46.0 secs

     total energy              =     -36.86343271 Ry
     estimated scf accuracy    <       0.99409164 Ry

     iteration #  3     ecut=    80.00 Ry     beta= 0.70
     Davidson diagonalization with overlap
     ethr =  5.29E-03,  avg # of iterations =  1.0

     total cpu time spent up to now is       47.9 secs

     total energy              =     -36.90776472 Ry
     estimated scf accuracy    <       0.17835773 Ry

     iteration #  4     ecut=    80.00 Ry     beta= 0.70
     Davidson diagonalization with overlap
     ethr =  1.78E-03,  avg # of iterations =  1.0

     total cpu time spent up to now is       49.8 secs

     total energy              =     -36.89403386 Ry
     estimated scf accuracy    <       0.10076745 Ry

     iteration #  5     ecut=    80.00 Ry     beta= 0.70
     Davidson diagonalization with overlap
     ethr =  1.01E-03,  avg # of iterations =  1.0

     total cpu time spent up to now is       51.7 secs

     total energy              =     -36.88482064 Ry
     estimated scf accuracy    <       0.04227098 Ry

     iteration #  6     ecut=    80.00 Ry     beta= 0.70
     Davidson diagonalization with overlap
     ethr =  4.23E-04,  avg # of iterations =  1.2

     total cpu time spent up to now is       53.6 secs

     total energy              =     -36.88647594 Ry
     estimated scf accuracy    <       0.00553213 Ry

     iteration #  7     ecut=    80.00 Ry     beta= 0.70
     Davidson diagonalization with overlap
     ethr =  5.53E-05,  avg # of iterations =  3.0

     total cpu time spent up to now is       56.0 secs

     total energy              =     -36.88716233 Ry
     estimated scf accuracy    <       0.00115031 Ry

     iteration #  8     ecut=    80.00 Ry     beta= 0.70
     Davidson diagonalization with overlap
     ethr =  1.15E-05,  avg # of iterations =  3.9

     total cpu time spent up to now is       58.3 secs

     total energy              =     -36.88704150 Ry
     estimated scf accuracy    <       0.00082479 Ry

     iteration #  9     ecut=    80.00 Ry     beta= 0.70
     Davidson diagonalization with overlap
     ethr =  8.25E-06,  avg # of iterations =  1.3

     total cpu time spent up to now is       60.2 secs

     total energy              =     -36.88706313 Ry
     estimated scf accuracy    <       0.00008578 Ry

     iteration # 10     ecut=    80.00 Ry     beta= 0.70
     Davidson diagonalization with overlap
     ethr =  8.58E-07,  avg # of iterations =  3.4

     total cpu time spent up to now is       62.7 secs

     total energy              =     -36.88708770 Ry
     estimated scf accuracy    <       0.00001397 Ry

     iteration # 11     ecut=    80.00 Ry     beta= 0.70
     Davidson diagonalization with overlap
     ethr =  1.40E-07,  avg # of iterations =  1.6

     total cpu time spent up to now is       64.7 secs

     total energy              =     -36.88708764 Ry
     estimated scf accuracy    <       0.00000305 Ry

     iteration # 12     ecut=    80.00 Ry     beta= 0.70
     Davidson diagonalization with overlap
     ethr =  3.05E-08,  avg # of iterations =  2.0

     total cpu time spent up to now is       66.8 secs

     total energy              =     -36.88708823 Ry
     estimated scf accuracy    <       0.00000021 Ry

     iteration # 13     ecut=    80.00 Ry     beta= 0.70
     Davidson diagonalization with overlap
     ethr =  2.10E-09,  avg # of iterations =  2.7

     total cpu time spent up to now is       68.9 secs

     total energy              =     -36.88708825 Ry
     estimated scf accuracy    <       0.00000008 Ry

     iteration # 14     ecut=    80.00 Ry     beta= 0.70
     Davidson diagonalization with overlap
     ethr =  7.73E-10,  avg # of iterations =  1.4

     total cpu time spent up to now is       70.8 secs

     total energy              =     -36.88708824 Ry
     estimated scf accuracy    <       0.00000003 Ry

     iteration # 15     ecut=    80.00 Ry     beta= 0.70
     Davidson diagonalization with overlap
     ethr =  2.80E-10,  avg # of iterations =  2.3

     total cpu time spent up to now is       73.1 secs

     End of self-consistent calculation

          k = 0.0000 0.0000 0.0000 ( 17327 PWs)   bands (ev):

   -50.4726 -48.5731  -7.8429  -1.8944  -1.4344  -0.9561  -0.9561   1.4256
     1.4257

          k =-0.0814-0.0470 0.0736 ( 17379 PWs)   bands (ev):

   -50.4726 -48.5731  -7.8361  -1.9758  -1.3976  -0.9539  -0.9436   1.2614
     1.4580

          k =-0.1627-0.0940 0.1472 ( 17420 PWs)   bands (ev):

   -50.4726 -48.5731  -7.8185  -2.1590  -1.3243  -0.9176  -0.9109   0.9435
     1.5415

          k =-0.2441-0.1409 0.2208 ( 17422 PWs)   bands (ev):

   -50.4726 -48.5731  -7.7982  -2.3437  -1.2603  -0.8719  -0.8218   0.6060
     1.6355

          k =-0.3255-0.1879 0.2943 ( 17417 PWs)   bands (ev):

   -50.4726 -48.5731  -7.7846  -2.4547  -1.2259  -0.8454  -0.7160   0.3689
     1.6914

          k =-0.0814 0.0470 0.1472 ( 17415 PWs)   bands (ev):

   -50.4726 -48.5731  -7.8291  -2.0382  -1.2909  -1.1204  -0.8898   1.3008
     1.3830

          k =-0.1627 0.0000 0.2208 ( 17442 PWs)   bands (ev):

   -50.4726 -48.5731  -7.8116  -2.1683  -1.2572  -1.1684  -0.8148   1.0178
     1.4569

          k =-0.2441-0.0470 0.2943 ( 17436 PWs)   bands (ev):

   -50.4726 -48.5731  -7.7915  -2.3214  -1.2866  -1.0757  -0.7296   0.6962
     1.5356

          k =-0.3255-0.0940 0.3679 ( 17440 PWs)   bands (ev):

   -50.4726 -48.5731  -7.7784  -2.4197  -1.3030  -0.9867  -0.6482   0.4677
     1.5674

          k = 0.3255 0.2819-0.2208 ( 17419 PWs)   bands (ev):

   -50.4726 -48.5731  -7.7787  -2.4153  -1.3486  -0.9418  -0.6030   0.4299
     1.5479

          k = 0.2441 0.2349-0.1472 ( 17416 PWs)   bands (ev):

   -50.4726 -48.5731  -7.7923  -2.3053  -1.4259  -0.9473  -0.6236   0.6082
     1.4897

          k = 0.1627 0.1879-0.0736 ( 17419 PWs)   bands (ev):

   -50.4726 -48.5731  -7.8124  -2.1338  -1.4954  -0.9689  -0.6939   0.9053
     1.4213

          k = 0.0814 0.1409 0.0000 ( 17401 PWs)   bands (ev):

   -50.4726 -48.5731  -7.8296  -1.9986  -1.4914  -0.9737  -0.8004   1.1599
     1.4028

          k =-0.1627 0.0940 0.2943 ( 17456 PWs)   bands (ev):

   -50.4726 -48.5731  -7.7946  -2.1840  -1.4626  -1.1463  -0.7227   0.9733
     1.3507

          k =-0.2441 0.0470 0.3679 ( 17444 PWs)   bands (ev):

   -50.4726 -48.5731  -7.7754  -2.2478  -1.5608  -1.1007  -0.6664   0.7711
     1.3806

          k =-0.3255 0.0000 0.4415 ( 17443 PWs)   bands (ev):

   -50.4726 -48.5731  -7.7629  -2.3148  -1.5665  -1.0518  -0.6470   0.6329
     1.3803

          k = 0.3255 0.3758-0.1472 ( 17419 PWs)   bands (ev):

   -50.4726 -48.5731  -7.7633  -2.3073  -1.6004  -0.9979  -0.6243   0.6099
     1.3287

          k = 0.2441 0.3288-0.0736 ( 17421 PWs)   bands (ev):

   -50.4726 -48.5731  -7.7765  -2.2182  -1.6670  -0.9750  -0.5787   0.6912
     1.2723

          k = 0.1627 0.2819 0.0000 ( 17416 PWs)   bands (ev):

   -50.4726 -48.5731  -7.7960  -2.1322  -1.6538  -0.9783  -0.5833   0.8344
     1.2783

          k =-0.2441 0.1409 0.4415 ( 17456 PWs)   bands (ev):

   -50.4726 -48.5731  -7.7569  -2.1689  -1.7722  -1.1029  -0.6813   0.7614
     1.3490

          k =-0.3255 0.0940 0.5151 ( 17447 PWs)   bands (ev):

   -50.4726 -48.5731  -7.7450  -2.1605  -1.8150  -1.1107  -0.7263   0.7584
     1.3294

          k = 0.3255 0.4698-0.0736 ( 17448 PWs)   bands (ev):

   -50.4726 -48.5731  -7.7454  -2.1530  -1.8316  -1.0658  -0.7337   0.7793
     1.2455

          k = 0.2441 0.4228 0.0000 ( 17434 PWs)   bands (ev):

   -50.4726 -48.5731  -7.7580  -2.1383  -1.8357  -0.9984  -0.6633   0.7669
     1.1868

          k =-0.3255 0.1879 0.5887 ( 17453 PWs)   bands (ev):

   -50.4726 -48.5731  -7.7332  -2.0276  -1.9451  -1.2024  -0.7833   0.8264
     1.3534

          k = 0.3255 0.5637 0.0000 ( 17448 PWs)   bands (ev):

   -50.4726 -48.5731  -7.7334  -2.0260  -1.9483  -1.1866  -0.7892   0.8456
     1.3059

          k =-0.0000 0.0000 0.2208 ( 17429 PWs)   bands (ev):

   -50.4726 -48.5731  -7.8219  -2.0830  -1.1222  -1.1222  -1.1143   1.4439
     1.4439

          k =-0.0814-0.0470 0.2943 ( 17444 PWs)   bands (ev):

   -50.4726 -48.5731  -7.8045  -2.1732  -1.2999  -1.0875  -0.9739   1.1456
     1.4974

          k =-0.1627-0.0940 0.3679 ( 17451 PWs)   bands (ev):

   -50.4726 -48.5731  -7.7848  -2.2972  -1.3718  -1.0294  -0.8527   0.8253
     1.5056

          k =-0.2441-0.1409 0.4415 ( 17436 PWs)   bands (ev):

   -50.4726 -48.5731  -7.7721  -2.3829  -1.4007  -0.9730  -0.7333   0.6010
     1.4551

          k = 0.4068 0.2349-0.1472 ( 17411 PWs)   bands (ev):

   -50.4726 -48.5731  -7.7727  -2.3740  -1.4548  -0.9477  -0.6279   0.5399
     1.3839

          k = 0.3255 0.1879-0.0736 ( 17404 PWs)   bands (ev):

   -50.4726 -48.5731  -7.7863  -2.2658  -1.5322  -0.9685  -0.5825   0.6753
     1.3365

          k = 0.2441 0.1409 0.0000 ( 17417 PWs)   bands (ev):

   -50.4726 -48.5731  -7.8062  -2.1138  -1.5698  -1.0233  -0.6113   0.9390
     1.3234

          k = 0.1627 0.0940 0.0736 ( 17397 PWs)   bands (ev):

   -50.4726 -48.5731  -7.8229  -2.0318  -1.4775  -1.0827  -0.7091   1.1642
     1.3399

          k =-0.0814 0.0470 0.3679 ( 17453 PWs)   bands (ev):

   -50.4726 -48.5731  -7.7877  -2.1769  -1.4605  -1.1519  -0.8708   1.1421
     1.4126

          k =-0.1627-0.0000 0.4415 ( 17453 PWs)   bands (ev):

   -50.4726 -48.5731  -7.7687  -2.2225  -1.5710  -1.1196  -0.8058   0.9180
     1.3795

          k =-0.2441-0.0470 0.5151 ( 17445 PWs)   bands (ev):

   -50.4726 -48.5731  -7.7566  -2.2775  -1.5943  -1.0728  -0.7546   0.7614
     1.2682

          k = 0.4068 0.3288-0.0736 ( 17420 PWs)   bands (ev):

   -50.4726 -48.5731  -7.7574  -2.2652  -1.6361  -1.0407  -0.6773   0.7252
     1.1613

          k = 0.3255 0.2819 0.0000 ( 17404 PWs)   bands (ev):

   -50.4726 -48.5731  -7.7706  -2.1797  -1.6928  -1.0570  -0.5829   0.7987
     1.1390

          k = 0.2441 0.2349 0.0736 ( 17423 PWs)   bands (ev):

   -50.4726 -48.5731  -7.7897  -2.1186  -1.6387  -1.1158  -0.5444   0.9231
     1.2173

          k = 0.1627 0.1879 0.1472 ( 17426 PWs)   bands (ev):

   -50.4726 -48.5731  -7.8058  -2.1402  -1.4301  -1.1813  -0.6161   0.9718
     1.3548

          k =-0.1627 0.0940 0.5151 ( 17453 PWs)   bands (ev):

   -50.4726 -48.5731  -7.7506  -2.1415  -1.7581  -1.1335  -0.8101   0.8410
     1.3510

          k =-0.2441 0.0470 0.5887 ( 17443 PWs)   bands (ev):

   -50.4726 -48.5731  -7.7390  -2.1256  -1.8046  -1.1350  -0.8254   0.7807
     1.2549

          k = 0.4068 0.4228 0.0000 ( 17433 PWs)   bands (ev):

   -50.4726 -48.5731  -7.7397  -2.1123  -1.8274  -1.1079  -0.7919   0.7852
     1.1352

          k = 0.3255 0.3758 0.0736 ( 17431 PWs)   bands (ev):

   -50.4726 -48.5731  -7.7523  -2.1079  -1.8139  -1.0990  -0.6786   0.7878
     1.1213

          k = 0.2441 0.3288 0.1472 ( 17413 PWs)   bands (ev):

   -50.4726 -48.5731  -7.7706  -2.1983  -1.6198  -1.1435  -0.5653   0.7586
     1.2272

          k = 0.1627 0.2819 0.2208 ( 17415 PWs)   bands (ev):

   -50.4726 -48.5731  -7.7860  -2.2852  -1.3538  -1.1967  -0.5685   0.6928
     1.4078

          k =-0.2441 0.1409 0.6623 ( 17442 PWs)   bands (ev):

   -50.4726 -48.5731  -7.7276  -1.9995  -1.9172  -1.2105  -0.8717   0.7733
     1.2520

          k = 0.4068 0.5168 0.0736 ( 17458 PWs)   bands (ev):

   -50.4726 -48.5731  -7.7280  -1.9945  -1.9208  -1.2031  -0.8578   0.7864
     1.1782

          k = 0.3255 0.4698 0.1472 ( 17440 PWs)   bands (ev):

   -50.4726 -48.5731  -7.7400  -2.1260  -1.7911  -1.1491  -0.7589   0.7636
     1.1358

          k = 0.2441 0.4228 0.2208 ( 17424 PWs)   bands (ev):

   -50.4726 -48.5731  -7.7577  -2.2780  -1.5482  -1.1628  -0.6155   0.6636
     1.2148

          k = 0.1627 0.3758 0.2943 ( 17426 PWs)   bands (ev):

   -50.4726 -48.5731  -7.7728  -2.3829  -1.2959  -1.1716  -0.5587   0.5150
     1.4190

          k = 0.4068-0.2349-0.5151 ( 17444 PWs)   bands (ev):

   -50.4726 -48.5731  -7.7281  -2.0028  -1.9046  -1.2315  -0.8342   0.7918
     1.1709

          k = 0.3255-0.2819-0.4415 ( 17443 PWs)   bands (ev):

   -50.4726 -48.5731  -7.7398  -2.1310  -1.7702  -1.2034  -0.7305   0.7751
     1.1441

          k = 0.2441-0.3288-0.3679 ( 17426 PWs)   bands (ev):

   -50.4726 -48.5731  -7.7575  -2.2813  -1.5138  -1.2185  -0.6070   0.6812
     1.2136

          k = 0.3255-0.1879-0.3679 ( 17451 PWs)   bands (ev):

   -50.4726 -48.5731  -7.7518  -2.1389  -1.7227  -1.2400  -0.6345   0.8162
     1.1534

          k = 0.2441-0.2349-0.2943 ( 17415 PWs)   bands (ev):

   -50.4726 -48.5731  -7.7701  -2.2146  -1.5085  -1.2895  -0.5626   0.8147
     1.2194

          k = 0.2441-0.1409-0.2208 ( 17439 PWs)   bands (ev):

   -50.4726 -48.5731  -7.7892  -2.1534  -1.4118  -1.3611  -0.5571   1.0007
     1.2115

          k =-0.0000 0.0000 0.4415 ( 17522 PWs)   bands (ev):

   -50.4726 -48.5731  -7.7714  -2.1502  -1.4065  -1.4065  -0.8464   1.3559
     1.4653

          k =-0.0814-0.0470 0.5151 ( 17457 PWs)   bands (ev):

   -50.4726 -48.5731  -7.7532  -2.1492  -1.5791  -1.3176  -0.8359   1.1033
     1.1812

          k =-0.1627-0.0940 0.5887 ( 17424 PWs)   bands (ev):

   -50.4726 -48.5731  -7.7416  -2.1758  -1.6392  -1.2301  -0.8163   0.9263
     0.9788

          k = 0.4882 0.2819 0.0000 ( 17436 PWs)   bands (ev):

   -50.4726 -48.5731  -7.7425  -2.1581  -1.6907  -1.1934  -0.7338   0.8668
     0.8784

          k = 0.4068 0.2349 0.0736 ( 17432 PWs)   bands (ev):

   -50.4726 -48.5731  -7.7553  -2.0960  -1.7235  -1.2340  -0.6126   0.8998
     0.9552

          k = 0.3255 0.1879 0.1472 ( 17425 PWs)   bands (ev):

   -50.4726 -48.5731  -7.7738  -2.1005  -1.6011  -1.3237  -0.5329   1.0405
     1.0661

          k =-0.0814 0.0470 0.5887 ( 17460 PWs)   bands (ev):

   -50.4726 -48.5731  -7.7357  -2.0672  -1.6839  -1.3519  -0.8692   0.9009
     1.1380

          k =-0.1627 0.0000 0.6623 ( 17455 PWs)   bands (ev):

   -50.4726 -48.5731  -7.7246  -2.0349  -1.7496  -1.3015  -0.8891   0.7256
     0.9932

          k = 0.4882 0.3758 0.0736 ( 17437 PWs)   bands (ev):

   -50.4726 -48.5731  -7.7254  -2.0104  -1.7924  -1.2777  -0.8291   0.6638
     0.9203

          k = 0.4068 0.3288 0.1472 ( 17425 PWs)   bands (ev):

   -50.4726 -48.5731  -7.7376  -2.0265  -1.7561  -1.3231  -0.6992   0.7267
     0.9627

          k = 0.3255 0.2819 0.2208 ( 17419 PWs)   bands (ev):

   -50.4726 -48.5731  -7.7553  -2.1294  -1.5505  -1.4140  -0.5884   0.8589
     1.0468

          k =-0.1627 0.0940 0.7359 ( 17445 PWs)   bands (ev):

   -50.4726 -48.5731  -7.7137  -1.9280  -1.8272  -1.3137  -0.9503   0.6146
     0.9320

          k = 0.4882 0.4698 0.1472 ( 17430 PWs)   bands (ev):

   -50.4726 -48.5731  -7.7142  -1.9114  -1.8419  -1.3170  -0.9161   0.6079
     0.8728

          k = 0.4068 0.4228 0.2208 ( 17435 PWs)   bands (ev):

   -50.4726 -48.5731  -7.7259  -2.0378  -1.7110  -1.3526  -0.7868   0.6738
     0.8866

          k = 0.3255 0.3758 0.2943 ( 17428 PWs)   bands (ev):

   -50.4726 -48.5731  -7.7430  -2.1821  -1.4862  -1.4226  -0.6633   0.7526
     0.9797

          k = 0.4882-0.2819-0.4415 ( 17439 PWs)   bands (ev):

   -50.4726 -48.5731  -7.7144  -1.9298  -1.8047  -1.3549  -0.8883   0.6451
     0.8290

          k = 0.4068-0.3288-0.3679 ( 17446 PWs)   bands (ev):

   -50.4726 -48.5731  -7.7259  -2.0422  -1.6782  -1.4004  -0.7687   0.7249
     0.8437

          k = 0.4068-0.2349-0.2943 ( 17433 PWs)   bands (ev):

   -50.4726 -48.5731  -7.7376  -2.0552  -1.6219  -1.4676  -0.6686   0.8510
     0.8654

          k = 0.0000 0.0000 0.6623 ( 17435 PWs)   bands (ev):

   -50.4726 -48.5731  -7.7190  -1.9776  -1.5709  -1.5709  -0.9000   0.8220
     0.8220

          k =-0.0814-0.0470 0.7359 ( 17471 PWs)   bands (ev):

   -50.4726 -48.5731  -7.7083  -1.9194  -1.6932  -1.4658  -0.9102   0.5592
     0.7315

          k = 0.5696 0.3288 0.1472 ( 17440 PWs)   bands (ev):

   -50.4726 -48.5731  -7.7090  -1.8757  -1.7663  -1.4354  -0.8510   0.4731
     0.7123

          k = 0.4882 0.2819 0.2208 ( 17436 PWs)   bands (ev):

   -50.4726 -48.5731  -7.7206  -1.9380  -1.6839  -1.5050  -0.7477   0.6001
     0.7705

          k =-0.0814 0.0470 0.8094 ( 17481 PWs)   bands (ev):

   -50.4726 -48.5731  -7.6978  -1.8417  -1.7005  -1.4868  -0.9256   0.4212
     0.5690

          k = 0.5696 0.4228 0.2208 ( 17447 PWs)   bands (ev):

   -50.4726 -48.5731  -7.6982  -1.8167  -1.7258  -1.4897  -0.8898   0.3982
     0.5489

          k = 0.4882 0.3758 0.2943 ( 17440 PWs)   bands (ev):

   -50.4726 -48.5731  -7.7094  -1.9156  -1.6145  -1.5621  -0.8173   0.5383
     0.6340

          k = 0.5696-0.3288-0.3679 ( 17460 PWs)   bands (ev):

   -50.4726 -48.5731  -7.6984  -1.8316  -1.6761  -1.5312  -0.8756   0.4566
     0.4882

          k =-0.0000 0.0000 0.8830 ( 17457 PWs)   bands (ev):

   -50.4726 -48.5731  -7.6874  -1.7859  -1.5936  -1.5936  -0.8885   0.3150
     0.3150

          k = 0.6510 0.3758 0.2943 ( 17431 PWs)   bands (ev):

   -50.4726 -48.5731  -7.6877  -1.7701  -1.6231  -1.5820  -0.8689   0.2837
     0.3331

     the Fermi energy is    -1.3839 ev

!    total energy              =     -36.88708824 Ry
     estimated scf accuracy    <          2.0E-09 Ry
     smearing contrib. (-TS)   =      -0.00053905 Ry
     internal energy E=F+TS    =     -36.88654919 Ry

     The total energy is F=E-TS. E is the sum of the following terms:
     one-electron contribution =     -27.42021054 Ry
     hartree contribution      =      11.16329911 Ry
     xc contribution           =      -9.27208760 Ry
     ewald contribution        =     -11.35755017 Ry

     convergence has been achieved in  15 iterations

     Forces acting on atoms (cartesian axes, Ry/au):

     atom    1 type  1   force =     0.00000000    0.00000000   -0.06072860
     atom    2 type  1   force =     0.00000000    0.00000000    0.01333865
     atom    3 type  2   force =    -0.00000000    0.00000000    0.04738994
     The non-local contrib.  to forces
     atom    1 type  1   force =    -0.00000000   -0.00000000   -0.01886172
     atom    2 type  1   force =     0.00000000   -0.00000000   -0.15657251
     atom    3 type  2   force =    -0.00000000    0.00000000    0.05468860
     The ionic contribution  to forces
     atom    1 type  1   force =    -0.00000000    0.00000000   -0.81202908
     atom    2 type  1   force =     0.00000000    0.00000000   -0.19466509
     atom    3 type  2   force =    -0.00000000   -0.00000000    1.00669417
     The local contribution  to forces
     atom    1 type  1   force =     0.00000000   -0.00000000    0.77019001
     atom    2 type  1   force =    -0.00000000   -0.00000000    0.36458691
     atom    3 type  2   force =     0.00000000    0.00000000   -1.00992279
     The core correction contribution to forces
     atom    1 type  1   force =     0.00000000    0.00000000    0.00000000
     atom    2 type  1   force =     0.00000000    0.00000000    0.00000000
     atom    3 type  2   force =     0.00000000    0.00000000   -0.00410317
     The Hubbard contrib.    to forces
     atom    1 type  1   force =     0.00000000    0.00000000    0.00000000
     atom    2 type  1   force =     0.00000000    0.00000000    0.00000000
     atom    3 type  2   force =     0.00000000    0.00000000    0.00000000
     The SCF correction term to forces
     atom    1 type  1   force =     0.00000000   -0.00000000   -0.00002798
     atom    2 type  1   force =    -0.00000000   -0.00000000   -0.00001082
     atom    3 type  2   force =    -0.00000000    0.00000000    0.00003296

     Total force =     0.078177     Total SCF correction =     0.000045


     Computing stress (Cartesian axis) and pressure

          total   stress  (Ry/bohr**3)                   (kbar)     P=       -9.11
  -0.00019607  -0.00000000   0.00000000          -28.84       -0.00        0.00
   0.00000000  -0.00019607  -0.00000000            0.00      -28.84       -0.00
   0.00000000  -0.00000000   0.00020628            0.00       -0.00       30.34

     Energy error            =      9.1E-01 Ry
     Gradient error          =      6.1E-02 Ry/Bohr
     Cell gradient error     =      5.3E+02 kbar

     number of scf cycles    =   2
     number of bfgs steps    =   1

     enthalpy           old  =     -31.9641694947 Ry
     enthalpy           new  =     -32.8717425513 Ry

     CASE: enthalpy          _new < enthalpy          _old


     WARNING: bfgs curvature condition failed, Theta= 0.954
     new trust radius        =       0.7264646106 bohr
ibrav =      5
 celldm(1) =      9.51886834
 celldm(4) =     -0.05597871
Input lattice vectors:
     0.61060509    -0.35253302     0.45719777
     0.00000000     0.70506603     0.45719777
    -0.61060509    -0.35253302     0.45719777
New lattice vectors in INITIAL alat:
     0.61060509    -0.35253302     0.45719777
     0.00000000     0.70506603     0.45719777
    -0.61060509    -0.35253302     0.45719777
New lattice vectors in NEW alat (for information only):
     0.72662876    -0.41951931     0.54407186
     0.00000000     0.83903862     0.54407186
    -0.72662876    -0.41951931     0.54407186
Discrepancy in bohr =     0.000000    0.000000    0.000000
     new conv_thr            =       0.0000000061 Ry

     new unit-cell volume =    858.27807 a.u.^3 (   127.18369 Ang^3 )
     density =      0.54794 g/cm^3

CELL_PARAMETERS (alat= 11.32758892)
   0.610605095  -0.352533016   0.457197774
   0.000000000   0.705066032   0.457197774
  -0.610605095  -0.352533016   0.457197774

ATOMIC_POSITIONS (crystal)
Li            0.2278969592        0.2278969592        0.2278969592
Li            0.4803268871        0.4803268871        0.4803268871
Si            0.7379938237        0.7379938237        0.7379938237



     Writing config-only to output data dir ./output/LiSi.save/
     NEW-OLD atomic charge density approx. for the potential

     negative rho (up, down):  4.180E-03 0.000E+00
     extrapolated charge    6.23941, renormalised to   10.00000

     total cpu time spent up to now is       78.8 secs

     Self-consistent Calculation

     iteration #  1     ecut=    80.00 Ry     beta= 0.70
     Davidson diagonalization with overlap
     c_bands:  1 eigenvalues not converged
     ethr =  1.00E-06,  avg # of iterations = 13.1
     Minimization algorithm failed to find Fermi energy: reverting to bisection
     Possible cause: smearing is larger than the electronic band-gap.

     negative rho (up, down):  1.868E-04 0.000E+00

     total cpu time spent up to now is       86.8 secs

     total energy              =     -35.65905715 Ry
     estimated scf accuracy    <       1.25298190 Ry

     iteration #  2     ecut=    80.00 Ry     beta= 0.70
     Davidson diagonalization with overlap
     ethr =  1.00E-02,  avg # of iterations =  2.5

     total cpu time spent up to now is       89.3 secs

     total energy              =     -36.89771889 Ry
     estimated scf accuracy    <       1.32607120 Ry

     iteration #  3     ecut=    80.00 Ry     beta= 0.70
     Davidson diagonalization with overlap
     ethr =  1.00E-02,  avg # of iterations =  1.0

     total cpu time spent up to now is       91.1 secs

     total energy              =     -36.94535123 Ry
     estimated scf accuracy    <       0.24277624 Ry

     iteration #  4     ecut=    80.00 Ry     beta= 0.70
     Davidson diagonalization with overlap
     ethr =  2.43E-03,  avg # of iterations =  1.0

     total cpu time spent up to now is       93.0 secs

     total energy              =     -36.91343989 Ry
     estimated scf accuracy    <       0.10212428 Ry

     iteration #  5     ecut=    80.00 Ry     beta= 0.70
     Davidson diagonalization with overlap
     ethr =  1.02E-03,  avg # of iterations =  1.5

     total cpu time spent up to now is       94.9 secs

     total energy              =     -36.92262529 Ry
     estimated scf accuracy    <       0.00588151 Ry

     iteration #  6     ecut=    80.00 Ry     beta= 0.70
     Davidson diagonalization with overlap
     ethr =  5.88E-05,  avg # of iterations =  4.2

     total cpu time spent up to now is       97.6 secs

     total energy              =     -36.92406031 Ry
     estimated scf accuracy    <       0.00161066 Ry

     iteration #  7     ecut=    80.00 Ry     beta= 0.70
     Davidson diagonalization with overlap
     ethr =  1.61E-05,  avg # of iterations =  3.1

     total cpu time spent up to now is       99.9 secs

     total energy              =     -36.92430271 Ry
     estimated scf accuracy    <       0.00067275 Ry

     iteration #  8     ecut=    80.00 Ry     beta= 0.70
     Davidson diagonalization with overlap
     ethr =  6.73E-06,  avg # of iterations =  1.1

     total cpu time spent up to now is      101.7 secs

     total energy              =     -36.92428302 Ry
     estimated scf accuracy    <       0.00014270 Ry

     iteration #  9     ecut=    80.00 Ry     beta= 0.70
     Davidson diagonalization with overlap
     ethr =  1.43E-06,  avg # of iterations =  3.0

     total cpu time spent up to now is      104.0 secs

     total energy              =     -36.92430522 Ry
     estimated scf accuracy    <       0.00000169 Ry

     iteration # 10     ecut=    80.00 Ry     beta= 0.70
     Davidson diagonalization with overlap
     ethr =  1.69E-08,  avg # of iterations =  3.4

     total cpu time spent up to now is      106.3 secs

     total energy              =     -36.92430594 Ry
     estimated scf accuracy    <       0.00000068 Ry

     iteration # 11     ecut=    80.00 Ry     beta= 0.70
     Davidson diagonalization with overlap
     ethr =  6.79E-09,  avg # of iterations =  1.1

     total cpu time spent up to now is      108.1 secs

     End of self-consistent calculation

          k = 0.0000 0.0000 0.0000 ( 17327 PWs)   bands (ev):

   -49.5640 -48.0086  -7.2414  -1.0170  -0.4575  -0.0596  -0.0596   2.4220
     2.4220

          k =-0.0910-0.0525 0.0810 ( 17379 PWs)   bands (ev):

   -49.5640 -48.0086  -7.2247  -1.1804  -0.4370  -0.0358  -0.0298   2.4242
     2.4736

          k =-0.1820-0.1051 0.1620 ( 17420 PWs)   bands (ev):

   -49.5640 -48.0086  -7.1812  -1.5365  -0.3915   0.0272   0.0717   2.2300
     2.6131

          k =-0.2730-0.1576 0.2430 ( 17422 PWs)   bands (ev):

   -49.5640 -48.0086  -7.1295  -1.8779  -0.3431   0.1047   0.2335   1.8929
     2.7799

          k =-0.3639-0.2101 0.3240 ( 17417 PWs)   bands (ev):

   -49.5640 -48.0086  -7.0943  -2.0770  -0.3118   0.1593   0.3840   1.6267
     2.8762

          k =-0.0910 0.0525 0.1620 ( 17415 PWs)   bands (ev):

   -49.5640 -48.0086  -7.2076  -1.2606  -0.3600  -0.3194   0.0956   2.4721
     2.5813

          k =-0.1820 0.0000 0.2430 ( 17442 PWs)   bands (ev):

   -49.5640 -48.0086  -7.1644  -1.5207  -0.5128  -0.2359   0.2440   2.3192
     2.6892

          k =-0.2730-0.0525 0.3240 ( 17436 PWs)   bands (ev):

   -49.5640 -48.0086  -7.1134  -1.8351  -0.5061  -0.1416   0.3954   1.9941
     2.7895

          k =-0.3639-0.1051 0.4050 ( 17440 PWs)   bands (ev):

   -49.5640 -48.0086  -7.0792  -2.0302  -0.4830  -0.0417   0.5389   1.7114
     2.8121

          k = 0.3639 0.3152-0.2430 ( 17419 PWs)   bands (ev):

   -49.5640 -48.0086  -7.0799  -2.0331  -0.5122   0.0136   0.6281   1.6181
     2.7593

          k = 0.2730 0.2626-0.1620 ( 17416 PWs)   bands (ev):

   -49.5640 -48.0086  -7.1152  -1.8442  -0.5856  -0.0052   0.5933   1.7902
     2.6697

          k = 0.1820 0.2101-0.0810 ( 17419 PWs)   bands (ev):

   -49.5640 -48.0086  -7.1663  -1.5325  -0.6462  -0.0571   0.4592   2.1025
     2.5726

          k = 0.0910 0.1576 0.0000 ( 17401 PWs)   bands (ev):

   -49.5640 -48.0086  -7.2088  -1.2611  -0.5982  -0.0844   0.2604   2.3273
     2.4996

          k =-0.1820 0.1051 0.3240 ( 17456 PWs)   bands (ev):

   -49.5640 -48.0086  -7.1224  -1.5369  -0.9080  -0.2031   0.4142   2.2067
     2.7499

          k =-0.2730 0.0525 0.4050 ( 17444 PWs)   bands (ev):

   -49.5640 -48.0086  -7.0734  -1.7198  -0.9977  -0.1561   0.5269   1.9587
     2.7752

          k =-0.3639 0.0000 0.4861 ( 17443 PWs)   bands (ev):

   -49.5640 -48.0086  -7.0409  -1.8972  -0.9325  -0.1016   0.5850   1.7802
     2.7070

          k = 0.3639 0.4202-0.1620 ( 17419 PWs)   bands (ev):

   -49.5640 -48.0086  -7.0420  -1.9091  -0.9227  -0.0413   0.6447   1.6959
     2.6096

          k = 0.2730 0.3677-0.0810 ( 17421 PWs)   bands (ev):

   -49.5640 -48.0086  -7.0762  -1.7577  -0.9729  -0.0229   0.7320   1.6960
     2.5715

          k = 0.1820 0.3152 0.0000 ( 17416 PWs)   bands (ev):

   -49.5640 -48.0086  -7.1255  -1.5773  -0.9218  -0.0480   0.6912   1.8741
     2.5682

          k =-0.2730 0.1576 0.4861 ( 17456 PWs)   bands (ev):

   -49.5640 -48.0086  -7.0268  -1.5959  -1.3601  -0.1565   0.5271   1.8562
     2.8144

          k =-0.3639 0.1051 0.5671 ( 17447 PWs)   bands (ev):

   -49.5640 -48.0086  -6.9959  -1.7056  -1.3224  -0.1656   0.4630   1.8430
     2.7640

          k = 0.3639 0.5253-0.0810 ( 17448 PWs)   bands (ev):

   -49.5640 -48.0086  -6.9970  -1.7462  -1.2677  -0.1153   0.4580   1.8312
     2.6405

          k = 0.2730 0.4728 0.0000 ( 17434 PWs)   bands (ev):

   -49.5640 -48.0086  -7.0294  -1.7033  -1.2315  -0.0381   0.5900   1.7378
     2.5742

          k =-0.3639 0.2101 0.6481 ( 17453 PWs)   bands (ev):

   -49.5640 -48.0086  -6.9658  -1.6025  -1.4669  -0.2754   0.3632   1.9244
     2.8310

          k = 0.3639 0.6304 0.0000 ( 17448 PWs)   bands (ev):

   -49.5640 -48.0086  -6.9662  -1.6537  -1.4063  -0.2595   0.3543   1.9341
     2.7601

          k =-0.0000 0.0000 0.2430 ( 17429 PWs)   bands (ev):

   -49.5640 -48.0086  -7.1902  -1.3051  -0.3580  -0.3580  -0.0477   2.6768
     2.6768

          k =-0.0910-0.0525 0.3240 ( 17444 PWs)   bands (ev):

   -49.5640 -48.0086  -7.1472  -1.5018  -0.6032  -0.2915   0.1187   2.5450
     2.7508

          k =-0.1820-0.1051 0.4050 ( 17451 PWs)   bands (ev):

   -49.5640 -48.0086  -7.0972  -1.7923  -0.6358  -0.1817   0.2679   2.2061
     2.7210

          k =-0.2730-0.1576 0.4861 ( 17436 PWs)   bands (ev):

   -49.5640 -48.0086  -7.0640  -1.9838  -0.6188  -0.0736   0.4342   1.9154
     2.5768

          k = 0.4549 0.2626-0.1620 ( 17411 PWs)   bands (ev):

   -49.5640 -48.0086  -7.0654  -1.9892  -0.6454  -0.0279   0.6085   1.7730
     2.4466

          k = 0.3639 0.2101-0.0810 ( 17404 PWs)   bands (ev):

   -49.5640 -48.0086  -7.1006  -1.8095  -0.7088  -0.0770   0.6913   1.8680
     2.4156

          k = 0.2730 0.1576 0.0000 ( 17417 PWs)   bands (ev):

   -49.5640 -48.0086  -7.1510  -1.5246  -0.7337  -0.1872   0.6281   2.1527
     2.4501

          k = 0.1820 0.1051 0.0810 ( 17397 PWs)   bands (ev):

   -49.5640 -48.0086  -7.1925  -1.3131  -0.5950  -0.2964   0.4387   2.3647
     2.5055

          k =-0.0910 0.0525 0.4050 ( 17453 PWs)   bands (ev):

   -49.5640 -48.0086  -7.1057  -1.5095  -0.8978  -0.3609   0.2578   2.4639
     2.8313

          k =-0.1820-0.0000 0.4861 ( 17453 PWs)   bands (ev):

   -49.5640 -48.0086  -7.0576  -1.6782  -0.9982  -0.2870   0.3533   2.1695
     2.7202

          k =-0.2730-0.0525 0.5671 ( 17445 PWs)   bands (ev):

   -49.5640 -48.0086  -7.0260  -1.8521  -0.9458  -0.1999   0.4390   1.9498
     2.4677

          k = 0.4549 0.3677-0.0810 ( 17420 PWs)   bands (ev):

   -49.5640 -48.0086  -7.0277  -1.8654  -0.9378  -0.1552   0.5670   1.8543
     2.2979

          k = 0.3639 0.3152 0.0000 ( 17404 PWs)   bands (ev):

   -49.5640 -48.0086  -7.0618  -1.7210  -0.9743  -0.2011   0.7249   1.8673
     2.3341

          k = 0.2730 0.2626 0.0810 ( 17423 PWs)   bands (ev):

   -49.5640 -48.0086  -7.1103  -1.5565  -0.8973  -0.3115   0.7720   2.0336
     2.4806

          k = 0.1820 0.2101 0.1620 ( 17426 PWs)   bands (ev):

   -49.5640 -48.0086  -7.1501  -1.5186  -0.5980  -0.4159   0.6129   2.2065
     2.5849

          k =-0.1820 0.1051 0.5671 ( 17453 PWs)   bands (ev):

   -49.5640 -48.0086  -7.0118  -1.5555  -1.3342  -0.2656   0.3575   1.9296
     2.7740

          k =-0.2730 0.0525 0.6481 ( 17443 PWs)   bands (ev):

   -49.5640 -48.0086  -6.9818  -1.6632  -1.2959  -0.2377   0.3271   1.8172
     2.6051

          k = 0.4549 0.4728 0.0000 ( 17433 PWs)   bands (ev):

   -49.5640 -48.0086  -6.9833  -1.7020  -1.2425  -0.2109   0.3744   1.8012
     2.4427

          k = 0.3639 0.4202 0.0810 ( 17431 PWs)   bands (ev):

   -49.5640 -48.0086  -7.0155  -1.6612  -1.2001  -0.2264   0.5616   1.7907
     2.4475

          k = 0.2730 0.3677 0.1620 ( 17413 PWs)   bands (ev):

   -49.5640 -48.0086  -7.0616  -1.7171  -0.9361  -0.3070   0.7493   1.8408
     2.5247

          k = 0.1820 0.3152 0.2430 ( 17415 PWs)   bands (ev):

   -49.5640 -48.0086  -7.0997  -1.8024  -0.5490  -0.3793   0.7081   1.9068
     2.6588

          k =-0.2730 0.1576 0.7291 ( 17442 PWs)   bands (ev):

   -49.5640 -48.0086  -6.9524  -1.5602  -1.4305  -0.3041   0.2291   1.8164
     2.6090

          k = 0.4549 0.5778 0.0810 ( 17458 PWs)   bands (ev):

   -49.5640 -48.0086  -6.9533  -1.6045  -1.3726  -0.3127   0.2508   1.8531
     2.5047

          k = 0.3639 0.5253 0.1620 ( 17440 PWs)   bands (ev):

   -49.5640 -48.0086  -6.9839  -1.6979  -1.2294  -0.2724   0.4204   1.8408
     2.4433

          k = 0.2730 0.4728 0.2430 ( 17424 PWs)   bands (ev):

   -49.5640 -48.0086  -7.0283  -1.8621  -0.8813  -0.3044   0.6599   1.8038
     2.4596

          k = 0.1820 0.4202 0.3240 ( 17426 PWs)   bands (ev):

   -49.5640 -48.0086  -7.0655  -1.9861  -0.4879  -0.3243   0.7366   1.7070
     2.6695

          k = 0.4549-0.2626-0.5671 ( 17444 PWs)   bands (ev):

   -49.5640 -48.0086  -6.9533  -1.5450  -1.4340  -0.3563   0.2889   1.9100
     2.4857

          k = 0.3639-0.3152-0.4861 ( 17443 PWs)   bands (ev):

   -49.5640 -48.0086  -6.9834  -1.6595  -1.2749  -0.3327   0.4588   1.9194
     2.4342

          k = 0.2730-0.3677-0.4050 ( 17426 PWs)   bands (ev):

   -49.5640 -48.0086  -7.0278  -1.8529  -0.8839  -0.3546   0.6640   1.8761
     2.4404

          k = 0.3639-0.2101-0.4050 ( 17451 PWs)   bands (ev):

   -49.5640 -48.0086  -7.0143  -1.5705  -1.2903  -0.3750   0.6100   1.9888
     2.4622

          k = 0.2730-0.2626-0.3240 ( 17415 PWs)   bands (ev):

   -49.5640 -48.0086  -7.0605  -1.6894  -0.9378  -0.4290   0.7277   2.0381
     2.4877

          k = 0.2730-0.1576-0.2430 ( 17439 PWs)   bands (ev):

   -49.5640 -48.0086  -7.1090  -1.5311  -0.8329  -0.5057   0.7271   2.2478
     2.5045

          k =-0.0000 0.0000 0.4861 ( 17522 PWs)   bands (ev):

   -49.5640 -48.0086  -7.0655  -1.4786  -0.8050  -0.8050   0.3260   2.6634
     2.6634

          k =-0.0910-0.0525 0.5671 ( 17457 PWs)   bands (ev):

   -49.5640 -48.0086  -7.0193  -1.5706  -1.0094  -0.6534   0.3642   2.2865
     2.4252

          k =-0.1820-0.1051 0.6481 ( 17424 PWs)   bands (ev):

   -49.5640 -48.0086  -6.9893  -1.7232  -0.9962  -0.5007   0.4061   1.9162
     2.2078

          k = 0.5459 0.3152 0.0000 ( 17436 PWs)   bands (ev):

   -49.5640 -48.0086  -6.9913  -1.7414  -0.9907  -0.4420   0.5225   1.7543
     2.1199

          k = 0.4549 0.2626 0.0810 ( 17432 PWs)   bands (ev):

   -49.5640 -48.0086  -7.0241  -1.6262  -0.9957  -0.5286   0.6937   1.8745
     2.1798

          k = 0.3639 0.2101 0.1620 ( 17425 PWs)   bands (ev):

   -49.5640 -48.0086  -7.0707  -1.5306  -0.8457  -0.6898   0.7986   2.1757
     2.3482

          k =-0.0910 0.0525 0.6481 ( 17460 PWs)   bands (ev):

   -49.5640 -48.0086  -6.9754  -1.4576  -1.2178  -0.6747   0.3468   1.9155
     2.3325

          k =-0.1820 0.0000 0.7291 ( 17455 PWs)   bands (ev):

   -49.5640 -48.0086  -6.9468  -1.5391  -1.2086  -0.5736   0.3144   1.6339
     2.1560

          k = 0.5459 0.4202 0.0810 ( 17437 PWs)   bands (ev):

   -49.5640 -48.0086  -6.9485  -1.5747  -1.1675  -0.5394   0.3752   1.5471
     2.0798

          k = 0.4549 0.3677 0.1620 ( 17425 PWs)   bands (ev):

   -49.5640 -48.0086  -6.9796  -1.5460  -1.1148  -0.6235   0.5521   1.6833
     2.1451

          k = 0.3639 0.3152 0.2430 ( 17419 PWs)   bands (ev):

   -49.5640 -48.0086  -7.0239  -1.6075  -0.9045  -0.7140   0.7068   1.9828
     2.2745

          k =-0.1820 0.1051 0.8101 ( 17445 PWs)   bands (ev):

   -49.5640 -48.0086  -6.9188  -1.4254  -1.3341  -0.5473   0.1870   1.5446
     2.0311

          k = 0.5459 0.5253 0.1620 ( 17430 PWs)   bands (ev):

   -49.5640 -48.0086  -6.9198  -1.4652  -1.2797  -0.5544   0.2073   1.5706
     1.9688

          k = 0.4549 0.4728 0.2430 ( 17435 PWs)   bands (ev):

   -49.5640 -48.0086  -6.9494  -1.5641  -1.1381  -0.6151   0.3964   1.6676
     2.0377

          k = 0.3639 0.4202 0.3240 ( 17428 PWs)   bands (ev):

   -49.5640 -48.0086  -6.9922  -1.7291  -0.8781  -0.6517   0.5833   1.8751
     2.1560

          k = 0.5459-0.3152-0.4861 ( 17439 PWs)   bands (ev):

   -49.5640 -48.0086  -6.9202  -1.3976  -1.3395  -0.5947   0.2320   1.6851
     1.8964

          k = 0.4549-0.3677-0.4050 ( 17446 PWs)   bands (ev):

   -49.5640 -48.0086  -6.9493  -1.5365  -1.1630  -0.6506   0.4158   1.7781
     1.9699

          k = 0.4549-0.2626-0.3240 ( 17433 PWs)   bands (ev):

   -49.5640 -48.0086  -6.9794  -1.4920  -1.1382  -0.7232   0.5746   1.9554
     2.0065

          k =-0.0000 0.0000 0.7291 ( 17435 PWs)   bands (ev):

   -49.5640 -48.0086  -6.9336  -1.3452  -1.0378  -1.0378   0.3544   1.7801
     1.7801

          k =-0.0910-0.0525 0.8101 ( 17471 PWs)   bands (ev):

   -49.5640 -48.0086  -6.9063  -1.3644  -1.1342  -0.8641   0.3447   1.3575
     1.7102

          k = 0.6369 0.3677 0.1620 ( 17440 PWs)   bands (ev):

   -49.5640 -48.0086  -6.9078  -1.3997  -1.1104  -0.8193   0.3923   1.2444
     1.7267

          k = 0.5459 0.3152 0.2430 ( 17436 PWs)   bands (ev):

   -49.5640 -48.0086  -6.9372  -1.4085  -1.0132  -0.9476   0.4968   1.4906
     1.8294

          k =-0.0910 0.0525 0.8911 ( 17481 PWs)   bands (ev):

   -49.5640 -48.0086  -6.8797  -1.2293  -1.2082  -0.8639   0.3048   1.2164
     1.4418

          k = 0.6369 0.4728 0.2430 ( 17447 PWs)   bands (ev):

   -49.5640 -48.0086  -6.8806  -1.2696  -1.1575  -0.8610   0.3054   1.2071
     1.4607

          k = 0.5459 0.4202 0.3240 ( 17440 PWs)   bands (ev):

   -49.5640 -48.0086  -6.9086  -1.3749  -1.0626  -0.9124   0.3781   1.4176
     1.6462

          k = 0.6369-0.3677-0.4050 ( 17460 PWs)   bands (ev):

   -49.5640 -48.0086  -6.8809  -1.2120  -1.1972  -0.8870   0.2975   1.3409
     1.3693

          k =-0.0000 0.0000 0.9721 ( 17457 PWs)   bands (ev):

   -49.5640 -48.0086  -6.8537  -1.1143  -1.0545  -1.0545   0.4060   1.0412
     1.0412

          k = 0.7279 0.4202 0.3240 ( 17431 PWs)   bands (ev):

   -49.5640 -48.0086  -6.8542  -1.1108  -1.0663  -1.0381   0.3824   1.0014
     1.1250

     the Fermi energy is    -0.6366 ev

!    total energy              =     -36.92430604 Ry
     estimated scf accuracy    <          5.2E-09 Ry
     smearing contrib. (-TS)   =       0.00048384 Ry
     internal energy E=F+TS    =     -36.92478988 Ry

     The total energy is F=E-TS. E is the sum of the following terms:
     one-electron contribution =     -24.97736919 Ry
     hartree contribution      =      10.23442758 Ry
     xc contribution           =      -9.34481812 Ry
     ewald contribution        =     -12.83703015 Ry

     convergence has been achieved in  11 iterations

     Forces acting on atoms (cartesian axes, Ry/au):

     atom    1 type  1   force =    -0.00000000   -0.00000000   -0.07962736
     atom    2 type  1   force =    -0.00000000    0.00000000   -0.01991623
     atom    3 type  2   force =    -0.00000000    0.00000000    0.09954359
     The non-local contrib.  to forces
     atom    1 type  1   force =     0.00000000   -0.00000000    0.03879469
     atom    2 type  1   force =    -0.00000000    0.00000000   -0.19837973
     atom    3 type  2   force =    -0.00000000   -0.00000000    0.13962122
     The ionic contribution  to forces
     atom    1 type  1   force =    -0.00000000    0.00000000   -0.91088055
     atom    2 type  1   force =     0.00000000    0.00000000   -0.24634423
     atom    3 type  2   force =    -0.00000000   -0.00000000    1.15722478
     The local contribution  to forces
     atom    1 type  1   force =    -0.00000000    0.00000000    0.79251591
     atom    2 type  1   force =     0.00000000   -0.00000000    0.42474566
     atom    3 type  2   force =     0.00000000    0.00000000   -1.18795915
     The core correction contribution to forces
     atom    1 type  1   force =     0.00000000    0.00000000    0.00000000
     atom    2 type  1   force =     0.00000000    0.00000000    0.00000000
     atom    3 type  2   force =     0.00000000    0.00000000   -0.00934219
     The Hubbard contrib.    to forces
     atom    1 type  1   force =     0.00000000    0.00000000    0.00000000
     atom    2 type  1   force =     0.00000000    0.00000000    0.00000000
     atom    3 type  2   force =     0.00000000    0.00000000    0.00000000
     The SCF correction term to forces
     atom    1 type  1   force =     0.00000000    0.00000000   -0.00005309
     atom    2 type  1   force =    -0.00000000   -0.00000000    0.00006639
     atom    3 type  2   force =    -0.00000000   -0.00000000    0.00000326

     Total force =     0.129020     Total SCF correction =     0.000085


     Computing stress (Cartesian axis) and pressure

          total   stress  (Ry/bohr**3)                   (kbar)     P=      -10.21
  -0.00035494  -0.00000000   0.00000000          -52.21       -0.00        0.00
   0.00000000  -0.00035494  -0.00000000            0.00      -52.21       -0.00
  -0.00000000  -0.00000000   0.00050171           -0.00       -0.00       73.80

     Energy error            =      1.1E+00 Ry
     Gradient error          =      1.0E-01 Ry/Bohr
     Cell gradient error     =      5.5E+02 kbar

     number of scf cycles    =   3
     number of bfgs steps    =   2

     enthalpy           old  =     -32.8717425513 Ry
     enthalpy           new  =     -34.0070781659 Ry

     CASE: enthalpy          _new < enthalpy          _old

     new trust radius        =       0.8000000000 bohr
ibrav =      5
 celldm(1) =      8.31345417
 celldm(4) =     -0.03217096
Input lattice vectors:
     0.52723575    -0.30439970     0.40986609
    -0.00000000     0.60879940     0.40986609
    -0.52723575    -0.30439970     0.40986609
New lattice vectors in INITIAL alat:
     0.52723575    -0.30439970     0.40986609
     0.00000000     0.60879940     0.40986609
    -0.52723575    -0.30439970     0.40986609
New lattice vectors in NEW alat (for information only):
     0.71839090    -0.41476318     0.55846757
     0.00000000     0.82952636     0.55846757
    -0.71839090    -0.41476318     0.55846757
Discrepancy in bohr =     0.000000    0.000000    0.000000
     new conv_thr            =       0.0000000100 Ry

     new unit-cell volume =    573.66023 a.u.^3 (    85.00768 Ang^3 )
     density =      0.81979 g/cm^3

CELL_PARAMETERS (alat= 11.32758892)
   0.527235746  -0.304399700   0.409866086
   0.000000000   0.608799400   0.409866086
  -0.527235746  -0.304399700   0.409866086

ATOMIC_POSITIONS (crystal)
Li            0.2217082487        0.2217082487        0.2217082487
Li            0.4791072540        0.4791072540        0.4791072540
Si            0.7454021673        0.7454021673        0.7454021673



     Writing config-only to output data dir ./output/LiSi.save/
     NEW-OLD atomic charge density approx. for the potential

     negative rho (up, down):  7.694E-03 0.000E+00
     extrapolated charge    5.04339, renormalised to   10.00000

     total cpu time spent up to now is      114.0 secs

     Self-consistent Calculation

     iteration #  1     ecut=    80.00 Ry     beta= 0.70
     Davidson diagonalization with overlap
     ethr =  1.00E-06,  avg # of iterations = 13.7

     total cpu time spent up to now is      122.4 secs

     total energy              =     -35.10548636 Ry
     estimated scf accuracy    <       2.15077376 Ry

     iteration #  2     ecut=    80.00 Ry     beta= 0.70
     Davidson diagonalization with overlap
     ethr =  1.00E-02,  avg # of iterations =  3.1

     total cpu time spent up to now is      125.2 secs

     total energy              =     -36.92795216 Ry
     estimated scf accuracy    <       1.57077547 Ry

     iteration #  3     ecut=    80.00 Ry     beta= 0.70
     Davidson diagonalization with overlap
     ethr =  1.00E-02,  avg # of iterations =  1.2

     total cpu time spent up to now is      127.1 secs

     total energy              =     -36.98209939 Ry
     estimated scf accuracy    <       0.22953061 Ry

     iteration #  4     ecut=    80.00 Ry     beta= 0.70
     Davidson diagonalization with overlap
     ethr =  2.30E-03,  avg # of iterations =  1.3

     total cpu time spent up to now is      128.9 secs

     total energy              =     -36.97417333 Ry
     estimated scf accuracy    <       0.05044266 Ry

     iteration #  5     ecut=    80.00 Ry     beta= 0.70
     Davidson diagonalization with overlap
     ethr =  5.04E-04,  avg # of iterations =  2.1

     total cpu time spent up to now is      131.1 secs

     total energy              =     -36.98517119 Ry
     estimated scf accuracy    <       0.00180066 Ry

     iteration #  6     ecut=    80.00 Ry     beta= 0.70
     Davidson diagonalization with overlap
     ethr =  1.80E-05,  avg # of iterations =  5.0

     total cpu time spent up to now is      134.1 secs

     total energy              =     -36.98568496 Ry
     estimated scf accuracy    <       0.00015170 Ry

     iteration #  7     ecut=    80.00 Ry     beta= 0.70
     Davidson diagonalization with overlap
     ethr =  1.52E-06,  avg # of iterations =  3.5

     total cpu time spent up to now is      136.6 secs

     total energy              =     -36.98572126 Ry
     estimated scf accuracy    <       0.00002918 Ry

     iteration #  8     ecut=    80.00 Ry     beta= 0.70
     Davidson diagonalization with overlap
     ethr =  2.92E-07,  avg # of iterations =  1.1

     total cpu time spent up to now is      138.4 secs

     total energy              =     -36.98571707 Ry
     estimated scf accuracy    <       0.00001320 Ry

     iteration #  9     ecut=    80.00 Ry     beta= 0.70
     Davidson diagonalization with overlap
     ethr =  1.32E-07,  avg # of iterations =  2.0

     total cpu time spent up to now is      140.5 secs

     total energy              =     -36.98571949 Ry
     estimated scf accuracy    <       0.00000040 Ry

     iteration # 10     ecut=    80.00 Ry     beta= 0.70
     Davidson diagonalization with overlap
     ethr =  3.99E-09,  avg # of iterations =  2.2

     total cpu time spent up to now is      142.5 secs

     End of self-consistent calculation

          k = 0.0000 0.0000 0.0000 ( 17327 PWs)   bands (ev):

   -47.6524 -46.7002  -6.2745   0.7915   1.5512   1.5512   1.6398   4.0542
     4.0542

          k =-0.1054-0.0608 0.0904 ( 17379 PWs)   bands (ev):

   -47.6524 -46.7002  -6.2337   0.4256   1.3584   1.6003   1.8918   4.1338
     4.4181

          k =-0.2107-0.1217 0.1807 ( 17420 PWs)   bands (ev):

   -47.6524 -46.7002  -6.1237  -0.3168   1.3472   1.7349   2.1047   4.3613
     4.7339

          k =-0.3161-0.1825 0.2711 ( 17422 PWs)   bands (ev):

   -47.6524 -46.7002  -5.9847  -0.9729   1.3899   1.9112   2.3180   4.5175
     4.6821

          k =-0.4215-0.2433 0.3615 ( 17417 PWs)   bands (ev):

   -47.6523 -46.7002  -5.8836  -1.3493   1.4242   2.0450   2.4867   4.2585
     4.9190

          k =-0.1054 0.0608 0.1807 ( 17415 PWs)   bands (ev):

[...]

     total cpu time spent up to now is      508.4 secs

     total energy              =     -37.11058981 Ry
     estimated scf accuracy    <       0.01003603 Ry

     iteration #  2     ecut=    80.00 Ry     beta= 0.70
     Davidson diagonalization with overlap
     ethr =  1.00E-04,  avg # of iterations =  1.0

     total cpu time spent up to now is      508.8 secs

     total energy              =     -37.11062614 Ry
     estimated scf accuracy    <       0.00064590 Ry

     iteration #  3     ecut=    80.00 Ry     beta= 0.70
     Davidson diagonalization with overlap
     ethr =  6.46E-06,  avg # of iterations =  1.3

     total cpu time spent up to now is      509.1 secs

     total energy              =     -37.11065351 Ry
     estimated scf accuracy    <       0.00000350 Ry

     iteration #  4     ecut=    80.00 Ry     beta= 0.70
     Davidson diagonalization with overlap
     ethr =  3.50E-08,  avg # of iterations =  2.5

     total cpu time spent up to now is      509.6 secs

     total energy              =     -37.11065458 Ry
     estimated scf accuracy    <       0.00000008 Ry

     iteration #  5     ecut=    80.00 Ry     beta= 0.70
     Davidson diagonalization with overlap
     ethr =  7.62E-10,  avg # of iterations =  2.6

     total cpu time spent up to now is      510.0 secs

     total energy              =     -37.11065460 Ry
     estimated scf accuracy    <          3.3E-09 Ry

     iteration #  6     ecut=    80.00 Ry     beta= 0.70
     Davidson diagonalization with overlap
     ethr =  3.27E-11,  avg # of iterations =  2.4

     total cpu time spent up to now is      510.4 secs

     total energy              =     -37.11065460 Ry
     estimated scf accuracy    <          1.2E-10 Ry

     iteration #  7     ecut=    80.00 Ry     beta= 0.70
     Davidson diagonalization with overlap
     ethr =  1.15E-12,  avg # of iterations =  2.4

     total cpu time spent up to now is      510.8 secs

     End of self-consistent calculation

          k = 0.0000 0.0000 0.0000 (  2237 PWs)   bands (ev):

   -37.3869 -36.8757  -1.7945  10.5108  10.5108  12.1130  12.1130  13.4797
    16.2547

          k =-0.1716-0.0991 0.1071 (  2211 PWs)   bands (ev):

   -37.3780 -36.8826  -1.6724   8.9094  10.4791  12.4872  12.5079  14.6163
    16.4570

          k =-0.3433-0.1982 0.2142 (  2210 PWs)   bands (ev):

   -37.3540 -36.9013  -1.3216   6.8213  10.5418  12.3978  13.5012  16.0629
    17.2808

          k =-0.5149-0.2973 0.3213 (  2203 PWs)   bands (ev):

   -37.3240 -36.9253  -0.8096   5.0854  10.8025  12.2198  14.7108  16.3363
    16.9144

          k =-0.6865-0.3964 0.4284 (  2196 PWs)   bands (ev):

   -37.3023 -36.9431  -0.3486   4.0020  11.1194  12.1005  14.6208  17.0773
    17.8709

          k =-0.1716 0.0991 0.2142 (  2217 PWs)   bands (ev):

   -37.3712 -36.8874  -1.5701   8.5882  10.4090  11.5130  14.0960  14.5896
    16.3517

          k =-0.3433 0.0000 0.3213 (  2207 PWs)   bands (ev):

   -37.3490 -36.9045  -1.2316   6.9716  10.6727  11.3782  13.8858  16.2546
    16.4775

          k =-0.5149-0.0991 0.4284 (  2204 PWs)   bands (ev):

   -37.3194 -36.9281  -0.7171   5.2810  11.0066  11.3367  14.0241  16.0303
    17.4530

          k =-0.6865-0.1982 0.5355 (  2204 PWs)   bands (ev):

   -37.2960 -36.9475  -0.2204   4.1310  10.5610  11.5318  15.0252  15.8611
    17.8108

          k = 0.6865 0.5946-0.3213 (  2196 PWs)   bands (ev):

   -37.2930 -36.9503  -0.1631   4.0200   9.8260  11.8312  15.6844  16.7827
    17.0629

          k = 0.5149 0.4955-0.2142 (  2205 PWs)   bands (ev):

   -37.3126 -36.9345  -0.6149   5.0340   9.2243  12.0467  15.6777  16.2195
    18.1209

          k = 0.3433 0.3964-0.1071 (  2203 PWs)   bands (ev):

   -37.3421 -36.9109  -1.1483   6.7329   8.8701  12.1425  14.6383  16.5213
    17.5886

          k = 0.1716 0.2973 0.0000 (  2209 PWs)   bands (ev):

   -37.3671 -36.8912  -1.5258   8.7678   8.8127  12.1154  13.7628  15.8551
    16.5606

          k =-0.3433 0.1982 0.4284 (  2217 PWs)   bands (ev):

   -37.3286 -36.9199  -0.8894   6.6569   9.5563  11.0941  13.3256  16.5692
    17.7990

          k =-0.5149 0.0991 0.5355 (  2213 PWs)   bands (ev):

   -37.3001 -36.9426  -0.3483   5.4871   9.0610  11.2326  12.8044  16.7558
    18.4609

          k =-0.6865 0.0000 0.6426 (  2206 PWs)   bands (ev):

   -37.2760 -36.9626   0.2104   4.3704   8.4823  11.6684  13.2026  16.1039
    18.2304

          k = 0.6865 0.7928-0.2142 (  2204 PWs)   bands (ev):

   -37.2709 -36.9675   0.3259   4.1828   7.7867  12.0976  14.4159  15.4163
    17.7684

          k = 0.5149 0.6937-0.1071 (  2199 PWs)   bands (ev):

   -37.2886 -36.9534  -0.1492   5.1685   7.2127  12.3344  14.9297  16.0623
    17.5083

          k = 0.3433 0.5946 0.0000 (  2206 PWs)   bands (ev):

   -37.3172 -36.9306  -0.7308   6.8167   6.8891  12.2862  14.8969  16.4409
    18.8634

          k =-0.5149 0.2973 0.6426 (  2205 PWs)   bands (ev):

   -37.2726 -36.9643   0.2481   5.3441   7.4011  11.1920  12.2806  16.1730
    18.9987

          k =-0.6865 0.1982 0.7497 (  2199 PWs)   bands (ev):

   -37.2489 -36.9841   0.8987   4.6231   6.5351  11.4900  12.4433  15.1791
    19.3407

          k = 0.6865 0.9909-0.1071 (  2200 PWs)   bands (ev):

   -37.2437 -36.9891   1.0630   4.4503   5.9660  12.4163  12.8897  14.3785
    18.9625

          k = 0.5149 0.8918 0.0000 (  2206 PWs)   bands (ev):

   -37.2609 -36.9755   0.5101   5.4306   5.5535  12.7360  13.9653  14.5283
    18.1050

          k =-0.6865 0.3964 0.8568 (  2199 PWs)   bands (ev):

   -37.2269 -37.0024   1.6628   4.6839   5.1286  11.0861  12.8276  14.2659
    19.7814

          k = 0.6865 1.1891 0.0000 (  2200 PWs)   bands (ev):

   -37.2245 -37.0047   1.7836   4.7287   4.7403  11.4554  13.2753  13.6512
    19.9851

          k = 0.0000-0.0000 0.3213 (  2204 PWs)   bands (ev):

   -37.3667 -36.8902  -1.4934   9.1932   9.1932  13.0595  13.9846  13.9846
    16.5325

          k =-0.1716-0.0991 0.4284 (  2195 PWs)   bands (ev):

   -37.3463 -36.9055  -1.1767   7.2972  10.0945  12.6929  13.6037  15.7951
    16.6510

          k =-0.3433-0.1982 0.5355 (  2198 PWs)   bands (ev):

   -37.3173 -36.9286  -0.6717   5.5306  10.9427  12.2665  13.3650  15.6370
    16.4839

          k =-0.5149-0.2973 0.6426 (  2199 PWs)   bands (ev):

   -37.2925 -36.9493  -0.1495   4.2834  10.6547  11.8384  14.2044  15.8251
    16.4077

          k = 0.8582 0.4955-0.2142 (  2202 PWs)   bands (ev):

   -37.2865 -36.9550  -0.0248   4.0362   9.7273  11.5129  15.9083  15.9626
    16.7747

          k = 0.6865 0.3964-0.1071 (  2201 PWs)   bands (ev):

   -37.3036 -36.9415  -0.4492   4.9632   8.9376  11.3200  15.5232  17.3602
    18.1497

          k = 0.5149 0.2973 0.0000 (  2195 PWs)   bands (ev):

   -37.3325 -36.9185  -0.9956   6.6386   8.4603  11.2316  15.3317  16.6614
    18.7901

          k = 0.3433 0.1982 0.1071 (  2202 PWs)   bands (ev):

   -37.3584 -36.8979  -1.3972   8.3403   8.7567  11.1630  15.1297  15.4997
    17.0721

          k =-0.1716 0.0991 0.5355 (  2195 PWs)   bands (ev):

   -37.3280 -36.9190  -0.8694   7.1619   9.2324  12.3405  13.5826  15.7702
    16.1128

          k =-0.3433 0.0000 0.6426 (  2206 PWs)   bands (ev):

   -37.3003 -36.9409  -0.3536   5.8340   9.4083  12.0167  12.8354  15.3987
    16.7137

          k =-0.5149-0.0991 0.7497 (  2207 PWs)   bands (ev):

   -37.2749 -36.9622   0.2194   4.5680   9.0679  12.1174  12.7255  15.0048
    17.2498

          k = 0.8582 0.6937-0.1071 (  2198 PWs)   bands (ev):

   -37.2666 -36.9701   0.4231   4.1952   8.2430  11.5963  14.2938  14.7105
    17.7868

          k = 0.6865 0.5946 0.0000 (  2195 PWs)   bands (ev):

   -37.2814 -36.9588   0.0020   5.0522   7.5050  11.2296  14.4091  16.5025
    18.3364

          k = 0.5149 0.4955 0.1071 (  2201 PWs)   bands (ev):

   -37.3091 -36.9367  -0.5847   6.6962   7.0286  11.0323  14.3747  17.9268
    18.8871

          k = 0.3433 0.3964 0.2142 (  2201 PWs)   bands (ev):

   -37.3351 -36.9160  -1.0268   6.8464   8.8072  10.9762  14.3531  17.0811
    18.0576

          k =-0.3433 0.1982 0.7497 (  2211 PWs)   bands (ev):

   -37.2738 -36.9617   0.1983   5.7277   7.8745  11.4047  12.9649  14.6167
    16.4723

          k =-0.5149 0.0991 0.8568 (  2214 PWs)   bands (ev):

   -37.2487 -36.9828   0.8492   4.8721   7.0805  11.4580  12.7118  14.1676
    16.9937

          k = 0.8582 0.8918 0.0000 (  2208 PWs)   bands (ev):

   -37.2397 -36.9914   1.1380   4.4514   6.4312  11.6275  12.9939  14.0193
    17.9554

          k = 0.6865 0.7928 0.1071 (  2201 PWs)   bands (ev):

   -37.2537 -36.9808   0.6755   5.2855   5.8551  11.2359  14.0297  14.5839
    18.7400

          k = 0.5149 0.6937 0.2142 (  2201 PWs)   bands (ev):

   -37.2806 -36.9595   0.0141   5.4153   6.9619  10.9593  14.1572  16.6242
    18.6559

          k = 0.3433 0.5946 0.3213 (  2207 PWs)   bands (ev):

   -37.3057 -36.9395  -0.4817   5.2308   9.0447  10.9054  14.2571  17.5645
    18.6819

          k =-0.5149 0.2973 0.9639 (  2218 PWs)   bands (ev):

   -37.2248 -37.0028   1.6097   4.9419   5.5285  10.8444  12.4565  14.4127
    16.9562

          k = 0.8582 1.0900 0.1071 (  2210 PWs)   bands (ev):

   -37.2181 -37.0094   1.9357   4.6876   5.0335  10.7824  12.2490  14.7440
    17.7701

          k = 0.6865 0.9909 0.2142 (  2197 PWs)   bands (ev):

   -37.2340 -36.9969   1.3176   4.6555   5.6894  10.6439  13.0571  14.9213
    18.9762

          k = 0.5149 0.8918 0.3213 (  2191 PWs)   bands (ev):

   -37.2608 -36.9756   0.5551   4.3432   7.3882  10.4661  14.6021  15.2078
    19.2627

          k = 0.3433 0.7928 0.4284 (  2205 PWs)   bands (ev):

   -37.2843 -36.9571   0.0182   4.1520   9.4047  10.4843  15.1737  16.6950
    18.0501

          k = 0.8582-0.4955-0.7497 (  2197 PWs)   bands (ev):

   -37.2162 -37.0112   2.0253   4.8146   4.8575  10.1667  11.9089  15.8193
    17.9843

          k = 0.6865-0.5946-0.6426 (  2203 PWs)   bands (ev):

   -37.2357 -36.9953   1.2584   4.6733   6.1362   9.9271  12.2557  16.3857
    19.0975

          k = 0.5149-0.6937-0.5355 (  2196 PWs)   bands (ev):

   -37.2627 -36.9738   0.5090   4.3996   7.9072   9.9034  13.4151  16.6340
    19.8503

          k = 0.6865-0.3964-0.5355 (  2216 PWs)   bands (ev):

   -37.2574 -36.9772   0.5870   5.3469   6.9137   9.4619  12.2099  17.8660
    19.5251

          k = 0.5149-0.4955-0.4284 (  2206 PWs)   bands (ev):

   -37.2850 -36.9553  -0.0627   5.4403   8.3773   9.4904  12.9286  18.5164
    19.8078

          k = 0.5149-0.2973-0.3213 (  2200 PWs)   bands (ev):

   -37.3135 -36.9326  -0.6447   6.5318   8.7103   9.5894  13.3913  18.9627
    19.1229

          k = 0.0000-0.0000 0.6426 (  2192 PWs)   bands (ev):

   -37.3119 -36.9304  -0.5893   8.0252   8.0252  11.7909  14.0726  14.0726
    16.3420

          k =-0.1716-0.0991 0.7497 (  2204 PWs)   bands (ev):

   -37.2856 -36.9509  -0.0842   6.3739   9.1235  11.1445  12.2413  14.6387
    15.5326

          k =-0.3433-0.1982 0.8568 (  2203 PWs)   bands (ev):

   -37.2598 -36.9727   0.5237   4.9544   9.4235  10.5192  11.8763  14.2516
    16.2997

          k = 1.0298 0.5946 0.0000 (  2201 PWs)   bands (ev):

   -37.2489 -36.9831   0.8338   4.3717   8.3812  10.0267  13.5866  13.7459
    17.5858

          k = 0.8582 0.4955 0.1071 (  2195 PWs)   bands (ev):

   -37.2610 -36.9743   0.4562   5.0843   7.4185   9.7092  13.4724  15.9565
    18.8590

          k = 0.6865 0.3964 0.2142 (  2194 PWs)   bands (ev):

   -37.2874 -36.9534  -0.1605   6.6650   6.7888   9.5669  13.3891  18.6536
    20.0019

          k =-0.1716 0.0991 0.8568 (  2205 PWs)   bands (ev):

   -37.2607 -36.9702   0.4306   6.4867   8.1647  10.6093  11.6263  13.8642
    14.7926

          k =-0.3433-0.0000 0.9639 (  2209 PWs)   bands (ev):

   -37.2352 -36.9918   1.0925   5.4017   7.7634  10.5327  11.0052  13.6696
    15.2689

          k = 1.0298 0.7928 0.1071 (  2206 PWs)   bands (ev):

   -37.2232 -37.0033   1.5230   4.6526   7.0567   9.7196  12.4437  13.2714
    16.7896

          k = 0.8582 0.6937 0.2142 (  2203 PWs)   bands (ev):

   -37.2341 -36.9957   1.1619   5.2194   6.3114   9.2443  13.0383  14.5087
    18.4612

          k = 0.6865 0.5946 0.3213 (  2202 PWs)   bands (ev):

   -37.2596 -36.9756   0.4797   5.6960   6.7534   9.0924  12.9645  16.8420
    19.9210

          k =-0.3433 0.1982 1.0710 (  2212 PWs)   bands (ev):

   -37.2105 -37.0127   1.8404   5.5826   6.0435   9.9352  11.0123  14.1512
    14.7350

          k = 1.0298 0.9909 0.2142 (  2212 PWs)   bands (ev):

   -37.2002 -37.0227   2.3735   4.8261   5.6198   9.2908  11.6888  13.9027
    16.1515

          k = 0.8582 0.8918 0.3213 (  2203 PWs)   bands (ev):

   -37.2130 -37.0131   1.9037   4.9180   5.6604   8.9133  12.9457  13.7875
    18.2098

          k = 0.6865 0.7928 0.4284 (  2197 PWs)   bands (ev):

   -37.2388 -36.9928   1.1046   4.6358   6.8643   8.9535  13.4362  15.0216
    20.2206

          k = 1.0298-0.5946-0.6426 (  2214 PWs)   bands (ev):

   -37.1950 -37.0277   2.7076   4.6469   5.3311   8.6860  11.5976  15.0619
    16.0777

          k = 0.8582-0.6937-0.5355 (  2200 PWs)   bands (ev):

   -37.2123 -37.0138   1.9246   4.9142   5.8542   8.4332  12.2205  15.1055
    17.8697

          k = 0.8582-0.4955-0.4284 (  2202 PWs)   bands (ev):

   -37.2327 -36.9970   1.1929   5.7354   6.1718   8.1919  12.2252  16.6013
    18.0422

          k = 0.0000 0.0000 0.9639 (  2222 PWs)   bands (ev):

   -37.2374 -36.9880   0.9209   7.5659   7.5659   9.1860  11.6500  11.6500
    14.3388

          k =-0.1716-0.0991 1.0710 (  2208 PWs)   bands (ev):

   -37.2121 -37.0094   1.6004   6.0816   8.4305   8.4388  10.4092  12.1653
    14.3665

          k = 1.2015 0.6937 0.2142 (  2210 PWs)   bands (ev):

   -37.1987 -37.0225   2.1795   4.9629   7.5767   8.0001  11.6609  12.2947
    15.4254

          k = 1.0298 0.5946 0.3213 (  2205 PWs)   bands (ev):

   -37.2080 -37.0163   1.9278   5.1659   6.4978   7.8452  12.2462  13.9119
    16.9243

          k =-0.1716 0.0991 1.1781 (  2213 PWs)   bands (ev):

   -37.1875 -37.0304   2.3181   6.4595   6.5769   8.6787  10.0624  11.7323
    14.0982

          k = 1.2015 0.8918 0.3213 (  2214 PWs)   bands (ev):

   -37.1755 -37.0421   3.0330   5.0053   6.4683   8.0004  11.0560  12.0257
    14.7728

          k = 1.0298 0.7928 0.4284 (  2205 PWs)   bands (ev):

   -37.1873 -37.0336   2.7927   4.7813   6.0158   7.7379  12.1485  12.9279
    16.3000

          k = 1.2015-0.6937-0.5355 (  2210 PWs)   bands (ev):

   -37.1697 -37.0478   3.6943   4.3289   6.2157   7.6423  11.2095  12.4901
    14.9848

          k = 0.0000-0.0000 1.2852 (  2238 PWs)   bands (ev):

   -37.1635 -37.0508   2.9870   6.0950   7.6998   7.6998   9.9583   9.9583
    13.7508

          k = 1.3731 0.7928 0.4284 (  2224 PWs)   bands (ev):

   -37.1540 -37.0602   3.7322   4.9145   7.3428   7.3651  10.4254  10.5885
    14.0122

     the Fermi energy is     9.3078 ev

!    total energy              =     -37.11065460 Ry
     estimated scf accuracy    <          2.1E-12 Ry
     smearing contrib. (-TS)   =       0.00013298 Ry
     internal energy E=F+TS    =     -37.11078758 Ry

     The total energy is F=E-TS. E is the sum of the following terms:
     one-electron contribution =      -8.17129708 Ry
     hartree contribution      =       5.84218926 Ry
     xc contribution           =     -10.27006490 Ry
     ewald contribution        =     -24.51161486 Ry

     convergence has been achieved in   7 iterations

     Forces acting on atoms (cartesian axes, Ry/au):

     atom    1 type  1   force =     0.00000000   -0.00000000   -0.00010896
     atom    2 type  1   force =    -0.00000000    0.00000000    0.00000874
     atom    3 type  2   force =     0.00000000    0.00000000    0.00010021
     The non-local contrib.  to forces
     atom    1 type  1   force =    -0.00000000    0.00000000    0.07152745
     atom    2 type  1   force =     0.00000000    0.00000000   -0.07153487
     atom    3 type  2   force =     0.00000000    0.00000000    0.00010182
     The ionic contribution  to forces
     atom    1 type  1   force =     0.00000000    0.00000000   -0.15459794
     atom    2 type  1   force =     0.00000000    0.00000000    0.15415468
     atom    3 type  2   force =     0.00000000   -0.00000000    0.00044326
     The local contribution  to forces
     atom    1 type  1   force =     0.00000000    0.00000000    0.08296132
     atom    2 type  1   force =     0.00000000    0.00000000   -0.08261091
     atom    3 type  2   force =    -0.00000000    0.00000000   -0.00043828
     The core correction contribution to forces
     atom    1 type  1   force =     0.00000000    0.00000000    0.00000000
     atom    2 type  1   force =     0.00000000    0.00000000    0.00000000
     atom    3 type  2   force =    -0.00000000    0.00000000   -0.00000664
     The Hubbard contrib.    to forces
     atom    1 type  1   force =     0.00000000    0.00000000    0.00000000
     atom    2 type  1   force =     0.00000000    0.00000000    0.00000000
     atom    3 type  2   force =     0.00000000    0.00000000    0.00000000
     The SCF correction term to forces
     atom    1 type  1   force =     0.00000000   -0.00000000    0.00000016
     atom    2 type  1   force =    -0.00000000    0.00000000   -0.00000020
     atom    3 type  2   force =     0.00000000    0.00000000    0.00000002

     Total force =     0.000148     Total SCF correction =     0.000000


     Computing stress (Cartesian axis) and pressure

          total   stress  (Ry/bohr**3)                   (kbar)     P=      499.71
   0.00339846   0.00000000   0.00000000          499.93        0.00        0.00
  -0.00000000   0.00339846   0.00000000           -0.00      499.93        0.00
   0.00000000   0.00000000   0.00339387            0.00        0.00      499.26


     Writing all to output data dir ./output/LiSi.save/

     init_run     :      3.08s CPU      4.55s WALL (       2 calls)
     electrons    :    340.89s CPU    385.86s WALL (      22 calls)
     update_pot   :     26.54s CPU     26.81s WALL (      20 calls)
     forces       :     17.76s CPU     18.14s WALL (      22 calls)
     stress       :     71.73s CPU     74.72s WALL (      22 calls)

     Called by init_run:
     wfcinit      :      1.06s CPU      2.30s WALL (       2 calls)
     potinit      :      0.75s CPU      0.84s WALL (       2 calls)
     hinit0       :      0.93s CPU      1.00s WALL (       2 calls)

     Called by electrons:
     c_bands      :    293.59s CPU    330.27s WALL (     155 calls)
     sum_band     :     43.74s CPU     49.03s WALL (     155 calls)
     v_of_rho     :      3.67s CPU      4.53s WALL (     172 calls)
     mix_rho      :      0.22s CPU      0.43s WALL (     155 calls)

     Called by c_bands:
     init_us_2    :     13.49s CPU     14.84s WALL (   30260 calls)
     init_us_2:cp :     13.44s CPU     14.81s WALL (   30260 calls)
     cegterg      :    272.73s CPU    302.79s WALL (   13175 calls)

     Called by *egterg:
     cdiaghg      :      5.03s CPU      5.75s WALL (   51697 calls)
     h_psi        :    245.02s CPU    274.45s WALL (   53992 calls)
     g_psi        :      1.60s CPU      1.65s WALL (   40647 calls)

     Called by h_psi:
     h_psi:calbec :     10.79s CPU     12.05s WALL (   53992 calls)
     vloc_psi     :    225.23s CPU    252.78s WALL (   53992 calls)
     add_vuspsi   :      8.07s CPU      8.64s WALL (   53992 calls)

     General routines
     calbec       :     13.06s CPU     14.37s WALL (   63342 calls)
     fft          :      2.08s CPU      3.01s WALL (    2273 calls)
     ffts         :      0.10s CPU      0.16s WALL (     155 calls)
     fftw         :    227.61s CPU    255.93s WALL (  831787 calls)

     Parallel routines

     PWSCF        :   7m40.48s CPU   8m31.74s WALL


   This run was terminated on:  19:42:42  26Dec2024            

=------------------------------------------------------------------------------=
   JOB DONE.
=------------------------------------------------------------------------------=
