
     Program PWSCF v.7.2 starts on 27Dec2024 at 15:28:30 

     This program is part of the open-source Quantum ESPRESSO suite
     for quantum simulation of materials; please cite
         "P. Giannozzi et al., J. Phys.:Condens. Matter 21 395502 (2009);
         "P. Giannozzi et al., J. Phys.:Condens. Matter 29 465901 (2017);
         "P. Giannozzi et al., J. Chem. Phys. 152 154105 (2020);
          URL http://www.quantum-espresso.org", 
     in publications or presentations arising from this work. More details at
     http://www.quantum-espresso.org/quote

     Parallel version (MPI & OpenMP), running on       8 processor cores
     Number of MPI processes:                 8
     Threads/MPI process:                     1

     MPI processes distributed on     1 nodes
     482067 MiB available memory on the printing compute node when the environment starts

     Waiting for input...
     Reading input from standard input

     Current dimensions of program PWSCF are:
     Max number of different atomic species (ntypx) = 10
     Max number of k-points (npk) =  40000
     Max angular momentum in pseudopotentials (lmaxx) =  4

     R & G space division:  proc/nbgrp/npool/nimage =       8
     Subspace diagonalization in iterative solution of the eigenvalue problem:
     a serial algorithm will be used


     Parallelization info
     --------------------
     sticks:   dense  smooth     PW     G-vecs:    dense   smooth      PW
     Min         364     364    106                11379    11379    1822
     Max         365     365    107                11380    11380    1825
     Sum        2915    2915    855                91037    91037   14593

     Using Slab Decomposition



     bravais-lattice index     =            7
     lattice parameter (alat)  =      13.4865  a.u.
     unit-cell volume          =     942.1178 (a.u.)^3
     number of atoms/cell      =            6
     number of atomic types    =            2
     number of electrons       =        20.00
     number of Kohn-Sham states=           14
     kinetic-energy cutoff     =      80.0000  Ry
     charge density cutoff     =     320.0000  Ry
     scf convergence threshold =      1.0E-08
     mixing beta               =       0.7000
     number of iterations used =            8  plain     mixing
     energy convergence thresh.=      1.0E-04
     force convergence thresh. =      1.0E-03
     press convergence thresh. =      1.0E+00
     Exchange-correlation= PBE
                           (   1   4   3   4   0   0   0)
     nstep                     =           50


     celldm(1)=  13.486467  celldm(2)=   0.000000  celldm(3)=   0.768140
     celldm(4)=   0.000000  celldm(5)=   0.000000  celldm(6)=   0.000000

     crystal axes: (cart. coord. in units of alat)
               a(1) = (   0.500000  -0.500000   0.384070 )  
               a(2) = (   0.500000   0.500000   0.384070 )  
               a(3) = (  -0.500000  -0.500000   0.384070 )  

     reciprocal axes: (cart. coord. in units 2 pi/alat)
               b(1) = (  1.000000 -1.000000  0.000000 )  
               b(2) = (  0.000000  1.000000  1.301845 )  
               b(3) = ( -1.000000  0.000000  1.301845 )  


     PseudoPot. # 1 for Li read from file:
     ../pseudo/Li_ONCV_PBE_sr.upf
     MD5 check sum: 50ff420e78310ffa21704f3361e624a4
     Pseudo is Norm-conserving, Zval =  3.0
     Generated using ONCVPSP code by D. R. Hamann
     Using radial grid of 1944 points,  4 beta functions with: 
                l(1) =   0
                l(2) =   0
                l(3) =   1
                l(4) =   1

     PseudoPot. # 2 for Si read from file:
     ../pseudo/Si_ONCV_PBE_sr.upf
     MD5 check sum: e543d271109d17c80368dfa7c482276d
     Pseudo is Norm-conserving + core correction, Zval =  4.0
     Generated using ONCVPSP code by D. R. Hamann
     Using radial grid of 1510 points,  6 beta functions with: 
                l(1) =   0
                l(2) =   0
                l(3) =   1
                l(4) =   1
                l(5) =   2
                l(6) =   2

     atomic species   valence    mass     pseudopotential
        Li             3.00     6.94100     Li( 1.00)
        Si             4.00    28.08550     Si( 1.00)

      8 Sym. Ops. (no inversion) found ( 4 have fractional translation)



   Cartesian axes

     site n.     atom                  positions (alat units)
         1           Li  tau(   1) = (   0.0494805   0.2500000   0.0960176  )
         2           Li  tau(   2) = (   0.2500000   0.9505195   0.6721229  )
         3           Li  tau(   3) = (   0.9505195   0.7500000   0.0960176  )
         4           Li  tau(   4) = (   0.7500000   0.0494805   0.6721229  )
         5           Si  tau(   5) = (   0.0000000   0.0000000   0.3840702  )
         6           Si  tau(   6) = (   0.0000000   0.5000000   0.5761054  )

     number of k points=    38  Marzari-Vanderbilt smearing, width (Ry)=  0.0200
                       cart. coord. in units 2pi/alat
        k(    1) = (   0.0000000   0.0000000   0.0000000), wk =   0.0208333
        k(    2) = (  -0.1666667   0.0000000   0.2169742), wk =   0.0416667
        k(    3) = (  -0.3333333   0.0000000   0.4339484), wk =   0.0416667
        k(    4) = (   0.5000000   0.0000000  -0.6509226), wk =   0.0833333
        k(    5) = (   0.0000000   0.2500000   0.3254613), wk =   0.0833333
        k(    6) = (  -0.1666667   0.2500000   0.5424355), wk =   0.0416667
        k(    7) = (  -0.3333333   0.2500000   0.7594097), wk =   0.0416667
        k(    8) = (   0.5000000   0.2500000  -0.3254613), wk =   0.1666667
        k(    9) = (   0.3333333   0.2500000  -0.1084871), wk =   0.0416667
        k(   10) = (   0.1666667   0.2500000   0.1084871), wk =   0.0416667
        k(   11) = (  -0.1666667  -0.5000000  -0.4339484), wk =   0.0833333
        k(   12) = (  -0.3333333  -0.5000000  -0.2169742), wk =   0.0833333
        k(   13) = (   0.5000000  -0.5000000  -1.3018452), wk =   0.0416667
        k(   14) = (   0.2500000  -0.2500000   0.0000000), wk =   0.0416667
        k(   15) = (   0.0833333  -0.2500000   0.2169742), wk =   0.0416667
        k(   16) = (  -0.0833333  -0.2500000   0.4339484), wk =   0.0416667
        k(   17) = (   0.7500000  -0.2500000  -0.6509226), wk =   0.0833333
        k(   18) = (   0.5833333  -0.2500000  -0.4339484), wk =   0.0416667
        k(   19) = (   0.4166667  -0.2500000  -0.2169742), wk =   0.0416667
        k(   20) = (   0.0833333   0.0000000   0.5424355), wk =   0.0416667
        k(   21) = (  -0.0833333   0.0000000   0.7594097), wk =   0.0416667
        k(   22) = (   0.7500000   0.0000000  -0.3254613), wk =   0.0833333
        k(   23) = (   0.5833333   0.0000000  -0.1084871), wk =   0.0416667
        k(   24) = (   0.4166667   0.0000000   0.1084871), wk =   0.0416667
        k(   25) = (   0.0833333  -0.7500000  -0.4339484), wk =   0.0416667
        k(   26) = (  -0.0833333  -0.7500000  -0.2169742), wk =   0.0416667
        k(   27) = (   0.7500000  -0.7500000  -1.3018452), wk =   0.0416667
        k(   28) = (   0.5833333  -0.7500000  -1.0848710), wk =   0.0416667
        k(   29) = (   0.4166667  -0.7500000  -0.8678968), wk =   0.0416667
        k(   30) = (   0.0833333  -0.5000000  -0.1084871), wk =   0.0833333
        k(   31) = (   0.5833333  -0.5000000  -0.7594097), wk =   0.0833333
        k(   32) = (  -0.6666667   0.7500000   0.5424355), wk =   0.0416667
        k(   33) = (  -0.8333333   0.7500000   0.7594097), wk =   0.0416667
        k(   34) = (  -0.1666667   0.7500000  -0.1084871), wk =   0.0416667
        k(   35) = (  -0.3333333   0.7500000   0.1084871), wk =   0.0416667
        k(   36) = (  -0.6666667   0.0000000  -0.4339484), wk =   0.0416667
        k(   37) = (  -0.8333333   0.0000000  -0.2169742), wk =   0.0416667
        k(   38) = (   0.0000000   0.0000000  -1.3018452), wk =   0.0208333

     Dense  grid:    91037 G-vectors     FFT dimensions: (  64,  64,  64)

     Estimated max dynamical RAM per process >      33.42 MB

     Estimated total dynamical RAM >     267.33 MB

     Initial potential from superposition of free atoms

     starting charge      19.9805, renormalised to      20.0000
     Starting wfcs are   16 randomized atomic wfcs

     total cpu time spent up to now is        4.4 secs

     Self-consistent Calculation

     iteration #  1     ecut=    80.00 Ry     beta= 0.70
     Davidson diagonalization with overlap
     ethr =  1.00E-02,  avg # of iterations =  5.1

     Threshold (ethr) on eigenvalues was too large:
     Diagonalizing with lowered threshold

     Davidson diagonalization with overlap
     ethr =  1.98E-04,  avg # of iterations =  5.7

     total cpu time spent up to now is        8.2 secs

     total energy              =     -74.40333228 Ry
     estimated scf accuracy    <       0.03194416 Ry

     iteration #  2     ecut=    80.00 Ry     beta= 0.70
     Davidson diagonalization with overlap
     ethr =  1.60E-04,  avg # of iterations =  2.2

     total cpu time spent up to now is        9.7 secs

     total energy              =     -74.40568537 Ry
     estimated scf accuracy    <       0.00201816 Ry

     iteration #  3     ecut=    80.00 Ry     beta= 0.70
     Davidson diagonalization with overlap
     ethr =  1.01E-05,  avg # of iterations =  5.3

     total cpu time spent up to now is       11.5 secs

     total energy              =     -74.40603234 Ry
     estimated scf accuracy    <       0.00019209 Ry

     iteration #  4     ecut=    80.00 Ry     beta= 0.70
     Davidson diagonalization with overlap
     ethr =  9.60E-07,  avg # of iterations =  3.9

     total cpu time spent up to now is       13.1 secs

     total energy              =     -74.40605884 Ry
     estimated scf accuracy    <       0.00000394 Ry

     iteration #  5     ecut=    80.00 Ry     beta= 0.70
     Davidson diagonalization with overlap
     ethr =  1.97E-08,  avg # of iterations =  3.9

     total cpu time spent up to now is       14.8 secs

     total energy              =     -74.40606031 Ry
     estimated scf accuracy    <       0.00000063 Ry

     iteration #  6     ecut=    80.00 Ry     beta= 0.70
     Davidson diagonalization with overlap
     ethr =  3.15E-09,  avg # of iterations =  2.3

     total cpu time spent up to now is       16.3 secs

     total energy              =     -74.40606048 Ry
     estimated scf accuracy    <       0.00000017 Ry

     iteration #  7     ecut=    80.00 Ry     beta= 0.70
     Davidson diagonalization with overlap
     ethr =  8.27E-10,  avg # of iterations =  2.0

     total cpu time spent up to now is       17.7 secs

     End of self-consistent calculation

          k = 0.0000 0.0000 0.0000 ( 11447 PWs)   bands (ev):

   -44.9578 -44.9470 -44.9470 -44.9380  -5.7164  -3.8311   0.8105   0.8105
     0.9808   1.7461   2.4469   2.4469   2.8145   2.9284

          k =-0.1667 0.0000 0.2170 ( 11406 PWs)   bands (ev):

   -44.9571 -44.9470 -44.9470 -44.9386  -5.6153  -3.9145   0.3834   0.5529
     0.9682   1.0949   2.3723   2.4474   3.3750   3.7120

          k =-0.3333 0.0000 0.4339 ( 11398 PWs)   bands (ev):

   -44.9555 -44.9472 -44.9470 -44.9399  -5.3586  -4.1341  -0.3578   0.2060
     0.3272   1.4305   2.2183   2.4786   4.2013   4.6001

          k = 0.5000 0.0000-0.6509 ( 11382 PWs)   bands (ev):

   -44.9546 -44.9474 -44.9471 -44.9407  -5.1723  -4.3017  -0.6632   0.0824
     0.0965   1.7760   2.0510   2.3426   4.3918   5.2245

          k = 0.0000 0.2500 0.3255 ( 11397 PWs)   bands (ev):

   -44.9563 -44.9471 -44.9470 -44.9393  -5.4989  -4.0125  -0.0129   0.3614
     0.6038   1.2299   2.3064   2.4843   3.8682   4.2054

          k =-0.1667 0.2500 0.5424 ( 11391 PWs)   bands (ev):

   -44.9551 -44.9483 -44.9460 -44.9403  -5.2988  -4.1571  -0.5883   0.1454
     0.4628   0.9411   2.4504   2.6575   4.2839   4.5185

          k =-0.3333 0.2500 0.7594 ( 11375 PWs)   bands (ev):

   -44.9538 -44.9497 -44.9449 -44.9414  -5.0706  -4.4412  -0.7981   0.0233
     0.5549   1.0641   2.6301   2.7799   4.4653   4.5464

          k = 0.5000 0.2500-0.3255 ( 11381 PWs)   bands (ev):

   -44.9540 -44.9500 -44.9446 -44.9411  -5.1363  -4.4955  -0.4123   0.2674
     0.5773   1.5702   2.2419   2.6934   3.9698   4.4633

          k = 0.3333 0.2500-0.1085 ( 11404 PWs)   bands (ev):

   -44.9556 -44.9490 -44.9453 -44.9399  -5.4042  -4.2886   0.3398   0.6293
     0.8836   1.5882   1.7522   2.7886   3.1433   3.9677

          k = 0.1667 0.2500 0.1085 ( 11388 PWs)   bands (ev):

   -44.9565 -44.9480 -44.9461 -44.9391  -5.5454  -4.0840   0.4284   0.6383
     1.0623   1.4170   1.9458   2.7387   3.1231   3.8619

          k =-0.1667-0.5000-0.4339 ( 11383 PWs)   bands (ev):

   -44.9543 -44.9491 -44.9455 -44.9409  -5.1612  -4.3893  -0.5874   0.1610
     0.3508   1.6510   2.2631   2.5201   4.4295   4.5376

          k =-0.3333-0.5000-0.2170 ( 11391 PWs)   bands (ev):

   -44.9536 -44.9508 -44.9438 -44.9415  -5.0872  -4.6291  -0.1145   0.4088
     0.7803   1.4734   2.1526   2.6433   3.5568   4.0239

          k = 0.5000-0.5000-1.3018 ( 11376 PWs)   bands (ev):

   -44.9524 -44.9524 -44.9425 -44.9425  -4.9013  -4.9013   0.6251   0.6251
     0.9048   0.9048   2.3559   2.3559   3.2038   3.2038

          k = 0.2500-0.2500 0.0000 ( 11377 PWs)   bands (ev):

   -44.9562 -44.9485 -44.9457 -44.9393  -5.4974  -4.1777   0.5560   0.6245
     1.1295   1.5363   1.6534   2.7784   2.9639   4.0224

          k = 0.0833-0.2500 0.2170 ( 11393 PWs)   bands (ev):

   -44.9566 -44.9476 -44.9465 -44.9390  -5.5452  -4.0239   0.2429   0.4902
     0.8415   1.3448   2.2431   2.5228   3.6345   3.7998

          k =-0.0833-0.2500 0.4339 ( 11403 PWs)   bands (ev):

   -44.9558 -44.9477 -44.9465 -44.9397  -5.4130  -4.0578  -0.3193   0.3398
     0.3807   1.0776   2.3076   2.5963   4.0640   4.4508

          k = 0.7500-0.2500-0.6509 ( 11376 PWs)   bands (ev):

   -44.9544 -44.9490 -44.9454 -44.9409  -5.1745  -4.2959  -0.7618   0.0347
     0.5516   0.9094   2.5969   2.7328   4.4518   4.4748

          k = 0.5833-0.2500-0.4339 ( 11378 PWs)   bands (ev):

   -44.9536 -44.9501 -44.9446 -44.9415  -5.0457  -4.5252  -0.6787   0.1049
     0.5462   1.3161   2.5432   2.7010   4.3490   4.6176

          k = 0.4167-0.2500-0.2170 ( 11392 PWs)   bands (ev):

   -44.9548 -44.9495 -44.9449 -44.9405  -5.2756  -4.4013  -0.0400   0.4822
     0.6662   1.7066   1.9197   2.7279   3.5453   4.1169

          k = 0.0833 0.0000 0.5424 ( 11382 PWs)   bands (ev):

   -44.9556 -44.9471 -44.9470 -44.9400  -5.4105  -3.9610  -0.3275   0.1934
     0.3088   0.4497   2.5460   2.6411   3.8000   5.2393

          k =-0.0833 0.0000 0.7594 ( 11382 PWs)   bands (ev):

   -44.9538 -44.9471 -44.9471 -44.9417  -5.2072  -4.1583  -0.5231  -0.1848
    -0.0538   0.6067   2.8466   2.9289   4.2668   4.9724

          k = 0.7500 0.0000-0.3255 ( 11363 PWs)   bands (ev):

   -44.9525 -44.9474 -44.9471 -44.9427  -5.0357  -4.4582  -0.5274  -0.3761
     0.3681   0.9392   2.8462   3.0434   3.7500   5.3197

          k = 0.5833 0.0000-0.1085 ( 11391 PWs)   bands (ev):

   -44.9536 -44.9474 -44.9471 -44.9416  -5.1775  -4.4538  -0.2927   0.0226
     0.8446   1.4331   2.2668   2.9630   3.3489   3.9189

          k = 0.4167 0.0000 0.1085 ( 11394 PWs)   bands (ev):

   -44.9555 -44.9472 -44.9470 -44.9399  -5.4135  -4.2285   0.0327   0.4111
     0.9016   1.7357   2.0903   2.6908   3.2323   3.6671

          k = 0.0833-0.7500-0.4339 ( 11364 PWs)   bands (ev):

   -44.9532 -44.9480 -44.9464 -44.9420  -5.0893  -4.3728  -0.6670  -0.1626
     0.4405   0.6242   2.7448   3.0448   4.1700   5.1863

          k =-0.0833-0.7500-0.2170 ( 11369 PWs)   bands (ev):

   -44.9519 -44.9484 -44.9463 -44.9432  -4.9773  -4.5669  -0.5048  -0.3324
     0.4524   1.1686   2.6473   3.1191   3.5982   4.7389

          k = 0.7500-0.7500-1.3018 ( 11394 PWs)   bands (ev):

   -44.9509 -44.9509 -44.9439 -44.9439  -4.8267  -4.8267  -0.2200  -0.2200
     1.0662   1.0662   2.4828   2.4828   3.9420   3.9420

          k = 0.5833-0.7500-1.0849 ( 11385 PWs)   bands (ev):

   -44.9532 -44.9502 -44.9444 -44.9418  -5.0592  -4.6125  -0.3015   0.3328
     0.7059   1.1914   2.4327   2.6930   3.6105   4.3237

          k = 0.4167-0.7500-0.8679 ( 11387 PWs)   bands (ev):

   -44.9545 -44.9497 -44.9448 -44.9408  -5.1801  -4.3924  -0.5342  -0.0127
     0.7172   1.7854   2.1122   2.5852   4.2950   4.3348

          k = 0.0833-0.5000-0.1085 ( 11390 PWs)   bands (ev):

   -44.9546 -44.9481 -44.9463 -44.9407  -5.2872  -4.3683  -0.1170   0.2534
     0.8806   1.5890   2.1458   2.7671   3.3121   3.7737

          k = 0.5833-0.5000-0.7594 ( 11393 PWs)   bands (ev):

   -44.9530 -44.9516 -44.9431 -44.9420  -4.9039  -4.6813  -0.6639  -0.4486
     1.3982   1.8590   2.1224   2.4457   4.3868   4.5984

          k =-0.6667 0.7500 0.5424 ( 11390 PWs)   bands (ev):

   -44.9546 -44.9494 -44.9451 -44.9407  -5.1912  -4.3217  -0.6695  -0.0829
     0.7323   1.3379   2.4748   2.5635   4.2144   4.3766

          k =-0.8333 0.7500 0.7594 ( 11376 PWs)   bands (ev):

   -44.9539 -44.9486 -44.9458 -44.9414  -5.1376  -4.3158  -0.7609   0.1620
     0.3134   0.6314   2.6576   2.9183   4.5180   4.8517

          k =-0.1667 0.7500-0.1085 ( 11370 PWs)   bands (ev):

   -44.9514 -44.9496 -44.9451 -44.9436  -4.9096  -4.6933  -0.4257  -0.2557
     0.7245   1.2029   2.4632   2.9135   3.7393   4.2528

          k =-0.3333 0.7500 0.1085 ( 11375 PWs)   bands (ev):

   -44.9522 -44.9506 -44.9442 -44.9428  -4.9531  -4.7265  -0.2284   0.0633
     0.9561   1.1497   2.3266   2.5780   3.6945   4.1198

          k =-0.6667 0.0000-0.4339 ( 11369 PWs)   bands (ev):

   -44.9536 -44.9474 -44.9471 -44.9416  -5.1087  -4.3781  -0.6131  -0.1829
     0.5161   0.8215   2.5505   2.9304   4.3182   4.9407

          k =-0.8333 0.0000-0.2170 ( 11363 PWs)   bands (ev):

   -44.9511 -44.9474 -44.9471 -44.9441  -4.9450  -4.5503  -0.5354  -0.5104
     0.2258   1.2544   2.7747   3.2591   3.5266   4.8066

          k = 0.0000 0.0000-1.3018 ( 11310 PWs)   bands (ev):

   -44.9477 -44.9477 -44.9472 -44.9472  -4.7453  -4.7453  -0.6723  -0.6723
     0.8077   0.8077   3.4894   3.4894   3.4902   3.4902

     the Fermi energy is     1.8453 ev

!    total energy              =     -74.40606051 Ry
     estimated scf accuracy    <          7.7E-10 Ry
     smearing contrib. (-TS)   =       0.00068575 Ry
     internal energy E=F+TS    =     -74.40674626 Ry

     The total energy is F=E-TS. E is the sum of the following terms:
     one-electron contribution =     -35.30974854 Ry
     hartree contribution      =      15.37166807 Ry
     xc contribution           =     -19.05736018 Ry
     ewald contribution        =     -35.41130561 Ry

     convergence has been achieved in   7 iterations

     Forces acting on atoms (cartesian axes, Ry/au):

     atom    1 type  1   force =     0.00973872   -0.00000000    0.00000000
     atom    2 type  1   force =     0.00000000   -0.00973872    0.00000000
     atom    3 type  1   force =    -0.00973872    0.00000000   -0.00000000
     atom    4 type  1   force =     0.00000000    0.00973872   -0.00000000
     atom    5 type  2   force =     0.00000000    0.00000000   -0.00000000
     atom    6 type  2   force =     0.00000000    0.00000000   -0.00000000
     The non-local contrib.  to forces
     atom    1 type  1   force =     0.00886638    0.00000000    0.00000000
     atom    2 type  1   force =     0.00000000   -0.00886638   -0.00000000
     atom    3 type  1   force =    -0.00886638    0.00000000    0.00000000
     atom    4 type  1   force =    -0.00000000    0.00886638    0.00000000
     atom    5 type  2   force =     0.00000000   -0.00000000    0.00000000
     atom    6 type  2   force =     0.00000000    0.00000000    0.00000000
     The ionic contribution  to forces
     atom    1 type  1   force =     0.11305126   -0.00000000    0.00000000
     atom    2 type  1   force =    -0.00000000   -0.11305126   -0.00000000
     atom    3 type  1   force =    -0.11305126   -0.00000000    0.00000000
     atom    4 type  1   force =     0.00000000    0.11305126    0.00000000
     atom    5 type  2   force =    -0.00000000   -0.00000000    0.00000000
     atom    6 type  2   force =     0.00000000    0.00000000   -0.00000000
     The local contribution  to forces
     atom    1 type  1   force =    -0.11217827    0.00000000    0.00000000
     atom    2 type  1   force =     0.00000000    0.11217827    0.00000000
     atom    3 type  1   force =     0.11217827    0.00000000   -0.00000000
     atom    4 type  1   force =     0.00000000   -0.11217827    0.00000000
     atom    5 type  2   force =     0.00000000    0.00000000    0.00000000
     atom    6 type  2   force =     0.00000000    0.00000000    0.00000000
     The core correction contribution to forces
     atom    1 type  1   force =     0.00000000    0.00000000    0.00000000
     atom    2 type  1   force =     0.00000000    0.00000000    0.00000000
     atom    3 type  1   force =     0.00000000    0.00000000    0.00000000
     atom    4 type  1   force =     0.00000000    0.00000000    0.00000000
     atom    5 type  2   force =     0.00000000    0.00000000    0.00000000
     atom    6 type  2   force =    -0.00000000   -0.00000000    0.00000000
     The Hubbard contrib.    to forces
     atom    1 type  1   force =     0.00000000    0.00000000    0.00000000
     atom    2 type  1   force =     0.00000000    0.00000000    0.00000000
     atom    3 type  1   force =     0.00000000    0.00000000    0.00000000
     atom    4 type  1   force =     0.00000000    0.00000000    0.00000000
     atom    5 type  2   force =     0.00000000    0.00000000    0.00000000
     atom    6 type  2   force =     0.00000000    0.00000000    0.00000000
     The SCF correction term to forces
     atom    1 type  1   force =    -0.00000066    0.00000000   -0.00000000
     atom    2 type  1   force =    -0.00000000    0.00000066    0.00000000
     atom    3 type  1   force =     0.00000066    0.00000000    0.00000000
     atom    4 type  1   force =    -0.00000000   -0.00000066   -0.00000000
     atom    5 type  2   force =    -0.00000000   -0.00000000   -0.00000000
     atom    6 type  2   force =    -0.00000000    0.00000000    0.00000000

     Total force =     0.019477     Total SCF correction =     0.000001


     Computing stress (Cartesian axis) and pressure

          total   stress  (Ry/bohr**3)                   (kbar)     P=      -52.42
  -0.00032650  -0.00000000  -0.00000000          -48.03       -0.00       -0.00
  -0.00000000  -0.00032650   0.00000000           -0.00      -48.03        0.00
  -0.00000000   0.00000000  -0.00041609           -0.00        0.00      -61.21


     BFGS Geometry Optimization
     Energy error            =      0.0E+00 Ry
     Gradient error          =      9.7E-03 Ry/Bohr
     Cell gradient error     =      5.6E+02 kbar

     number of scf cycles    =   1
     number of bfgs steps    =   0

     enthalpy           new  =     -71.2038671661 Ry

     new trust radius        =       0.5000000000 bohr
ibrav =      7
 celldm(1) =     12.41379901
 celldm(3) =      0.76654431
Input lattice vectors:
     0.46023170    -0.46023170     0.35278799
     0.46023170     0.46023170     0.35278799
    -0.46023170    -0.46023170     0.35278799
New lattice vectors in INITIAL alat:
     0.46023170    -0.46023170     0.35278799
     0.46023170     0.46023170     0.35278799
    -0.46023170    -0.46023170     0.35278799
New lattice vectors in NEW alat (for information only):
     0.50000000    -0.50000000     0.38327215
     0.50000000     0.50000000     0.38327215
    -0.50000000    -0.50000000     0.38327215
Discrepancy in bohr =     0.000000    0.000000    0.000000
     new conv_thr            =       0.0000000100 Ry

     new unit-cell volume =    733.19821 a.u.^3 (   108.64877 Ang^3 )
     density =      1.28282 g/cm^3

CELL_PARAMETERS (alat= 13.48646663)
   0.460231703  -0.460231703   0.352787992
   0.460231703   0.460231703   0.352787992
  -0.460231703  -0.460231703   0.352787992

ATOMIC_POSITIONS (crystal)
Li           -0.1999028287        0.3750000000        0.0749028287
Li           -0.6999028287        1.8249028287        0.6250000000
Li            0.1999028287        0.8750000000       -0.8249028287
Li            0.6999028287        0.9250971713        0.1250000000
Si            0.0000000000        0.5000000000        0.5000000000
Si           -0.5000000000        1.2500000000        0.7500000000



     Writing config-only to output data dir ./output/LiSi.save/
     NEW-OLD atomic charge density approx. for the potential
     extrapolated charge   14.30669, renormalised to   20.00000

     total cpu time spent up to now is       22.4 secs

     Self-consistent Calculation

     iteration #  1     ecut=    80.00 Ry     beta= 0.70
     Davidson diagonalization with overlap
     c_bands:  1 eigenvalues not converged
     c_bands:  1 eigenvalues not converged
     c_bands:  1 eigenvalues not converged
     ethr =  1.00E-06,  avg # of iterations = 13.2

     total cpu time spent up to now is       27.1 secs

     total energy              =     -74.21908004 Ry
     estimated scf accuracy    <       0.16271660 Ry

     iteration #  2     ecut=    80.00 Ry     beta= 0.70
     Davidson diagonalization with overlap
     ethr =  8.14E-04,  avg # of iterations =  2.1

     total cpu time spent up to now is       28.8 secs

     total energy              =     -74.46033635 Ry
     estimated scf accuracy    <       0.02942046 Ry

     iteration #  3     ecut=    80.00 Ry     beta= 0.70
     Davidson diagonalization with overlap
     ethr =  1.47E-04,  avg # of iterations =  1.4

     total cpu time spent up to now is       30.1 secs

     total energy              =     -74.46000684 Ry
     estimated scf accuracy    <       0.00451440 Ry

     iteration #  4     ecut=    80.00 Ry     beta= 0.70
     Davidson diagonalization with overlap
     ethr =  2.26E-05,  avg # of iterations =  3.7

     total cpu time spent up to now is       31.5 secs

     total energy              =     -74.46013739 Ry
     estimated scf accuracy    <       0.00038366 Ry

     iteration #  5     ecut=    80.00 Ry     beta= 0.70
     Davidson diagonalization with overlap
     ethr =  1.92E-06,  avg # of iterations =  4.3

     total cpu time spent up to now is       33.3 secs

     total energy              =     -74.46021369 Ry
     estimated scf accuracy    <       0.00001329 Ry

     iteration #  6     ecut=    80.00 Ry     beta= 0.70
     Davidson diagonalization with overlap
     ethr =  6.64E-08,  avg # of iterations =  2.4

     total cpu time spent up to now is       34.8 secs

     total energy              =     -74.46021671 Ry
     estimated scf accuracy    <       0.00000025 Ry

     iteration #  7     ecut=    80.00 Ry     beta= 0.70
     Davidson diagonalization with overlap
     ethr =  1.25E-09,  avg # of iterations =  3.8

     total cpu time spent up to now is       36.5 secs

     total energy              =     -74.46021682 Ry
     estimated scf accuracy    <       0.00000003 Ry

     iteration #  8     ecut=    80.00 Ry     beta= 0.70
     Davidson diagonalization with overlap
     ethr =  1.29E-10,  avg # of iterations =  2.1

     total cpu time spent up to now is       37.9 secs

     End of self-consistent calculation

          k = 0.0000 0.0000 0.0000 ( 11447 PWs)   bands (ev):

   -43.2293 -43.2017 -43.2017 -43.1802  -5.0546  -2.2165   1.8700   1.8700
     2.1434   3.1418   3.8500   3.8500   4.0864   4.1381

          k =-0.1811 0.0000 0.2362 ( 11406 PWs)   bands (ev):

   -43.2276 -43.2019 -43.2018 -43.1817  -4.9217  -2.3575   1.4613   1.5173
     2.1455   2.2694   3.7650   3.9894   4.6594   5.3872

          k =-0.3621 0.0000 0.4724 ( 11398 PWs)   bands (ev):

   -43.2235 -43.2026 -43.2020 -43.1848  -4.5754  -2.7315   0.6941   1.0543
     1.3399   2.7238   3.6247   4.1279   5.8053   6.4257

          k = 0.5432-0.0000-0.7086 ( 11382 PWs)   bands (ev):

   -43.2211 -43.2032 -43.2021 -43.1865  -4.3140  -3.0168   0.3764   0.8945
     1.0634   3.1836   3.4338   3.9435   6.2053   7.3491

          k =-0.0000 0.2716 0.3543 ( 11397 PWs)   bands (ev):

   -43.2257 -43.2022 -43.2019 -43.1832  -4.7664  -2.5241   1.0590   1.2554
     1.6752   2.4643   3.7019   4.1040   5.2836   6.0946

          k =-0.1811 0.2716 0.5905 ( 11391 PWs)   bands (ev):

   -43.2225 -43.2052 -43.1995 -43.1857  -4.4925  -2.7681   0.3372   1.1195
     1.4884   2.0855   3.9264   4.3215   5.9158   6.4852

          k =-0.3621 0.2716 0.8267 ( 11375 PWs)   bands (ev):

   -43.2190 -43.2087 -43.1968 -43.1883  -4.1689  -3.2388   0.0564   0.9914
     1.7148   2.2652   4.1662   4.5463   6.1698   6.4325

          k = 0.5432 0.2716-0.3543 ( 11381 PWs)   bands (ev):

   -43.2197 -43.2094 -43.1961 -43.1877  -4.2672  -3.3250   0.5031   1.2770
     1.7640   2.9628   3.8314   4.3008   5.5574   6.2102

          k = 0.3621 0.2716-0.1181 ( 11404 PWs)   bands (ev):

   -43.2237 -43.2070 -43.1976 -43.1846  -4.6384  -3.0058   1.3385   1.8128
     2.0152   3.0280   3.2648   4.2431   4.7902   5.5775

          k = 0.1811 0.2716 0.1181 ( 11388 PWs)   bands (ev):

   -43.2262 -43.2045 -43.1996 -43.1827  -4.8281  -2.6646   1.4214   1.7601
     2.2463   2.7235   3.5138   4.1877   4.6856   5.3725

          k =-0.1811-0.5432-0.4724 ( 11383 PWs)   bands (ev):

   -43.2205 -43.2072 -43.1982 -43.1871  -4.3003  -3.1550   0.3233   1.1304
     1.4269   3.0478   3.7786   4.1003   6.1284   6.3926

          k =-0.3621-0.5432-0.2362 ( 11391 PWs)   bands (ev):

   -43.2186 -43.2115 -43.1942 -43.1886  -4.2003  -3.5340   0.8581   1.4470
     2.0708   2.8820   3.7104   4.2510   5.0533   5.6760

          k = 0.5432-0.5432-1.4173 ( 11376 PWs)   bands (ev):

   -43.2155 -43.2155 -43.1910 -43.1910  -3.9383  -3.9383   1.6553   1.6553
     2.3612   2.3612   3.8485   3.8485   4.6909   4.6909

          k = 0.2716-0.2716 0.0000 ( 11377 PWs)   bands (ev):

   -43.2253 -43.2057 -43.1985 -43.1834  -4.7639  -2.8260   1.5560   1.7797
     2.3203   2.8652   3.2522   4.0997   4.6833   5.7333

          k = 0.0905-0.2716 0.2362 ( 11393 PWs)   bands (ev):

   -43.2263 -43.2033 -43.2007 -43.1826  -4.8282  -2.5527   1.2409   1.5298
     1.9804   2.6214   3.7552   4.0165   5.1005   5.4102

          k =-0.0905-0.2716 0.4724 ( 11403 PWs)   bands (ev):

   -43.2243 -43.2035 -43.2008 -43.1843  -4.6500  -2.5982   0.6841   1.2990
     1.3615   2.2628   3.7383   4.2354   5.5752   6.3968

          k = 0.8148-0.2716-0.7086 ( 11376 PWs)   bands (ev):

   -43.2206 -43.2070 -43.1981 -43.1872  -4.3173  -3.0017   0.1105   0.9988
     1.6817   2.0365   4.1078   4.4523   6.1414   6.4212

          k = 0.6337-0.2716-0.4724 ( 11378 PWs)   bands (ev):

   -43.2186 -43.2097 -43.1961 -43.1886  -4.1353  -3.3710   0.1927   1.0871
     1.7177   2.6168   4.1217   4.4012   6.0593   6.4120

          k = 0.4527-0.2716-0.2362 ( 11392 PWs)   bands (ev):

   -43.2217 -43.2083 -43.1967 -43.1862  -4.4625  -3.1811   0.9279   1.5562
     1.8462   3.1664   3.4410   4.3092   5.0730   5.7920

          k = 0.0905 0.0000 0.5905 ( 11382 PWs)   bands (ev):

   -43.2238 -43.2020 -43.2020 -43.1851  -4.6449  -2.4047   0.7138   1.0261
     1.2395   1.4834   4.1206   4.2880   5.1223   7.3500

          k =-0.0905 0.0000 0.8267 ( 11382 PWs)   bands (ev):

   -43.2192 -43.2023 -43.2022 -43.1893  -4.3555  -2.7425   0.4169   0.5856
     0.8570   1.7651   4.5176   4.6594   5.8151   6.7884

          k = 0.8148-0.0000-0.3543 ( 11363 PWs)   bands (ev):

   -43.2160 -43.2033 -43.2022 -43.1915  -4.1071  -3.2426   0.3698   0.3796
     1.4218   2.2603   4.4243   4.8001   5.5662   7.3664

          k = 0.6337-0.0000-0.1181 ( 11391 PWs)   bands (ev):

   -43.2188 -43.2032 -43.2022 -43.1888  -4.3196  -3.2360   0.4873   1.0435
     1.9969   2.8647   3.8556   4.5773   5.1132   5.6969

          k = 0.4527-0.0000 0.1181 ( 11394 PWs)   bands (ev):

   -43.2236 -43.2026 -43.2020 -43.1848  -4.6491  -2.8899   0.8753   1.5304
     2.0614   3.2603   3.7275   4.1729   4.7070   5.3879

          k = 0.0905-0.8148-0.4724 ( 11364 PWs)   bands (ev):

   -43.2177 -43.2047 -43.2006 -43.1900  -4.1874  -3.1145   0.2070   0.6668
     1.4676   1.8757   4.3051   4.8410   5.9690   7.0771

          k =-0.0905-0.8148-0.2362 ( 11369 PWs)   bands (ev):

   -43.2144 -43.2055 -43.2003 -43.1928  -4.0222  -3.4090   0.2818   0.5270
     1.5520   2.5238   4.2334   4.8599   5.4372   6.8253

          k = 0.8148-0.8148-1.4173 ( 11394 PWs)   bands (ev):

   -43.2119 -43.2119 -43.1945 -43.1945  -3.8098  -3.8098   0.6689   0.6689
     2.3168   2.3168   4.1110   4.1110   5.8488   5.8488

          k = 0.6337-0.8148-1.1811 ( 11385 PWs)   bands (ev):

   -43.2177 -43.2102 -43.1956 -43.1894  -4.1560  -3.5014   0.6126   1.3247
     1.9553   2.5157   4.0495   4.3350   5.2021   6.1360

          k = 0.4527-0.8148-0.9449 ( 11387 PWs)   bands (ev):

   -43.2209 -43.2086 -43.1967 -43.1868  -4.3293  -3.1629   0.3801   0.9623
     1.8750   3.1691   3.6897   4.1383   5.8916   6.1257

          k = 0.0905-0.5432-0.1181 ( 11390 PWs)   bands (ev):

   -43.2212 -43.2048 -43.2002 -43.1868  -4.4752  -3.1116   0.7138   1.3319
     2.0393   3.0947   3.7331   4.3197   4.8731   5.5430

          k = 0.6337-0.5432-0.8267 ( 11393 PWs)   bands (ev):

   -43.2171 -43.2136 -43.1926 -43.1897  -3.9363  -3.6098   0.2127   0.4588
     2.8224   3.3443   3.6326   3.9997   6.0712   6.2547

          k =-0.7243 0.8148 0.5905 ( 11390 PWs)   bands (ev):

   -43.2211 -43.2079 -43.1973 -43.1866  -4.3438  -3.0469   0.2275   0.8649
     1.8890   2.5897   4.0274   4.1850   5.8919   6.1843

          k =-0.9053 0.8148 0.8267 ( 11376 PWs)   bands (ev):

   -43.2194 -43.2060 -43.1991 -43.1884  -4.2608  -3.0296   0.1038   1.0566
     1.4411   1.7435   4.1982   4.6801   6.2746   6.8464

          k =-0.1811 0.8148-0.1181 ( 11370 PWs)   bands (ev):

   -43.2130 -43.2086 -43.1975 -43.1938  -3.9262  -3.6048   0.3927   0.6186
     1.8887   2.5176   4.0589   4.6521   5.6029   6.2593

          k =-0.3621 0.8148 0.1181 ( 11375 PWs)   bands (ev):

   -43.2151 -43.2110 -43.1951 -43.1918  -3.9998  -3.6673   0.6756   1.0273
     2.1648   2.4969   3.8573   4.2362   5.4555   6.0052

          k =-0.7243 0.0000-0.4724 ( 11369 PWs)   bands (ev):

   -43.2187 -43.2032 -43.2022 -43.1888  -4.2183  -3.1276   0.3447   0.5912
     1.6007   2.0728   4.0390   4.7159   6.1574   6.8112

          k =-0.9053 0.0000-0.2362 ( 11363 PWs)   bands (ev):

   -43.2124 -43.2033 -43.2023 -43.1950  -3.9672  -3.3742   0.1973   0.2964
     1.3119   2.6057   4.4011   5.0203   5.3840   6.9865

          k = 0.0000-0.0000-1.4173 ( 11310 PWs)   bands (ev):

   -43.2040 -43.2040 -43.2024 -43.2024  -3.6599  -3.6599   0.0435   0.0435
     2.0068   2.0068   5.3324   5.3324   5.4123   5.4123

     the Fermi energy is     3.3206 ev

!    total energy              =     -74.46021682 Ry
     estimated scf accuracy    <          6.7E-10 Ry
     smearing contrib. (-TS)   =       0.00043876 Ry
     internal energy E=F+TS    =     -74.46065559 Ry

     The total energy is F=E-TS. E is the sum of the following terms:
     one-electron contribution =     -30.99709012 Ry
     hartree contribution      =      14.41290096 Ry
     xc contribution           =     -19.37829248 Ry
     ewald contribution        =     -38.49817396 Ry

     convergence has been achieved in   8 iterations

     Forces acting on atoms (cartesian axes, Ry/au):

     atom    1 type  1   force =     0.01617316   -0.00000000    0.00000000
     atom    2 type  1   force =    -0.00000000   -0.01617316   -0.00000000
     atom    3 type  1   force =    -0.01617316    0.00000000   -0.00000000
     atom    4 type  1   force =     0.00000000    0.01617316    0.00000000
     atom    5 type  2   force =    -0.00000000    0.00000000    0.00000000
     atom    6 type  2   force =    -0.00000000   -0.00000000   -0.00000000
     The non-local contrib.  to forces
     atom    1 type  1   force =     0.01091355    0.00000000    0.00000000
     atom    2 type  1   force =     0.00000000   -0.01091355    0.00000000
     atom    3 type  1   force =    -0.01091355    0.00000000    0.00000000
     atom    4 type  1   force =     0.00000000    0.01091355   -0.00000000
     atom    5 type  2   force =     0.00000000   -0.00000000   -0.00000000
     atom    6 type  2   force =     0.00000000   -0.00000000   -0.00000000
     The ionic contribution  to forces
     atom    1 type  1   force =     0.13504363    0.00000000    0.00000000
     atom    2 type  1   force =     0.00000000   -0.13504363   -0.00000000
     atom    3 type  1   force =    -0.13504363   -0.00000000   -0.00000000
     atom    4 type  1   force =     0.00000000    0.13504363    0.00000000
     atom    5 type  2   force =    -0.00000000   -0.00000000   -0.00000000
     atom    6 type  2   force =     0.00000000    0.00000000    0.00000000
     The local contribution  to forces
     atom    1 type  1   force =    -0.12978369    0.00000000   -0.00000000
     atom    2 type  1   force =     0.00000000    0.12978369   -0.00000000
     atom    3 type  1   force =     0.12978369    0.00000000   -0.00000000
     atom    4 type  1   force =     0.00000000   -0.12978369   -0.00000000
     atom    5 type  2   force =    -0.00000000    0.00000000   -0.00000000
     atom    6 type  2   force =     0.00000000   -0.00000000    0.00000000
     The core correction contribution to forces
     atom    1 type  1   force =     0.00000000    0.00000000    0.00000000
     atom    2 type  1   force =     0.00000000    0.00000000    0.00000000
     atom    3 type  1   force =     0.00000000    0.00000000    0.00000000
     atom    4 type  1   force =     0.00000000    0.00000000    0.00000000
     atom    5 type  2   force =    -0.00000000    0.00000000    0.00000000
     atom    6 type  2   force =    -0.00000000   -0.00000000    0.00000000
     The Hubbard contrib.    to forces
     atom    1 type  1   force =     0.00000000    0.00000000    0.00000000
     atom    2 type  1   force =     0.00000000    0.00000000    0.00000000
     atom    3 type  1   force =     0.00000000    0.00000000    0.00000000
     atom    4 type  1   force =     0.00000000    0.00000000    0.00000000
     atom    5 type  2   force =     0.00000000    0.00000000    0.00000000
     atom    6 type  2   force =     0.00000000    0.00000000    0.00000000
     The SCF correction term to forces
     atom    1 type  1   force =    -0.00000033   -0.00000000   -0.00000000
     atom    2 type  1   force =     0.00000000    0.00000033   -0.00000000
     atom    3 type  1   force =     0.00000033    0.00000000    0.00000000
     atom    4 type  1   force =    -0.00000000   -0.00000033    0.00000000
     atom    5 type  2   force =     0.00000000    0.00000000   -0.00000000
     atom    6 type  2   force =     0.00000000   -0.00000000   -0.00000000

     Total force =     0.032346     Total SCF correction =     0.000001


     Computing stress (Cartesian axis) and pressure

          total   stress  (Ry/bohr**3)                   (kbar)     P=      -14.12
  -0.00010556   0.00000000   0.00000000          -15.53        0.00        0.00
  -0.00000000  -0.00010556   0.00000000           -0.00      -15.53        0.00
  -0.00000000   0.00000000  -0.00007680           -0.00        0.00      -11.30

     Energy error            =      7.6E-01 Ry
     Gradient error          =      1.6E-02 Ry/Bohr
     Cell gradient error     =      5.2E+02 kbar

     number of scf cycles    =   2
     number of bfgs steps    =   1

     enthalpy           old  =     -71.2038671661 Ry
     enthalpy           new  =     -71.9681267603 Ry

     CASE: enthalpy          _new < enthalpy          _old

     new trust radius        =       0.7203046637 bohr
ibrav =      7
 celldm(1) =     10.76267291
 celldm(3) =      0.76761516
Input lattice vectors:
     0.39901752    -0.39901752     0.30629190
     0.39901752     0.39901752     0.30629190
    -0.39901752    -0.39901752     0.30629190
New lattice vectors in INITIAL alat:
     0.39901752    -0.39901752     0.30629190
     0.39901752     0.39901752     0.30629190
    -0.39901752    -0.39901752     0.30629190
New lattice vectors in NEW alat (for information only):
     0.50000000    -0.50000000     0.38380758
     0.50000000     0.50000000     0.38380758
    -0.50000000    -0.50000000     0.38380758
Discrepancy in bohr =     0.000000    0.000000    0.000000
     new conv_thr            =       0.0000000016 Ry

     new unit-cell volume =    478.49122 a.u.^3 (    70.90508 Ang^3 )
     density =      1.96569 g/cm^3

CELL_PARAMETERS (alat= 13.48646663)
   0.399017519  -0.399017519   0.306291896
   0.399017519   0.399017519   0.306291896
  -0.399017519  -0.399017519   0.306291896

ATOMIC_POSITIONS (crystal)
Li           -0.1979329038        0.3750000000        0.0729329038
Li           -0.6979329038        1.8229329038        0.6250000000
Li            0.1979329038        0.8750000000       -0.8229329038
Li            0.6979329038        0.9270670962        0.1250000000
Si            0.0000000000        0.5000000000        0.5000000000
Si           -0.5000000000        1.2500000000        0.7500000000



     Writing config-only to output data dir ./output/LiSi.save/
     NEW-OLD atomic charge density approx. for the potential

     negative rho (up, down):  2.194E-02 0.000E+00
     extrapolated charge    9.36411, renormalised to   20.00000

     total cpu time spent up to now is       42.3 secs

     Self-consistent Calculation

     iteration #  1     ecut=    80.00 Ry     beta= 0.70
     Davidson diagonalization with overlap
     c_bands:  1 eigenvalues not converged
     c_bands:  1 eigenvalues not converged
     c_bands:  1 eigenvalues not converged
     c_bands:  1 eigenvalues not converged
     c_bands:  1 eigenvalues not converged
     c_bands:  1 eigenvalues not converged
     c_bands:  1 eigenvalues not converged
     c_bands:  1 eigenvalues not converged
     c_bands:  1 eigenvalues not converged
     ethr =  1.00E-06,  avg # of iterations = 15.6

     total cpu time spent up to now is       47.4 secs

     total energy              =     -73.54178242 Ry
     estimated scf accuracy    <       1.31602319 Ry

     iteration #  2     ecut=    80.00 Ry     beta= 0.70
     Davidson diagonalization with overlap
     ethr =  6.58E-03,  avg # of iterations =  2.1

     total cpu time spent up to now is       48.9 secs

     total energy              =     -74.29585574 Ry
     estimated scf accuracy    <       0.30220828 Ry

     iteration #  3     ecut=    80.00 Ry     beta= 0.70
     Davidson diagonalization with overlap
     ethr =  1.51E-03,  avg # of iterations =  2.0

     total cpu time spent up to now is       50.3 secs

     total energy              =     -74.33668357 Ry
     estimated scf accuracy    <       0.00779217 Ry

     iteration #  4     ecut=    80.00 Ry     beta= 0.70
     Davidson diagonalization with overlap
     ethr =  3.90E-05,  avg # of iterations =  5.5

     total cpu time spent up to now is       52.0 secs

     total energy              =     -74.33805187 Ry
     estimated scf accuracy    <       0.00069441 Ry

     iteration #  5     ecut=    80.00 Ry     beta= 0.70
     Davidson diagonalization with overlap
     ethr =  3.47E-06,  avg # of iterations =  3.3

     total cpu time spent up to now is       53.4 secs

     total energy              =     -74.33811219 Ry
     estimated scf accuracy    <       0.00000614 Ry

     iteration #  6     ecut=    80.00 Ry     beta= 0.70
     Davidson diagonalization with overlap
     ethr =  3.07E-08,  avg # of iterations =  3.9

     total cpu time spent up to now is       55.0 secs

     total energy              =     -74.33811661 Ry
     estimated scf accuracy    <       0.00000299 Ry

     iteration #  7     ecut=    80.00 Ry     beta= 0.70
     Davidson diagonalization with overlap
     ethr =  1.50E-08,  avg # of iterations =  2.0

     total cpu time spent up to now is       56.4 secs

     total energy              =     -74.33811709 Ry
     estimated scf accuracy    <       0.00000002 Ry

     iteration #  8     ecut=    80.00 Ry     beta= 0.70
     Davidson diagonalization with overlap
     ethr =  7.96E-11,  avg # of iterations =  4.1

     total cpu time spent up to now is       58.0 secs

     total energy              =     -74.33811710 Ry
     estimated scf accuracy    <          9.7E-09 Ry

     iteration #  9     ecut=    80.00 Ry     beta= 0.70
     Davidson diagonalization with overlap
     ethr =  4.86E-11,  avg # of iterations =  2.0

     total cpu time spent up to now is       59.4 secs

     End of self-consistent calculation

          k = 0.0000 0.0000 0.0000 ( 11447 PWs)   bands (ev):

   -39.7857 -39.6672 -39.6672 -39.5871  -3.4652   1.5330   4.3635   4.3635
     4.8870   5.9609   6.9155   6.9155   7.0893   7.1803

          k =-0.2088-0.0000 0.2721 ( 11406 PWs)   bands (ev):

   -39.7781 -39.6686 -39.6679 -39.5927  -3.2924   1.1664   3.7099   4.0680
     4.8448   5.1377   6.6857   7.3854   7.6722   9.2516

          k =-0.4177-0.0000 0.5441 ( 11398 PWs)   bands (ev):

   -39.7604 -39.6731 -39.6693 -39.6046  -2.8286   0.2803   2.9666   3.4593
     3.8123   5.8475   6.7876   7.9211   9.2675  10.4907

          k = 0.6265-0.0000-0.8162 ( 11382 PWs)   bands (ev):

   -39.7494 -39.6770 -39.6700 -39.6109  -2.4643  -0.3152   2.6873   3.3582
     3.3707   6.5466   6.6576   7.6330  10.2467  11.8947

          k = 0.0000 0.3133 0.4081 ( 11397 PWs)   bands (ev):

   -39.7698 -39.6704 -39.6686 -39.5985  -3.0868   0.7573   3.2945   3.7353
     4.2331   5.4553   6.7480   7.7554   8.4961  10.1481

          k =-0.2088 0.3133 0.6802 ( 11391 PWs)   bands (ev):

   -39.7560 -39.6831 -39.6599 -39.6082  -2.7178   0.1876   2.5364   3.4175
     4.2397   4.9303   7.1379   8.1574   9.6168  10.8957

          k =-0.4177 0.3133 0.9523 ( 11375 PWs)   bands (ev):

   -39.7409 -39.6983 -39.6503 -39.6179  -2.2379  -0.7155   2.1806   3.2304
     4.7214   5.3397   7.5720   8.6649   9.9617  10.8151

          k = 0.6265 0.3133-0.4081 ( 11381 PWs)   bands (ev):

   -39.7442 -39.7007 -39.6473 -39.6153  -2.3634  -0.8467   2.7074   3.5820
     4.8037   6.3250   7.4089   8.0968   9.0309  10.1198

          k = 0.4177 0.3133-0.1360 ( 11404 PWs)   bands (ev):

   -39.7616 -39.6903 -39.6521 -39.6036  -2.8838  -0.2720   3.6719   4.5153
     4.8653   6.2631   6.7806   7.3825   8.5774   9.1221

          k = 0.2088 0.3133 0.1360 ( 11388 PWs)   bands (ev):

   -39.7723 -39.6793 -39.6595 -39.5963  -3.1528   0.4146   3.7498   4.4832
     5.0227   5.7910   6.8970   7.3379   8.0281   9.0935

          k =-0.2088-0.6265-0.5441 ( 11383 PWs)   bands (ev):

   -39.7472 -39.6918 -39.6555 -39.6129  -2.4271  -0.5475   2.4861   3.3867
     4.3047   6.4566   7.0804   7.8996   9.7917  10.5135

          k =-0.4177-0.6265-0.2721 ( 11391 PWs)   bands (ev):

   -39.7397 -39.7097 -39.6397 -39.6185  -2.2510  -1.2010   3.1713   3.8147
     5.2561   6.2241   7.3366   7.8724   8.4263   9.5041

          k = 0.6265-0.6265-1.6324 ( 11376 PWs)   bands (ev):

   -39.7266 -39.7266 -39.6273 -39.6273  -1.8432  -1.8432   4.0755   4.0755
     5.8461   5.8461   6.9807   6.9807   8.3496   8.3496

          k = 0.3133-0.3133 0.0000 ( 11377 PWs)   bands (ev):

   -39.7684 -39.6846 -39.6555 -39.5989  -3.0592   0.0733   3.9177   4.6064
     5.1030   5.9521   6.7288   7.1091   8.3938   9.2467

          k = 0.1044-0.3133 0.2721 ( 11393 PWs)   bands (ev):

   -39.7727 -39.6743 -39.6641 -39.5962  -3.1615   0.6822   3.4631   4.1313
     4.6972   5.6819   6.9009   7.4196   8.2328   9.3232

          k =-0.1044-0.3133 0.5441 ( 11403 PWs)   bands (ev):

   -39.7639 -39.6759 -39.6647 -39.6028  -2.9346   0.5707   2.9612   3.7306
     3.8261   5.1665   6.8658   7.9810   9.0127  10.5994

          k = 0.9398-0.3133-0.8162 ( 11376 PWs)   bands (ev):

   -39.7476 -39.6909 -39.6550 -39.6138  -2.4642  -0.2826   2.2509   3.2526
     4.7798   4.7830   7.4179   8.4134   9.9999  10.8747

          k = 0.7310-0.3133-0.5441 ( 11378 PWs)   bands (ev):

   -39.7391 -39.7023 -39.6474 -39.6187  -2.1777  -0.9360   2.3398   3.3392
     4.7389   5.8702   7.5799   8.4951   9.7828  10.4101

          k = 0.5221-0.3133-0.2721 ( 11392 PWs)   bands (ev):

   -39.7529 -39.6959 -39.6492 -39.6096  -2.6386  -0.5901   3.2037   3.9817
     4.8642   6.5346   7.0158   7.8160   8.4897   9.6205

          k = 0.1044-0.0000 0.6802 ( 11382 PWs)   bands (ev):

   -39.7619 -39.6696 -39.6693 -39.6065  -2.9351   1.1521   2.9765   3.0431
     3.7553   4.0297   7.4293   8.0909   8.3484  11.9994

          k =-0.1044-0.0000 0.9523 ( 11382 PWs)   bands (ev):

   -39.7425 -39.6713 -39.6707 -39.6229  -2.5061   0.3850   2.4351   2.4790
     3.4161   4.7544   8.1852   8.6510   9.2087  10.8946

          k = 0.9398-0.0000-0.4081 ( 11363 PWs)   bands (ev):

   -39.7287 -39.6771 -39.6714 -39.6305  -2.0970  -0.6128   2.2025   2.5837
     4.0341   5.6159   7.8635   8.7559   9.7582  11.6565

          k = 0.7310-0.0000-0.1360 ( 11391 PWs)   bands (ev):

   -39.7412 -39.6761 -39.6708 -39.6196  -2.4088  -0.5776   2.3786   3.4606
     4.7596   6.1786   7.4188   8.2154   9.1821   9.7883

          k = 0.5221 0.0000 0.1360 ( 11394 PWs)   bands (ev):

   -39.7613 -39.6726 -39.6693 -39.6044  -2.8972   0.0319   2.8811   4.1514
     4.8354   6.8743   7.3517   7.5210   7.9156   9.1492

          k = 0.1044-0.9398-0.5441 ( 11364 PWs)   bands (ev):

   -39.7358 -39.6819 -39.6653 -39.6245  -2.2432  -0.4234   2.2478   2.7851
     4.0309   5.1316   7.7333   8.9779   9.9621  11.0687

          k =-0.1044-0.9398-0.2721 ( 11369 PWs)   bands (ev):

   -39.7223 -39.6859 -39.6643 -39.6354  -1.9442  -0.8915   2.1667   2.6586
     4.2461   5.8354   7.7673   8.7552   9.6972  11.4091

          k = 0.9398-0.9398-1.6324 ( 11394 PWs)   bands (ev):

   -39.7122 -39.7122 -39.6417 -39.6417  -1.5970  -1.5970   2.8193   2.8193
     5.2595   5.2595   7.8280   7.8280  10.2394  10.2394

          k = 0.7310-0.9398-1.3604 ( 11385 PWs)   bands (ev):

   -39.7360 -39.7043 -39.6455 -39.6218  -2.1787  -1.1243   2.8089   3.6331
     4.9376   5.8165   7.5397   8.2131   8.8127  10.2399

          k = 0.5221-0.9398-1.0883 ( 11387 PWs)   bands (ev):

   -39.7489 -39.6974 -39.6493 -39.6118  -2.4701  -0.5788   2.5835   3.2871
     4.8546   6.4576   7.3410   7.7205   9.4073  10.1915

          k = 0.1044-0.6265-0.1360 ( 11390 PWs)   bands (ev):

   -39.7511 -39.6818 -39.6630 -39.6119  -2.6437  -0.3849   2.7096   3.8603
     4.8215   6.5893   7.2273   7.8929   8.4000   9.5454

          k = 0.7310-0.6265-0.9523 ( 11393 PWs)   bands (ev):

   -39.7326 -39.7181 -39.6338 -39.6228  -1.8844  -1.3612   2.4025   2.6964
     6.2483   6.8492   7.2369   7.8347   9.6336  10.0524

          k =-0.8354 0.9398 0.6802 ( 11390 PWs)   bands (ev):

   -39.7500 -39.6942 -39.6517 -39.6113  -2.5013  -0.3741   2.4112   3.1561
     4.8843   5.6448   7.3690   8.0533   9.5775  10.4221

          k =-1.0442 0.9398 0.9523 ( 11376 PWs)   bands (ev):

   -39.7425 -39.6870 -39.6593 -39.6185  -2.3721  -0.3096   2.2048   3.2014
     4.2068   4.7764   7.5828   8.7403  10.2065  11.0934

          k =-0.2088 0.9398-0.1360 ( 11370 PWs)   bands (ev):

   -39.7168 -39.6987 -39.6533 -39.6391  -1.7817  -1.2384   2.3889   2.7484
     4.6806   5.6275   7.7028   8.5755   9.8844  10.8401

          k =-0.4177 0.9398 0.1360 ( 11375 PWs)   bands (ev):

   -39.7251 -39.7081 -39.6438 -39.6309  -1.9193  -1.3786   2.8508   3.3117
     5.0266   5.7147   7.3034   8.0274   9.5044  10.3100

          k =-0.8354-0.0000-0.5441 ( 11369 PWs)   bands (ev):

   -39.7399 -39.6771 -39.6707 -39.6198  -2.2967  -0.4587   2.4341   2.7659
     4.2159   5.3398   7.3321   8.8691  10.2131  10.8793

          k =-1.0442-0.0000-0.2721 ( 11363 PWs)   bands (ev):

   -39.7142 -39.6772 -39.6721 -39.6444  -1.8387  -0.7980   2.0017   2.2773
     4.0015   5.8771   8.0770   8.9680   9.6382  11.8627

          k = 0.0000 0.0000-1.6324 ( 11310 PWs)   bands (ev):

   -39.6812 -39.6812 -39.6729 -39.6729  -1.2637  -1.2637   1.8260   1.8260
     4.8670   4.8670   9.4601   9.4601   9.8846   9.8846

     the Fermi energy is     6.6974 ev

!    total energy              =     -74.33811710 Ry
     estimated scf accuracy    <          1.2E-10 Ry
     smearing contrib. (-TS)   =      -0.00047726 Ry
     internal energy E=F+TS    =     -74.33763984 Ry

     The total energy is F=E-TS. E is the sum of the following terms:
     one-electron contribution =     -22.76103556 Ry
     hartree contribution      =      12.89182286 Ry
     xc contribution           =     -20.06655204 Ry
     ewald contribution        =     -44.40187510 Ry

     convergence has been achieved in   9 iterations

     Forces acting on atoms (cartesian axes, Ry/au):

     atom    1 type  1   force =     0.03561148   -0.00000000   -0.00000000
     atom    2 type  1   force =     0.00000000   -0.03561148    0.00000000
     atom    3 type  1   force =    -0.03561148    0.00000000    0.00000000
     atom    4 type  1   force =    -0.00000000    0.03561148   -0.00000000
     atom    5 type  2   force =     0.00000000    0.00000000    0.00000000
     atom    6 type  2   force =     0.00000000    0.00000000   -0.00000000
     The non-local contrib.  to forces
     atom    1 type  1   force =     0.01500596   -0.00000000   -0.00000000
     atom    2 type  1   force =     0.00000000   -0.01500596    0.00000000
     atom    3 type  1   force =    -0.01500596    0.00000000    0.00000000
     atom    4 type  1   force =     0.00000000    0.01500596   -0.00000000
     atom    5 type  2   force =     0.00000000   -0.00000000    0.00000000
     atom    6 type  2   force =     0.00000000    0.00000000    0.00000000
     The ionic contribution  to forces
     atom    1 type  1   force =     0.18264330   -0.00000000    0.00000000
     atom    2 type  1   force =    -0.00000000   -0.18264330   -0.00000000
     atom    3 type  1   force =    -0.18264330   -0.00000000   -0.00000000
     atom    4 type  1   force =    -0.00000000    0.18264330    0.00000000
     atom    5 type  2   force =     0.00000000   -0.00000000    0.00000000
     atom    6 type  2   force =     0.00000000    0.00000000    0.00000000
     The local contribution  to forces
     atom    1 type  1   force =    -0.16203889    0.00000000    0.00000000
     atom    2 type  1   force =     0.00000000    0.16203889   -0.00000000
     atom    3 type  1   force =     0.16203889    0.00000000   -0.00000000
     atom    4 type  1   force =     0.00000000   -0.16203889   -0.00000000
     atom    5 type  2   force =     0.00000000   -0.00000000    0.00000000
     atom    6 type  2   force =     0.00000000    0.00000000    0.00000000
     The core correction contribution to forces
     atom    1 type  1   force =     0.00000000    0.00000000    0.00000000
     atom    2 type  1   force =     0.00000000    0.00000000    0.00000000
     atom    3 type  1   force =     0.00000000    0.00000000    0.00000000
     atom    4 type  1   force =     0.00000000    0.00000000    0.00000000
     atom    5 type  2   force =     0.00000000    0.00000000    0.00000000
     atom    6 type  2   force =    -0.00000000   -0.00000000   -0.00000000
     The Hubbard contrib.    to forces
     atom    1 type  1   force =     0.00000000    0.00000000    0.00000000
     atom    2 type  1   force =     0.00000000    0.00000000    0.00000000
     atom    3 type  1   force =     0.00000000    0.00000000    0.00000000
     atom    4 type  1   force =     0.00000000    0.00000000    0.00000000
     atom    5 type  2   force =     0.00000000    0.00000000    0.00000000
     atom    6 type  2   force =     0.00000000    0.00000000    0.00000000
     The SCF correction term to forces
     atom    1 type  1   force =     0.00000111    0.00000000   -0.00000000
     atom    2 type  1   force =    -0.00000000   -0.00000111    0.00000000
     atom    3 type  1   force =    -0.00000111    0.00000000    0.00000000
     atom    4 type  1   force =    -0.00000000    0.00000111   -0.00000000
     atom    5 type  2   force =     0.00000000   -0.00000000    0.00000000
     atom    6 type  2   force =     0.00000000    0.00000000    0.00000000

     Total force =     0.071223     Total SCF correction =     0.000002


     Computing stress (Cartesian axis) and pressure

          total   stress  (Ry/bohr**3)                   (kbar)     P=      226.26
   0.00131634  -0.00000000   0.00000000          193.64       -0.00        0.00
  -0.00000000   0.00131634  -0.00000000           -0.00      193.64       -0.00
   0.00000000  -0.00000000   0.00198157            0.00       -0.00      291.50

     Energy error            =      7.4E-01 Ry
     Gradient error          =      3.6E-02 Ry/Bohr
     Cell gradient error     =      3.1E+02 kbar

     number of scf cycles    =   3
     number of bfgs steps    =   2

     enthalpy           old  =     -71.9681267603 Ry
     enthalpy           new  =     -72.7117585036 Ry

     CASE: enthalpy          _new < enthalpy          _old

     new trust radius        =       0.4924106770 bohr
ibrav =      7
 celldm(1) =      9.55129229
 celldm(3) =      0.78740992
Input lattice vectors:
     0.35410655    -0.35410655     0.27882701
     0.35410655     0.35410655     0.27882701
    -0.35410655    -0.35410655     0.27882701
New lattice vectors in INITIAL alat:
     0.35410655    -0.35410655     0.27882701
     0.35410655     0.35410655     0.27882701
    -0.35410655    -0.35410655     0.27882701
New lattice vectors in NEW alat (for information only):
     0.50000000    -0.50000000     0.39370496
     0.50000000     0.50000000     0.39370496
    -0.50000000    -0.50000000     0.39370496
Discrepancy in bohr =     0.000000    0.000000    0.000000
     new conv_thr            =       0.0000000036 Ry

     new unit-cell volume =    343.04989 a.u.^3 (    50.83475 Ang^3 )
     density =      2.74177 g/cm^3

CELL_PARAMETERS (alat= 13.48646663)
   0.354106548  -0.354106548   0.278827007
   0.354106548   0.354106548   0.278827007
  -0.354106548  -0.354106548   0.278827007

ATOMIC_POSITIONS (crystal)
Li           -0.1937981713        0.3750000000        0.0687981713
Li           -0.6937981713        1.8187981713        0.6250000000
Li            0.1937981713        0.8750000000       -0.8187981713
Li            0.6937981713        0.9312018287        0.1250000000
Si            0.0000000000        0.5000000000        0.5000000000
Si           -0.5000000000        1.2500000000        0.7500000000



     Writing config-only to output data dir ./output/LiSi.save/
     NEW-OLD atomic charge density approx. for the potential

     negative rho (up, down):  1.185E-04 0.000E+00
     extrapolated charge   12.11138, renormalised to   20.00000

     total cpu time spent up to now is       63.9 secs

     Self-consistent Calculation

     iteration #  1     ecut=    80.00 Ry     beta= 0.70
     Davidson diagonalization with overlap
     c_bands:  1 eigenvalues not converged
     c_bands:  1 eigenvalues not converged
     c_bands:  1 eigenvalues not converged
     c_bands:  1 eigenvalues not converged
     ethr =  1.00E-06,  avg # of iterations = 14.0

     total cpu time spent up to now is       68.5 secs

     total energy              =     -73.43785447 Ry
     estimated scf accuracy    <       0.43438721 Ry

     iteration #  2     ecut=    80.00 Ry     beta= 0.70
     Davidson diagonalization with overlap
     ethr =  2.17E-03,  avg # of iterations =  2.4

     total cpu time spent up to now is       70.2 secs

     total energy              =     -73.95058973 Ry
     estimated scf accuracy    <       0.23786064 Ry

     iteration #  3     ecut=    80.00 Ry     beta= 0.70
     Davidson diagonalization with overlap
     ethr =  1.19E-03,  avg # of iterations =  1.1

     total cpu time spent up to now is       71.3 secs

     total energy              =     -73.95238161 Ry
     estimated scf accuracy    <       0.02645311 Ry

     iteration #  4     ecut=    80.00 Ry     beta= 0.70
     Davidson diagonalization with overlap
     ethr =  1.32E-04,  avg # of iterations =  2.8

     total cpu time spent up to now is       72.8 secs

     total energy              =     -73.95793610 Ry
     estimated scf accuracy    <       0.00025114 Ry

     iteration #  5     ecut=    80.00 Ry     beta= 0.70
     Davidson diagonalization with overlap
     ethr =  1.26E-06,  avg # of iterations =  6.8

     total cpu time spent up to now is       74.7 secs

     total energy              =     -73.95801334 Ry
     estimated scf accuracy    <       0.00000824 Ry

     iteration #  6     ecut=    80.00 Ry     beta= 0.70
     Davidson diagonalization with overlap
     ethr =  4.12E-08,  avg # of iterations =  2.6

     total cpu time spent up to now is       76.2 secs

     total energy              =     -73.95801622 Ry
     estimated scf accuracy    <       0.00000127 Ry

     iteration #  7     ecut=    80.00 Ry     beta= 0.70
     Davidson diagonalization with overlap
     ethr =  6.34E-09,  avg # of iterations =  2.0

     total cpu time spent up to now is       77.5 secs

     total energy              =     -73.95801646 Ry
     estimated scf accuracy    <       0.00000002 Ry

     iteration #  8     ecut=    80.00 Ry     beta= 0.70
     Davidson diagonalization with overlap
     ethr =  9.44E-11,  avg # of iterations =  2.9

     total cpu time spent up to now is       78.9 secs

     End of self-consistent calculation

          k = 0.0000 0.0000 0.0000 ( 11447 PWs)   bands (ev):

   -36.6642 -36.3317 -36.3317 -36.1385  -1.5225   5.6799   7.1048   7.1048
     7.8222   8.5577   9.8781   9.8781  10.4966  10.7032

          k =-0.2353 0.0000 0.2989 ( 11406 PWs)   bands (ev):

   -36.6426 -36.3368 -36.3345 -36.1523  -1.3526   4.7258   6.1272   7.0331
     7.7596   8.4059   9.7006  10.7527  10.9281  13.2158

          k =-0.4707 0.0000 0.5977 ( 11398 PWs)   bands (ev):

   -36.5918 -36.3533 -36.3401 -36.1812  -0.8896   3.1730   5.1536   6.2979
     7.0811   9.3009  10.2801  11.9496  12.9556  14.8545

          k = 0.7060-0.0000-0.8966 ( 11382 PWs)   bands (ev):

   -36.5596 -36.3680 -36.3429 -36.1960  -0.5276   2.3511   4.8077   5.9749
     6.9221   9.8233  10.7782  11.5629  14.7895  16.4542

          k =-0.0000 0.3530 0.4483 ( 11397 PWs)   bands (ev):

   -36.6188 -36.3436 -36.3373 -36.1666  -1.1483   3.9394   5.5727   6.6842
     7.3017   8.8474   9.9674  11.4978  11.9315  14.1987

          k =-0.2353 0.3530 0.7472 ( 11391 PWs)   bands (ev):

   -36.5795 -36.3785 -36.3176 -36.1908  -0.7892   2.9574   4.9401   5.9986
     7.6569   8.4681  10.4473  12.1801  13.7101  15.6495

          k =-0.4707 0.3530 1.0460 ( 11375 PWs)   bands (ev):

   -36.5365 -36.4214 -36.2953 -36.2138  -0.2413   1.7710   4.6276   5.7333
     8.0835   9.2692  11.1198  12.9538  14.0090  15.4568

          k = 0.7060 0.3530-0.4483 ( 11381 PWs)   bands (ev):

   -36.5469 -36.4272 -36.2863 -36.2072  -0.2982   1.6501   5.1663   6.1317
     8.2559  10.1082  10.9974  12.1722  12.7994  14.1278

          k = 0.4707 0.3530-0.1494 ( 11404 PWs)   bands (ev):

   -36.5966 -36.3968 -36.2958 -36.1785  -0.8489   2.4819   6.1901   7.2467
     8.2244   9.6870  10.2588  10.6777  12.4910  13.0812

          k = 0.2353 0.3530 0.1494 ( 11388 PWs)   bands (ev):

   -36.6265 -36.3660 -36.3136 -36.1609  -1.1667   3.4821   6.2848   7.4557
     8.1083   9.1147  10.1597  10.6224  11.5309  12.9395

          k =-0.2353-0.7060-0.5977 ( 11383 PWs)   bands (ev):

   -36.5544 -36.4037 -36.3077 -36.2013  -0.4264   2.0335   4.8573   5.9590
     7.7390  10.2128  10.6644  12.0428  13.6874  14.6318

          k =-0.4707-0.7060-0.2989 ( 11391 PWs)   bands (ev):

   -36.5350 -36.4515 -36.2667 -36.2149  -0.1152   1.2140   5.6951   6.3736
     8.7462   9.9399  10.8579  11.5452  12.3168  13.8588

          k = 0.7060-0.7060-1.7932 ( 11376 PWs)   bands (ev):

   -36.4987 -36.4987 -36.2357 -36.2357   0.4303   0.4303   6.6435   6.6435
     9.6095   9.6095  10.1045  10.1045  12.5433  12.5433

          k = 0.3530-0.3530-0.0000 ( 11377 PWs)   bands (ev):

   -36.6158 -36.3808 -36.3037 -36.1671  -1.0479   2.9806   6.4665   7.6369
     8.2055   9.2334  10.1030  10.2738  12.3198  13.1769

          k = 0.1177-0.3530 0.2989 ( 11393 PWs)   bands (ev):

   -36.6275 -36.3528 -36.3256 -36.1608  -1.2008   3.8843   5.8719   7.0256
     7.7921   9.0744  10.1691  10.8633  11.5324  13.2695

          k =-0.1177-0.3530 0.5977 ( 11403 PWs)   bands (ev):

   -36.6019 -36.3585 -36.3286 -36.1773  -1.0090   3.5550   5.2914   6.3837
     7.1967   8.5760  10.1194  11.8788  12.7820  15.0456

          k = 1.0590-0.3530-0.8966 ( 11376 PWs)   bands (ev):

   -36.5556 -36.4006 -36.3062 -36.2042  -0.5115   2.3157   4.6861   5.7794
     7.9836   8.7387  10.8326  12.5459  14.2223  16.1037

          k = 0.8237-0.3530-0.5977 ( 11378 PWs)   bands (ev):

   -36.5318 -36.4323 -36.2878 -36.2154  -0.1332   1.5119   4.7913   5.8486
     8.1726   9.7522  11.1777  12.8555  13.6451  14.4694

          k = 0.5883-0.3530-0.2989 ( 11392 PWs)   bands (ev):

   -36.5718 -36.4131 -36.2897 -36.1931  -0.5833   2.0218   5.6828   6.6074
     8.2835  10.1761  10.5690  11.4367  12.2566  13.6496

          k = 0.1177-0.0000 0.7472 ( 11382 PWs)   bands (ev):

   -36.5968 -36.3413 -36.3400 -36.1879  -1.0389   4.4918   5.1704   5.6002
     6.8979   7.3898  10.5210  12.1294  12.2229  16.6029

          k =-0.1177-0.0000 1.0460 ( 11382 PWs)   bands (ev):

   -36.5434 -36.3481 -36.3458 -36.2300  -0.5574   3.4532   4.5491   4.7626
     6.6055   8.5563  11.6148  12.9110  13.1457  14.8816

          k = 1.0590 0.0000-0.4483 ( 11363 PWs)   bands (ev):

   -36.5049 -36.3683 -36.3488 -36.2467  -0.0032   2.0822   4.3173   5.0905
     7.1351   9.4563  11.3111  12.7030  14.3682  15.8645

          k = 0.8237 0.0000-0.1494 ( 11391 PWs)   bands (ev):

   -36.5407 -36.3632 -36.3462 -36.2189  -0.2828   2.1791   4.5581   6.0955
     7.8009   9.5812  10.9902  11.8898  13.9098  14.1580

          k = 0.5883-0.0000 0.1494 ( 11394 PWs)   bands (ev):

   -36.5961 -36.3506 -36.3404 -36.1807  -0.8672   3.0251   5.1419   6.9569
     7.8662  10.3040  10.8609  11.1851  11.7620  12.7546

          k = 0.1177-1.0590-0.5977 ( 11364 PWs)   bands (ev):

   -36.5237 -36.3788 -36.3337 -36.2316  -0.2266   2.2671   4.4587   5.2971
     7.1370   9.0645  11.1888  13.1868  14.0939  15.3063

          k =-0.1177-1.0590-0.2989 ( 11369 PWs)   bands (ev):

   -36.4880 -36.3904 -36.3320 -36.2590   0.2423   1.7252   4.3449   5.0966
     7.3495   9.3454  11.4456  12.7037  14.3150  16.2467

          k = 1.0590-1.0590-1.7932 ( 11394 PWs)   bands (ev):

   -36.4609 -36.4609 -36.2740 -36.2740   0.7570   0.7570   5.2433   5.2433
     8.4018   8.4018  11.6449  11.6449  15.0592  15.0592

          k = 0.8237-1.0590-1.4944 ( 11385 PWs)   bands (ev):

   -36.5250 -36.4377 -36.2824 -36.2234  -0.0355   1.3356   5.2499   6.1757
     8.2000   9.5137  10.9504  12.0228  13.0436  14.7533

          k = 0.5883-1.0590-1.1955 ( 11387 PWs)   bands (ev):

   -36.5594 -36.4177 -36.2912 -36.1986  -0.4646   1.9499   5.0486   5.8890
     8.3795  10.0740  11.2449  11.6240  13.2669  14.3875

          k = 0.1177-0.7060-0.1494 ( 11390 PWs)   bands (ev):

   -36.5677 -36.3758 -36.3256 -36.1993  -0.5654   2.4128   4.9825   6.5770
     7.8746  10.1463  10.6180  11.4771  12.6604  13.6675

          k = 0.8237-0.7060-1.0460 ( 11393 PWs)   bands (ev):

   -36.5137 -36.4740 -36.2533 -36.2258   0.2152   0.8880   4.9498   5.2733
     9.9297  10.7754  11.3427  12.2191  13.4117  14.1515

          k =-0.9413 1.0590 0.7472 ( 11390 PWs)   bands (ev):

   -36.5622 -36.4090 -36.2976 -36.1978  -0.5346   2.1863   4.8738   5.7603
     8.3997   9.3237  10.8633  12.1115  13.7169  15.0813

          k =-1.1767 1.0590 1.0460 ( 11376 PWs)   bands (ev):

   -36.5418 -36.3911 -36.3179 -36.2163  -0.4037   2.3359   4.5604   5.6570
     7.3986   8.6967  11.0465  12.9921  14.2816  15.4404

          k =-0.2353 1.0590-0.1494 ( 11370 PWs)   bands (ev):

   -36.4736 -36.4245 -36.3039 -36.2678   0.4956   1.2474   4.6843   5.1693
     7.7823   8.8636  11.5182  12.5200  14.5414  15.8273

          k =-0.4707 1.0590 0.1494 ( 11375 PWs)   bands (ev):

   -36.4955 -36.4490 -36.2786 -36.2463   0.3200   1.0352   5.2793   5.8317
     8.1760   9.0717  10.9071  11.8386  13.9903  15.0602

          k =-0.9413 0.0000-0.5977 ( 11369 PWs)   bands (ev):

   -36.5345 -36.3681 -36.3459 -36.2191  -0.2908   2.2253   4.5448   5.4774
     7.3328   9.2714  10.6976  13.0773  14.6168  15.0798

          k =-1.1767 0.0000-0.2989 ( 11363 PWs)   bands (ev):

   -36.4667 -36.3685 -36.3518 -36.2828   0.3784   1.8906   4.1192   4.5815
     7.1091   9.3125  11.9899  13.0069  14.1881  16.1525

          k = 0.0000 0.0000-1.7932 ( 11310 PWs)   bands (ev):

   -36.3807 -36.3807 -36.3548 -36.3548   1.2612   1.2612   3.9445   3.9445
     7.9537   7.9537  13.6779  13.6779  14.7473  14.7473

     the Fermi energy is    10.1703 ev

!    total energy              =     -73.95801646 Ry
     estimated scf accuracy    <          6.1E-10 Ry
     smearing contrib. (-TS)   =      -0.00133821 Ry
     internal energy E=F+TS    =     -73.95667825 Ry

     The total energy is F=E-TS. E is the sum of the following terms:
     one-electron contribution =     -15.30559022 Ry
     hartree contribution      =      11.79748226 Ry
     xc contribution           =     -20.74458995 Ry
     ewald contribution        =     -49.70398034 Ry

     convergence has been achieved in   8 iterations

     Forces acting on atoms (cartesian axes, Ry/au):

     atom    1 type  1   force =     0.05785026    0.00000000    0.00000000
     atom    2 type  1   force =    -0.00000000   -0.05785026    0.00000000
     atom    3 type  1   force =    -0.05785026   -0.00000000   -0.00000000
     atom    4 type  1   force =    -0.00000000    0.05785026    0.00000000
     atom    5 type  2   force =     0.00000000    0.00000000    0.00000000
     atom    6 type  2   force =     0.00000000    0.00000000    0.00000000
     The non-local contrib.  to forces
     atom    1 type  1   force =     0.01541686   -0.00000000   -0.00000000
     atom    2 type  1   force =     0.00000000   -0.01541686    0.00000000
     atom    3 type  1   force =    -0.01541686    0.00000000   -0.00000000
     atom    4 type  1   force =    -0.00000000    0.01541686    0.00000000
     atom    5 type  2   force =    -0.00000000    0.00000000    0.00000000
     atom    6 type  2   force =    -0.00000000    0.00000000   -0.00000000
     The ionic contribution  to forces
     atom    1 type  1   force =     0.22453536   -0.00000000   -0.00000000
     atom    2 type  1   force =     0.00000000   -0.22453536    0.00000000
     atom    3 type  1   force =    -0.22453536   -0.00000000   -0.00000000
     atom    4 type  1   force =    -0.00000000    0.22453536   -0.00000000
     atom    5 type  2   force =     0.00000000    0.00000000   -0.00000000
     atom    6 type  2   force =     0.00000000   -0.00000000   -0.00000000
     The local contribution  to forces
     atom    1 type  1   force =    -0.18210426    0.00000000    0.00000000
     atom    2 type  1   force =     0.00000000    0.18210426   -0.00000000
     atom    3 type  1   force =     0.18210426   -0.00000000    0.00000000
     atom    4 type  1   force =     0.00000000   -0.18210426    0.00000000
     atom    5 type  2   force =     0.00000000    0.00000000    0.00000000
     atom    6 type  2   force =    -0.00000000    0.00000000   -0.00000000
     The core correction contribution to forces
     atom    1 type  1   force =     0.00000000    0.00000000    0.00000000
     atom    2 type  1   force =     0.00000000    0.00000000    0.00000000
     atom    3 type  1   force =     0.00000000    0.00000000    0.00000000
     atom    4 type  1   force =     0.00000000    0.00000000    0.00000000
     atom    5 type  2   force =    -0.00000000   -0.00000000    0.00000000
     atom    6 type  2   force =    -0.00000000    0.00000000   -0.00000000
     The Hubbard contrib.    to forces
     atom    1 type  1   force =     0.00000000    0.00000000    0.00000000
     atom    2 type  1   force =     0.00000000    0.00000000    0.00000000
     atom    3 type  1   force =     0.00000000    0.00000000    0.00000000
     atom    4 type  1   force =     0.00000000    0.00000000    0.00000000
     atom    5 type  2   force =     0.00000000    0.00000000    0.00000000
     atom    6 type  2   force =     0.00000000    0.00000000    0.00000000
     The SCF correction term to forces
     atom    1 type  1   force =     0.00000230    0.00000000   -0.00000000
     atom    2 type  1   force =    -0.00000000   -0.00000230   -0.00000000
     atom    3 type  1   force =    -0.00000230   -0.00000000   -0.00000000
     atom    4 type  1   force =     0.00000000    0.00000230   -0.00000000
     atom    5 type  2   force =    -0.00000000   -0.00000000    0.00000000
     atom    6 type  2   force =     0.00000000    0.00000000   -0.00000000

     Total force =     0.115701     Total SCF correction =     0.000005


     Computing stress (Cartesian axis) and pressure

          total   stress  (Ry/bohr**3)                   (kbar)     P=      733.26
   0.00423185   0.00000000   0.00000000          622.53        0.00        0.00
   0.00000000   0.00423185   0.00000000            0.00      622.53        0.00
   0.00000000   0.00000000   0.00649010            0.00        0.00      954.73

     Energy error            =      8.0E-02 Ry
     Gradient error          =      5.8E-02 Ry/Bohr
     Cell gradient error     =      4.5E+02 kbar

     number of scf cycles    =   4
     number of bfgs steps    =   3

     enthalpy           old  =     -72.7117585036 Ry
     enthalpy           new  =     -72.7920135664 Ry

     CASE: enthalpy          _new < enthalpy          _old

     new trust radius        =       0.1985919198 bohr
ibrav =      7
 celldm(1) =      9.86529124
 celldm(3) =      0.80321785
Input lattice vectors:
     0.36574781    -0.36574781     0.29377517
     0.36574781     0.36574781     0.29377517
    -0.36574781    -0.36574781     0.29377517
New lattice vectors in INITIAL alat:
     0.36574781    -0.36574781     0.29377517
     0.36574781     0.36574781     0.29377517
    -0.36574781    -0.36574781     0.29377517
New lattice vectors in NEW alat (for information only):
     0.50000000    -0.50000000     0.40160892
     0.50000000     0.50000000     0.40160892
    -0.50000000    -0.50000000     0.40160892
Discrepancy in bohr =     0.000000    0.000000    0.000000
     new conv_thr            =       0.0000000058 Ry

     new unit-cell volume =    385.59650 a.u.^3 (    57.13951 Ang^3 )
     density =      2.43925 g/cm^3

CELL_PARAMETERS (alat= 13.48646663)
   0.365747809  -0.365747809   0.293775169
   0.365747809   0.365747809   0.293775169
  -0.365747809  -0.365747809   0.293775169

ATOMIC_POSITIONS (crystal)
Li           -0.1924510857        0.3750000000        0.0674510857
Li           -0.6924510857        1.8174510857        0.6250000000
Li            0.1924510857        0.8750000000       -0.8174510857
Li            0.6924510857        0.9325489143        0.1250000000
Si            0.0000000000        0.5000000000        0.5000000000
Si           -0.5000000000        1.2500000000        0.7500000000



     Writing config-only to output data dir ./output/LiSi.save/
     NEW-OLD atomic charge density approx. for the potential
     extrapolated charge   22.20465, renormalised to   20.00000

     total cpu time spent up to now is       83.4 secs

     Self-consistent Calculation

     iteration #  1     ecut=    80.00 Ry     beta= 0.70
     Davidson diagonalization with overlap
     ethr =  1.00E-06,  avg # of iterations = 10.2

     total cpu time spent up to now is       87.1 secs

     total energy              =     -74.10192392 Ry
     estimated scf accuracy    <       0.01618886 Ry

     iteration #  2     ecut=    80.00 Ry     beta= 0.70
     Davidson diagonalization with overlap
     ethr =  8.09E-05,  avg # of iterations =  3.1

     total cpu time spent up to now is       88.9 secs

     total energy              =     -74.14585561 Ry
     estimated scf accuracy    <       0.02252473 Ry

     iteration #  3     ecut=    80.00 Ry     beta= 0.70
     Davidson diagonalization with overlap
     ethr =  8.09E-05,  avg # of iterations =  1.1

     total cpu time spent up to now is       90.0 secs

     total energy              =     -74.14641834 Ry
     estimated scf accuracy    <       0.00491513 Ry

     iteration #  4     ecut=    80.00 Ry     beta= 0.70
     Davidson diagonalization with overlap
     ethr =  2.46E-05,  avg # of iterations =  1.0

     total cpu time spent up to now is       91.2 secs

     total energy              =     -74.14451571 Ry
     estimated scf accuracy    <       0.00356705 Ry

     iteration #  5     ecut=    80.00 Ry     beta= 0.70
     Davidson diagonalization with overlap
     ethr =  1.78E-05,  avg # of iterations =  2.0

     total cpu time spent up to now is       92.5 secs

     total energy              =     -74.14484566 Ry
     estimated scf accuracy    <       0.00014818 Ry

     iteration #  6     ecut=    80.00 Ry     beta= 0.70
     Davidson diagonalization with overlap
     ethr =  7.41E-07,  avg # of iterations =  4.1

     total cpu time spent up to now is       94.0 secs

     total energy              =     -74.14488369 Ry
     estimated scf accuracy    <       0.00000455 Ry

     iteration #  7     ecut=    80.00 Ry     beta= 0.70
     Davidson diagonalization with overlap
     ethr =  2.28E-08,  avg # of iterations =  3.1

     total cpu time spent up to now is       95.4 secs

     total energy              =     -74.14488333 Ry
     estimated scf accuracy    <       0.00000429 Ry

     iteration #  8     ecut=    80.00 Ry     beta= 0.70
     Davidson diagonalization with overlap
     ethr =  2.15E-08,  avg # of iterations =  1.0

     total cpu time spent up to now is       96.5 secs

     total energy              =     -74.14488295 Ry
     estimated scf accuracy    <       0.00000120 Ry

     iteration #  9     ecut=    80.00 Ry     beta= 0.70
     Davidson diagonalization with overlap
     ethr =  6.01E-09,  avg # of iterations =  2.0

     total cpu time spent up to now is       97.9 secs

     total energy              =     -74.14488316 Ry
     estimated scf accuracy    <       0.00000005 Ry

     iteration # 10     ecut=    80.00 Ry     beta= 0.70
     Davidson diagonalization with overlap
     ethr =  2.51E-10,  avg # of iterations =  2.7

     total cpu time spent up to now is       99.2 secs

     total energy              =     -74.14488316 Ry
     estimated scf accuracy    <       0.00000001 Ry

     iteration # 11     ecut=    80.00 Ry     beta= 0.70
     Davidson diagonalization with overlap
     ethr =  6.32E-11,  avg # of iterations =  2.0

     total cpu time spent up to now is      100.5 secs

     End of self-consistent calculation

          k = 0.0000 0.0000 0.0000 ( 11447 PWs)   bands (ev):

   -37.7638 -37.5257 -37.5257 -37.3825  -2.3442   4.3446   6.0486   6.0486
     6.5991   7.6311   8.5886   8.5886   9.0402   9.3016

          k =-0.2278 0.0000 0.2837 ( 11406 PWs)   bands (ev):

   -37.7485 -37.5292 -37.5275 -37.3926  -2.1684   3.5238   5.2007   5.8977
     6.5694   7.1384   8.5551   9.3790   9.6613  11.4966

          k =-0.4557 0.0000 0.5673 ( 11398 PWs)   bands (ev):

   -37.7127 -37.5404 -37.5311 -37.4139  -1.6926   2.0959   4.3162   5.3038
     5.7536   8.0171   8.9132  10.5507  11.5772  13.2475

          k = 0.6835-0.0000-0.8510 ( 11382 PWs)   bands (ev):

   -37.6901 -37.5503 -37.5329 -37.4248  -1.3199   1.3173   3.9991   5.0164
     5.5692   8.5524   9.2189  10.2329  13.1661  14.8869

          k = 0.0000 0.3418 0.4255 ( 11397 PWs)   bands (ev):

   -37.7317 -37.5338 -37.5293 -37.4031  -1.9579   2.8073   4.6988   5.6289
     6.0253   7.5698   8.7215  10.0651  10.6580  12.5080

          k =-0.2278 0.3418 0.7092 ( 11391 PWs)   bands (ev):

[...]
        k(   18) = (   0.9982215  -0.4278092  -0.4036233), wk =   0.0416667
        k(   19) = (   0.7130154  -0.4278092  -0.2018117), wk =   0.0416667
        k(   20) = (   0.1426031  -0.0000000   0.5045292), wk =   0.0416667
        k(   21) = (  -0.1426031   0.0000000   0.7063408), wk =   0.0416667
        k(   22) = (   1.2834277   0.0000000  -0.3027175), wk =   0.0833333
        k(   23) = (   0.9982215  -0.0000000  -0.1009058), wk =   0.0416667
        k(   24) = (   0.7130154  -0.0000000   0.1009058), wk =   0.0416667
        k(   25) = (   0.1426031  -1.2834277  -0.4036233), wk =   0.0416667
        k(   26) = (  -0.1426031  -1.2834277  -0.2018117), wk =   0.0416667
        k(   27) = (   1.2834277  -1.2834277  -1.2108700), wk =   0.0416667
        k(   28) = (   0.9982215  -1.2834277  -1.0090584), wk =   0.0416667
        k(   29) = (   0.7130154  -1.2834277  -0.8072467), wk =   0.0416667
        k(   30) = (   0.1426031  -0.8556184  -0.1009058), wk =   0.0833333
        k(   31) = (   0.9982215  -0.8556184  -0.7063408), wk =   0.0833333
        k(   32) = (  -1.1408246   1.2834277   0.5045292), wk =   0.0416667
        k(   33) = (  -1.4260307   1.2834277   0.7063408), wk =   0.0416667
        k(   34) = (  -0.2852061   1.2834277  -0.1009058), wk =   0.0416667
        k(   35) = (  -0.5704123   1.2834277   0.1009058), wk =   0.0416667
        k(   36) = (  -1.1408246   0.0000000  -0.4036233), wk =   0.0416667
        k(   37) = (  -1.4260307   0.0000000  -0.2018117), wk =   0.0416667
        k(   38) = (   0.0000000   0.0000000  -1.2108700), wk =   0.0208333

     Dense  grid:    33487 G-vectors     FFT dimensions: (  48,  48,  48)

     Estimated max dynamical RAM per process >      19.87 MB

     Estimated total dynamical RAM >     158.94 MB

     Initial potential from superposition of free atoms

     starting charge      19.9805, renormalised to      20.0000
     Starting wfcs are   16 randomized atomic wfcs

     total cpu time spent up to now is      441.3 secs

     Self-consistent Calculation

     iteration #  1     ecut=    80.00 Ry     beta= 0.70
     Davidson diagonalization with overlap
     c_bands:  2 eigenvalues not converged
     c_bands:  2 eigenvalues not converged
     c_bands:  2 eigenvalues not converged
     c_bands:  1 eigenvalues not converged
     c_bands:  1 eigenvalues not converged
     c_bands:  1 eigenvalues not converged
     c_bands:  1 eigenvalues not converged
     c_bands:  1 eigenvalues not converged
     c_bands:  1 eigenvalues not converged
     c_bands:  1 eigenvalues not converged
     c_bands:  1 eigenvalues not converged
     c_bands:  1 eigenvalues not converged
     c_bands:  1 eigenvalues not converged
     c_bands:  1 eigenvalues not converged
     c_bands:  1 eigenvalues not converged
     c_bands:  1 eigenvalues not converged
     c_bands:  1 eigenvalues not converged
     c_bands:  1 eigenvalues not converged
     c_bands:  1 eigenvalues not converged
     c_bands:  1 eigenvalues not converged
     c_bands:  1 eigenvalues not converged
     ethr =  1.00E-06,  avg # of iterations = 19.1

     total cpu time spent up to now is      443.1 secs

     total energy              =     -74.20774843 Ry
     estimated scf accuracy    <       0.06031007 Ry

     iteration #  2     ecut=    80.00 Ry     beta= 0.70
     Davidson diagonalization with overlap
     ethr =  3.02E-04,  avg # of iterations =  2.2

     total cpu time spent up to now is      443.6 secs

     total energy              =     -74.21988900 Ry
     estimated scf accuracy    <       0.01539164 Ry

     iteration #  3     ecut=    80.00 Ry     beta= 0.70
     Davidson diagonalization with overlap
     ethr =  7.70E-05,  avg # of iterations =  2.1

     total cpu time spent up to now is      444.1 secs

     total energy              =     -74.22263405 Ry
     estimated scf accuracy    <       0.00027594 Ry

     iteration #  4     ecut=    80.00 Ry     beta= 0.70
     Davidson diagonalization with overlap
     ethr =  1.38E-06,  avg # of iterations =  3.8

     total cpu time spent up to now is      444.7 secs

     total energy              =     -74.22265759 Ry
     estimated scf accuracy    <       0.00002309 Ry

     iteration #  5     ecut=    80.00 Ry     beta= 0.70
     Davidson diagonalization with overlap
     ethr =  1.15E-07,  avg # of iterations =  2.3

     total cpu time spent up to now is      445.3 secs

     total energy              =     -74.22266355 Ry
     estimated scf accuracy    <       0.00000179 Ry

     iteration #  6     ecut=    80.00 Ry     beta= 0.70
     Davidson diagonalization with overlap
     ethr =  8.96E-09,  avg # of iterations =  2.4

     total cpu time spent up to now is      445.8 secs

     total energy              =     -74.22266382 Ry
     estimated scf accuracy    <       0.00000005 Ry

     iteration #  7     ecut=    80.00 Ry     beta= 0.70
     Davidson diagonalization with overlap
     ethr =  2.48E-10,  avg # of iterations =  3.6

     total cpu time spent up to now is      446.3 secs

     total energy              =     -74.22266384 Ry
     estimated scf accuracy    <          4.1E-09 Ry

     iteration #  8     ecut=    80.00 Ry     beta= 0.70
     Davidson diagonalization with overlap
     ethr =  2.04E-11,  avg # of iterations =  2.0

     total cpu time spent up to now is      446.8 secs

     total energy              =     -74.22266384 Ry
     estimated scf accuracy    <          3.3E-10 Ry

     iteration #  9     ecut=    80.00 Ry     beta= 0.70
     Davidson diagonalization with overlap
     ethr =  1.64E-12,  avg # of iterations =  3.1

     total cpu time spent up to now is      447.3 secs

     End of self-consistent calculation

          k = 0.0000 0.0000 0.0000 (  4279 PWs)   bands (ev):

   -36.4339 -35.9056 -35.9056 -35.9049  -2.1779   7.5511   7.5519   7.5519
     7.8113   7.9337   7.9337   7.9407  12.0004  12.0127

          k =-0.2852-0.0000 0.2018 (  4179 PWs)   bands (ev):

   -36.4078 -35.9320 -35.9059 -35.9054  -1.9876   5.1128   6.7797   6.7865
     7.8936   8.6369   8.6429   9.9856  12.5605  12.5816

          k =-0.5704-0.0000 0.4036 (  4206 PWs)   bands (ev):

   -36.3442 -35.9969 -35.9064 -35.9059  -1.4824   2.9919   6.0909   6.0979
     8.3610   9.2732   9.2805  10.1895  13.8035  13.8250

          k = 0.8556 0.0000-0.6054 (  4164 PWs)   bands (ev):

   -36.3010 -36.0408 -35.9067 -35.9062  -1.0994   2.0560   5.8412   5.8476
     8.6690   9.5369   9.5396   9.9947  14.6040  14.6097

          k = 0.0000 0.4278 0.3027 (  4191 PWs)   bands (ev):

   -36.3785 -35.9620 -35.9061 -35.9057  -1.7624   3.9535   6.3896   6.3970
     8.1113   8.9873   8.9951  10.2489  13.1515  13.1752

          k =-0.2852 0.4278 0.5045 (  4186 PWs)   bands (ev):

   -36.3350 -36.0056 -35.9072 -35.9060  -1.3971   3.0144   5.0345   6.2294
     8.9611   8.9920   9.4629  11.3583  13.4803  13.5477

          k =-0.5704 0.4278 0.7063 (  4187 PWs)   bands (ev):

   -36.2690 -36.0717 -35.9080 -35.9066  -0.7672   1.7882   4.5103   5.5494
     8.7460  10.2902  10.4062  12.2492  12.7479  14.0698

          k = 0.8556 0.4278-0.3027 (  4182 PWs)   bands (ev):

   -36.2631 -36.0776 -35.9077 -35.9070  -0.7008   1.7185   4.7065   5.2051
     8.3409   9.8203  11.4326  11.4924  13.9805  15.2320

          k = 0.5704 0.4278-0.1009 (  4156 PWs)   bands (ev):

   -36.3281 -36.0123 -35.9070 -35.9066  -1.3254   3.1078   5.2449   5.2957
     7.8892   8.5799  11.9486  11.9805  13.8505  13.8778

          k = 0.2852 0.4278 0.1009 (  4172 PWs)   bands (ev):

   -36.3759 -35.9642 -35.9064 -35.9059  -1.7359   4.3215   5.7684   5.8330
     7.8333   8.7180  10.6740  10.7084  12.9679  13.0809

          k =-0.2852-0.8556-0.4036 (  4188 PWs)   bands (ev):

   -36.2837 -36.0574 -35.9073 -35.9066  -0.9205   1.9425   5.0505   5.4818
     8.6509  10.1785  10.4893  10.5221  13.4052  14.8975

          k =-0.5704-0.8556-0.2018 (  4169 PWs)   bands (ev):

   -36.2361 -36.1045 -35.9078 -35.9073  -0.4005   1.3431   4.6270   4.9782
     8.1228   8.9483  12.7153  12.7444  15.0129  15.6151

          k = 0.8556-0.8556-1.2109 (  4184 PWs)   bands (ev):

   -36.1704 -36.1704 -35.9077 -35.9077   0.4080   0.4080   4.7841   4.7841
     7.9734   7.9734  15.0167  15.0167  16.0935  16.0936

          k = 0.4278-0.4278 0.0000 (  4168 PWs)   bands (ev):

   -36.3567 -35.9834 -35.9067 -35.9062  -1.5753   3.8804   5.4898   5.4918
     7.6888   8.5975  11.6110  11.6180  13.0706  13.2429

          k = 0.1426-0.4278 0.2018 (  4180 PWs)   bands (ev):

   -36.3834 -35.9569 -35.9062 -35.9057  -1.7991   4.2541   6.0973   6.3606
     8.2537   8.4722   9.7165  10.2445  12.9792  13.0513

          k =-0.1426-0.4278 0.4036 (  4181 PWs)   bands (ev):

   -36.3618 -35.9788 -35.9065 -35.9058  -1.6266   3.5468   5.6998   6.4709
     8.4547   8.7186   9.5407  10.4751  13.3021  13.3636

          k = 1.2834-0.4278-0.6054 (  4179 PWs)   bands (ev):

   -36.3017 -36.0389 -35.9077 -35.9063  -1.0919   2.3760   4.6498   5.8697
     8.9912   9.5866   9.7865  12.1833  13.6493  13.7230

          k = 0.9982-0.4278-0.4036 (  4179 PWs)   bands (ev):

   -36.2514 -36.0894 -35.9079 -35.9069  -0.5788   1.4982   4.5439   5.3228
     8.5233  10.8416  10.9605  11.0854  13.3159  14.5765

          k = 0.7130-0.4278-0.2018 (  4168 PWs)   bands (ev):

   -36.2941 -36.0465 -35.9073 -35.9069  -1.0098   2.3267   4.9603   5.1976
     8.1675   8.9696  11.7658  11.8431  14.3775  15.0969

          k = 0.1426-0.0000 0.5045 (  4170 PWs)   bands (ev):

   -36.3758 -35.9637 -35.9065 -35.9064  -1.7357   4.3242   5.7649   5.8318
     7.8321   8.7211  10.6747  10.7088  12.9617  13.0717

          k =-0.1426 0.0000 0.7063 (  4160 PWs)   bands (ev):

   -36.3280 -36.0118 -35.9071 -35.9071  -1.3249   3.1111   5.2423   5.2917
     7.8877   8.5811  11.9496  11.9797  13.8491  13.8690

          k = 1.2834 0.0000-0.3027 (  4180 PWs)   bands (ev):

   -36.2630 -36.0774 -35.9077 -35.9074  -0.7002   1.7200   4.7069   5.2007
     8.3395   9.8176  11.4313  11.4899  13.9844  15.2352

          k = 0.9982-0.0000-0.1009 (  4191 PWs)   bands (ev):

   -36.2690 -36.0716 -35.9077 -35.9070  -0.7670   1.7894   4.5122   5.5447
     8.7428  10.2889  10.4042  12.2467  12.7507  14.0707

          k = 0.7130-0.0000 0.1009 (  4185 PWs)   bands (ev):

   -36.3350 -36.0057 -35.9067 -35.9064  -1.3972   3.0149   5.0375   6.2246
     8.9576   8.9920   9.4605  11.3642  13.4782  13.5615

          k = 0.1426-1.2834-0.4036 (  4177 PWs)   bands (ev):

   -36.2840 -36.0565 -35.9076 -35.9070  -0.9168   2.0582   4.8324   5.3438
     8.6481   9.7517  10.2977  11.8952  13.6891  14.8878

          k =-0.1426-1.2834-0.2018 (  4181 PWs)   bands (ev):

   -36.2357 -36.1046 -35.9080 -35.9075  -0.4022   1.3073   4.5251   5.0361
     8.5677   9.8946  11.1020  12.3085  13.9492  15.3700

          k = 1.2834-1.2834-1.2109 (  4188 PWs)   bands (ev):

   -36.1701 -36.1701 -35.9080 -35.9080   0.3949   0.3949   4.5701   4.5701
     9.9202   9.9202  10.8210  10.8210  16.3083  16.3083

          k = 0.9982-1.2834-1.0091 (  4179 PWs)   bands (ev):

   -36.2358 -36.1048 -35.9079 -35.9073  -0.4028   1.3061   4.5256   5.0392
     8.5691   9.8975  11.0993  12.3122  13.9452  15.3711

          k = 0.7130-1.2834-0.8072 (  4177 PWs)   bands (ev):

   -36.2841 -36.0567 -35.9075 -35.9067  -0.9173   2.0567   4.8322   5.3467
     8.6504   9.7540  10.3028  11.8921  13.6882  14.8833

          k = 0.1426-0.8556-0.1009 (  4179 PWs)   bands (ev):

   -36.2972 -36.0434 -35.9073 -35.9068  -1.0481   2.2907   4.7264   5.6737
     9.2337   9.3962   9.7339  12.2204  13.4910  14.0552

          k = 0.9982-0.8556-0.7063 (  4186 PWs)   bands (ev):

   -36.2042 -36.1364 -35.9080 -35.9075  -0.0328   0.8514   4.4749   4.7850
     9.2382   9.9689  10.8671  11.6214  14.9865  16.1369

          k =-1.1408 1.2834 0.5045 (  4177 PWs)   bands (ev):

   -36.2972 -36.0435 -35.9076 -35.9064  -1.0482   2.2896   4.7241   5.6777
     9.2373   9.4010   9.7352  12.2121  13.4940  14.0538

          k =-1.4260 1.2834 0.7063 (  4178 PWs)   bands (ev):

   -36.2972 -36.0433 -35.9077 -35.9066  -1.0480   2.2905   4.7235   5.6772
     9.2348   9.3970   9.7348  12.2156  13.4934  14.0574

          k =-0.2852 1.2834-0.1009 (  4187 PWs)   bands (ev):

   -36.2040 -36.1362 -35.9081 -35.9078  -0.0318   0.8529   4.4740   4.7828
     9.2332   9.9634  10.8621  11.6169  14.9948  16.1452

          k =-0.5704 1.2834 0.1009 (  4185 PWs)   bands (ev):

   -36.2041 -36.1363 -35.9081 -35.9076  -0.0322   0.8523   4.4747   4.7841
     9.2350   9.9656  10.8601  11.6149  14.9964  16.1482

          k =-1.1408 0.0000-0.4036 (  4182 PWs)   bands (ev):

   -36.2837 -36.0572 -35.9071 -35.9070  -0.9202   1.9432   5.0531   5.4772
     8.6493  10.1814  10.4840  10.5217  13.4057  14.9015

          k =-1.4260 0.0000-0.2018 (  4170 PWs)   bands (ev):

   -36.2359 -36.1042 -35.9080 -35.9077  -0.3994   1.3453   4.6252   4.9738
     8.1214   8.9458  12.7134  12.7410  15.0164  15.6163

          k = 0.0000 0.0000-1.2109 (  4184 PWs)   bands (ev):

   -36.1700 -36.1700 -35.9081 -35.9081   0.4100   0.4100   4.7797   4.7797
     7.9722   7.9722  15.0123  15.0123  16.0890  16.0891

     the Fermi energy is     9.8469 ev

!    total energy              =     -74.22266384 Ry
     estimated scf accuracy    <          5.0E-12 Ry
     smearing contrib. (-TS)   =      -0.00093318 Ry
     internal energy E=F+TS    =     -74.22173067 Ry

     The total energy is F=E-TS. E is the sum of the following terms:
     one-electron contribution =     -14.83241490 Ry
     hartree contribution      =      11.54933466 Ry
     xc contribution           =     -20.64263976 Ry
     ewald contribution        =     -50.29601067 Ry

     convergence has been achieved in   9 iterations

     Forces acting on atoms (cartesian axes, Ry/au):

     atom    1 type  1   force =    -0.00007477    0.00000000    0.00000000
     atom    2 type  1   force =    -0.00000000    0.00007477   -0.00000000
     atom    3 type  1   force =     0.00007477    0.00000000    0.00000000
     atom    4 type  1   force =     0.00000000   -0.00007477   -0.00000000
     atom    5 type  2   force =     0.00000000    0.00000000    0.00000000
     atom    6 type  2   force =     0.00000000   -0.00000000    0.00000000
     The non-local contrib.  to forces
     atom    1 type  1   force =     0.00011797   -0.00000000    0.00000000
     atom    2 type  1   force =    -0.00000000   -0.00011797   -0.00000000
     atom    3 type  1   force =    -0.00011797   -0.00000000   -0.00000000
     atom    4 type  1   force =    -0.00000000    0.00011797    0.00000000
     atom    5 type  2   force =     0.00000000    0.00000000    0.00000000
     atom    6 type  2   force =    -0.00000000    0.00000000   -0.00000000
     The ionic contribution  to forces
     atom    1 type  1   force =     0.00024939   -0.00001858   -0.00001078
     atom    2 type  1   force =     0.00001858   -0.00024939   -0.00001078
     atom    3 type  1   force =    -0.00028098    0.00000665    0.00001899
     atom    4 type  1   force =    -0.00000665    0.00028098    0.00001899
     atom    5 type  2   force =     0.00000975   -0.00000991   -0.00000821
     atom    6 type  2   force =     0.00000991   -0.00000975   -0.00000821
     The local contribution  to forces
     atom    1 type  1   force =    -0.00045792   -0.00011304   -0.00028291
     atom    2 type  1   force =     0.00011304    0.00045792   -0.00028291
     atom    3 type  1   force =     0.00045792    0.00012209    0.00028669
     atom    4 type  1   force =    -0.00012209   -0.00045792    0.00028669
     atom    5 type  2   force =    -0.00000000   -0.00000000    0.00000000
     atom    6 type  2   force =    -0.00000000   -0.00000000   -0.00000000
     The core correction contribution to forces
     atom    1 type  1   force =     0.00000000    0.00000000    0.00000000
     atom    2 type  1   force =     0.00000000    0.00000000    0.00000000
     atom    3 type  1   force =     0.00000000    0.00000000    0.00000000
     atom    4 type  1   force =     0.00000000    0.00000000    0.00000000
     atom    5 type  2   force =    -0.00000000   -0.00000000    0.00000000
     atom    6 type  2   force =    -0.00000000   -0.00000000   -0.00000000
     The Hubbard contrib.    to forces
     atom    1 type  1   force =     0.00000000    0.00000000    0.00000000
     atom    2 type  1   force =     0.00000000    0.00000000    0.00000000
     atom    3 type  1   force =     0.00000000    0.00000000    0.00000000
     atom    4 type  1   force =     0.00000000    0.00000000    0.00000000
     atom    5 type  2   force =     0.00000000    0.00000000    0.00000000
     atom    6 type  2   force =     0.00000000    0.00000000    0.00000000
     The SCF correction term to forces
     atom    1 type  1   force =    -0.00000001    0.00000000    0.00000000
     atom    2 type  1   force =    -0.00000000    0.00000001    0.00000000
     atom    3 type  1   force =     0.00000001   -0.00000000   -0.00000000
     atom    4 type  1   force =     0.00000000   -0.00000001   -0.00000000
     atom    5 type  2   force =    -0.00000000    0.00000000    0.00000000
     atom    6 type  2   force =    -0.00000000    0.00000000    0.00000000

     Total force =     0.000150     Total SCF correction =     0.000000


     Computing stress (Cartesian axis) and pressure

          total   stress  (Ry/bohr**3)                   (kbar)     P=      499.75
   0.00339860  -0.00000000  -0.00000000          499.95       -0.00       -0.00
  -0.00000000   0.00339860  -0.00000000           -0.00      499.95       -0.00
  -0.00000000   0.00000000   0.00339460           -0.00        0.00      499.36


     Writing all to output data dir ./output/LiSi.save/

     init_run     :      2.51s CPU      4.94s WALL (       2 calls)
     electrons    :    284.20s CPU    323.66s WALL (      29 calls)
     update_pot   :     25.14s CPU     25.44s WALL (      27 calls)
     forces       :     16.75s CPU     17.02s WALL (      29 calls)
     stress       :     72.88s CPU     76.46s WALL (      29 calls)

     Called by init_run:
     wfcinit      :      1.07s CPU      2.92s WALL (       2 calls)
     potinit      :      0.56s CPU      0.91s WALL (       2 calls)
     hinit0       :      0.73s CPU      0.86s WALL (       2 calls)

     Called by electrons:
     c_bands      :    248.48s CPU    282.06s WALL (     213 calls)
     sum_band     :     31.98s CPU     36.88s WALL (     213 calls)
     v_of_rho     :      3.83s CPU      4.77s WALL (     236 calls)
     mix_rho      :      0.26s CPU      0.34s WALL (     213 calls)

     Called by c_bands:
     init_us_2    :      7.13s CPU      8.17s WALL (   18468 calls)
     init_us_2:cp :      7.10s CPU      8.15s WALL (   18468 calls)
     cegterg      :    232.10s CPU    261.97s WALL (    8094 calls)

     Called by *egterg:
     cdiaghg      :      7.79s CPU      8.22s WALL (   35180 calls)
     h_psi        :    198.58s CPU    229.08s WALL (   36510 calls)
     g_psi        :      1.10s CPU      1.13s WALL (   28340 calls)

     Called by h_psi:
     h_psi:calbec :     14.86s CPU     16.45s WALL (   36510 calls)
     vloc_psi     :    169.91s CPU    198.18s WALL (   36510 calls)
     add_vuspsi   :     13.07s CPU     13.70s WALL (   36510 calls)

     General routines
     calbec       :     18.06s CPU     19.73s WALL (   42020 calls)
     fft          :      2.09s CPU      3.30s WALL (    3089 calls)
     ffts         :      0.11s CPU      0.19s WALL (     213 calls)
     fftw         :    172.78s CPU    201.55s WALL (  799340 calls)

     Parallel routines

     PWSCF        :   6m41.98s CPU   7m28.76s WALL


   This run was terminated on:  15:35:59  27Dec2024            

=------------------------------------------------------------------------------=
   JOB DONE.
=------------------------------------------------------------------------------=
