
     Program PWSCF v.7.2 starts on 26Dec2024 at 19:34:11 

     This program is part of the open-source Quantum ESPRESSO suite
     for quantum simulation of materials; please cite
         "P. Giannozzi et al., J. Phys.:Condens. Matter 21 395502 (2009);
         "P. Giannozzi et al., J. Phys.:Condens. Matter 29 465901 (2017);
         "P. Giannozzi et al., J. Chem. Phys. 152 154105 (2020);
          URL http://www.quantum-espresso.org", 
     in publications or presentations arising from this work. More details at
     http://www.quantum-espresso.org/quote

     Parallel version (MPI & OpenMP), running on       8 processor cores
     Number of MPI processes:                 8
     Threads/MPI process:                     1

     MPI processes distributed on     1 nodes
     479275 MiB available memory on the printing compute node when the environment starts

     Waiting for input...
     Reading input from standard input

     Current dimensions of program PWSCF are:
     Max number of different atomic species (ntypx) = 10
     Max number of k-points (npk) =  40000
     Max angular momentum in pseudopotentials (lmaxx) =  4

     R & G space division:  proc/nbgrp/npool/nimage =       8
     Subspace diagonalization in iterative solution of the eigenvalue problem:
     a serial algorithm will be used


     Parallelization info
     --------------------
     sticks:   dense  smooth     PW     G-vecs:    dense   smooth      PW
     Min         168     168     47                 4038     4038     627
     Max         169     169     48                 4040     4040     631
     Sum        1345    1345    379                32311    32311    5029

     Using Slab Decomposition



     bravais-lattice index     =            2
     lattice parameter (alat)  =      11.0077  a.u.
     unit-cell volume          =     333.4493 (a.u.)^3
     number of atoms/cell      =            3
     number of atomic types    =            2
     number of electrons       =        10.00
     number of Kohn-Sham states=            9
     kinetic-energy cutoff     =      80.0000  Ry
     charge density cutoff     =     320.0000  Ry
     scf convergence threshold =      1.0E-08
     mixing beta               =       0.7000
     number of iterations used =            8  plain     mixing
     energy convergence thresh.=      1.0E-04
     force convergence thresh. =      1.0E-03
     press convergence thresh. =      1.0E+00
     Exchange-correlation= PBE
                           (   1   4   3   4   0   0   0)
     nstep                     =           50


     celldm(1)=  11.007700  celldm(2)=   0.000000  celldm(3)=   0.000000
     celldm(4)=   0.000000  celldm(5)=   0.000000  celldm(6)=   0.000000

     crystal axes: (cart. coord. in units of alat)
               a(1) = (  -0.500000   0.000000   0.500000 )  
               a(2) = (   0.000000   0.500000   0.500000 )  
               a(3) = (  -0.500000   0.500000   0.000000 )  

     reciprocal axes: (cart. coord. in units 2 pi/alat)
               b(1) = ( -1.000000 -1.000000  1.000000 )  
               b(2) = (  1.000000  1.000000  1.000000 )  
               b(3) = ( -1.000000  1.000000 -1.000000 )  


     PseudoPot. # 1 for Li read from file:
     ../pseudo/Li_ONCV_PBE_sr.upf
     MD5 check sum: 50ff420e78310ffa21704f3361e624a4
     Pseudo is Norm-conserving, Zval =  3.0
     Generated using ONCVPSP code by D. R. Hamann
     Using radial grid of 1944 points,  4 beta functions with: 
                l(1) =   0
                l(2) =   0
                l(3) =   1
                l(4) =   1

     PseudoPot. # 2 for Si read from file:
     ../pseudo/Si_ONCV_PBE_sr.upf
     MD5 check sum: e543d271109d17c80368dfa7c482276d
     Pseudo is Norm-conserving + core correction, Zval =  4.0
     Generated using ONCVPSP code by D. R. Hamann
     Using radial grid of 1510 points,  6 beta functions with: 
                l(1) =   0
                l(2) =   0
                l(3) =   1
                l(4) =   1
                l(5) =   2
                l(6) =   2

     atomic species   valence    mass     pseudopotential
        Li             3.00     6.94100     Li( 1.00)
        Si             4.00    28.08550     Si( 1.00)

     48 Sym. Ops., with inversion, found



   Cartesian axes

     site n.     atom                  positions (alat units)
         1           Li  tau(   1) = (   0.2500000   0.2500000   0.2500000  )
         2           Li  tau(   2) = (   0.7500000   0.7500000   0.7500000  )
         3           Si  tau(   3) = (   0.0000000   0.0000000   0.0000000  )

     number of k points=    16  Marzari-Vanderbilt smearing, width (Ry)=  0.0200
                       cart. coord. in units 2pi/alat
        k(    1) = (   0.0000000   0.0000000   0.0000000), wk =   0.0092593
        k(    2) = (  -0.1666667   0.1666667  -0.1666667), wk =   0.0740741
        k(    3) = (  -0.3333333   0.3333333  -0.3333333), wk =   0.0740741
        k(    4) = (   0.5000000  -0.5000000   0.5000000), wk =   0.0370370
        k(    5) = (   0.0000000   0.3333333   0.0000000), wk =   0.0555556
        k(    6) = (  -0.1666667   0.5000000  -0.1666667), wk =   0.2222222
        k(    7) = (   0.6666667  -0.3333333   0.6666667), wk =   0.2222222
        k(    8) = (   0.5000000  -0.1666667   0.5000000), wk =   0.2222222
        k(    9) = (   0.3333333   0.0000000   0.3333333), wk =   0.1111111
        k(   10) = (   0.0000000   0.6666667   0.0000000), wk =   0.0555556
        k(   11) = (   0.8333333  -0.1666667   0.8333333), wk =   0.2222222
        k(   12) = (   0.6666667  -0.0000000   0.6666667), wk =   0.1111111
        k(   13) = (   0.0000000  -1.0000000   0.0000000), wk =   0.0277778
        k(   14) = (   0.6666667  -0.3333333   1.0000000), wk =   0.2222222
        k(   15) = (   0.5000000  -0.1666667   0.8333333), wk =   0.2222222
        k(   16) = (  -0.3333333  -1.0000000   0.0000000), wk =   0.1111111

     Dense  grid:    32311 G-vectors     FFT dimensions: (  45,  45,  45)

     Estimated max dynamical RAM per process >      15.86 MB

     Estimated total dynamical RAM >     126.86 MB

     Initial potential from superposition of free atoms

     starting charge       9.9903, renormalised to      10.0000
     Starting wfcs are    8 randomized atomic wfcs +    1 random wfcs

     total cpu time spent up to now is        0.7 secs

     Self-consistent Calculation

     iteration #  1     ecut=    80.00 Ry     beta= 0.70
     Davidson diagonalization with overlap
     ethr =  1.00E-02,  avg # of iterations =  5.1

     Threshold (ethr) on eigenvalues was too large:
     Diagonalizing with lowered threshold

     Davidson diagonalization with overlap
     ethr =  6.78E-05,  avg # of iterations =  5.3

     total cpu time spent up to now is        1.2 secs

     total energy              =     -37.22802737 Ry
     estimated scf accuracy    <       0.00647583 Ry

     iteration #  2     ecut=    80.00 Ry     beta= 0.70
     Davidson diagonalization with overlap
     ethr =  6.48E-05,  avg # of iterations =  1.4

     total cpu time spent up to now is        1.4 secs

     total energy              =     -37.22834098 Ry
     estimated scf accuracy    <       0.00050642 Ry

     iteration #  3     ecut=    80.00 Ry     beta= 0.70
     Davidson diagonalization with overlap
     c_bands:  1 eigenvalues not converged
     ethr =  5.06E-06,  avg # of iterations =  4.1

     total cpu time spent up to now is        1.6 secs

     total energy              =     -37.22835748 Ry
     estimated scf accuracy    <       0.00001190 Ry

     iteration #  4     ecut=    80.00 Ry     beta= 0.70
     Davidson diagonalization with overlap
     ethr =  1.19E-07,  avg # of iterations =  2.8

     total cpu time spent up to now is        1.9 secs

     total energy              =     -37.22835838 Ry
     estimated scf accuracy    <       0.00000017 Ry

     iteration #  5     ecut=    80.00 Ry     beta= 0.70
     Davidson diagonalization with overlap
     ethr =  1.66E-09,  avg # of iterations =  2.8

     total cpu time spent up to now is        2.1 secs

     total energy              =     -37.22835846 Ry
     estimated scf accuracy    <       0.00000002 Ry

     iteration #  6     ecut=    80.00 Ry     beta= 0.70
     Davidson diagonalization with overlap
     ethr =  2.23E-10,  avg # of iterations =  1.9

     total cpu time spent up to now is        2.3 secs

     End of self-consistent calculation

          k = 0.0000 0.0000 0.0000 (  4015 PWs)   bands (ev):

   -42.1372 -42.1016  -4.9168   4.7745   4.7745   4.7745   7.3299   7.3299
     8.7757

          k =-0.1667 0.1667-0.1667 (  4017 PWs)   bands (ev):

   -42.1347 -42.1039  -4.7063   3.0721   4.4060   4.4060   7.8808   7.8808
     8.0560

          k =-0.3333 0.3333-0.3333 (  4008 PWs)   bands (ev):

   -42.1279 -42.1101  -4.1634   0.9895   3.9466   3.9466   7.9323   7.9323
     8.5585

          k = 0.5000-0.5000 0.5000 (  4044 PWs)   bands (ev):

   -42.1189 -42.1188  -3.7737   0.0505   3.7819   3.7819   7.6756   7.6756
     8.7817

          k = 0.0000 0.3333 0.0000 (  4032 PWs)   bands (ev):

   -42.1340 -42.1044  -4.6377   3.6179   3.7217   3.7217   7.4990   8.4083
     8.8544

          k =-0.1667 0.5000-0.1667 (  4028 PWs)   bands (ev):

   -42.1292 -42.1087  -4.2035   1.7068   3.2283   3.5079   7.4725   8.5293
     9.3918

          k = 0.6667-0.3333 0.6667 (  4018 PWs)   bands (ev):

   -42.1217 -42.1158  -3.7063   0.3816   2.9533   3.2198   7.3843   8.8732
     9.8170

          k = 0.5000-0.1667 0.5000 (  4017 PWs)   bands (ev):

   -42.1240 -42.1137  -3.8387   0.6630   2.6750   3.6759   7.8336   8.5987
     9.6698

          k = 0.3333 0.0000 0.3333 (  4007 PWs)   bands (ev):

   -42.1309 -42.1072  -4.3808   2.1052   3.0577   4.3395   8.2495   8.2937
     9.4420

          k = 0.0000 0.6667 0.0000 (  4040 PWs)   bands (ev):

   -42.1277 -42.1100  -3.9342   1.9358   2.6029   2.6029   6.1613   7.8459
    11.3062

          k = 0.8333-0.1667 0.8333 (  4042 PWs)   bands (ev):

   -42.1238 -42.1136  -3.5449   1.1396   1.9116   2.4825   6.3187   8.6078
    11.4411

          k = 0.6667-0.0000 0.6667 (  4017 PWs)   bands (ev):

   -42.1187 -42.1187  -3.4846   0.8119   1.5608   2.9033   7.1026  10.6016
    10.8941

          k = 0.0000-1.0000 0.0000 (  4040 PWs)   bands (ev):

   -42.1245 -42.1128  -3.4467   1.0875   2.2029   2.2029   5.3435   8.0235
    13.6349

          k = 0.6667-0.3333 1.0000 (  4023 PWs)   bands (ev):

   -42.1247 -42.1129  -3.7685   1.1585   2.1845   2.9341   7.7305   8.8539
     9.2096

          k = 0.5000-0.1667 0.8333 (  4036 PWs)   bands (ev):

   -42.1187 -42.1187  -3.4843   0.7064   1.9961   2.4526   8.0347   8.8992
    10.6904

          k =-0.3333-1.0000 0.0000 (  4054 PWs)   bands (ev):

   -42.1216 -42.1157  -3.3900   1.3094   1.5712   1.8511   7.1244   9.0499
    11.5143

     the Fermi energy is     2.9368 ev

!    total energy              =     -37.22835846 Ry
     estimated scf accuracy    <          2.8E-09 Ry
     smearing contrib. (-TS)   =      -0.00046829 Ry
     internal energy E=F+TS    =     -37.22789017 Ry

     The total energy is F=E-TS. E is the sum of the following terms:
     one-electron contribution =     -15.39688315 Ry
     hartree contribution      =       7.40102485 Ry
     xc contribution           =      -9.79169267 Ry
     ewald contribution        =     -19.44033919 Ry

     convergence has been achieved in   6 iterations

     Forces acting on atoms (cartesian axes, Ry/au):

     atom    1 type  1   force =     0.00000000    0.00000000    0.00000000
     atom    2 type  1   force =     0.00000000    0.00000000    0.00000000
     atom    3 type  2   force =     0.00000000    0.00000000    0.00000000
     The non-local contrib.  to forces
     atom    1 type  1   force =     0.00000000    0.00000000   -0.00000000
     atom    2 type  1   force =    -0.00000000   -0.00000000    0.00000000
     atom    3 type  2   force =     0.00000000    0.00000000   -0.00000000
     The ionic contribution  to forces
     atom    1 type  1   force =    -0.00000000   -0.00000000   -0.00000000
     atom    2 type  1   force =     0.00000000    0.00000000    0.00000000
     atom    3 type  2   force =    -0.00000000   -0.00000000   -0.00000000
     The local contribution  to forces
     atom    1 type  1   force =     0.00000000    0.00000000    0.00000000
     atom    2 type  1   force =     0.00000000    0.00000000    0.00000000
     atom    3 type  2   force =    -0.00000000   -0.00000000    0.00000000
     The core correction contribution to forces
     atom    1 type  1   force =     0.00000000    0.00000000    0.00000000
     atom    2 type  1   force =     0.00000000    0.00000000    0.00000000
     atom    3 type  2   force =    -0.00000000   -0.00000000   -0.00000000
     The Hubbard contrib.    to forces
     atom    1 type  1   force =     0.00000000    0.00000000    0.00000000
     atom    2 type  1   force =     0.00000000    0.00000000    0.00000000
     atom    3 type  2   force =     0.00000000    0.00000000    0.00000000
     The SCF correction term to forces
     atom    1 type  1   force =    -0.00000000    0.00000000   -0.00000000
     atom    2 type  1   force =    -0.00000000   -0.00000000   -0.00000000
     atom    3 type  2   force =    -0.00000000    0.00000000   -0.00000000

     Total force =     0.000000     Total SCF correction =     0.000000


     Computing stress (Cartesian axis) and pressure

          total   stress  (Ry/bohr**3)                   (kbar)     P=       46.01
   0.00031280  -0.00000000  -0.00000000           46.01       -0.00       -0.00
  -0.00000000   0.00031280   0.00000000           -0.00       46.01        0.00
  -0.00000000   0.00000000   0.00031280           -0.00        0.00       46.01


     BFGS Geometry Optimization
     Energy error            =      0.0E+00 Ry
     Gradient error          =      4.1E-33 Ry/Bohr
     Cell gradient error     =      4.5E+02 kbar

     number of scf cycles    =   1
     number of bfgs steps    =   0

     enthalpy           new  =     -36.0949873321 Ry

     new trust radius        =       0.2817729430 bohr
ibrav =      2
 celldm(1) =     10.15842020
Input lattice vectors:
    -0.46142336     0.00000000     0.46142336
    -0.00000000     0.46142336     0.46142336
    -0.46142336     0.46142336     0.00000000
New lattice vectors in INITIAL alat:
    -0.46142336     0.00000000     0.46142336
     0.00000000     0.46142336     0.46142336
    -0.46142336     0.46142336     0.00000000
New lattice vectors in NEW alat (for information only):
    -0.50000000     0.00000000     0.50000000
     0.00000000     0.50000000     0.50000000
    -0.50000000     0.50000000     0.00000000
Discrepancy in bohr =     0.000000    0.000000    0.000000
     new conv_thr            =       0.0000000100 Ry

     new unit-cell volume =    262.07074 a.u.^3 (    38.83488 Ang^3 )
     density =      1.79449 g/cm^3

CELL_PARAMETERS (alat= 11.00770037)
  -0.461423360   0.000000000   0.461423360
   0.000000000   0.461423360   0.461423360
  -0.461423360   0.461423360   0.000000000

ATOMIC_POSITIONS (crystal)
Li           -0.2500000000        0.7500000000       -0.2500000000
Li           -0.7500000000        2.2500000000       -0.7500000000
Si           -0.0000000000        0.0000000000       -0.0000000000



     Writing config-only to output data dir ./output/LiSi.save/
     NEW-OLD atomic charge density approx. for the potential
     extrapolated charge    7.27901, renormalised to   10.00000

     total cpu time spent up to now is        3.5 secs

     Self-consistent Calculation

     iteration #  1     ecut=    80.00 Ry     beta= 0.70
     Davidson diagonalization with overlap
     ethr =  1.00E-06,  avg # of iterations =  8.9

     total cpu time spent up to now is        4.0 secs

     total energy              =     -37.06978505 Ry
     estimated scf accuracy    <       0.06028328 Ry

     iteration #  2     ecut=    80.00 Ry     beta= 0.70
     Davidson diagonalization with overlap
     ethr =  6.03E-04,  avg # of iterations =  2.0

     total cpu time spent up to now is        4.3 secs

     total energy              =     -37.17451776 Ry
     estimated scf accuracy    <       0.00946672 Ry

     iteration #  3     ecut=    80.00 Ry     beta= 0.70
     Davidson diagonalization with overlap
     ethr =  9.47E-05,  avg # of iterations =  1.7

     total cpu time spent up to now is        4.6 secs

     total energy              =     -37.17372108 Ry
     estimated scf accuracy    <       0.00192476 Ry

     iteration #  4     ecut=    80.00 Ry     beta= 0.70
     Davidson diagonalization with overlap
     ethr =  1.92E-05,  avg # of iterations =  2.4

     total cpu time spent up to now is        4.9 secs

     total energy              =     -37.17388067 Ry
     estimated scf accuracy    <       0.00001463 Ry

     iteration #  5     ecut=    80.00 Ry     beta= 0.70
     Davidson diagonalization with overlap
     ethr =  1.46E-07,  avg # of iterations =  3.6

     total cpu time spent up to now is        5.3 secs

     total energy              =     -37.17388246 Ry
     estimated scf accuracy    <       0.00000381 Ry

     iteration #  6     ecut=    80.00 Ry     beta= 0.70
     Davidson diagonalization with overlap
     ethr =  3.81E-08,  avg # of iterations =  1.0

     total cpu time spent up to now is        5.6 secs

     total energy              =     -37.17388068 Ry
     estimated scf accuracy    <       0.00000292 Ry

     iteration #  7     ecut=    80.00 Ry     beta= 0.70
     Davidson diagonalization with overlap
     ethr =  2.92E-08,  avg # of iterations =  2.0

     total cpu time spent up to now is        6.0 secs

     total energy              =     -37.17388092 Ry
     estimated scf accuracy    <       0.00000006 Ry

     iteration #  8     ecut=    80.00 Ry     beta= 0.70
     Davidson diagonalization with overlap
     ethr =  6.22E-10,  avg # of iterations =  2.0

     total cpu time spent up to now is        6.2 secs

     total energy              =     -37.17388091 Ry
     estimated scf accuracy    <       0.00000002 Ry

     iteration #  9     ecut=    80.00 Ry     beta= 0.70
     Davidson diagonalization with overlap
     ethr =  1.80E-10,  avg # of iterations =  1.9

     total cpu time spent up to now is        6.5 secs

     End of self-consistent calculation

          k = 0.0000 0.0000 0.0000 (  4015 PWs)   bands (ev):

   -40.2213 -40.1328  -3.8770   7.0625   7.0625   7.0625   9.1682   9.1682
    12.4373

          k =-0.1806 0.1806-0.1806 (  4017 PWs)   bands (ev):

   -40.2148 -40.1383  -3.6217   4.8666   6.5055   6.5055   9.9225   9.9225
    10.5282

          k =-0.3612 0.3612-0.3612 (  4008 PWs)   bands (ev):

   -40.1976 -40.1535  -2.9305   2.3191   5.9166   5.9166   9.8777   9.8777
    11.5372

          k = 0.5418-0.5418 0.5418 (  4044 PWs)   bands (ev):

   -40.1752 -40.1749  -2.3790   1.1095   5.7218   5.7218   9.5244   9.5244
    11.9569

          k =-0.0000 0.3612-0.0000 (  4032 PWs)   bands (ev):

   -40.2132 -40.1396  -3.5397   5.5435   5.5435   5.7654   9.4743  11.2541
    11.2541

          k =-0.1806 0.5418-0.1806 (  4028 PWs)   bands (ev):

   -40.2010 -40.1501  -2.9953   3.2158   4.9251   5.4503   9.4963  10.7900
    11.8099

          k = 0.7224-0.3612 0.7224 (  4018 PWs)   bands (ev):

   -40.1822 -40.1675  -2.3077   1.5112   4.7212   4.9385   9.4327  11.0618
    12.9582

          k = 0.5418-0.1806 0.5418 (  4017 PWs)   bands (ev):

   -40.1878 -40.1623  -2.4964   1.8762   4.3383   5.5488  10.0144  10.6679
    12.7610

          k = 0.3612-0.0000 0.3612 (  4007 PWs)   bands (ev):

   -40.2053 -40.1465  -3.2175   3.7090   4.7497   6.4600  10.2509  10.6552
    12.1356

          k =-0.0000 0.7224-0.0000 (  4040 PWs)   bands (ev):

   -40.1970 -40.1531  -2.6625   3.7155   4.1347   4.1347   7.9773  10.1341
    14.1975

          k = 0.9030-0.1806 0.9030 (  4042 PWs)   bands (ev):

   -40.1871 -40.1619  -2.1277   2.5212   3.3936   3.9923   8.2837  11.0653
    14.1796

          k = 0.7224-0.0000 0.7224 (  4017 PWs)   bands (ev):

   -40.1746 -40.1745  -2.0081   1.9346   3.0742   4.5289   9.2757  13.3649
    13.3687

          k = 0.0000-1.0836 0.0000 (  4040 PWs)   bands (ev):

   -40.1888 -40.1598  -2.0127   2.5965   3.6443   3.6443   7.0617  10.4920
    16.6248

          k = 0.7224-0.3612 1.0836 (  4023 PWs)   bands (ev):

   -40.1895 -40.1602  -2.4206   2.5043   3.7163   4.6232   9.9374  11.1840
    11.7515

          k = 0.5418-0.1806 0.9030 (  4036 PWs)   bands (ev):

   -40.1745 -40.1745  -2.0076   1.8465   3.5730   3.9744  10.3310  11.3701
    13.3684

          k =-0.3612-1.0836 0.0000 (  4054 PWs)   bands (ev):

   -40.1816 -40.1671  -1.8974   2.7434   2.8107   3.3229   9.2811  11.5833
    13.9339

     the Fermi energy is     4.6526 ev

!    total energy              =     -37.17388092 Ry
     estimated scf accuracy    <          1.8E-09 Ry
     smearing contrib. (-TS)   =      -0.00113624 Ry
     internal energy E=F+TS    =     -37.17274467 Ry

     The total energy is F=E-TS. E is the sum of the following terms:
     one-electron contribution =     -13.09525043 Ry
     hartree contribution      =       6.97145364 Ry
     xc contribution           =      -9.98332696 Ry
     ewald contribution        =     -21.06562092 Ry

     convergence has been achieved in   9 iterations

     Forces acting on atoms (cartesian axes, Ry/au):

     atom    1 type  1   force =     0.00000000    0.00000000    0.00000000
     atom    2 type  1   force =     0.00000000    0.00000000    0.00000000
     atom    3 type  2   force =     0.00000000    0.00000000   -0.00000000
     The non-local contrib.  to forces
     atom    1 type  1   force =     0.00000000   -0.00000000   -0.00000000
     atom    2 type  1   force =    -0.00000000    0.00000000    0.00000000
     atom    3 type  2   force =     0.00000000    0.00000000    0.00000000
     The ionic contribution  to forces
     atom    1 type  1   force =    -0.00000000   -0.00000000   -0.00000000
     atom    2 type  1   force =     0.00000000   -0.00000000   -0.00000000
     atom    3 type  2   force =    -0.00000000   -0.00000000   -0.00000000
     The local contribution  to forces
     atom    1 type  1   force =     0.00000000    0.00000000    0.00000000
     atom    2 type  1   force =     0.00000000    0.00000000    0.00000000
     atom    3 type  2   force =    -0.00000000    0.00000000    0.00000000
     The core correction contribution to forces
     atom    1 type  1   force =     0.00000000    0.00000000    0.00000000
     atom    2 type  1   force =     0.00000000    0.00000000    0.00000000
     atom    3 type  2   force =    -0.00000000    0.00000000    0.00000000
     The Hubbard contrib.    to forces
     atom    1 type  1   force =     0.00000000    0.00000000    0.00000000
     atom    2 type  1   force =     0.00000000    0.00000000    0.00000000
     atom    3 type  2   force =     0.00000000    0.00000000    0.00000000
     The SCF correction term to forces
     atom    1 type  1   force =    -0.00000000    0.00000000   -0.00000000
     atom    2 type  1   force =     0.00000000    0.00000000    0.00000000
     atom    3 type  2   force =    -0.00000000   -0.00000000    0.00000000

     Total force =     0.000000     Total SCF correction =     0.000000


     Computing stress (Cartesian axis) and pressure

          total   stress  (Ry/bohr**3)                   (kbar)     P=      204.47
   0.00138997  -0.00000000  -0.00000000          204.47       -0.00       -0.00
  -0.00000000   0.00138997   0.00000000           -0.00      204.47        0.00
  -0.00000000   0.00000000   0.00138997           -0.00        0.00      204.47

     Energy error            =      1.9E-01 Ry
     Gradient error          =      4.9E-32 Ry/Bohr
     Cell gradient error     =      3.0E+02 kbar

     number of scf cycles    =   2
     number of bfgs steps    =   1

     enthalpy           old  =     -36.0949873321 Ry
     enthalpy           new  =     -36.2831205873 Ry

     CASE: enthalpy          _new < enthalpy          _old

     new trust radius        =       0.3367651720 bohr
ibrav =      2
 celldm(1) =      9.10181173
Input lattice vectors:
    -0.41342930     0.00000000     0.41342930
    -0.00000000     0.41342930     0.41342930
    -0.41342930     0.41342930     0.00000000
New lattice vectors in INITIAL alat:
    -0.41342930     0.00000000     0.41342930
     0.00000000     0.41342930     0.41342930
    -0.41342930     0.41342930     0.00000000
New lattice vectors in NEW alat (for information only):
    -0.50000000     0.00000000     0.50000000
     0.00000000     0.50000000     0.50000000
    -0.50000000     0.50000000     0.00000000
Discrepancy in bohr =     0.000000    0.000000    0.000000
     new conv_thr            =            1.0E-10 Ry

     new unit-cell volume =    188.50529 a.u.^3 (    27.93360 Ang^3 )
     density =      2.49480 g/cm^3

CELL_PARAMETERS (alat= 11.00770037)
  -0.413429301   0.000000000   0.413429301
   0.000000000   0.413429301   0.413429301
  -0.413429301   0.413429301   0.000000000

ATOMIC_POSITIONS (crystal)
Li           -0.2500000000        0.7500000000       -0.2500000000
Li           -0.7500000000        2.2500000000       -0.7500000000
Si           -0.0000000000       -0.0000000000        0.0000000000



     Writing config-only to output data dir ./output/LiSi.save/
     NEW-OLD atomic charge density approx. for the potential

     negative rho (up, down):  8.674E-05 0.000E+00
     extrapolated charge    6.10123, renormalised to   10.00000

     total cpu time spent up to now is        7.7 secs

     Self-consistent Calculation

     iteration #  1     ecut=    80.00 Ry     beta= 0.70
     Davidson diagonalization with overlap
     ethr =  1.00E-06,  avg # of iterations =  9.4

     total cpu time spent up to now is        8.2 secs

     total energy              =     -36.76869354 Ry
     estimated scf accuracy    <       0.17434137 Ry

     iteration #  2     ecut=    80.00 Ry     beta= 0.70
     Davidson diagonalization with overlap
     ethr =  1.74E-03,  avg # of iterations =  2.0

     total cpu time spent up to now is        8.6 secs

     total energy              =     -36.97221158 Ry
     estimated scf accuracy    <       0.01971223 Ry

     iteration #  3     ecut=    80.00 Ry     beta= 0.70
     Davidson diagonalization with overlap
     ethr =  1.97E-04,  avg # of iterations =  2.1

     total cpu time spent up to now is        8.8 secs

     total energy              =     -36.97157411 Ry
     estimated scf accuracy    <       0.00277380 Ry

     iteration #  4     ecut=    80.00 Ry     beta= 0.70
     Davidson diagonalization with overlap
     ethr =  2.77E-05,  avg # of iterations =  1.9

     total cpu time spent up to now is        9.1 secs

     total energy              =     -36.97183263 Ry
     estimated scf accuracy    <       0.00001184 Ry

     iteration #  5     ecut=    80.00 Ry     beta= 0.70
     Davidson diagonalization with overlap
     ethr =  1.18E-07,  avg # of iterations =  3.7

     total cpu time spent up to now is        9.4 secs

     total energy              =     -36.97183883 Ry
     estimated scf accuracy    <       0.00000052 Ry

     iteration #  6     ecut=    80.00 Ry     beta= 0.70
     Davidson diagonalization with overlap
     ethr =  5.19E-09,  avg # of iterations =  2.0

     total cpu time spent up to now is        9.7 secs

     total energy              =     -36.97183889 Ry
     estimated scf accuracy    <       0.00000002 Ry

     iteration #  7     ecut=    80.00 Ry     beta= 0.70
     Davidson diagonalization with overlap
     ethr =  2.16E-10,  avg # of iterations =  1.9

     total cpu time spent up to now is       10.0 secs

     total energy              =     -36.97183889 Ry
     estimated scf accuracy    <          2.8E-09 Ry

     iteration #  8     ecut=    80.00 Ry     beta= 0.70
     Davidson diagonalization with overlap
     ethr =  2.78E-11,  avg # of iterations =  2.0

     total cpu time spent up to now is       10.3 secs

     total energy              =     -36.97183889 Ry
     estimated scf accuracy    <          1.1E-10 Ry

     iteration #  9     ecut=    80.00 Ry     beta= 0.70
     Davidson diagonalization with overlap
     ethr =  1.10E-12,  avg # of iterations =  1.6

     total cpu time spent up to now is       10.6 secs

     End of self-consistent calculation

          k = 0.0000 0.0000 0.0000 (  4015 PWs)   bands (ev):

   -37.3855 -37.1111  -1.7655  11.2279  11.2279  11.2279  12.2814  12.2814
    12.2814

          k =-0.2016 0.2016-0.2016 (  4017 PWs)   bands (ev):

   -37.3647 -37.1274  -1.4674   8.0223  10.1853  10.1853  13.5358  13.5358
    14.7710

          k =-0.4031 0.4031-0.4031 (  4008 PWs)   bands (ev):

   -37.3099 -37.1734  -0.6014   4.7860   9.4267   9.4267  13.2042  13.2042
    16.6534

          k = 0.6047-0.6047 0.6047 (  4044 PWs)   bands (ev):

   -37.2401 -37.2387   0.2203   3.1259   9.2157   9.2157  12.6510  12.6510
    17.4883

          k = 0.0000 0.4031 0.0000 (  4032 PWs)   bands (ev):

   -37.3593 -37.1312  -1.3759   8.7188   8.7188   9.6933  12.8383  14.4544
    15.5093

          k =-0.2016 0.6047-0.2016 (  4028 PWs)   bands (ev):

   -37.3202 -37.1628  -0.7144   5.9317   7.9154   8.9983  12.9472  14.6232
    15.9925

          k = 0.8063-0.4031 0.8063 (  4018 PWs)   bands (ev):

   -37.2611 -37.2159   0.2615   3.6311   7.9197   7.9839  12.9988  14.8236
    17.7947

          k = 0.6047-0.2016 0.6047 (  4017 PWs)   bands (ev):

   -37.2786 -37.1999  -0.0185   4.1306   7.3438   8.8750  13.8200  14.2009
    18.0474

          k = 0.4031 0.0000 0.4031 (  4007 PWs)   bands (ev):

   -37.3342 -37.1520  -0.9806   6.5620   7.7770  10.2694  13.6368  14.7255
    16.8398

          k = 0.0000 0.8063 0.0000 (  4040 PWs)   bands (ev):

   -37.3067 -37.1714  -0.3402   6.8596   6.8596   7.0588  11.1658  14.1047
    19.1618

          k = 1.0078-0.2016 1.0078 (  4042 PWs)   bands (ev):

   -37.2754 -37.1981   0.3825   4.9845   6.2683   6.6868  11.7987  15.3227
    18.8166

          k = 0.8063-0.0000 0.8063 (  4017 PWs)   bands (ev):

   -37.2371 -37.2366   0.6672   3.9491   5.9492   7.4171  13.1589  17.5487
    18.0346

          k = 0.0000-1.2094 0.0000 (  4040 PWs)   bands (ev):

   -37.2802 -37.1914   0.4652   5.5487   6.2280   6.2280  10.1626  14.8446
    21.6954

          k = 0.8063-0.4031 1.2094 (  4023 PWs)   bands (ev):

   -37.2836 -37.1932   0.0327   4.9258   6.5203   7.7123  13.8191  15.1378
    16.0713

          k = 0.6047-0.2016 1.0078 (  4036 PWs)   bands (ev):

   -37.2370 -37.2367   0.6681   3.9010   6.4931   6.7637  14.3912  15.5469
    17.8957

          k =-0.4031-1.2094 0.0000 (  4054 PWs)   bands (ev):

   -37.2581 -37.2137   0.7437   4.8131   5.7002   6.0369  13.0983  15.9682
    18.9060

     the Fermi energy is     7.7234 ev

!    total energy              =     -36.97183889 Ry
     estimated scf accuracy    <          5.3E-13 Ry
     smearing contrib. (-TS)   =      -0.00089088 Ry
     internal energy E=F+TS    =     -36.97094801 Ry

     The total energy is F=E-TS. E is the sum of the following terms:
     one-electron contribution =      -9.57542855 Ry
     hartree contribution      =       6.42066624 Ry
     xc contribution           =     -10.30510513 Ry
     ewald contribution        =     -23.51108057 Ry

     convergence has been achieved in   9 iterations

     Forces acting on atoms (cartesian axes, Ry/au):

     atom    1 type  1   force =     0.00000000    0.00000000   -0.00000000
     atom    2 type  1   force =     0.00000000   -0.00000000    0.00000000
     atom    3 type  2   force =    -0.00000000   -0.00000000   -0.00000000
     The non-local contrib.  to forces
     atom    1 type  1   force =    -0.00000000   -0.00000000    0.00000000
     atom    2 type  1   force =    -0.00000000   -0.00000000   -0.00000000
     atom    3 type  2   force =     0.00000000    0.00000000    0.00000000
     The ionic contribution  to forces
     atom    1 type  1   force =    -0.00000000   -0.00000000    0.00000000
     atom    2 type  1   force =     0.00000000   -0.00000000   -0.00000000
     atom    3 type  2   force =    -0.00000000    0.00000000    0.00000000
     The local contribution  to forces
     atom    1 type  1   force =     0.00000000    0.00000000   -0.00000000
     atom    2 type  1   force =     0.00000000   -0.00000000   -0.00000000
     atom    3 type  2   force =    -0.00000000   -0.00000000    0.00000000
     The core correction contribution to forces
     atom    1 type  1   force =     0.00000000    0.00000000    0.00000000
     atom    2 type  1   force =     0.00000000    0.00000000    0.00000000
     atom    3 type  2   force =     0.00000000    0.00000000    0.00000000
     The Hubbard contrib.    to forces
     atom    1 type  1   force =     0.00000000    0.00000000    0.00000000
     atom    2 type  1   force =     0.00000000    0.00000000    0.00000000
     atom    3 type  2   force =     0.00000000    0.00000000    0.00000000
     The SCF correction term to forces
     atom    1 type  1   force =    -0.00000000   -0.00000000    0.00000000
     atom    2 type  1   force =    -0.00000000    0.00000000   -0.00000000
     atom    3 type  2   force =     0.00000000   -0.00000000   -0.00000000

     Total force =     0.000000     Total SCF correction =     0.000000


     Computing stress (Cartesian axis) and pressure

          total   stress  (Ry/bohr**3)                   (kbar)     P=      704.20
   0.00478705  -0.00000000  -0.00000000          704.20       -0.00       -0.00
  -0.00000000   0.00478705   0.00000000           -0.00      704.20        0.00
  -0.00000000  -0.00000000   0.00478705           -0.00       -0.00      704.20

     Energy error            =      4.8E-02 Ry
     Gradient error          =      2.8E-31 Ry/Bohr
     Cell gradient error     =      2.0E+02 kbar

     number of scf cycles    =   3
     number of bfgs steps    =   2

     enthalpy           old  =     -36.2831205873 Ry
     enthalpy           new  =     -36.3311224141 Ry

     CASE: enthalpy          _new < enthalpy          _old

     new trust radius        =       0.1137338928 bohr
ibrav =      2
 celldm(1) =      9.47879839
Input lattice vectors:
    -0.43055307     0.00000000     0.43055307
    -0.00000000     0.43055307     0.43055307
    -0.43055307     0.43055307     0.00000000
New lattice vectors in INITIAL alat:
    -0.43055307     0.00000000     0.43055307
     0.00000000     0.43055307     0.43055307
    -0.43055307     0.43055307     0.00000000
New lattice vectors in NEW alat (for information only):
    -0.50000000     0.00000000     0.50000000
     0.00000000     0.50000000     0.50000000
    -0.50000000     0.50000000     0.00000000
Discrepancy in bohr =     0.000000    0.000000    0.000000
     new conv_thr            =            1.0E-10 Ry

     new unit-cell volume =    212.91187 a.u.^3 (    31.55028 Ang^3 )
     density =      2.20881 g/cm^3

CELL_PARAMETERS (alat= 11.00770037)
  -0.430553071   0.000000000   0.430553071
   0.000000000   0.430553071   0.430553071
  -0.430553071   0.430553071   0.000000000

ATOMIC_POSITIONS (crystal)
Li           -0.2500000000        0.7500000000       -0.2500000000
Li           -0.7500000000        2.2500000000       -0.7500000000
Si            0.0000000000       -0.0000000000        0.0000000000



     Writing config-only to output data dir ./output/LiSi.save/
     NEW-OLD atomic charge density approx. for the potential
     extrapolated charge   11.14521, renormalised to   10.00000

     total cpu time spent up to now is       11.8 secs

     Self-consistent Calculation

     iteration #  1     ecut=    80.00 Ry     beta= 0.70
     Davidson diagonalization with overlap
     ethr =  1.00E-06,  avg # of iterations =  7.1

     total cpu time spent up to now is       12.2 secs

     total energy              =     -37.04858204 Ry
     estimated scf accuracy    <       0.00296594 Ry

     iteration #  2     ecut=    80.00 Ry     beta= 0.70
     Davidson diagonalization with overlap
     ethr =  2.97E-05,  avg # of iterations =  3.7

     total cpu time spent up to now is       12.6 secs

     total energy              =     -37.06815943 Ry
     estimated scf accuracy    <       0.00351889 Ry

     iteration #  3     ecut=    80.00 Ry     beta= 0.70
     Davidson diagonalization with overlap
     ethr =  2.97E-05,  avg # of iterations =  1.0

     total cpu time spent up to now is       12.9 secs

     total energy              =     -37.06736162 Ry
     estimated scf accuracy    <       0.00132776 Ry

     iteration #  4     ecut=    80.00 Ry     beta= 0.70
     Davidson diagonalization with overlap
     ethr =  1.33E-05,  avg # of iterations =  2.0

     total cpu time spent up to now is       13.1 secs

     total energy              =     -37.06749838 Ry
     estimated scf accuracy    <       0.00000857 Ry

     iteration #  5     ecut=    80.00 Ry     beta= 0.70
     Davidson diagonalization with overlap
     ethr =  8.57E-08,  avg # of iterations =  2.5

     total cpu time spent up to now is       13.4 secs

     total energy              =     -37.06749138 Ry
     estimated scf accuracy    <       0.00001330 Ry

     iteration #  6     ecut=    80.00 Ry     beta= 0.70
     Davidson diagonalization with overlap
     ethr =  8.57E-08,  avg # of iterations =  2.0

     total cpu time spent up to now is       13.7 secs

     total energy              =     -37.06749197 Ry
     estimated scf accuracy    <       0.00000034 Ry

     iteration #  7     ecut=    80.00 Ry     beta= 0.70
     Davidson diagonalization with overlap
     ethr =  3.43E-09,  avg # of iterations =  2.0

     total cpu time spent up to now is       14.0 secs

     total energy              =     -37.06749201 Ry
     estimated scf accuracy    <          2.8E-09 Ry

     iteration #  8     ecut=    80.00 Ry     beta= 0.70
     Davidson diagonalization with overlap
     ethr =  2.77E-11,  avg # of iterations =  3.1

     total cpu time spent up to now is       14.2 secs

     total energy              =     -37.06749201 Ry
     estimated scf accuracy    <          4.0E-09 Ry

     iteration #  9     ecut=    80.00 Ry     beta= 0.70
     Davidson diagonalization with overlap
     ethr =  2.77E-11,  avg # of iterations =  1.0

     total cpu time spent up to now is       14.4 secs

     total energy              =     -37.06749201 Ry
     estimated scf accuracy    <          1.2E-09 Ry

     iteration # 10     ecut=    80.00 Ry     beta= 0.70
     Davidson diagonalization with overlap
     ethr =  1.16E-11,  avg # of iterations =  2.0

     total cpu time spent up to now is       15.0 secs

     End of self-consistent calculation

          k = 0.0000 0.0000 0.0000 (  4015 PWs)   bands (ev):

   -38.4572 -38.2738  -2.6603   9.5316   9.5316   9.5316  11.0416  11.0416
    11.0416

          k =-0.1935 0.1935-0.1935 (  4017 PWs)   bands (ev):

   -38.4435 -38.2849  -2.3742   6.7533   8.7121   8.7121  12.0685  12.0685
    13.0641

          k =-0.3871 0.3871-0.3871 (  4008 PWs)   bands (ev):

   -38.4072 -38.3159  -1.5657   3.7756   8.0094   8.0094  11.8736  11.8736
    14.6065

          k = 0.5806-0.5806 0.5806 (  4044 PWs)   bands (ev):

   -38.3606 -38.3599  -0.8497   2.2930   7.7982   7.7982  11.4064  11.4064
    15.2668

          k =-0.0000 0.3871-0.0000 (  4032 PWs)   bands (ev):

   -38.4400 -38.2875  -2.2845   7.4461   7.4461   8.0916  11.4957  12.9840
    13.7864

          k =-0.1935 0.5806-0.1935 (  4028 PWs)   bands (ev):

   -38.4142 -38.3088  -1.6586   4.8309   6.7115   7.5533  11.5653  13.0930
    14.3145

          k = 0.7742-0.3871 0.7742 (  4018 PWs)   bands (ev):

   -38.3749 -38.3446  -0.7903   2.7596   6.6207   6.7557  11.5619  13.3171
    15.9717

          k = 0.5806-0.1935 0.5806 (  4017 PWs)   bands (ev):

   -38.3865 -38.3338  -1.0355   3.2072   6.1232   7.5330  12.2859  12.7893
    15.9396

          k = 0.3871 0.0000 0.3871 (  4007 PWs)   bands (ev):

   -38.4234 -38.3015  -1.9125   5.4111   6.5512   8.7266  12.2888  13.0886
    14.3437

          k =-0.0000 0.7742-0.0000 (  4040 PWs)   bands (ev):

   -38.4054 -38.3147  -1.2899   5.6858   5.7586   5.7586   9.8762  12.5096
    17.1753

          k = 0.9677-0.1935 0.9677 (  4042 PWs)   bands (ev):

   -38.3847 -38.3327  -0.6304   3.9917   5.0694   5.5968  10.3709  13.6128
    16.9694

          k = 0.7742-0.0000 0.7742 (  4017 PWs)   bands (ev):

   -38.3589 -38.3586  -0.4223   3.1337   4.7613   6.2507  11.5824  15.8854
    16.1735

          k = 0.0000-1.1613 0.0000 (  4040 PWs)   bands (ev):

   -38.3881 -38.3283  -0.5244   4.3172   5.1812   5.1812   8.8979  13.0862
    19.6753

          k = 0.7742-0.3871 1.1613 (  4023 PWs)   bands (ev):

   -38.3899 -38.3294  -0.9689   3.9459   5.3762   6.4512  12.2516  13.5607
    14.3458

          k = 0.5806-0.1935 0.9677 (  4036 PWs)   bands (ev):

   -38.3588 -38.3587  -0.4214   3.0691   5.2978   5.6228  12.7508  13.8807
    16.0920

          k =-0.3871-1.1613 0.0000 (  4054 PWs)   bands (ev):

   -38.3732 -38.3433  -0.3206   3.9773   4.5014   4.9270  11.5550  14.2071
    16.9234

     the Fermi energy is     6.4788 ev

!    total energy              =     -37.06749201 Ry
     estimated scf accuracy    <          5.2E-12 Ry
     smearing contrib. (-TS)   =      -0.00108849 Ry
     internal energy E=F+TS    =     -37.06640353 Ry

     The total energy is F=E-TS. E is the sum of the following terms:
     one-electron contribution =     -10.93224263 Ry
     hartree contribution      =       6.61930733 Ry
     xc contribution           =     -10.17746016 Ry
     ewald contribution        =     -22.57600807 Ry

     convergence has been achieved in  10 iterations

     Forces acting on atoms (cartesian axes, Ry/au):

     atom    1 type  1   force =    -0.00000000   -0.00000000    0.00000000
     atom    2 type  1   force =     0.00000000    0.00000000   -0.00000000
     atom    3 type  2   force =     0.00000000    0.00000000    0.00000000
     The non-local contrib.  to forces
     atom    1 type  1   force =    -0.00000000    0.00000000   -0.00000000
     atom    2 type  1   force =     0.00000000    0.00000000   -0.00000000
     atom    3 type  2   force =     0.00000000    0.00000000    0.00000000
     The ionic contribution  to forces
     atom    1 type  1   force =     0.00000000    0.00000000   -0.00000000
     atom    2 type  1   force =     0.00000000   -0.00000000   -0.00000000
     atom    3 type  2   force =    -0.00000000    0.00000000    0.00000000
     The local contribution  to forces
     atom    1 type  1   force =     0.00000000   -0.00000000    0.00000000
     atom    2 type  1   force =    -0.00000000   -0.00000000   -0.00000000
     atom    3 type  2   force =     0.00000000   -0.00000000   -0.00000000
     The core correction contribution to forces
     atom    1 type  1   force =     0.00000000    0.00000000    0.00000000
     atom    2 type  1   force =     0.00000000    0.00000000    0.00000000
     atom    3 type  2   force =    -0.00000000    0.00000000    0.00000000
     The Hubbard contrib.    to forces
     atom    1 type  1   force =     0.00000000    0.00000000    0.00000000
     atom    2 type  1   force =     0.00000000    0.00000000    0.00000000
     atom    3 type  2   force =     0.00000000    0.00000000    0.00000000
     The SCF correction term to forces
     atom    1 type  1   force =     0.00000000   -0.00000000    0.00000000
     atom    2 type  1   force =     0.00000000   -0.00000000   -0.00000000
     atom    3 type  2   force =     0.00000000   -0.00000000    0.00000000

     Total force =     0.000000     Total SCF correction =     0.000000


     Computing stress (Cartesian axis) and pressure

          total   stress  (Ry/bohr**3)                   (kbar)     P=      466.37
   0.00317034  -0.00000000   0.00000000          466.37       -0.00        0.00
   0.00000000   0.00317034   0.00000000            0.00      466.37        0.00
   0.00000000   0.00000000   0.00317034            0.00        0.00      466.37

     Energy error            =      1.3E-02 Ry
     Gradient error          =      3.8E-31 Ry/Bohr
     Cell gradient error     =      3.4E+01 kbar

     number of scf cycles    =   4
     number of bfgs steps    =   3

     enthalpy           old  =     -36.3311224141 Ry
     enthalpy           new  =     -36.3438192860 Ry

     CASE: enthalpy          _new < enthalpy          _old

     new trust radius        =       0.0175879088 bohr
ibrav =      2
 celldm(1) =      9.42167190
Input lattice vectors:
    -0.42795823     0.00000000     0.42795823
    -0.00000000     0.42795823     0.42795823
    -0.42795823     0.42795823     0.00000000
New lattice vectors in INITIAL alat:
    -0.42795823     0.00000000     0.42795823
     0.00000000     0.42795823     0.42795823
    -0.42795823     0.42795823     0.00000000
New lattice vectors in NEW alat (for information only):
    -0.50000000     0.00000000     0.50000000
     0.00000000     0.50000000     0.50000000
    -0.50000000     0.50000000     0.00000000
Discrepancy in bohr =     0.000000    0.000000    0.000000
     new conv_thr            =            1.0E-10 Ry

     new unit-cell volume =    209.08551 a.u.^3 (    30.98328 Ang^3 )
     density =      2.24924 g/cm^3

CELL_PARAMETERS (alat= 11.00770037)
  -0.427958228   0.000000000   0.427958228
   0.000000000   0.427958228   0.427958228
  -0.427958228   0.427958228   0.000000000

ATOMIC_POSITIONS (crystal)
Li           -0.2500000000        0.7500000000       -0.2500000000
Li           -0.7500000000        2.2500000000       -0.7500000000
Si            0.0000000000       -0.0000000000        0.0000000000



     Writing config-only to output data dir ./output/LiSi.save/
     NEW-OLD atomic charge density approx. for the potential
     extrapolated charge    9.81717, renormalised to   10.00000

     total cpu time spent up to now is       16.3 secs

     Self-consistent Calculation

     iteration #  1     ecut=    80.00 Ry     beta= 0.70
     Davidson diagonalization with overlap
     ethr =  1.00E-06,  avg # of iterations =  4.2

     total cpu time spent up to now is       16.7 secs

     total energy              =     -37.05448097 Ry
     estimated scf accuracy    <       0.00011064 Ry

     iteration #  2     ecut=    80.00 Ry     beta= 0.70
     Davidson diagonalization with overlap
     ethr =  1.11E-06,  avg # of iterations =  2.8

     total cpu time spent up to now is       17.0 secs

     total energy              =     -37.05497750 Ry
     estimated scf accuracy    <       0.00007567 Ry

     iteration #  3     ecut=    80.00 Ry     beta= 0.70
     Davidson diagonalization with overlap
     ethr =  7.57E-07,  avg # of iterations =  1.0

     total cpu time spent up to now is       17.3 secs

     total energy              =     -37.05496351 Ry
     estimated scf accuracy    <       0.00002447 Ry

     iteration #  4     ecut=    80.00 Ry     beta= 0.70
     Davidson diagonalization with overlap
     ethr =  2.45E-07,  avg # of iterations =  2.0

     total cpu time spent up to now is       17.5 secs

     total energy              =     -37.05496550 Ry
     estimated scf accuracy    <       0.00000287 Ry

     iteration #  5     ecut=    80.00 Ry     beta= 0.70
     Davidson diagonalization with overlap
     ethr =  2.87E-08,  avg # of iterations =  1.6

     total cpu time spent up to now is       17.8 secs

     total energy              =     -37.05496573 Ry
     estimated scf accuracy    <       0.00000002 Ry

     iteration #  6     ecut=    80.00 Ry     beta= 0.70
     Davidson diagonalization with overlap
     ethr =  1.89E-10,  avg # of iterations =  2.1

     total cpu time spent up to now is       18.1 secs

     total energy              =     -37.05496569 Ry
     estimated scf accuracy    <       0.00000009 Ry

     iteration #  7     ecut=    80.00 Ry     beta= 0.70
     Davidson diagonalization with overlap
     ethr =  1.89E-10,  avg # of iterations =  2.0

     total cpu time spent up to now is       18.4 secs

     total energy              =     -37.05496570 Ry
     estimated scf accuracy    <          5.7E-10 Ry

     iteration #  8     ecut=    80.00 Ry     beta= 0.70
     Davidson diagonalization with overlap
     ethr =  5.73E-12,  avg # of iterations =  1.1

     total cpu time spent up to now is       18.7 secs

     total energy              =     -37.05496570 Ry
     estimated scf accuracy    <          1.3E-10 Ry

     iteration #  9     ecut=    80.00 Ry     beta= 0.70
     Davidson diagonalization with overlap
     ethr =  1.33E-12,  avg # of iterations =  2.0

     total cpu time spent up to now is       19.0 secs

     End of self-consistent calculation

          k = 0.0000 0.0000 0.0000 (  4015 PWs)   bands (ev):

   -38.2991 -38.1041  -2.5365   9.7718   9.7718   9.7718  11.2193  11.2193
    11.2193

          k =-0.1947 0.1947-0.1947 (  4017 PWs)   bands (ev):

   -38.2845 -38.1158  -2.2482   6.9344   8.9231   8.9231  12.2763  12.2763
    13.3072

          k =-0.3894 0.3894-0.3894 (  4008 PWs)   bands (ev):

   -38.2458 -38.1487  -1.4305   3.9183   8.2112   8.2112  12.0638  12.0638
    14.8991

          k = 0.5842-0.5842 0.5842 (  4044 PWs)   bands (ev):

   -38.1963 -38.1955  -0.6991   2.4100   7.9994   7.9994  11.5848  11.5848
    15.5838

          k = 0.0000 0.3894 0.0000 (  4032 PWs)   bands (ev):

   -38.2807 -38.1186  -2.1581   7.6280   7.6280   8.3183  11.6879  13.1954
    14.0310

          k =-0.1947 0.5842-0.1947 (  4028 PWs)   bands (ev):

   -38.2532 -38.1413  -1.5262   4.9873   6.8831   7.7580  11.7626  13.3119
    14.5540

          k = 0.7789-0.3894 0.7789 (  4018 PWs)   bands (ev):

   -38.2114 -38.1792  -0.6419   2.8824   6.8050   6.9306  11.7664  13.5323
    16.2362

          k = 0.5842-0.1947 0.5842 (  4017 PWs)   bands (ev):

   -38.2238 -38.1678  -0.8921   3.3376   6.2963   7.7241  12.5042  12.9912
    16.2417

          k = 0.3894 0.0000 0.3894 (  4007 PWs)   bands (ev):

   -38.2630 -38.1334  -1.7823   5.5750   6.7254   8.9459  12.4821  13.3218
    14.5638

          k = 0.0000 0.7789 0.0000 (  4040 PWs)   bands (ev):

   -38.2439 -38.1475  -1.1558   5.8795   5.9152   5.9152  10.0593  12.7372
    17.4593

          k = 0.9736-0.1947 0.9736 (  4042 PWs)   bands (ev):

   -38.2218 -38.1666  -0.4862   4.1331   5.2370   5.7518  10.5733  13.8567
    17.2340

          k = 0.7789-0.0000 0.7789 (  4017 PWs)   bands (ev):

   -38.1944 -38.1941  -0.2680   3.2496   4.9282   6.4167  11.8059  16.1239
    16.4400

          k = 0.0000-1.1683 0.0000 (  4040 PWs)   bands (ev):

   -38.2254 -38.1619  -0.3826   4.4893   5.3299   5.3299   9.0767  13.3363
    19.9647

          k = 0.7789-0.3894 1.1683 (  4023 PWs)   bands (ev):

   -38.2274 -38.1631  -0.8273   4.0852   5.5381   6.6295  12.4745  13.7865
    14.5925

          k = 0.5842-0.1947 0.9736 (  4036 PWs)   bands (ev):

   -38.1944 -38.1942  -0.2672   3.1874   5.4666   5.7839  12.9840  14.1191
    16.3504

          k =-0.3894-1.1683-0.0000 (  4054 PWs)   bands (ev):

   -38.2096 -38.1778  -0.1689   4.0961   4.6694   5.0838  11.7743  14.4582
    17.2073

     the Fermi energy is     6.6555 ev

!    total energy              =     -37.05496570 Ry
     estimated scf accuracy    <          1.5E-11 Ry
     smearing contrib. (-TS)   =      -0.00105795 Ry
     internal energy E=F+TS    =     -37.05390775 Ry

     The total energy is F=E-TS. E is the sum of the following terms:
     one-electron contribution =     -10.73457891 Ry
     hartree contribution      =       6.58935894 Ry
     xc contribution           =     -10.19579443 Ry
     ewald contribution        =     -22.71289335 Ry

     convergence has been achieved in   9 iterations

     Forces acting on atoms (cartesian axes, Ry/au):

     atom    1 type  1   force =    -0.00000000    0.00000000   -0.00000000
     atom    2 type  1   force =     0.00000000    0.00000000    0.00000000
     atom    3 type  2   force =     0.00000000    0.00000000    0.00000000
     The non-local contrib.  to forces
     atom    1 type  1   force =    -0.00000000    0.00000000   -0.00000000
     atom    2 type  1   force =     0.00000000   -0.00000000    0.00000000
     atom    3 type  2   force =     0.00000000    0.00000000   -0.00000000
     The ionic contribution  to forces
     atom    1 type  1   force =     0.00000000   -0.00000000   -0.00000000
     atom    2 type  1   force =    -0.00000000   -0.00000000   -0.00000000
     atom    3 type  2   force =    -0.00000000    0.00000000    0.00000000
     The local contribution  to forces
     atom    1 type  1   force =     0.00000000   -0.00000000    0.00000000
     atom    2 type  1   force =    -0.00000000   -0.00000000   -0.00000000
     atom    3 type  2   force =     0.00000000   -0.00000000    0.00000000
     The core correction contribution to forces
     atom    1 type  1   force =     0.00000000    0.00000000    0.00000000
     atom    2 type  1   force =     0.00000000    0.00000000    0.00000000
     atom    3 type  2   force =     0.00000000   -0.00000000    0.00000000
     The Hubbard contrib.    to forces
     atom    1 type  1   force =     0.00000000    0.00000000    0.00000000
     atom    2 type  1   force =     0.00000000    0.00000000    0.00000000
     atom    3 type  2   force =     0.00000000    0.00000000    0.00000000
     The SCF correction term to forces
     atom    1 type  1   force =     0.00000000   -0.00000000    0.00000000
     atom    2 type  1   force =     0.00000000   -0.00000000   -0.00000000
     atom    3 type  2   force =    -0.00000000    0.00000000    0.00000000

     Total force =     0.000000     Total SCF correction =     0.000000


     Computing stress (Cartesian axis) and pressure

          total   stress  (Ry/bohr**3)                   (kbar)     P=      497.12
   0.00337937  -0.00000000  -0.00000000          497.12       -0.00       -0.00
  -0.00000000   0.00337937   0.00000000           -0.00      497.12        0.00
  -0.00000000   0.00000000   0.00337937           -0.00        0.00      497.12

     Energy error            =      4.8E-04 Ry
     Gradient error          =      4.2E-31 Ry/Bohr
     Cell gradient error     =      2.9E+00 kbar

     number of scf cycles    =   5
     number of bfgs steps    =   4

     enthalpy           old  =     -36.3438192860 Ry
     enthalpy           new  =     -36.3442984949 Ry

     CASE: enthalpy          _new < enthalpy          _old

     new trust radius        =       0.0016192623 bohr
ibrav =      2
 celldm(1) =      9.41639653
Input lattice vectors:
    -0.42771861     0.00000000     0.42771861
    -0.00000000     0.42771861     0.42771861
    -0.42771861     0.42771861     0.00000000
New lattice vectors in INITIAL alat:
    -0.42771861     0.00000000     0.42771861
     0.00000000     0.42771861     0.42771861
    -0.42771861     0.42771861     0.00000000
New lattice vectors in NEW alat (for information only):
    -0.50000000     0.00000000     0.50000000
     0.00000000     0.50000000     0.50000000
    -0.50000000     0.50000000     0.00000000
Discrepancy in bohr =     0.000000    0.000000    0.000000
     new conv_thr            =            1.0E-10 Ry

     new unit-cell volume =    208.73449 a.u.^3 (    30.93126 Ang^3 )
     density =      2.25302 g/cm^3

CELL_PARAMETERS (alat= 11.00770037)
  -0.427718606   0.000000000   0.427718606
   0.000000000   0.427718606   0.427718606
  -0.427718606   0.427718606   0.000000000

ATOMIC_POSITIONS (crystal)
Li           -0.2500000000        0.7500000000       -0.2500000000
Li           -0.7500000000        2.2500000000       -0.7500000000
Si            0.0000000000       -0.0000000000        0.0000000000



     Writing config-only to output data dir ./output/LiSi.save/
     NEW-OLD atomic charge density approx. for the potential
     extrapolated charge    9.98320, renormalised to   10.00000

     total cpu time spent up to now is       20.1 secs

     Self-consistent Calculation

     iteration #  1     ecut=    80.00 Ry     beta= 0.70
     Davidson diagonalization with overlap
     ethr =  1.00E-06,  avg # of iterations =  2.0

     Threshold (ethr) on eigenvalues was too large:
     Diagonalizing with lowered threshold

     Davidson diagonalization with overlap
     ethr =  9.09E-09,  avg # of iterations =  2.7

     total cpu time spent up to now is       20.7 secs

     total energy              =     -37.05377192 Ry
     estimated scf accuracy    <       0.00000089 Ry

     iteration #  2     ecut=    80.00 Ry     beta= 0.70
     Davidson diagonalization with overlap
     ethr =  8.85E-09,  avg # of iterations =  2.9

     total cpu time spent up to now is       21.0 secs

     total energy              =     -37.05377610 Ry
     estimated scf accuracy    <       0.00000065 Ry

     iteration #  3     ecut=    80.00 Ry     beta= 0.70
     Davidson diagonalization with overlap
     ethr =  6.54E-09,  avg # of iterations =  1.0

     total cpu time spent up to now is       21.2 secs

     total energy              =     -37.05377598 Ry
     estimated scf accuracy    <       0.00000021 Ry

     iteration #  4     ecut=    80.00 Ry     beta= 0.70
     Davidson diagonalization with overlap
     ethr =  2.15E-09,  avg # of iterations =  2.0

     total cpu time spent up to now is       21.5 secs

     total energy              =     -37.05377600 Ry
     estimated scf accuracy    <       0.00000003 Ry

     iteration #  5     ecut=    80.00 Ry     beta= 0.70
     Davidson diagonalization with overlap
     ethr =  2.75E-10,  avg # of iterations =  1.1

     total cpu time spent up to now is       21.7 secs

     total energy              =     -37.05377600 Ry
     estimated scf accuracy    <          7.5E-10 Ry

     iteration #  6     ecut=    80.00 Ry     beta= 0.70
     Davidson diagonalization with overlap
     ethr =  7.54E-12,  avg # of iterations =  2.0

     total cpu time spent up to now is       22.0 secs

     End of self-consistent calculation

          k = 0.0000 0.0000 0.0000 (  4015 PWs)   bands (ev):

   -38.2844 -38.0883  -2.5248   9.7943   9.7943   9.7943  11.2358  11.2358
    11.2358

          k =-0.1948 0.1948-0.1948 (  4017 PWs)   bands (ev):

   -38.2697 -38.1001  -2.2364   6.9513   8.9428   8.9428  12.2957  12.2957
    13.3299

          k =-0.3897 0.3897-0.3897 (  4008 PWs)   bands (ev):

   -38.2308 -38.1332  -1.4178   3.9317   8.2300   8.2300  12.0815  12.0815
    14.9264

          k = 0.5845-0.5845 0.5845 (  4044 PWs)   bands (ev):

   -38.1810 -38.1802  -0.6850   2.4210   8.0182   8.0182  11.6014  11.6014
    15.6134

          k =-0.0000 0.3897-0.0000 (  4032 PWs)   bands (ev):

   -38.2659 -38.1029  -2.1462   7.6450   7.6450   8.3396  11.7058  13.2151
    14.0539

          k =-0.1948 0.5845-0.1948 (  4028 PWs)   bands (ev):

   -38.2382 -38.1257  -1.5137   5.0019   6.8992   7.7772  11.7810  13.3323
    14.5764

          k = 0.7793-0.3897 0.7793 (  4018 PWs)   bands (ev):

   -38.1962 -38.1638  -0.6280   2.8939   6.8223   6.9470  11.7856  13.5524
    16.2606

          k = 0.5845-0.1948 0.5845 (  4017 PWs)   bands (ev):

   -38.2087 -38.1524  -0.8787   3.3498   6.3125   7.7420  12.5246  13.0100
    16.2698

          k = 0.3897 0.0000 0.3897 (  4007 PWs)   bands (ev):

   -38.2481 -38.1178  -1.7701   5.5904   6.7417   8.9664  12.5001  13.3436
    14.5844

          k =-0.0000 0.7793-0.0000 (  4040 PWs)   bands (ev):

   -38.2288 -38.1319  -1.1432   5.8976   5.9299   5.9299  10.0764  12.7584
    17.4858

          k = 0.9742-0.1948 0.9742 (  4042 PWs)   bands (ev):

   -38.2066 -38.1511  -0.4727   4.1464   5.2527   5.7663  10.5922  13.8795
    17.2587

          k = 0.7793-0.0000 0.7793 (  4017 PWs)   bands (ev):

   -38.1791 -38.1788  -0.2536   3.2605   4.9439   6.4322  11.8268  16.1462
    16.4649

          k = 0.0000-1.1690 0.0000 (  4040 PWs)   bands (ev):

   -38.2102 -38.1464  -0.3694   4.5054   5.3438   5.3438   9.0934  13.3596
    19.9917

          k = 0.7793-0.3897 1.1690 (  4023 PWs)   bands (ev):

   -38.2123 -38.1476  -0.8141   4.0983   5.5532   6.6462  12.4953  13.8075
    14.6156

          k = 0.5845-0.1948 0.9742 (  4036 PWs)   bands (ev):

   -38.1791 -38.1788  -0.2527   3.1985   5.4824   5.7990  13.0058  14.1414
    16.3745

          k =-0.3897-1.1690 0.0000 (  4054 PWs)   bands (ev):

   -38.1943 -38.1624  -0.1547   4.1073   4.6852   5.0985  11.7948  14.4817
    17.2338

     the Fermi energy is     6.6720 ev

!    total energy              =     -37.05377600 Ry
     estimated scf accuracy    <          3.1E-11 Ry
     smearing contrib. (-TS)   =      -0.00105507 Ry
     internal energy E=F+TS    =     -37.05272093 Ry

     The total energy is F=E-TS. E is the sum of the following terms:
     one-electron contribution =     -10.71618837 Ry
     hartree contribution      =       6.58658960 Ry
     xc contribution           =     -10.19750430 Ry
     ewald contribution        =     -22.72561785 Ry

     convergence has been achieved in   6 iterations

     Forces acting on atoms (cartesian axes, Ry/au):

     atom    1 type  1   force =    -0.00000000   -0.00000000   -0.00000000
     atom    2 type  1   force =    -0.00000000   -0.00000000    0.00000000
     atom    3 type  2   force =     0.00000000    0.00000000    0.00000000
     The non-local contrib.  to forces
     atom    1 type  1   force =    -0.00000000   -0.00000000   -0.00000000
     atom    2 type  1   force =     0.00000000    0.00000000    0.00000000
     atom    3 type  2   force =     0.00000000    0.00000000    0.00000000
     The ionic contribution  to forces
     atom    1 type  1   force =    -0.00000000   -0.00000000   -0.00000000
     atom    2 type  1   force =    -0.00000000   -0.00000000   -0.00000000
     atom    3 type  2   force =    -0.00000000    0.00000000    0.00000000
     The local contribution  to forces
     atom    1 type  1   force =     0.00000000    0.00000000    0.00000000
     atom    2 type  1   force =     0.00000000    0.00000000   -0.00000000
     atom    3 type  2   force =     0.00000000    0.00000000    0.00000000
     The core correction contribution to forces
     atom    1 type  1   force =     0.00000000    0.00000000    0.00000000
     atom    2 type  1   force =     0.00000000    0.00000000    0.00000000
     atom    3 type  2   force =     0.00000000   -0.00000000    0.00000000
     The Hubbard contrib.    to forces
     atom    1 type  1   force =     0.00000000    0.00000000    0.00000000
     atom    2 type  1   force =     0.00000000    0.00000000    0.00000000
     atom    3 type  2   force =     0.00000000    0.00000000    0.00000000
     The SCF correction term to forces
     atom    1 type  1   force =     0.00000000    0.00000000   -0.00000000
     atom    2 type  1   force =     0.00000000   -0.00000000    0.00000000
     atom    3 type  2   force =    -0.00000000   -0.00000000   -0.00000000

     Total force =     0.000000     Total SCF correction =     0.000000


     Computing stress (Cartesian axis) and pressure

          total   stress  (Ry/bohr**3)                   (kbar)     P=      500.05
   0.00339925   0.00000000  -0.00000000          500.05        0.00       -0.00
   0.00000000   0.00339925  -0.00000000            0.00      500.05       -0.00
  -0.00000000  -0.00000000   0.00339925           -0.00       -0.00      500.05

     Energy error            =      3.4E-06 Ry
     Gradient error          =      1.7E-31 Ry/Bohr
     Cell gradient error     =      4.6E-02 kbar
ibrav =      2
 celldm(1) =      9.41639653
Input lattice vectors:
    -0.42771861     0.00000000     0.42771861
     0.00000000     0.42771861     0.42771861
    -0.42771861     0.42771861     0.00000000
New lattice vectors in INITIAL alat:
    -0.42771861     0.00000000     0.42771861
     0.00000000     0.42771861     0.42771861
    -0.42771861     0.42771861     0.00000000
New lattice vectors in NEW alat (for information only):
    -0.50000000     0.00000000     0.50000000
     0.00000000     0.50000000     0.50000000
    -0.50000000     0.50000000     0.00000000
Discrepancy in bohr =     0.000000    0.000000    0.000000

     bfgs converged in   6 scf cycles and   5 bfgs steps
     (criteria: energy <  1.0E-04 Ry, force <  1.0E-03 Ry/Bohr, cell <  1.0E+00 kbar)

     End of BFGS Geometry Optimization

     Final enthalpy           =     -36.3443018710 Ry

     File ./output/LiSi.bfgs deleted, as requested
Begin final coordinates
     new unit-cell volume =    208.73449 a.u.^3 (    30.93126 Ang^3 )
     density =      2.25302 g/cm^3

CELL_PARAMETERS (alat= 11.00770037)
  -0.427718606   0.000000000   0.427718606
   0.000000000   0.427718606   0.427718606
  -0.427718606   0.427718606   0.000000000

ATOMIC_POSITIONS (crystal)
Li           -0.2500000000        0.7500000000       -0.2500000000
Li           -0.7500000000        2.2500000000       -0.7500000000
Si            0.0000000000       -0.0000000000        0.0000000000
End final coordinates



     Writing config-only to output data dir ./output/LiSi.save/

     Final scf calculation at the relaxed structure.
     The G-vectors are recalculated for the final unit cell
     Results may differ from those at the preceding step.

     Parallelization info
     --------------------
     sticks:   dense  smooth     PW     G-vecs:    dense   smooth      PW
     Min         120     120     36                 2512     2512     410
     Max         122     122     37                 2514     2514     412
     Sum         967     967    295                20107    20107    3287

     Using Slab Decomposition



     bravais-lattice index     =            2
     lattice parameter (alat)  =      11.0077  a.u.
     unit-cell volume          =     208.7345 (a.u.)^3
     number of atoms/cell      =            3
     number of atomic types    =            2
     number of electrons       =        10.00
     number of Kohn-Sham states=            9
     kinetic-energy cutoff     =      80.0000  Ry
     charge density cutoff     =     320.0000  Ry
     scf convergence threshold =      1.0E-10
     mixing beta               =       0.7000
     number of iterations used =            8  plain     mixing
     press convergence thresh. =      1.0E+00
     Exchange-correlation= PBE
                           (   1   4   3   4   0   0   0)

     celldm(1)=  11.007700  celldm(2)=   0.000000  celldm(3)=   0.000000
     celldm(4)=   0.000000  celldm(5)=   0.000000  celldm(6)=   0.000000

     crystal axes: (cart. coord. in units of alat)
               a(1) = (  -0.427719   0.000000   0.427719 )  
               a(2) = (   0.000000   0.427719   0.427719 )  
               a(3) = (  -0.427719   0.427719   0.000000 )  

     reciprocal axes: (cart. coord. in units 2 pi/alat)
               b(1) = ( -1.168993 -1.168993  1.168993 )  
               b(2) = (  1.168993  1.168993  1.168993 )  
               b(3) = ( -1.168993  1.168993 -1.168993 )  


     PseudoPot. # 1 for Li read from file:
     ../pseudo/Li_ONCV_PBE_sr.upf
     MD5 check sum: 50ff420e78310ffa21704f3361e624a4
     Pseudo is Norm-conserving, Zval =  3.0
     Generated using ONCVPSP code by D. R. Hamann
     Using radial grid of 1944 points,  4 beta functions with: 
                l(1) =   0
                l(2) =   0
                l(3) =   1
                l(4) =   1

     PseudoPot. # 2 for Si read from file:
     ../pseudo/Si_ONCV_PBE_sr.upf
     MD5 check sum: e543d271109d17c80368dfa7c482276d
     Pseudo is Norm-conserving + core correction, Zval =  4.0
     Generated using ONCVPSP code by D. R. Hamann
     Using radial grid of 1510 points,  6 beta functions with: 
                l(1) =   0
                l(2) =   0
                l(3) =   1
                l(4) =   1
                l(5) =   2
                l(6) =   2

     atomic species   valence    mass     pseudopotential
        Li             3.00     6.94100     Li( 1.00)
        Si             4.00    28.08550     Si( 1.00)

     48 Sym. Ops., with inversion, found



   Cartesian axes

     site n.     atom                  positions (alat units)
         1           Li  tau(   1) = (   0.2138593   0.2138593   0.2138593  )
         2           Li  tau(   2) = (   0.6415779   0.6415779   0.6415779  )
         3           Si  tau(   3) = (  -0.0000000  -0.0000000  -0.0000000  )

     number of k points=    16  Marzari-Vanderbilt smearing, width (Ry)=  0.0200
                       cart. coord. in units 2pi/alat
        k(    1) = (   0.0000000   0.0000000   0.0000000), wk =   0.0092593
        k(    2) = (  -0.1948321   0.1948321  -0.1948321), wk =   0.0740741
        k(    3) = (  -0.3896643   0.3896643  -0.3896643), wk =   0.0740741
        k(    4) = (   0.5844964  -0.5844964   0.5844964), wk =   0.0370370
        k(    5) = (  -0.0000000   0.3896643  -0.0000000), wk =   0.0555556
        k(    6) = (  -0.1948321   0.5844964  -0.1948321), wk =   0.2222222
        k(    7) = (   0.7793286  -0.3896643   0.7793286), wk =   0.2222222
        k(    8) = (   0.5844964  -0.1948321   0.5844964), wk =   0.2222222
        k(    9) = (   0.3896643   0.0000000   0.3896643), wk =   0.1111111
        k(   10) = (  -0.0000000   0.7793286  -0.0000000), wk =   0.0555556
        k(   11) = (   0.9741607  -0.1948321   0.9741607), wk =   0.2222222
        k(   12) = (   0.7793286  -0.0000000   0.7793286), wk =   0.1111111
        k(   13) = (   0.0000000  -1.1689929   0.0000000), wk =   0.0277778
        k(   14) = (   0.7793286  -0.3896643   1.1689929), wk =   0.2222222
        k(   15) = (   0.5844964  -0.1948321   0.9741607), wk =   0.2222222
        k(   16) = (  -0.3896643  -1.1689929   0.0000000), wk =   0.1111111

     Dense  grid:    20107 G-vectors     FFT dimensions: (  40,  40,  40)

     Estimated max dynamical RAM per process >      14.31 MB

     Estimated total dynamical RAM >     114.51 MB

     Initial potential from superposition of free atoms

     starting charge       9.9903, renormalised to      10.0000
     Starting wfcs are    8 randomized atomic wfcs +    1 random wfcs

     total cpu time spent up to now is       23.2 secs

     Self-consistent Calculation

     iteration #  1     ecut=    80.00 Ry     beta= 0.70
     Davidson diagonalization with overlap
     c_bands:  2 eigenvalues not converged
     ethr =  1.00E-06,  avg # of iterations = 15.8

     total cpu time spent up to now is       23.7 secs

     total energy              =     -37.05335032 Ry
     estimated scf accuracy    <       0.00838730 Ry

     iteration #  2     ecut=    80.00 Ry     beta= 0.70
     Davidson diagonalization with overlap
     ethr =  8.39E-05,  avg # of iterations =  1.0

     total cpu time spent up to now is       24.0 secs

     total energy              =     -37.05373318 Ry
     estimated scf accuracy    <       0.00052065 Ry

     iteration #  3     ecut=    80.00 Ry     beta= 0.70
     Davidson diagonalization with overlap
     ethr =  5.21E-06,  avg # of iterations =  1.2

     total cpu time spent up to now is       24.2 secs

     total energy              =     -37.05375263 Ry
     estimated scf accuracy    <       0.00001284 Ry

     iteration #  4     ecut=    80.00 Ry     beta= 0.70
     Davidson diagonalization with overlap
     ethr =  1.28E-07,  avg # of iterations =  2.1

     total cpu time spent up to now is       24.4 secs

     total energy              =     -37.05375400 Ry
     estimated scf accuracy    <       0.00000017 Ry

     iteration #  5     ecut=    80.00 Ry     beta= 0.70
     Davidson diagonalization with overlap
     ethr =  1.68E-09,  avg # of iterations =  2.7

     total cpu time spent up to now is       24.6 secs

     total energy              =     -37.05375404 Ry
     estimated scf accuracy    <          1.1E-09 Ry

     iteration #  6     ecut=    80.00 Ry     beta= 0.70
     Davidson diagonalization with overlap
     ethr =  1.09E-11,  avg # of iterations =  3.5

     total cpu time spent up to now is       24.8 secs

     End of self-consistent calculation

          k = 0.0000 0.0000 0.0000 (  2565 PWs)   bands (ev):

   -38.2843 -38.0882  -2.5248   9.7943   9.7943   9.7943  11.2357  11.2357
    11.2357

          k =-0.1948 0.1948-0.1948 (  2553 PWs)   bands (ev):

   -38.2696 -38.1000  -2.2364   6.9513   8.9427   8.9427  12.2956  12.2956
    13.3298

          k =-0.3897 0.3897-0.3897 (  2527 PWs)   bands (ev):

   -38.2307 -38.1331  -1.4178   3.9316   8.2300   8.2300  12.0814  12.0814
    14.9264

          k = 0.5845-0.5845 0.5845 (  2512 PWs)   bands (ev):

   -38.1809 -38.1801  -0.6851   2.4210   8.0182   8.0182  11.6013  11.6013
    15.6134

          k =-0.0000 0.3897-0.0000 (  2541 PWs)   bands (ev):

   -38.2658 -38.1027  -2.1462   7.6450   7.6450   8.3396  11.7058  13.2150
    14.0539

          k =-0.1948 0.5845-0.1948 (  2526 PWs)   bands (ev):

   -38.2381 -38.1256  -1.5138   5.0019   6.8991   7.7772  11.7810  13.3323
    14.5764

          k = 0.7793-0.3897 0.7793 (  2524 PWs)   bands (ev):

   -38.1961 -38.1637  -0.6280   2.8939   6.8223   6.9469  11.7855  13.5524
    16.2604

          k = 0.5845-0.1948 0.5845 (  2514 PWs)   bands (ev):

   -38.2086 -38.1523  -0.8787   3.3498   6.3125   7.7419  12.5246  13.0100
    16.2698

          k = 0.3897 0.0000 0.3897 (  2535 PWs)   bands (ev):

   -38.2480 -38.1177  -1.7701   5.5903   6.7417   8.9664  12.5000  13.3435
    14.5843

          k =-0.0000 0.7793-0.0000 (  2502 PWs)   bands (ev):

   -38.2287 -38.1318  -1.1433   5.8976   5.9298   5.9298  10.0764  12.7583
    17.4858

          k = 0.9742-0.1948 0.9742 (  2524 PWs)   bands (ev):

   -38.2065 -38.1510  -0.4727   4.1463   5.2527   5.7662  10.5922  13.8794
    17.2587

          k = 0.7793-0.0000 0.7793 (  2526 PWs)   bands (ev):

   -38.1790 -38.1787  -0.2536   3.2604   4.9438   6.4322  11.8268  16.1461
    16.4649

          k = 0.0000-1.1690 0.0000 (  2498 PWs)   bands (ev):

   -38.2101 -38.1463  -0.3694   4.5054   5.3437   5.3437   9.0934  13.3596
    19.9917

          k = 0.7793-0.3897 1.1690 (  2517 PWs)   bands (ev):

   -38.2122 -38.1475  -0.8141   4.0982   5.5532   6.6462  12.4953  13.8075
    14.6155

          k = 0.5845-0.1948 0.9742 (  2528 PWs)   bands (ev):

   -38.1790 -38.1787  -0.2527   3.1984   5.4824   5.7989  13.0058  14.1414
    16.3745

          k =-0.3897-1.1690 0.0000 (  2520 PWs)   bands (ev):

   -38.1942 -38.1623  -0.1547   4.1072   4.6852   5.0985  11.7948  14.4816
    17.2338

     the Fermi energy is     6.6720 ev

!    total energy              =     -37.05375404 Ry
     estimated scf accuracy    <          6.0E-11 Ry
     smearing contrib. (-TS)   =      -0.00105505 Ry
     internal energy E=F+TS    =     -37.05269899 Ry

     The total energy is F=E-TS. E is the sum of the following terms:
     one-electron contribution =     -10.71623942 Ry
     hartree contribution      =       6.58662777 Ry
     xc contribution           =     -10.19746948 Ry
     ewald contribution        =     -22.72561785 Ry

     convergence has been achieved in   6 iterations

     Forces acting on atoms (cartesian axes, Ry/au):

     atom    1 type  1   force =     0.00000000   -0.00000000    0.00000000
     atom    2 type  1   force =    -0.00000000   -0.00000000   -0.00000000
     atom    3 type  2   force =    -0.00000000    0.00000000   -0.00000000
     The non-local contrib.  to forces
     atom    1 type  1   force =    -0.00000000   -0.00000000    0.00000000
     atom    2 type  1   force =     0.00000000   -0.00000000   -0.00000000
     atom    3 type  2   force =    -0.00000000   -0.00000000    0.00000000
     The ionic contribution  to forces
     atom    1 type  1   force =    -0.00000000    0.00000000    0.00000000
     atom    2 type  1   force =     0.00000000    0.00000000   -0.00000000
     atom    3 type  2   force =    -0.00000000    0.00000000    0.00000000
     The local contribution  to forces
     atom    1 type  1   force =     0.00000000   -0.00000000   -0.00000000
     atom    2 type  1   force =    -0.00000000   -0.00000000   -0.00000000
     atom    3 type  2   force =    -0.00000000    0.00000000   -0.00000000
     The core correction contribution to forces
     atom    1 type  1   force =     0.00000000    0.00000000    0.00000000
     atom    2 type  1   force =     0.00000000    0.00000000    0.00000000
     atom    3 type  2   force =     0.00000000   -0.00000000    0.00000000
     The Hubbard contrib.    to forces
     atom    1 type  1   force =     0.00000000    0.00000000    0.00000000
     atom    2 type  1   force =     0.00000000    0.00000000    0.00000000
     atom    3 type  2   force =     0.00000000    0.00000000    0.00000000
     The SCF correction term to forces
     atom    1 type  1   force =    -0.00000000    0.00000000   -0.00000000
     atom    2 type  1   force =     0.00000000   -0.00000000    0.00000000
     atom    3 type  2   force =    -0.00000000   -0.00000000    0.00000000

     Total force =     0.000000     Total SCF correction =     0.000000


     Computing stress (Cartesian axis) and pressure

          total   stress  (Ry/bohr**3)                   (kbar)     P=      499.99
   0.00339887  -0.00000000   0.00000000          499.99       -0.00        0.00
  -0.00000000   0.00339887  -0.00000000           -0.00      499.99       -0.00
   0.00000000  -0.00000000   0.00339887            0.00       -0.00      499.99


     Writing all to output data dir ./output/LiSi.save/

     init_run     :      0.82s CPU      0.97s WALL (       2 calls)
     electrons    :      9.71s CPU     17.26s WALL (       7 calls)
     update_pot   :      1.70s CPU      1.79s WALL (       5 calls)
     forces       :      1.19s CPU      1.27s WALL (       7 calls)
     stress       :      3.14s CPU      3.38s WALL (       7 calls)

     Called by init_run:
     wfcinit      :      0.08s CPU      0.08s WALL (       2 calls)
     potinit      :      0.25s CPU      0.31s WALL (       2 calls)
     hinit0       :      0.46s CPU      0.53s WALL (       2 calls)

     Called by electrons:
     c_bands      :      7.86s CPU     14.16s WALL (      57 calls)
     sum_band     :      1.28s CPU      1.35s WALL (      57 calls)
     v_of_rho     :      0.52s CPU      0.97s WALL (      62 calls)
     mix_rho      :      0.04s CPU      0.07s WALL (      57 calls)

     Called by c_bands:
     init_us_2    :      0.25s CPU      0.28s WALL (    2080 calls)
     init_us_2:cp :      0.25s CPU      0.28s WALL (    2080 calls)
     cegterg      :      7.25s CPU      7.56s WALL (     912 calls)

     Called by *egterg:
     cdiaghg      :      0.34s CPU      0.35s WALL (    3370 calls)
     h_psi        :      6.41s CPU      6.69s WALL (    3514 calls)
     g_psi        :      0.03s CPU      0.03s WALL (    2570 calls)

     Called by h_psi:
     h_psi:calbec :      0.30s CPU      0.34s WALL (    3514 calls)
     vloc_psi     :      5.91s CPU      6.12s WALL (    3514 calls)
     add_vuspsi   :      0.18s CPU      0.19s WALL (    3514 calls)

     General routines
     calbec       :      0.36s CPU      0.41s WALL (    4074 calls)
     fft          :      0.76s CPU      1.38s WALL (     795 calls)
     ffts         :      0.03s CPU      0.05s WALL (      57 calls)
     fftw         :      6.23s CPU      6.43s WALL (   54122 calls)

     Parallel routines

     PWSCF        :     16.76s CPU     25.58s WALL


   This run was terminated on:  19:34:37  26Dec2024            

=------------------------------------------------------------------------------=
   JOB DONE.
=------------------------------------------------------------------------------=
