
     Program PWSCF v.7.2 starts on 27Dec2024 at 11:17:51 

     This program is part of the open-source Quantum ESPRESSO suite
     for quantum simulation of materials; please cite
         "P. Giannozzi et al., J. Phys.:Condens. Matter 21 395502 (2009);
         "P. Giannozzi et al., J. Phys.:Condens. Matter 29 465901 (2017);
         "P. Giannozzi et al., J. Chem. Phys. 152 154105 (2020);
          URL http://www.quantum-espresso.org", 
     in publications or presentations arising from this work. More details at
     http://www.quantum-espresso.org/quote

     Parallel version (MPI & OpenMP), running on       8 processor cores
     Number of MPI processes:                 8
     Threads/MPI process:                     1

     MPI processes distributed on     1 nodes
     482431 MiB available memory on the printing compute node when the environment starts

     Waiting for input...
     Reading input from standard input

     Current dimensions of program PWSCF are:
     Max number of different atomic species (ntypx) = 10
     Max number of k-points (npk) =  40000
     Max angular momentum in pseudopotentials (lmaxx) =  4

     R & G space division:  proc/nbgrp/npool/nimage =       8
     Subspace diagonalization in iterative solution of the eigenvalue problem:
     a serial algorithm will be used


     Parallelization info
     --------------------
     sticks:   dense  smooth     PW     G-vecs:    dense   smooth      PW
     Min         179     179     50                 8613     8613    1294
     Max         180     180     51                 8620     8620    1299
     Sum        1433    1433    405                68921    68921   10363

     Using Slab Decomposition



     bravais-lattice index     =            6
     lattice parameter (alat)  =       7.4974  a.u.
     unit-cell volume          =     712.7955 (a.u.)^3
     number of atoms/cell      =            3
     number of atomic types    =            2
     number of electrons       =        11.00
     number of Kohn-Sham states=           10
     kinetic-energy cutoff     =      80.0000  Ry
     charge density cutoff     =     320.0000  Ry
     scf convergence threshold =      1.0E-08
     mixing beta               =       0.7000
     number of iterations used =            8  plain     mixing
     energy convergence thresh.=      1.0E-04
     force convergence thresh. =      1.0E-03
     press convergence thresh. =      1.0E+00
     Exchange-correlation= PBE
                           (   1   4   3   4   0   0   0)
     nstep                     =           50


     celldm(1)=   7.497377  celldm(2)=   0.000000  celldm(3)=   1.691363
     celldm(4)=   0.000000  celldm(5)=   0.000000  celldm(6)=   0.000000

     crystal axes: (cart. coord. in units of alat)
               a(1) = (   1.000000   0.000000   0.000000 )  
               a(2) = (   0.000000   1.000000   0.000000 )  
               a(3) = (   0.000000   0.000000   1.691363 )  

     reciprocal axes: (cart. coord. in units 2 pi/alat)
               b(1) = (  1.000000  0.000000  0.000000 )  
               b(2) = (  0.000000  1.000000  0.000000 )  
               b(3) = (  0.000000  0.000000  0.591239 )  


     PseudoPot. # 1 for Li read from file:
     ../pseudo/Li_ONCV_PBE_sr.upf
     MD5 check sum: 50ff420e78310ffa21704f3361e624a4
     Pseudo is Norm-conserving, Zval =  3.0
     Generated using ONCVPSP code by D. R. Hamann
     Using radial grid of 1944 points,  4 beta functions with: 
                l(1) =   0
                l(2) =   0
                l(3) =   1
                l(4) =   1

     PseudoPot. # 2 for Si read from file:
     ../pseudo/Si_ONCV_PBE_sr.upf
     MD5 check sum: e543d271109d17c80368dfa7c482276d
     Pseudo is Norm-conserving + core correction, Zval =  4.0
     Generated using ONCVPSP code by D. R. Hamann
     Using radial grid of 1510 points,  6 beta functions with: 
                l(1) =   0
                l(2) =   0
                l(3) =   1
                l(4) =   1
                l(5) =   2
                l(6) =   2

     atomic species   valence    mass     pseudopotential
        Li             3.00     6.94100     Li( 1.00)
        Si             4.00    28.08550     Si( 1.00)

      8 Sym. Ops. (no inversion) found



   Cartesian axes

     site n.     atom                  positions (alat units)
         1           Li  tau(   1) = (   0.5000000   0.5000000   0.8456816  )
         2           Si  tau(   2) = (   0.0000000   0.5000000   0.4024058  )
         3           Si  tau(   3) = (   0.5000000   0.0000000   1.2889575  )

     number of k points=    60  Marzari-Vanderbilt smearing, width (Ry)=  0.0200
                       cart. coord. in units 2pi/alat
        k(    1) = (   0.0000000   0.0000000   0.0000000), wk =   0.0041152
        k(    2) = (   0.0000000   0.0000000   0.0985398), wk =   0.0082305
        k(    3) = (   0.0000000   0.0000000   0.1970797), wk =   0.0082305
        k(    4) = (   0.0000000   0.0000000  -0.2956195), wk =   0.0041152
        k(    5) = (   0.0000000   0.1111111   0.0000000), wk =   0.0164609
        k(    6) = (   0.0000000   0.1111111   0.0985398), wk =   0.0329218
        k(    7) = (   0.0000000   0.1111111   0.1970797), wk =   0.0329218
        k(    8) = (   0.0000000   0.1111111  -0.2956195), wk =   0.0164609
        k(    9) = (   0.0000000   0.2222222   0.0000000), wk =   0.0164609
        k(   10) = (   0.0000000   0.2222222   0.0985398), wk =   0.0329218
        k(   11) = (   0.0000000   0.2222222   0.1970797), wk =   0.0329218
        k(   12) = (   0.0000000   0.2222222  -0.2956195), wk =   0.0164609
        k(   13) = (   0.0000000   0.3333333   0.0000000), wk =   0.0164609
        k(   14) = (   0.0000000   0.3333333   0.0985398), wk =   0.0329218
        k(   15) = (   0.0000000   0.3333333   0.1970797), wk =   0.0329218
        k(   16) = (   0.0000000   0.3333333  -0.2956195), wk =   0.0164609
        k(   17) = (   0.0000000   0.4444444   0.0000000), wk =   0.0164609
        k(   18) = (   0.0000000   0.4444444   0.0985398), wk =   0.0329218
        k(   19) = (   0.0000000   0.4444444   0.1970797), wk =   0.0329218
        k(   20) = (   0.0000000   0.4444444  -0.2956195), wk =   0.0164609
        k(   21) = (   0.1111111   0.1111111   0.0000000), wk =   0.0164609
        k(   22) = (   0.1111111   0.1111111   0.0985398), wk =   0.0329218
        k(   23) = (   0.1111111   0.1111111   0.1970797), wk =   0.0329218
        k(   24) = (   0.1111111   0.1111111  -0.2956195), wk =   0.0164609
        k(   25) = (   0.1111111   0.2222222   0.0000000), wk =   0.0329218
        k(   26) = (   0.1111111   0.2222222   0.0985398), wk =   0.0658436
        k(   27) = (   0.1111111   0.2222222   0.1970797), wk =   0.0658436
        k(   28) = (   0.1111111   0.2222222  -0.2956195), wk =   0.0329218
        k(   29) = (   0.1111111   0.3333333   0.0000000), wk =   0.0329218
        k(   30) = (   0.1111111   0.3333333   0.0985398), wk =   0.0658436
        k(   31) = (   0.1111111   0.3333333   0.1970797), wk =   0.0658436
        k(   32) = (   0.1111111   0.3333333  -0.2956195), wk =   0.0329218
        k(   33) = (   0.1111111   0.4444444   0.0000000), wk =   0.0329218
        k(   34) = (   0.1111111   0.4444444   0.0985398), wk =   0.0658436
        k(   35) = (   0.1111111   0.4444444   0.1970797), wk =   0.0658436
        k(   36) = (   0.1111111   0.4444444  -0.2956195), wk =   0.0329218
        k(   37) = (   0.2222222   0.2222222   0.0000000), wk =   0.0164609
        k(   38) = (   0.2222222   0.2222222   0.0985398), wk =   0.0329218
        k(   39) = (   0.2222222   0.2222222   0.1970797), wk =   0.0329218
        k(   40) = (   0.2222222   0.2222222  -0.2956195), wk =   0.0164609
        k(   41) = (   0.2222222   0.3333333   0.0000000), wk =   0.0329218
        k(   42) = (   0.2222222   0.3333333   0.0985398), wk =   0.0658436
        k(   43) = (   0.2222222   0.3333333   0.1970797), wk =   0.0658436
        k(   44) = (   0.2222222   0.3333333  -0.2956195), wk =   0.0329218
        k(   45) = (   0.2222222   0.4444444   0.0000000), wk =   0.0329218
        k(   46) = (   0.2222222   0.4444444   0.0985398), wk =   0.0658436
        k(   47) = (   0.2222222   0.4444444   0.1970797), wk =   0.0658436
        k(   48) = (   0.2222222   0.4444444  -0.2956195), wk =   0.0329218
        k(   49) = (   0.3333333   0.3333333   0.0000000), wk =   0.0164609
        k(   50) = (   0.3333333   0.3333333   0.0985398), wk =   0.0329218
        k(   51) = (   0.3333333   0.3333333   0.1970797), wk =   0.0329218
        k(   52) = (   0.3333333   0.3333333  -0.2956195), wk =   0.0164609
        k(   53) = (   0.3333333   0.4444444   0.0000000), wk =   0.0329218
        k(   54) = (   0.3333333   0.4444444   0.0985398), wk =   0.0658436
        k(   55) = (   0.3333333   0.4444444   0.1970797), wk =   0.0658436
        k(   56) = (   0.3333333   0.4444444  -0.2956195), wk =   0.0329218
        k(   57) = (   0.4444444   0.4444444   0.0000000), wk =   0.0164609
        k(   58) = (   0.4444444   0.4444444   0.0985398), wk =   0.0329218
        k(   59) = (   0.4444444   0.4444444   0.1970797), wk =   0.0329218
        k(   60) = (   0.4444444   0.4444444  -0.2956195), wk =   0.0164609

     Dense  grid:    68921 G-vectors     FFT dimensions: (  45,  45,  75)

     Estimated max dynamical RAM per process >      28.14 MB

     Estimated total dynamical RAM >     225.15 MB

     Initial potential from superposition of free atoms

     starting charge      10.9942, renormalised to      11.0000
     Starting wfcs are   10 randomized atomic wfcs

     total cpu time spent up to now is        1.4 secs

     Self-consistent Calculation

     iteration #  1     ecut=    80.00 Ry     beta= 0.70
     Davidson diagonalization with overlap
     ethr =  1.00E-02,  avg # of iterations =  5.7

     Threshold (ethr) on eigenvalues was too large:
     Diagonalizing with lowered threshold

     Davidson diagonalization with overlap
     ethr =  3.92E-04,  avg # of iterations =  3.6

     total cpu time spent up to now is        4.0 secs

     total energy              =     -30.92608424 Ry
     estimated scf accuracy    <       0.05380789 Ry

     iteration #  2     ecut=    80.00 Ry     beta= 0.70
     Davidson diagonalization with overlap
     ethr =  4.89E-04,  avg # of iterations =  2.4

     total cpu time spent up to now is        5.1 secs

     total energy              =     -30.93535265 Ry
     estimated scf accuracy    <       0.05578440 Ry

     iteration #  3     ecut=    80.00 Ry     beta= 0.70
     Davidson diagonalization with overlap
     ethr =  4.89E-04,  avg # of iterations =  2.0

     total cpu time spent up to now is        6.1 secs

     total energy              =     -30.94658991 Ry
     estimated scf accuracy    <       0.00024132 Ry

     iteration #  4     ecut=    80.00 Ry     beta= 0.70
     Davidson diagonalization with overlap
     c_bands:  1 eigenvalues not converged
     c_bands:  1 eigenvalues not converged
     c_bands:  1 eigenvalues not converged
     c_bands:  1 eigenvalues not converged
     ethr =  2.19E-06,  avg # of iterations = 11.3

     total cpu time spent up to now is        8.0 secs

     total energy              =     -30.94671437 Ry
     estimated scf accuracy    <       0.00006320 Ry

     iteration #  5     ecut=    80.00 Ry     beta= 0.70
     Davidson diagonalization with overlap
     ethr =  5.75E-07,  avg # of iterations =  2.1

     total cpu time spent up to now is        9.1 secs

     total energy              =     -30.94673203 Ry
     estimated scf accuracy    <       0.00000765 Ry

     iteration #  6     ecut=    80.00 Ry     beta= 0.70
     Davidson diagonalization with overlap
     ethr =  6.95E-08,  avg # of iterations =  1.4

     total cpu time spent up to now is       10.0 secs

     total energy              =     -30.94673311 Ry
     estimated scf accuracy    <       0.00000020 Ry

     iteration #  7     ecut=    80.00 Ry     beta= 0.70
     Davidson diagonalization with overlap
     ethr =  1.86E-09,  avg # of iterations =  3.9

     total cpu time spent up to now is       11.3 secs

     total energy              =     -30.94673325 Ry
     estimated scf accuracy    <       0.00000008 Ry

     iteration #  8     ecut=    80.00 Ry     beta= 0.70
     Davidson diagonalization with overlap
     ethr =  7.04E-10,  avg # of iterations =  2.0

     total cpu time spent up to now is       12.3 secs

     End of self-consistent calculation

          k = 0.0000 0.0000 0.0000 (  8577 PWs)   bands (ev):

   -45.3625  -6.9440  -5.9196  -1.1390   1.6787   1.6787   2.2742   2.8658
     2.8658   5.0151

          k = 0.0000 0.0000 0.0985 (  8600 PWs)   bands (ev):

   -45.3625  -6.8914  -6.0123  -0.9408   1.7275   1.7275   1.9369   2.7722
     2.7722   5.1058

          k = 0.0000 0.0000 0.1971 (  8604 PWs)   bands (ev):

   -45.3625  -6.7401  -6.2394  -0.4057   1.1893   1.8563   1.8563   2.5593
     2.5593   5.3515

          k = 0.0000 0.0000-0.2956 (  8644 PWs)   bands (ev):

   -45.3625  -6.5372  -6.4782   0.2830   0.4154   1.9572   1.9572   2.4187
     2.4187   5.5306

          k = 0.0000 0.1111 0.0000 (  8595 PWs)   bands (ev):

   -45.3624  -6.8702  -5.8784  -1.0545   1.1379   1.7409   2.1618   2.3180
     2.8880   5.3776

          k = 0.0000 0.1111 0.0985 (  8603 PWs)   bands (ev):

   -45.3624  -6.8188  -5.9670  -0.8728   1.2026   1.7224   1.7879   2.4136
     2.8005   5.4686

          k = 0.0000 0.1111 0.1971 (  8624 PWs)   bands (ev):

   -45.3624  -6.6709  -6.1852  -0.3858   1.0256   1.3923   1.9111   2.2398
     2.6009   5.7065

          k = 0.0000 0.1111-0.2956 (  8630 PWs)   bands (ev):

   -45.3624  -6.4724  -6.4172   0.2244   0.3553   1.5395   2.0058   2.0589
     2.4699   5.8869

          k = 0.0000 0.2222 0.0000 (  8623 PWs)   bands (ev):

   -45.3624  -6.6594  -5.7803  -0.8063   0.1913   1.2189   1.9070   1.9150
     2.9361   5.7590

          k = 0.0000 0.2222 0.0985 (  8622 PWs)   bands (ev):

   -45.3624  -6.6119  -5.8548  -0.7164   0.3227   0.9289   1.9560   2.0214
     2.8674   5.8144

          k = 0.0000 0.2222 0.1971 (  8602 PWs)   bands (ev):

   -45.3624  -6.4763  -6.0427  -0.4712   0.3371   0.8057   1.9172   2.0603
     2.7098   6.0352

          k = 0.0000 0.2222-0.2956 (  8616 PWs)   bands (ev):

   -45.3624  -6.2946  -6.2495  -0.1590  -0.0413   1.1353   1.6427   2.1353
     2.6090   6.2688

          k = 0.0000 0.3333 0.0000 (  8620 PWs)   bands (ev):

   -45.3623  -6.3479  -5.7057  -0.5939  -0.3769   0.2411   1.4081   2.1576
     2.9617   6.1038

          k = 0.0000 0.3333 0.0985 (  8617 PWs)   bands (ev):

   -45.3623  -6.3095  -5.7534  -0.8158  -0.1676   0.2200   1.6028   2.1860
     2.9242   5.9856

          k = 0.0000 0.3333 0.1971 (  8624 PWs)   bands (ev):

   -45.3623  -6.2017  -5.8800  -0.9068  -0.4775   0.7742   1.7558   2.2535
     2.8387   5.7760

          k = 0.0000 0.3333-0.2956 (  8628 PWs)   bands (ev):

   -45.3623  -6.0623  -6.0289  -0.8229  -0.7321   1.2379   1.5962   2.2958
     2.7874   5.9521

          k = 0.0000 0.4444 0.0000 (  8596 PWs)   bands (ev):

   -45.3622  -6.0119  -5.7681  -0.9184  -0.4163   0.1357   0.8060   2.3688
     2.9346   6.5490

          k = 0.0000 0.4444 0.0985 (  8621 PWs)   bands (ev):

   -45.3622  -5.9922  -5.7795  -1.0594  -0.7005   0.5146   1.0650   2.3786
     2.9313   6.3170

          k = 0.0000 0.4444 0.1971 (  8643 PWs)   bands (ev):

   -45.3622  -5.9407  -5.8144  -1.2443  -1.0399   1.0942   1.4978   2.3990
     2.9237   5.7155

          k = 0.0000 0.4444-0.2956 (  8648 PWs)   bands (ev):

   -45.3622  -5.8880  -5.8587  -1.2962  -1.1893   1.4099   1.6692   2.4097
     2.9195   5.4567

          k = 0.1111 0.1111 0.0000 (  8595 PWs)   bands (ev):

   -45.3624  -6.7970  -5.8369  -0.9708   1.1711   1.2417   2.0967   2.2131
     2.4654   5.8966

          k = 0.1111 0.1111 0.0985 (  8602 PWs)   bands (ev):

   -45.3624  -6.7467  -5.9214  -0.8044   1.2409   1.2944   1.6059   2.3397
     2.4648   5.9791

          k = 0.1111 0.1111 0.1971 (  8627 PWs)   bands (ev):

   -45.3624  -6.6022  -6.1311  -0.3600   0.9308   1.4222   1.4604   2.1437
     2.3684   6.1964

          k = 0.1111 0.1111-0.2956 (  8638 PWs)   bands (ev):

   -45.3624  -6.4080  -6.3565   0.1954   0.3131   1.5477   1.5848   2.0509
     2.1782   6.3615

          k = 0.1111 0.2222 0.0000 (  8615 PWs)   bands (ev):

   -45.3623  -6.5880  -5.7373  -0.7249   0.2630   1.2449   1.3977   1.8661
     2.4479   6.2812

          k = 0.1111 0.2222 0.0985 (  8618 PWs)   bands (ev):

   -45.3623  -6.5416  -5.8086  -0.6445   0.3877   0.9469   1.4528   1.9622
     2.4223   6.2628

          k = 0.1111 0.2222 0.1971 (  8624 PWs)   bands (ev):

   -45.3623  -6.4092  -5.9891  -0.4177   0.3721   0.8198   1.5711   1.8534
     2.3570   6.3205

          k = 0.1111 0.2222-0.2956 (  8620 PWs)   bands (ev):

   -45.3623  -6.2316  -6.1900  -0.1217  -0.0007   1.0914   1.5081   1.8236
     2.2479   6.4624

          k = 0.1111 0.3333 0.0000 (  8620 PWs)   bands (ev):

   -45.3622  -6.2800  -5.6588  -0.5208  -0.3036   0.2851   1.4079   1.6715
     2.5033   6.3635

          k = 0.1111 0.3333 0.0985 (  8612 PWs)   bands (ev):

   -45.3622  -6.2426  -5.7047  -0.7360  -0.1077   0.2628   1.5832   1.7136
     2.4632   6.1348

          k = 0.1111 0.3333 0.1971 (  8621 PWs)   bands (ev):

   -45.3622  -6.1377  -5.8265  -0.8288  -0.4100   0.7745   1.6703   1.8415
     2.4021   5.8909

          k = 0.1111 0.3333-0.2956 (  8634 PWs)   bands (ev):

   -45.3622  -6.0016  -5.9711  -0.7567  -0.6502   1.1845   1.5149   1.9081
     2.3779   5.9113

          k = 0.1111 0.4444 0.0000 (  8611 PWs)   bands (ev):

   -45.3622  -5.9501  -5.7143  -0.8549  -0.3585   0.2003   0.8433   1.9024
     2.4965   6.6851

          k = 0.1111 0.4444 0.0985 (  8614 PWs)   bands (ev):

   -45.3622  -5.9309  -5.7253  -0.9889  -0.6288   0.5536   1.0857   1.9147
     2.4886   6.2681

          k = 0.1111 0.4444 0.1971 (  8628 PWs)   bands (ev):

   -45.3622  -5.8810  -5.7591  -1.1677  -0.9565   1.0916   1.4878   1.9405
     2.4660   5.7748

          k = 0.1111 0.4444-0.2956 (  8626 PWs)   bands (ev):

   -45.3622  -5.8296  -5.8024  -1.2215  -1.0983   1.3814   1.6387   1.9589
     2.4496   5.5741

          k = 0.2222 0.2222 0.0000 (  8635 PWs)   bands (ev):

   -45.3623  -6.3850  -5.6319  -0.4870   0.4480   0.4804   1.1213   1.6141
     1.8063   6.2189

          k = 0.2222 0.2222 0.0985 (  8617 PWs)   bands (ev):

   -45.3623  -6.3424  -5.6923  -0.4624   0.4883   0.6285   0.8422   1.6029
     1.9408   6.3418

          k = 0.2222 0.2222 0.1971 (  8607 PWs)   bands (ev):

   -45.3623  -6.2216  -5.8479  -0.3422   0.3186   0.6739   0.9362   1.5325
     2.0352   6.2299

          k = 0.2222 0.2222-0.2956 (  8618 PWs)   bands (ev):

   -45.3623  -6.0594  -6.0271  -0.1504   0.0123   0.8364   0.8972   1.7355
     1.8763   6.0877

          k = 0.2222 0.3333 0.0000 (  8610 PWs)   bands (ev):

   -45.3622  -6.0890  -5.5396  -0.3250  -0.0899   0.3590   0.7531   1.3938
     1.6701   5.9182

          k = 0.2222 0.3333 0.0985 (  8607 PWs)   bands (ev):

   -45.3622  -6.0549  -5.5788  -0.5075   0.0350   0.3101   0.8523   1.4854
     1.6742   5.9627

          k = 0.2222 0.3333 0.1971 (  8601 PWs)   bands (ev):

   -45.3622  -5.9600  -5.6844  -0.6108  -0.2339   0.5781   0.9847   1.5259
     1.8014   5.8410

          k = 0.2222 0.3333-0.2956 (  8606 PWs)   bands (ev):

   -45.3622  -5.8359  -5.8138  -0.5816  -0.4206   0.8213   0.8585   1.6765
     1.8011   5.6767

          k = 0.2222 0.4444 0.0000 (  8610 PWs)   bands (ev):

   -45.3621  -5.7792  -5.5707  -0.6903  -0.2266   0.3805   0.9057   1.0505
     1.6777   5.8193

          k = 0.2222 0.4444 0.0985 (  8604 PWs)   bands (ev):

   -45.3621  -5.7620  -5.5805  -0.7969  -0.4374   0.6097   1.0364   1.1300
     1.6747   5.7055

          k = 0.2222 0.4444 0.1971 (  8608 PWs)   bands (ev):

   -45.3621  -5.7174  -5.6103  -0.9519  -0.7156   0.9045   1.1476   1.4121
     1.6619   5.6172

          k = 0.2222 0.4444-0.2956 (  8612 PWs)   bands (ev):

   -45.3621  -5.6705  -5.6498  -1.0074  -0.8324   1.0116   1.1994   1.5867
     1.6238   5.6153

          k = 0.3333 0.3333 0.0000 (  8589 PWs)   bands (ev):

   -45.3621  -5.8171  -5.4164  -0.2354   0.1677   0.1846   0.2449   1.1010
     1.3508   5.2474

          k = 0.3333 0.3333 0.0985 (  8599 PWs)   bands (ev):

   -45.3621  -5.7903  -5.4427  -0.2558  -0.0786   0.1017   0.5348   1.1253
     1.4059   5.4466

          k = 0.3333 0.3333 0.1971 (  8596 PWs)   bands (ev):

   -45.3621  -5.7169  -5.5153  -0.3999  -0.1524   0.0814   0.5135   1.3407
     1.5082   5.3999

          k = 0.3333 0.3333-0.2956 (  8596 PWs)   bands (ev):

   -45.3621  -5.6216  -5.6103  -0.4561  -0.2217   0.2365   0.3301   1.5204
     1.5206   5.4356

          k = 0.3333 0.4444 0.0000 (  8614 PWs)   bands (ev):

   -45.3620  -5.5487  -5.3967  -0.5489  -0.1942   0.3054   0.6399   1.0003
     1.1525   4.8977

          k = 0.3333 0.4444 0.0985 (  8609 PWs)   bands (ev):

   -45.3620  -5.5355  -5.4034  -0.5835  -0.2502   0.2262   0.6638   1.0388
     1.2306   5.0235

          k = 0.3333 0.4444 0.1971 (  8600 PWs)   bands (ev):

   -45.3620  -5.5016  -5.4243  -0.6593  -0.3652   0.1944   0.6175   1.1442
     1.3125   5.2183

          k = 0.3333 0.4444-0.2956 (  8580 PWs)   bands (ev):

   -45.3620  -5.4648  -5.4546  -0.6983  -0.4216   0.2125   0.5791   1.1951
     1.3259   5.4993

          k = 0.4444 0.4444 0.0000 (  8599 PWs)   bands (ev):

   -45.3620  -5.3514  -5.2938  -0.6428  -0.3555   0.1315   0.9009   0.9680
     1.0833   4.3830

          k = 0.4444 0.4444 0.0985 (  8613 PWs)   bands (ev):

   -45.3620  -5.3448  -5.2947  -0.6144  -0.3031   0.0549   0.6980   0.9802
     1.0723   4.6450

          k = 0.4444 0.4444 0.1971 (  8597 PWs)   bands (ev):

   -45.3620  -5.3285  -5.2995  -0.5455  -0.1485  -0.0994   0.3977   0.9059
     1.0008   5.1040

          k = 0.4444 0.4444-0.2956 (  8594 PWs)   bands (ev):

   -45.3620  -5.3116  -5.3107  -0.4973  -0.1863   0.0750   0.1196   0.9048
     0.9153   5.5334

     the Fermi energy is     0.6194 ev

!    total energy              =     -30.94673327 Ry
     estimated scf accuracy    <          5.3E-11 Ry
     smearing contrib. (-TS)   =       0.00032802 Ry
     internal energy E=F+TS    =     -30.94706129 Ry

     The total energy is F=E-TS. E is the sum of the following terms:
     one-electron contribution =     -10.24560637 Ry
     hartree contribution      =       5.77489504 Ry
     xc contribution           =      -8.80006200 Ry
     ewald contribution        =     -17.67628796 Ry

     convergence has been achieved in   8 iterations

     Forces acting on atoms (cartesian axes, Ry/au):

     atom    1 type  1   force =     0.00000000    0.00000000    0.00000000
     atom    2 type  2   force =     0.00000000    0.00000000   -0.02183657
     atom    3 type  2   force =     0.00000000    0.00000000    0.02183657
     The non-local contrib.  to forces
     atom    1 type  1   force =     0.00000000    0.00000000    0.00000000
     atom    2 type  2   force =     0.00000000    0.00000000   -0.05780191
     atom    3 type  2   force =     0.00000000    0.00000000    0.05780191
     The ionic contribution  to forces
     atom    1 type  1   force =    -0.00000000   -0.00000000    0.00000000
     atom    2 type  2   force =    -0.00000000   -0.00000000   -0.96742047
     atom    3 type  2   force =    -0.00000000   -0.00000000    0.96742047
     The local contribution  to forces
     atom    1 type  1   force =     0.00000000    0.00000000    0.00000000
     atom    2 type  2   force =    -0.00000000    0.00000000    0.99948637
     atom    3 type  2   force =     0.00000000    0.00000000   -0.99948637
     The core correction contribution to forces
     atom    1 type  1   force =     0.00000000    0.00000000    0.00000000
     atom    2 type  2   force =    -0.00000000    0.00000000    0.00389735
     atom    3 type  2   force =     0.00000000    0.00000000   -0.00389735
     The Hubbard contrib.    to forces
     atom    1 type  1   force =     0.00000000    0.00000000    0.00000000
     atom    2 type  2   force =     0.00000000    0.00000000    0.00000000
     atom    3 type  2   force =     0.00000000    0.00000000    0.00000000
     The SCF correction term to forces
     atom    1 type  1   force =     0.00000000   -0.00000000    0.00000000
     atom    2 type  2   force =     0.00000000    0.00000000    0.00000209
     atom    3 type  2   force =    -0.00000000   -0.00000000   -0.00000209

     Total force =     0.030882     Total SCF correction =     0.000003


     Computing stress (Cartesian axis) and pressure

          total   stress  (Ry/bohr**3)                   (kbar)     P=      -55.99
  -0.00043037  -0.00000000   0.00000000          -63.31       -0.00        0.00
  -0.00000000  -0.00043037   0.00000000           -0.00      -63.31        0.00
   0.00000000   0.00000000  -0.00028101            0.00        0.00      -41.34


     BFGS Geometry Optimization
     Energy error            =      0.0E+00 Ry
     Gradient error          =      2.2E-02 Ry/Bohr
     Cell gradient error     =      5.6E+02 kbar

     number of scf cycles    =   1
     number of bfgs steps    =   0

     enthalpy           new  =     -28.5239906966 Ry

     new trust radius        =       0.5000000000 bohr
ibrav =      6
 celldm(1) =      6.79532884
 celldm(3) =      1.69817867
Input lattice vectors:
     0.90636083    -0.00000000     0.00000000
    -0.00000000     0.90636083     0.00000000
     0.00000000     0.00000000     1.53916264
New lattice vectors in INITIAL alat:
     0.90636083     0.00000000     0.00000000
     0.00000000     0.90636083     0.00000000
     0.00000000     0.00000000     1.53916264
New lattice vectors in NEW alat (for information only):
     1.00000000     0.00000000     0.00000000
     0.00000000     1.00000000     0.00000000
     0.00000000     0.00000000     1.69817867
Discrepancy in bohr =     0.000000    0.000000    0.000000
     new conv_thr            =       0.0000000100 Ry

     new unit-cell volume =    532.86208 a.u.^3 (    78.96201 Ang^3 )
     density =      1.32722 g/cm^3

CELL_PARAMETERS (alat=  7.49737698)
   0.906360833   0.000000000   0.000000000
   0.000000000   0.906360833   0.000000000
   0.000000000   0.000000000   1.539162636

ATOMIC_POSITIONS (crystal)
Li            0.5000000000        0.5000000000        0.5000000000
Si            0.0000000000        0.5000000000        0.2362336338
Si            0.5000000000        0.0000000000        0.7637663662



     Writing config-only to output data dir ./output/LiSi.save/
     NEW-OLD atomic charge density approx. for the potential
     extrapolated charge    7.28755, renormalised to   11.00000

     total cpu time spent up to now is       15.3 secs

     Self-consistent Calculation

     iteration #  1     ecut=    80.00 Ry     beta= 0.70
     Davidson diagonalization with overlap
     c_bands:  1 eigenvalues not converged
     c_bands:  1 eigenvalues not converged
     c_bands:  1 eigenvalues not converged
     c_bands:  1 eigenvalues not converged
     ethr =  1.00E-06,  avg # of iterations = 15.1

     total cpu time spent up to now is       18.8 secs

     total energy              =     -30.08389473 Ry
     estimated scf accuracy    <       0.83885532 Ry

     iteration #  2     ecut=    80.00 Ry     beta= 0.70
     Davidson diagonalization with overlap
     ethr =  7.63E-03,  avg # of iterations =  3.0

     total cpu time spent up to now is       20.1 secs

     total energy              =     -30.80842766 Ry
     estimated scf accuracy    <       3.14463668 Ry

     iteration #  3     ecut=    80.00 Ry     beta= 0.70
     Davidson diagonalization with overlap
     ethr =  7.63E-03,  avg # of iterations =  2.0

     total cpu time spent up to now is       21.1 secs

     total energy              =     -30.98982872 Ry
     estimated scf accuracy    <       0.32524226 Ry

     iteration #  4     ecut=    80.00 Ry     beta= 0.70
     Davidson diagonalization with overlap
     ethr =  2.96E-03,  avg # of iterations =  1.9

     total cpu time spent up to now is       22.0 secs

     total energy              =     -31.00893367 Ry
     estimated scf accuracy    <       0.04055219 Ry

     iteration #  5     ecut=    80.00 Ry     beta= 0.70
     Davidson diagonalization with overlap
     ethr =  3.69E-04,  avg # of iterations =  2.5

     total cpu time spent up to now is       23.1 secs

     total energy              =     -31.01578681 Ry
     estimated scf accuracy    <       0.00187136 Ry

     iteration #  6     ecut=    80.00 Ry     beta= 0.70
     Davidson diagonalization with overlap
     ethr =  1.70E-05,  avg # of iterations =  5.5

     total cpu time spent up to now is       24.5 secs

     total energy              =     -31.01654433 Ry
     estimated scf accuracy    <       0.00000642 Ry

     iteration #  7     ecut=    80.00 Ry     beta= 0.70
     Davidson diagonalization with overlap
     c_bands:  1 eigenvalues not converged
     ethr =  5.83E-08,  avg # of iterations =  5.2

     total cpu time spent up to now is       25.9 secs

     total energy              =     -31.01655810 Ry
     estimated scf accuracy    <       0.00000199 Ry

     iteration #  8     ecut=    80.00 Ry     beta= 0.70
     Davidson diagonalization with overlap
     ethr =  1.81E-08,  avg # of iterations =  2.2

     total cpu time spent up to now is       27.0 secs

     total energy              =     -31.01655864 Ry
     estimated scf accuracy    <       0.00000181 Ry

     iteration #  9     ecut=    80.00 Ry     beta= 0.70
     Davidson diagonalization with overlap
     ethr =  1.65E-08,  avg # of iterations =  1.9

     total cpu time spent up to now is       27.9 secs

     total energy              =     -31.01655895 Ry
     estimated scf accuracy    <       0.00000001 Ry

     iteration # 10     ecut=    80.00 Ry     beta= 0.70
     Davidson diagonalization with overlap
     ethr =  9.86E-11,  avg # of iterations =  4.0

     total cpu time spent up to now is       29.2 secs

     total energy              =     -31.01655896 Ry
     estimated scf accuracy    <       0.00000001 Ry

     iteration # 11     ecut=    80.00 Ry     beta= 0.70
     Davidson diagonalization with overlap
     ethr =  9.86E-11,  avg # of iterations =  2.0

     total cpu time spent up to now is       30.1 secs

     End of self-consistent calculation

          k = 0.0000 0.0000 0.0000 (  8577 PWs)   bands (ev):

   -43.4928  -6.1505  -4.4520  -0.1901   3.7132   3.7132   4.7297   5.5127
     5.5127   7.0789

          k = 0.0000 0.0000 0.1083 (  8600 PWs)   bands (ev):

   -43.4928  -6.0746  -4.6315   0.1309   3.7836   3.7836   4.2836   5.3424
     5.3424   7.1955

          k = 0.0000 0.0000 0.2166 (  8604 PWs)   bands (ev):

   -43.4928  -5.8552  -5.0320   0.9394   3.2874   3.9739   3.9739   4.9756
     4.9756   7.5031

          k = 0.0000 0.0000-0.3249 (  8644 PWs)   bands (ev):

   -43.4928  -5.5976  -5.3701   1.7606   2.3912   4.1336   4.1336   4.7369
     4.7369   7.7145

          k = 0.0000 0.1226 0.0000 (  8595 PWs)   bands (ev):

   -43.4926  -6.0425  -4.3795  -0.0852   2.8864   3.8037   4.5281   4.7413
     5.5500   7.5080

          k = 0.0000 0.1226 0.1083 (  8603 PWs)   bands (ev):

   -43.4926  -5.9673  -4.5529   0.2169   2.9763   3.8722   3.9626   4.8132
     5.3900   7.6137

          k = 0.0000 0.1226 0.2166 (  8624 PWs)   bands (ev):

   -43.4926  -5.7503  -4.9431   0.9709   3.0704   3.2305   4.0564   4.4573
     5.0423   7.9010

          k = 0.0000 0.1226-0.3249 (  8630 PWs)   bands (ev):

   -43.4926  -5.4939  -5.2770   1.7123   2.3029   3.4600   4.1299   4.2084
     4.8165   8.1387

          k = 0.0000 0.2452 0.0000 (  8623 PWs)   bands (ev):

   -43.4923  -5.7274  -4.1997   0.2191   1.5585   3.2099   4.0613   4.1006
     5.6315   7.8695

          k = 0.0000 0.2452 0.1083 (  8622 PWs)   bands (ev):

   -43.4923  -5.6553  -4.3502   0.4057   1.7337   2.7979   4.1233   4.2739
     5.5041   7.9085

          k = 0.0000 0.2452 0.2166 (  8602 PWs)   bands (ev):

   -43.4923  -5.4476  -4.7002   0.8357   2.0176   2.3859   4.0682   4.2860
     5.2203   8.1417

          k = 0.0000 0.2452-0.3249 (  8616 PWs)   bands (ev):

   -43.4923  -5.1990  -5.0140   1.2189   1.6224   2.8486   3.5997   4.4122
     5.0378   8.4065

          k = 0.0000 0.3678 0.0000 (  8620 PWs)   bands (ev):

   -43.4919  -5.2386  -4.0540   0.4129   0.8542   1.8422   3.3083   4.4351
     5.6704   8.3231

          k = 0.0000 0.3678 0.1083 (  8617 PWs)   bands (ev):

   -43.4919  -5.1750  -4.1512   0.1926   1.1949   1.6864   3.6225   4.4820
     5.6000   8.1836

          k = 0.0000 0.3678 0.2166 (  8624 PWs)   bands (ev):

   -43.4919  -4.9943  -4.3985   0.1369   0.8249   2.3860   3.8766   4.5977
     5.4377   7.8948

          k = 0.0000 0.3678-0.3249 (  8628 PWs)   bands (ev):

   -43.4919  -4.7778  -4.6478   0.2862   0.4676   3.0583   3.6234   4.6754
     5.3368   8.1712

          k = 0.0000 0.4904 0.0000 (  8596 PWs)   bands (ev):

   -43.4917  -4.6629  -4.1872   0.1193   0.8411   1.4434   2.4558   4.7866
     5.6009   8.9436

          k = 0.0000 0.4904 0.1083 (  8621 PWs)   bands (ev):

   -43.4917  -4.6225  -4.2044  -0.0875   0.4096   2.0237   2.8259   4.8064
     5.5956   8.6741

          k = 0.0000 0.4904 0.2166 (  8643 PWs)   bands (ev):

   -43.4917  -4.5158  -4.2645  -0.3476  -0.0782   2.8799   3.4728   4.8486
     5.5825   7.8910

          k = 0.0000 0.4904-0.3249 (  8648 PWs)   bands (ev):

   -43.4917  -4.4039  -4.3532  -0.3918  -0.3199   3.3704   3.7435   4.8712
     5.5744   7.5280

          k = 0.1226 0.1226 0.0000 (  8595 PWs)   bands (ev):

   -43.4925  -5.9349  -4.3068   0.0194   2.9132   3.0550   4.4219   4.7049
     4.8209   8.3359

          k = 0.1226 0.1226 0.1083 (  8602 PWs)   bands (ev):

   -43.4925  -5.8605  -4.4744   0.3034   3.0143   3.1246   3.8305   4.6107
     4.9515   8.4284

          k = 0.1226 0.1226 0.2166 (  8627 PWs)   bands (ev):

   -43.4925  -5.6457  -4.8545   1.0079   2.9463   3.2775   3.3590   4.2685
     4.6970   8.6726

          k = 0.1226 0.1226-0.3249 (  8638 PWs)   bands (ev):

   -43.4925  -5.3907  -5.1840   1.6885   2.2460   3.4600   3.5727   4.0875
     4.3394   8.8586

          k = 0.1226 0.2452 0.0000 (  8615 PWs)   bands (ev):

   -43.4922  -5.6210  -4.1257   0.3228   1.6568   3.2036   3.3294   4.0591
     4.8749   8.5596

          k = 0.1226 0.2452 0.1083 (  8618 PWs)   bands (ev):

   -43.4922  -5.5497  -4.2714   0.4970   1.8278   2.8327   3.3642   4.1581
     4.8418   8.5661

          k = 0.1226 0.2452 0.2166 (  8624 PWs)   bands (ev):

   -43.4922  -5.3444  -4.6122   0.9052   2.0927   2.4079   3.5574   3.9111
     4.6912   8.6314

          k = 0.1226 0.2452-0.3249 (  8620 PWs)   bands (ev):

   -43.4922  -5.0973  -4.9217   1.2743   1.6895   2.7983   3.4713   3.8516
     4.4434   8.8354

          k = 0.1226 0.3678 0.0000 (  8620 PWs)   bands (ev):

   -43.4918  -5.1350  -3.9756   0.5171   0.9476   1.9130   3.2861   3.7291
     4.9545   8.6791

          k = 0.1226 0.3678 0.1083 (  8612 PWs)   bands (ev):

   -43.4918  -5.0722  -4.0699   0.2981   1.2833   1.7489   3.5665   3.7974
     4.8833   8.3970

          k = 0.1226 0.3678 0.2166 (  8621 PWs)   bands (ev):

   -43.4918  -4.8939  -4.3108   0.2393   0.9171   2.4012   3.7625   3.9549
     4.7588   8.0567

          k = 0.1226 0.3678-0.3249 (  8634 PWs)   bands (ev):

   -43.4918  -4.6792  -4.5566   0.3817   0.5677   2.9956   3.5435   4.0711
     4.6767   8.1376

          k = 0.1226 0.4904 0.0000 (  8611 PWs)   bands (ev):

   -43.4916  -4.5647  -4.0991   0.2115   0.9207   1.5362   2.4995   4.1075
     4.8877   9.1636

          k = 0.1226 0.4904 0.1083 (  8614 PWs)   bands (ev):

   -43.4916  -4.5249  -4.1160   0.0110   0.5053   2.0835   2.8540   4.1326
     4.8799   8.5792

          k = 0.1226 0.4904 0.2166 (  8628 PWs)   bands (ev):

   -43.4916  -4.4203  -4.1749  -0.2411   0.0247   2.8865   3.4620   4.1888
     4.8528   7.9183

          k = 0.1226 0.4904-0.3249 (  8626 PWs)   bands (ev):

   -43.4916  -4.3097  -4.2626  -0.2784  -0.2192   3.3315   3.7098   4.2250
     4.8308   7.6371

          k = 0.2452 0.2452 0.0000 (  8635 PWs)   bands (ev):

   -43.4919  -5.3114  -3.9388   0.6230   1.9042   1.9795   3.2873   3.5849
     3.8952   8.3103

          k = 0.2452 0.2452 0.1083 (  8617 PWs)   bands (ev):

   -43.4919  -5.2433  -4.0658   0.7196   2.0420   2.1211   2.7941   3.5060
     4.1998   8.5516

          k = 0.2452 0.2452 0.2166 (  8607 PWs)   bands (ev):

   -43.4919  -5.0477  -4.3713   0.9823   2.1275   2.2208   2.5821   3.3645
     4.2931   8.5551

          k = 0.2452 0.2452-0.3249 (  8618 PWs)   bands (ev):

   -43.4919  -4.8090  -4.6616   1.2396   1.7381   2.3898   2.6232   3.6827
     3.9619   8.3892

          k = 0.2452 0.3678 0.0000 (  8610 PWs)   bands (ev):

   -43.4915  -4.8351  -3.7701   0.8087   1.2169   2.0420   2.4004   3.3551
     3.6853   8.0117

          k = 0.2452 0.3678 0.1083 (  8607 PWs)   bands (ev):

   -43.4915  -4.7755  -3.8536   0.6007   1.5027   1.8430   2.5396   3.4247
     3.7523   8.0671

          k = 0.2452 0.3678 0.2166 (  8601 PWs)   bands (ev):

   -43.4915  -4.6068  -4.0703   0.5237   1.1678   2.1830   2.7684   3.4090
     3.9584   8.0013

          k = 0.2452 0.3678-0.3249 (  8606 PWs)   bands (ev):

   -43.4915  -4.4009  -4.3004   0.6194   0.8709   2.5049   2.6256   3.7111
     3.8751   7.7182

          k = 0.2452 0.4904 0.0000 (  8610 PWs)   bands (ev):

   -43.4913  -4.2846  -3.8565   0.4601   1.1056   1.7973   2.5296   2.9760
     3.6479   7.9104

          k = 0.2452 0.4904 0.1083 (  8604 PWs)   bands (ev):

   -43.4913  -4.2476  -3.8719   0.2863   0.7637   2.1837   2.7802   3.0535
     3.6533   7.7143

          k = 0.2452 0.4904 0.2166 (  8608 PWs)   bands (ev):

   -43.4913  -4.1501  -3.9259   0.0616   0.3245   2.6928   3.0343   3.3645
     3.6684   7.5943

          k = 0.2452 0.4904-0.3249 (  8612 PWs)   bands (ev):

   -43.4913  -4.0456  -4.0086   0.0221   0.1040   2.9335   3.0495   3.5868
     3.6724   7.5414

          k = 0.3678 0.3678 0.0000 (  8589 PWs)   bands (ev):

   -43.4911  -4.3811  -3.5510   1.0391   1.4969   1.5880   1.9823   2.8165
     3.2472   7.1049

          k = 0.3678 0.3678 0.1083 (  8599 PWs)   bands (ev):

   -43.4911  -4.3297  -3.6081   0.9418   1.2773   1.7499   2.0454   2.8373
     3.3556   7.4072

          k = 0.3678 0.3678 0.2166 (  8596 PWs)   bands (ev):

   -43.4911  -4.1864  -3.7643   0.7696   1.3949   1.4302   2.0435   3.1843
     3.5137   7.3135

          k = 0.3678 0.3678-0.3249 (  8596 PWs)   bands (ev):

   -43.4911  -4.0117  -3.9461   0.7325   1.2627   1.5479   1.8741   3.4925
     3.5209   7.2836

          k = 0.3678 0.4904 0.0000 (  8614 PWs)   bands (ev):

   -43.4909  -3.8791  -3.5424   0.7140   1.1354   1.7822   2.2172   2.7342
     2.9019   6.6606

          k = 0.3678 0.4904 0.1083 (  8609 PWs)   bands (ev):

   -43.4909  -3.8482  -3.5535   0.6288   1.0092   1.7372   2.2321   2.7985
     3.0445   6.8147

          k = 0.3678 0.4904 0.2166 (  8600 PWs)   bands (ev):

   -43.4909  -3.7683  -3.5936   0.4762   0.7725   1.7753   2.1744   2.9370
     3.1870   7.0217

          k = 0.3678 0.4904-0.3249 (  8580 PWs)   bands (ev):

   -43.4909  -3.6822  -3.6597   0.4133   0.6562   1.8557   2.0968   3.0099
     3.1984   7.3741

          k = 0.4904 0.4904 0.0000 (  8599 PWs)   bands (ev):

   -43.4906  -3.4880  -3.3488   0.6274   0.8018   1.5646   2.6152   2.6452
     2.8685   5.9610

          k = 0.4904 0.4904 0.1083 (  8613 PWs)   bands (ev):

   -43.4906  -3.4699  -3.3484   0.6439   0.8503   1.5053   2.2315   2.6926
     2.8352   6.3002

          k = 0.4904 0.4904 0.2166 (  8597 PWs)   bands (ev):

   -43.4906  -3.4262  -3.3546   0.6444   1.0334   1.3972   1.7910   2.5249
     2.6950   6.9606

          k = 0.4904 0.4904-0.3249 (  8594 PWs)   bands (ev):

   -43.4906  -3.3845  -3.3773   0.6334   1.2894   1.3164   1.4824   2.5130
     2.5403   7.5653

     the Fermi energy is     2.2204 ev

!    total energy              =     -31.01655896 Ry
     estimated scf accuracy    <          1.7E-10 Ry
     smearing contrib. (-TS)   =       0.00000856 Ry
     internal energy E=F+TS    =     -31.01656752 Ry

     The total energy is F=E-TS. E is the sum of the following terms:
     one-electron contribution =      -7.75366415 Ry
     hartree contribution      =       5.23947120 Ry
     xc contribution           =      -8.98131928 Ry
     ewald contribution        =     -19.52105529 Ry

     convergence has been achieved in  11 iterations

     Forces acting on atoms (cartesian axes, Ry/au):

     atom    1 type  1   force =     0.00000000    0.00000000    0.00000000
     atom    2 type  2   force =     0.00000000    0.00000000   -0.05889583
     atom    3 type  2   force =     0.00000000    0.00000000    0.05889583
     The non-local contrib.  to forces
     atom    1 type  1   force =     0.00000000    0.00000000    0.00000000
     atom    2 type  2   force =     0.00000000    0.00000000   -0.12651132
     atom    3 type  2   force =     0.00000000    0.00000000    0.12651132
     The ionic contribution  to forces
     atom    1 type  1   force =     0.00000000   -0.00000000    0.00000000
     atom    2 type  2   force =    -0.00000000   -0.00000000   -1.14935379
     atom    3 type  2   force =    -0.00000000   -0.00000000    1.14935379
     The local contribution  to forces
     atom    1 type  1   force =     0.00000000    0.00000000    0.00000000
     atom    2 type  2   force =     0.00000000    0.00000000    1.20871466
     atom    3 type  2   force =     0.00000000    0.00000000   -1.20871466
     The core correction contribution to forces
     atom    1 type  1   force =     0.00000000    0.00000000    0.00000000
     atom    2 type  2   force =     0.00000000   -0.00000000    0.00824134
     atom    3 type  2   force =     0.00000000    0.00000000   -0.00824134
     The Hubbard contrib.    to forces
     atom    1 type  1   force =     0.00000000    0.00000000    0.00000000
     atom    2 type  2   force =     0.00000000    0.00000000    0.00000000
     atom    3 type  2   force =     0.00000000    0.00000000    0.00000000
     The SCF correction term to forces
     atom    1 type  1   force =    -0.00000000    0.00000000    0.00000000
     atom    2 type  2   force =     0.00000000    0.00000000    0.00001328
     atom    3 type  2   force =     0.00000000   -0.00000000   -0.00001328

     Total force =     0.083291     Total SCF correction =     0.000019


     Computing stress (Cartesian axis) and pressure

          total   stress  (Ry/bohr**3)                   (kbar)     P=      -50.48
  -0.00045813   0.00000000   0.00000000          -67.39        0.00        0.00
   0.00000000  -0.00045813   0.00000000            0.00      -67.39        0.00
   0.00000000   0.00000000  -0.00011324            0.00        0.00      -16.66

     Energy error            =      6.8E-01 Ry
     Gradient error          =      5.9E-02 Ry/Bohr
     Cell gradient error     =      5.7E+02 kbar

     number of scf cycles    =   2
     number of bfgs steps    =   1

     enthalpy           old  =     -28.5239906966 Ry
     enthalpy           new  =     -29.2053975526 Ry

     CASE: enthalpy          _new < enthalpy          _old


     WARNING: bfgs curvature condition failed, Theta= 0.983
     new trust radius        =       0.7154595350 bohr
ibrav =      6
 celldm(1) =      5.74225664
 celldm(3) =      1.72800018
Input lattice vectors:
     0.76590208     0.00000000     0.00000000
     0.00000000     0.76590208     0.00000000
     0.00000000     0.00000000     1.32347894
New lattice vectors in INITIAL alat:
     0.76590208     0.00000000     0.00000000
     0.00000000     0.76590208     0.00000000
     0.00000000     0.00000000     1.32347894
New lattice vectors in NEW alat (for information only):
     1.00000000     0.00000000     0.00000000
     0.00000000     1.00000000     0.00000000
     0.00000000     0.00000000     1.72800018
Discrepancy in bohr =     0.000000    0.000000    0.000000
     new conv_thr            =       0.0000000059 Ry

     new unit-cell volume =    327.18364 a.u.^3 (    48.48361 Ang^3 )
     density =      2.16155 g/cm^3

CELL_PARAMETERS (alat=  7.49737698)
   0.765902082   0.000000000   0.000000000
   0.000000000   0.765902082   0.000000000
   0.000000000   0.000000000   1.323478939

ATOMIC_POSITIONS (crystal)
Li            0.5000000000        0.5000000000        0.5000000000
Si            0.0000000000        0.5000000000        0.2288567751
Si            0.5000000000        0.0000000000        0.7711432249



     Writing config-only to output data dir ./output/LiSi.save/
     NEW-OLD atomic charge density approx. for the potential

     negative rho (up, down):  1.664E-01 0.000E+00
     extrapolated charge    4.08867, renormalised to   11.00000

     total cpu time spent up to now is       33.0 secs

     Self-consistent Calculation

     iteration #  1     ecut=    80.00 Ry     beta= 0.70
     Davidson diagonalization with overlap
     c_bands:  1 eigenvalues not converged
     c_bands:  1 eigenvalues not converged
     c_bands:  1 eigenvalues not converged
     c_bands:  1 eigenvalues not converged
     c_bands:  1 eigenvalues not converged
     c_bands:  1 eigenvalues not converged
     ethr =  1.00E-06,  avg # of iterations = 15.5

     negative rho (up, down):  2.163E-02 0.000E+00

     total cpu time spent up to now is       36.8 secs

     total energy              =     -26.15356043 Ry
     estimated scf accuracy    <       5.63773598 Ry

     iteration #  2     ecut=    80.00 Ry     beta= 0.70
     Davidson diagonalization with overlap
     ethr =  1.00E-02,  avg # of iterations =  4.8

     total cpu time spent up to now is       38.4 secs

     total energy              =     -30.41761334 Ry
     estimated scf accuracy    <      12.79966624 Ry

     iteration #  3     ecut=    80.00 Ry     beta= 0.70
     Davidson diagonalization with overlap
     ethr =  1.00E-02,  avg # of iterations =  2.3

     total cpu time spent up to now is       39.5 secs

     total energy              =     -30.90841037 Ry
     estimated scf accuracy    <       1.41559373 Ry

     iteration #  4     ecut=    80.00 Ry     beta= 0.70
     Davidson diagonalization with overlap
     ethr =  1.00E-02,  avg # of iterations =  2.0

     total cpu time spent up to now is       40.4 secs

     total energy              =     -31.03857369 Ry
     estimated scf accuracy    <       0.08573707 Ry

     iteration #  5     ecut=    80.00 Ry     beta= 0.70
     Davidson diagonalization with overlap
     ethr =  7.79E-04,  avg # of iterations =  2.7

     total cpu time spent up to now is       41.5 secs

     total energy              =     -31.05082075 Ry
     estimated scf accuracy    <       0.00392420 Ry

     iteration #  6     ecut=    80.00 Ry     beta= 0.70
     Davidson diagonalization with overlap
     ethr =  3.57E-05,  avg # of iterations =  6.2

     total cpu time spent up to now is       43.0 secs

     total energy              =     -31.05309509 Ry
     estimated scf accuracy    <       0.00301700 Ry

     iteration #  7     ecut=    80.00 Ry     beta= 0.70
     Davidson diagonalization with overlap
     ethr =  2.74E-05,  avg # of iterations =  1.5

     total cpu time spent up to now is       43.8 secs

     total energy              =     -31.05343150 Ry
     estimated scf accuracy    <       0.00008459 Ry

     iteration #  8     ecut=    80.00 Ry     beta= 0.70
     Davidson diagonalization with overlap
     c_bands:  1 eigenvalues not converged
     ethr =  7.69E-07,  avg # of iterations =  5.2

     total cpu time spent up to now is       45.0 secs

     total energy              =     -31.05347131 Ry
     estimated scf accuracy    <       0.00003061 Ry

     iteration #  9     ecut=    80.00 Ry     beta= 0.70
     Davidson diagonalization with overlap
     ethr =  2.78E-07,  avg # of iterations =  1.5

     total cpu time spent up to now is       45.9 secs

     total energy              =     -31.05347525 Ry
     estimated scf accuracy    <       0.00000072 Ry

     iteration # 10     ecut=    80.00 Ry     beta= 0.70
     Davidson diagonalization with overlap
     ethr =  6.57E-09,  avg # of iterations =  3.0

     total cpu time spent up to now is       46.8 secs

     End of self-consistent calculation

          k = 0.0000 0.0000 0.0000 (  8577 PWs)   bands (ev):

   -39.6972  -4.4658  -1.2233   2.2371   8.7478   8.7478  10.8505  12.1077
    12.1077  12.3327

          k = 0.0000 0.0000 0.1259 (  8600 PWs)   bands (ev):

   -39.6972  -4.3658  -1.6368   2.8791   8.8647   8.8647  10.0737  11.6209
    11.6209  12.3189

          k = 0.0000 0.0000 0.2519 (  8604 PWs)   bands (ev):

   -39.6972  -4.0971  -2.3596   4.2604   8.4921   9.1971   9.1971  10.7791
    10.7791  12.3225

          k = 0.0000 0.0000-0.3778 (  8644 PWs)   bands (ev):

   -39.6972  -3.8812  -2.7555   5.3465   7.3138   9.5263   9.5263  10.2527
    10.2527  12.2900

          k = 0.0000 0.1451 0.0000 (  8595 PWs)   bands (ev):

   -39.6960  -4.2917  -1.0663   2.3713   7.1674   8.9019  10.2853  10.6403
    12.1965  12.4382

          k = 0.0000 0.1451 0.1259 (  8603 PWs)   bands (ev):

   -39.6960  -4.1909  -1.4793   3.0042   7.2841   9.0174   9.4882  10.5498
    11.7323  12.5474

          k = 0.0000 0.1451 0.2519 (  8624 PWs)   bands (ev):

   -39.6960  -3.9192  -2.2034   4.3548   7.5843   8.3035   9.3450   9.5586
    10.9153  12.8683

          k = 0.0000 0.1451-0.3778 (  8630 PWs)   bands (ev):

   -39.6960  -3.6986  -2.6036   5.3955   7.1891   8.0747   8.8777   9.6655
    10.4035  13.0389

          k = 0.0000 0.2901 0.0000 (  8623 PWs)   bands (ev):

   -39.6931  -3.7740  -0.6340   2.7402   4.9532   8.1225   9.2915   9.3522
    12.4052  12.8780

          k = 0.0000 0.2901 0.1259 (  8622 PWs)   bands (ev):

   -39.6931  -3.6715  -1.0343   3.2879   5.1192   7.4718   9.4628   9.6909
    12.0218  12.7854

          k = 0.0000 0.2901 0.2519 (  8602 PWs)   bands (ev):

   -39.6931  -3.3924  -1.7502   4.3184   5.6017   6.6783   9.2253   9.7721
    11.2993  13.0023

          k = 0.0000 0.2901-0.3778 (  8616 PWs)   bands (ev):

   -39.6931  -3.1578  -2.1591   4.9490   5.6250   6.7931   8.3491  10.0602
    10.8432  13.2953

          k = 0.0000 0.4352 0.0000 (  8620 PWs)   bands (ev):

   -39.6898  -2.9318  -0.1729   2.7897   3.8151   6.0074   7.7718  10.0494
    12.5162  13.6167

          k = 0.0000 0.4352 0.1259 (  8617 PWs)   bands (ev):

   -39.6898  -2.8288  -0.4716   2.7500   4.2561   5.6559   8.3951  10.1463
    12.3028  13.3388

          k = 0.0000 0.4352 0.2519 (  8624 PWs)   bands (ev):

   -39.6898  -2.5444  -1.0846   2.9363   4.1217   6.2611   8.9947  10.4059
    11.8258  12.5488

          k = 0.0000 0.4352-0.3778 (  8628 PWs)   bands (ev):

   -39.6898  -2.2924  -1.4782   3.2420   3.6623   7.1944   8.6122  10.6172
    11.5132  12.8924

          k = 0.0000 0.5803 0.0000 (  8596 PWs)   bands (ev):

   -39.6877  -1.8362  -0.5603   2.6640   4.0926   4.6295   6.4832  10.8071
    12.2579  14.5542

          k = 0.0000 0.5803 0.1259 (  8621 PWs)   bands (ev):

   -39.6877  -1.7406  -0.5760   2.3113   3.3303   5.6820   7.0401  10.8673
    12.2518  14.1114

          k = 0.0000 0.5803 0.2519 (  8643 PWs)   bands (ev):

   -39.6877  -1.4839  -0.6810   1.8283   2.6239   7.0855   8.1598  11.0061
    12.2174  12.7436

          k = 0.0000 0.5803-0.3778 (  8648 PWs)   bands (ev):

   -39.6877  -1.2598  -0.8391   1.6752   2.3284   7.9216   8.7748  11.0889
    12.0932  12.1837

          k = 0.1451 0.1451 0.0000 (  8595 PWs)   bands (ev):

   -39.6949  -4.1176  -0.9095   2.5076   7.2305   7.4037  10.0195  10.4566
    11.0575  14.4189

          k = 0.1451 0.1451 0.1259 (  8602 PWs)   bands (ev):

   -39.6949  -4.0161  -1.3218   3.1314   7.3714   7.4816   9.4514   9.8953
    11.0646  14.0024

          k = 0.1451 0.1451 0.2519 (  8627 PWs)   bands (ev):

   -39.6949  -3.7416  -2.0468   4.4520   7.6148   7.7695   8.3687   9.2409
    10.0639  14.5086

          k = 0.1451 0.1451-0.3778 (  8638 PWs)   bands (ev):

   -39.6949  -3.5161  -2.4512   5.4514   7.1399   7.9712   8.4922   8.6861
     9.3244  14.8173

          k = 0.1451 0.2901 0.0000 (  8615 PWs)   bands (ev):

   -39.6920  -3.5999  -0.4777   2.8849   5.0998   7.7121   8.2458   9.3581
    11.0246  13.6577

          k = 0.1451 0.2901 0.1259 (  8618 PWs)   bands (ev):

   -39.6920  -3.4969  -0.8765   3.4244   5.2664   7.4324   8.0794   9.4466
    10.8761  13.6518

          k = 0.1451 0.2901 0.2519 (  8624 PWs)   bands (ev):

   -39.6920  -3.2153  -1.5924   4.4398   5.7416   6.7430   8.3091   8.9496
    10.1750  13.8733

          k = 0.1451 0.2901-0.3778 (  8620 PWs)   bands (ev):

   -39.6920  -2.9760  -2.0052   5.0663   5.7521   6.8338   8.2419   8.6963
     9.4935  14.5210

          k = 0.1451 0.4352 0.0000 (  8620 PWs)   bands (ev):

   -39.6887  -2.7579  -0.0152   2.9581   3.9462   6.1397   7.6521   8.7768
    11.1434  14.1455

          k = 0.1451 0.4352 0.1259 (  8612 PWs)   bands (ev):

   -39.6887  -2.6545  -0.3122   2.9101   4.3986   5.7605   8.2267   8.8759
    10.9601  13.5881

          k = 0.1451 0.4352 0.2519 (  8621 PWs)   bands (ev):

   -39.6887  -2.3683  -0.9243   3.0945   4.2642   6.3334   8.8466   9.0061
    10.4974  12.9260

          k = 0.1451 0.4352-0.3778 (  8634 PWs)   bands (ev):

   -39.6887  -2.1120  -1.3212   3.4156   3.7862   7.2129   8.5607   9.2741
    10.0387  13.3912

          k = 0.1451 0.5803 0.0000 (  8611 PWs)   bands (ev):

   -39.6866  -1.6614  -0.3964   2.8188   4.2322   4.7895   6.5043   9.5486
    10.7362  15.0246

          k = 0.1451 0.5803 0.1259 (  8614 PWs)   bands (ev):

   -39.6866  -1.5659  -0.4111   2.4662   3.4849   5.7960   7.0676   9.6012
    10.7423  13.9751

          k = 0.1451 0.5803 0.2519 (  8628 PWs)   bands (ev):

   -39.6866  -1.3090  -0.5150   1.9949   2.7646   7.1382   8.1656   9.7211
    10.7197  12.8287

          k = 0.1451 0.5803-0.3778 (  8626 PWs)   bands (ev):

   -39.6866  -1.0826  -0.6752   1.8545   2.4557   7.9146   8.7480   9.7969
    10.6611  12.2893

          k = 0.2901 0.2901 0.0000 (  8635 PWs)   bands (ev):

   -39.6892  -3.0826  -0.0463   3.2910   5.4123   5.6635   8.1966   8.9708
     9.1574  13.0202

          k = 0.2901 0.2901 0.1259 (  8617 PWs)   bands (ev):

   -39.6892  -2.9784  -0.4299   3.7585   5.6470   5.7166   7.9112   8.0378
     9.9247  13.3610

          k = 0.2901 0.2901 0.2519 (  8607 PWs)   bands (ev):

   -39.6891  -2.6908  -1.1341   4.6093   5.8246   6.3710   6.8592   7.7894
     9.7070  13.9398

          k = 0.2901 0.2901-0.3778 (  8618 PWs)   bands (ev):

   -39.6891  -2.4382  -1.5547   5.1238   5.9510   6.1929   6.9246   7.9502
     8.9024  14.7418

          k = 0.2901 0.4352 0.0000 (  8610 PWs)   bands (ev):

   -39.6859  -2.2415   0.4266   3.4461   4.3178   6.0952   6.6245   8.0963
     8.9897  12.8428

          k = 0.2901 0.4352 0.1259 (  8607 PWs)   bands (ev):

   -39.6859  -2.1374   0.1416   3.3719   4.7716   5.8576   6.7099   8.1185
     9.1439  12.7546

          k = 0.2901 0.4352 0.2519 (  8601 PWs)   bands (ev):

   -39.6859  -1.8473  -0.4584   3.5443   4.6361   6.2454   7.0447   7.9632
     9.2897  13.0773

          k = 0.2901 0.4352-0.3778 (  8606 PWs)   bands (ev):

   -39.6859  -1.5789  -0.8620   3.9152   4.1160   6.6654   7.1243   8.3678
     8.8456  12.7628

          k = 0.2901 0.5803 0.0000 (  8610 PWs)   bands (ev):

   -39.6838  -1.1444   0.0817   3.2550   4.5995   5.2416   6.3856   7.7492
     8.5664  12.8547

          k = 0.2901 0.5803 0.1259 (  8604 PWs)   bands (ev):

   -39.6838  -1.0496   0.0697   2.9100   3.9208   6.0319   6.9150   7.8449
     8.5873  12.3641

          k = 0.2901 0.5803 0.2519 (  8608 PWs)   bands (ev):

   -39.6838  -0.7931  -0.0303   2.4801   3.1714   7.0385   7.6720   8.1457
     8.6526  12.1990

          k = 0.2901 0.5803-0.3778 (  8612 PWs)   bands (ev):

   -39.6838  -0.5608  -0.1955   2.3870   2.8188   7.5177   7.8366   8.4517
     8.7079  11.8963

          k = 0.4352 0.4352 0.0000 (  8589 PWs)   bands (ev):

   -39.6827  -1.4036   0.9645   3.9845   4.5926   4.9420   6.9053   7.0752
     7.8202  11.3410

          k = 0.4352 0.4352 0.1259 (  8599 PWs)   bands (ev):

   -39.6827  -1.3006   0.7453   3.8701   4.5112   5.4867   6.3742   7.0399
     8.1673  11.8767

          k = 0.4352 0.4352 0.2519 (  8596 PWs)   bands (ev):

   -39.6827  -1.0114   0.2323   3.9445   4.5504   5.5240   5.8785   7.5635
     8.4256  11.8909

          k = 0.4352 0.4352-0.3778 (  8596 PWs)   bands (ev):

   -39.6827  -0.7303  -0.1546   4.1330   4.5912   5.0579   5.8926   8.2734
     8.2861  11.5062

          k = 0.4352 0.5803 0.0000 (  8614 PWs)   bands (ev):

   -39.6806  -0.3150   0.8027   3.7704   4.8027   5.2779   6.0787   6.8509
     7.2891  10.8751

          k = 0.4352 0.5803 0.1259 (  8609 PWs)   bands (ev):

   -39.6806  -0.2232   0.7958   3.5097   4.4021   5.4612   6.1366   7.1614
     7.3778  10.9293

          k = 0.4352 0.5803 0.2519 (  8600 PWs)   bands (ev):

   -39.6806   0.0255   0.7087   3.1951   3.7521   5.7009   6.2681   7.2316
     7.6956  11.2070

          k = 0.4352 0.5803-0.3778 (  8580 PWs)   bands (ev):

   -39.6806   0.2604   0.5449   3.2463   3.3110   5.9169   6.1452   7.3840
     7.6583  11.5367

          k = 0.5803 0.5803 0.0000 (  8599 PWs)   bands (ev):

   -39.6786   0.7155   1.3539   3.5189   4.1242   5.0470   6.6185   6.7948
     7.2016   9.7841

          k = 0.5803 0.5803 0.1259 (  8613 PWs)   bands (ev):

   -39.6786   0.7929   1.3744   3.5503   4.0100   5.1604   5.8672   6.7443
     7.0865  10.3328

          k = 0.5803 0.5803 0.2519 (  8597 PWs)   bands (ev):

   -39.6786   0.9942   1.3796   3.5130   4.0024   4.9528   5.4766   6.2638
     6.6995  11.3875

          k = 0.5803 0.5803-0.3778 (  8594 PWs)   bands (ev):

   -39.6786   1.1755   1.3060   3.4531   4.1239   4.6482   5.4158   6.2875
     6.3311  12.1612

     the Fermi energy is     6.1849 ev

!    total energy              =     -31.05347553 Ry
     estimated scf accuracy    <          2.0E-10 Ry
     smearing contrib. (-TS)   =       0.00037040 Ry
     internal energy E=F+TS    =     -31.05384593 Ry

     The total energy is F=E-TS. E is the sum of the following terms:
     one-electron contribution =      -2.86693082 Ry
     hartree contribution      =       4.44407547 Ry
     xc contribution           =      -9.44146784 Ry
     ewald contribution        =     -23.18952273 Ry

     convergence has been achieved in  10 iterations

     Forces acting on atoms (cartesian axes, Ry/au):

     atom    1 type  1   force =     0.00000000    0.00000000    0.00000000
     atom    2 type  2   force =     0.00000000    0.00000000   -0.16448570
     atom    3 type  2   force =     0.00000000    0.00000000    0.16448570
     The non-local contrib.  to forces
     atom    1 type  1   force =     0.00000000    0.00000000    0.00000000
     atom    2 type  2   force =     0.00000000    0.00000000   -0.26193163
     atom    3 type  2   force =     0.00000000    0.00000000    0.26193163
     The ionic contribution  to forces
     atom    1 type  1   force =    -0.00000000    0.00000000    0.00000000
     atom    2 type  2   force =     0.00000000   -0.00000000   -1.43089018
     atom    3 type  2   force =     0.00000000    0.00000000    1.43089018
     The local contribution  to forces
     atom    1 type  1   force =     0.00000000    0.00000000    0.00000000
     atom    2 type  2   force =    -0.00000000   -0.00000000    1.51166406
     atom    3 type  2   force =     0.00000000   -0.00000000   -1.51166406
     The core correction contribution to forces
     atom    1 type  1   force =     0.00000000    0.00000000    0.00000000
     atom    2 type  2   force =    -0.00000000   -0.00000000    0.01667280
     atom    3 type  2   force =    -0.00000000   -0.00000000   -0.01667280
     The Hubbard contrib.    to forces
     atom    1 type  1   force =     0.00000000    0.00000000    0.00000000
     atom    2 type  2   force =     0.00000000    0.00000000    0.00000000
     atom    3 type  2   force =     0.00000000    0.00000000    0.00000000
     The SCF correction term to forces
     atom    1 type  1   force =    -0.00000000   -0.00000000    0.00000000
     atom    2 type  2   force =     0.00000000   -0.00000000   -0.00000075
     atom    3 type  2   force =    -0.00000000   -0.00000000    0.00000075

     Total force =     0.232618     Total SCF correction =     0.000001


     Computing stress (Cartesian axis) and pressure

          total   stress  (Ry/bohr**3)                   (kbar)     P=       79.18
   0.00010950  -0.00000000   0.00000000           16.11       -0.00        0.00
  -0.00000000   0.00010950   0.00000000           -0.00       16.11        0.00
   0.00000000   0.00000000   0.00139576            0.00        0.00      205.32

     Energy error            =      7.4E-01 Ry
     Gradient error          =      1.6E-01 Ry/Bohr
     Cell gradient error     =      4.8E+02 kbar

     number of scf cycles    =   3
     number of bfgs steps    =   2

     enthalpy           old  =     -29.2053975526 Ry
     enthalpy           new  =     -29.9414009366 Ry

     CASE: enthalpy          _new < enthalpy          _old

     new trust radius        =       0.8000000000 bohr
ibrav =      6
 celldm(1) =      4.47242308
 celldm(3) =      1.86020739
Input lattice vectors:
     0.59653171    -0.00000000     0.00000000
    -0.00000000     0.59653171     0.00000000
     0.00000000     0.00000000     1.10967269
New lattice vectors in INITIAL alat:
     0.59653171     0.00000000     0.00000000
     0.00000000     0.59653171     0.00000000
     0.00000000     0.00000000     1.10967269
New lattice vectors in NEW alat (for information only):
     1.00000000     0.00000000     0.00000000
     0.00000000     1.00000000     0.00000000
     0.00000000     0.00000000     1.86020739
Discrepancy in bohr =     0.000000    0.000000    0.000000
     new conv_thr            =       0.0000000100 Ry

     new unit-cell volume =    166.41406 a.u.^3 (    24.66002 Ang^3 )
     density =      4.24979 g/cm^3

CELL_PARAMETERS (alat=  7.49737698)
   0.596531706   0.000000000   0.000000000
   0.000000000   0.596531706   0.000000000
   0.000000000   0.000000000   1.109672687

ATOMIC_POSITIONS (crystal)
Li            0.5000000000        0.5000000000        0.5000000000
Si            0.0000000000        0.5000000000        0.2065993991
Si            0.5000000000        0.0000000000        0.7934006009



     Writing config-only to output data dir ./output/LiSi.save/
     NEW-OLD atomic charge density approx. for the potential

     negative rho (up, down):  1.613E+00 0.000E+00
     extrapolated charge    0.37869, renormalised to   11.00000

     total cpu time spent up to now is       49.6 secs

     Self-consistent Calculation

     iteration #  1     ecut=    80.00 Ry     beta= 0.70
     Davidson diagonalization with overlap
     c_bands:  2 eigenvalues not converged
     c_bands:  1 eigenvalues not converged
     c_bands:  1 eigenvalues not converged
     c_bands:  1 eigenvalues not converged
     c_bands:  2 eigenvalues not converged
     c_bands:  1 eigenvalues not converged
     c_bands:  1 eigenvalues not converged
     c_bands:  1 eigenvalues not converged
     c_bands:  1 eigenvalues not converged
     c_bands:  1 eigenvalues not converged
     c_bands:  1 eigenvalues not converged
     c_bands:  1 eigenvalues not converged
     c_bands:  1 eigenvalues not converged
     c_bands:  1 eigenvalues not converged
     c_bands:  1 eigenvalues not converged
     ethr =  1.00E-06,  avg # of iterations = 17.2

     negative rho (up, down):  1.183E+01 0.000E+00

     total cpu time spent up to now is       53.5 secs

     total energy              =     -67.54689092 Ry
     estimated scf accuracy    <     523.46092336 Ry

     iteration #  2     ecut=    80.00 Ry     beta= 0.70
     Davidson diagonalization with overlap
     ethr =  1.00E-02,  avg # of iterations =  6.3

     total cpu time spent up to now is       55.2 secs

     total energy              =     -17.73154076 Ry
     estimated scf accuracy    <      65.32986920 Ry

     iteration #  3     ecut=    80.00 Ry     beta= 0.70
     Davidson diagonalization with overlap
     ethr =  1.00E-02,  avg # of iterations =  4.2

     total cpu time spent up to now is       56.8 secs

     total energy              =     -30.04518116 Ry
     estimated scf accuracy    <       5.43801014 Ry

     iteration #  4     ecut=    80.00 Ry     beta= 0.70
     Davidson diagonalization with overlap
     ethr =  1.00E-02,  avg # of iterations =  2.3

     total cpu time spent up to now is       57.8 secs

     total energy              =     -30.72674713 Ry
     estimated scf accuracy    <       1.37179808 Ry

     iteration #  5     ecut=    80.00 Ry     beta= 0.70
     Davidson diagonalization with overlap
     ethr =  1.00E-02,  avg # of iterations =  1.0

     total cpu time spent up to now is       58.6 secs

     total energy              =     -30.61713774 Ry
     estimated scf accuracy    <       0.34611709 Ry

     iteration #  6     ecut=    80.00 Ry     beta= 0.70
     Davidson diagonalization with overlap
     ethr =  3.15E-03,  avg # of iterations =  1.9

     total cpu time spent up to now is       59.5 secs

     total energy              =     -30.67457460 Ry
     estimated scf accuracy    <       0.01657095 Ry

     iteration #  7     ecut=    80.00 Ry     beta= 0.70
     Davidson diagonalization with overlap
     ethr =  1.51E-04,  avg # of iterations =  3.8

     total cpu time spent up to now is       60.5 secs

     total energy              =     -30.67921327 Ry
     estimated scf accuracy    <       0.00144363 Ry

     iteration #  8     ecut=    80.00 Ry     beta= 0.70
     Davidson diagonalization with overlap
     ethr =  1.31E-05,  avg # of iterations =  3.6

     total cpu time spent up to now is       61.4 secs

     total energy              =     -30.67941690 Ry
     estimated scf accuracy    <       0.00005518 Ry

     iteration #  9     ecut=    80.00 Ry     beta= 0.70
     Davidson diagonalization with overlap
     c_bands:  1 eigenvalues not converged
     ethr =  5.02E-07,  avg # of iterations =  4.0

     total cpu time spent up to now is       62.5 secs

     total energy              =     -30.67943533 Ry
     estimated scf accuracy    <       0.00001301 Ry

     iteration # 10     ecut=    80.00 Ry     beta= 0.70
     Davidson diagonalization with overlap
     ethr =  1.18E-07,  avg # of iterations =  1.7

     total cpu time spent up to now is       63.4 secs

     total energy              =     -30.67943849 Ry
     estimated scf accuracy    <       0.00000055 Ry

     iteration # 11     ecut=    80.00 Ry     beta= 0.70
     Davidson diagonalization with overlap
     ethr =  4.96E-09,  avg # of iterations =  2.0

     total cpu time spent up to now is       64.3 secs

     total energy              =     -30.67943866 Ry
     estimated scf accuracy    <       0.00000001 Ry

     iteration # 12     ecut=    80.00 Ry     beta= 0.70
     Davidson diagonalization with overlap
     ethr =  1.25E-10,  avg # of iterations =  3.3

     total cpu time spent up to now is       65.3 secs

     End of self-consistent calculation

          k = 0.0000 0.0000 0.0000 (  8577 PWs)   bands (ev):

   -32.7157  -1.1674   4.6753   8.5310  21.1519  21.1667  21.1667  22.6258
    25.0051  27.0102

          k = 0.0000 0.0000 0.1502 (  8600 PWs)   bands (ev):

   -32.7155  -1.1349   4.2482   9.3607  20.2998  21.3404  21.3404  22.1476
    25.5023  25.5023

          k = 0.0000 0.0000 0.3004 (  8604 PWs)   bands (ev):

   -32.7153  -1.0654   3.6175  11.1026  18.1257  21.3349  21.8605  21.8605
    23.9577  23.9577

          k = 0.0000 0.0000-0.4506 (  8644 PWs)   bands (ev):

   -32.7151  -1.0281   3.3594  12.3043  16.6581  21.0807  22.6321  22.6321
    22.8406  22.8406

          k = 0.0000 0.1863 0.0000 (  8595 PWs)   bands (ev):

   -32.7014  -0.8714   4.9828   8.6625  17.2385  21.4330  21.7666  22.4276
    24.6447  25.3658

          k = 0.0000 0.1863 0.1502 (  8603 PWs)   bands (ev):

   -32.7012  -0.8345   4.5220   9.5265  17.2348  20.9827  21.6067  21.7702
    23.9906  25.4782

          k = 0.0000 0.1863 0.3004 (  8624 PWs)   bands (ev):

   -32.7010  -0.7551   3.8541  11.3151  17.0718  18.9155  20.6794  22.1268
    24.2239  24.4553

          k = 0.0000 0.1863-0.4506 (  8630 PWs)   bands (ev):

   -32.7009  -0.7121   3.5823  12.5595  16.4208  18.0026  20.4420  22.8979
    23.1076  24.3603

          k = 0.0000 0.3725 0.0000 (  8623 PWs)   bands (ev):

   -32.6650   0.0107   5.8966   8.9676  13.4157  18.7784  20.1151  22.2289
    24.4793  26.5607

          k = 0.0000 0.3725 0.1502 (  8622 PWs)   bands (ev):

   -32.6649   0.0608   5.3217   9.9415  13.4223  17.9576  20.7818  22.4025
    23.3871  25.6734

          k = 0.0000 0.3725 0.3004 (  8602 PWs)   bands (ev):

   -32.6647   0.1708   4.5446  11.8566  13.4722  16.6847  19.7961  22.9220
    23.8306  25.0151

          k = 0.0000 0.3725-0.4506 (  8616 PWs)   bands (ev):

   -32.6646   0.2318   4.2334  13.0311  13.9397  15.3631  19.0178  23.6894
    23.9044  25.2005

          k = 0.0000 0.5588 0.0000 (  8620 PWs)   bands (ev):

   -32.6234   1.4587   7.3773   8.5279  10.9714  15.4365  17.7061  23.5376
    25.3942  27.9332

          k = 0.0000 0.5588 0.1502 (  8617 PWs)   bands (ev):

   -32.6233   1.5311   6.5127   9.3699  11.1712  15.1247  18.4902  23.7101
    24.0871  26.3384

          k = 0.0000 0.5588 0.3004 (  8624 PWs)   bands (ev):

   -32.6231   1.6954   5.5960   9.8775  11.9958  14.9140  19.6054  22.2981
    24.2257  25.3406

          k = 0.0000 0.5588-0.4506 (  8628 PWs)   bands (ev):

   -32.6231   1.7908   5.2378   9.9304  12.5176  15.0395  19.3579  22.8142
    24.1662  24.9772

          k = 0.0000 0.7450 0.0000 (  8596 PWs)   bands (ev):

   -32.5961   3.3912   6.1109   9.3305  10.9079  12.6266  16.1322  25.2368
    26.6364  27.6522

          k = 0.0000 0.7450 0.1502 (  8621 PWs)   bands (ev):

   -32.5960   3.5070   6.0640   8.6972  10.5821  13.9453  16.5105  25.3377
    25.4040  26.3656

          k = 0.0000 0.7450 0.3004 (  8643 PWs)   bands (ev):

   -32.5959   3.7758   6.0653   7.4755  10.6180  15.8149  17.7547  22.8810
    24.3036  25.8959

          k = 0.0000 0.7450-0.4506 (  8648 PWs)   bands (ev):

   -32.5958   3.9352   6.2788   6.7171  10.6786  16.6584  19.3651  20.9742
    23.1338  26.4989

          k = 0.1863 0.1863 0.0000 (  8595 PWs)   bands (ev):

   -32.6872  -0.5756   5.2892   8.8101  16.9899  18.1181  21.3898  23.3636
    24.5965  25.9020

          k = 0.1863 0.1863 0.1502 (  8602 PWs)   bands (ev):

   -32.6871  -0.5345   4.7957   9.7062  16.9122  18.2647  21.1912  22.1514
    22.7628  25.9192

          k = 0.1863 0.1863 0.3004 (  8627 PWs)   bands (ev):

   -32.6869  -0.4454   4.0933  11.5347  16.7330  18.2270  19.6193  21.1803
    21.4230  27.0987

          k = 0.1863 0.1863-0.4506 (  8638 PWs)   bands (ev):

   -32.6868  -0.3967   3.8087  12.8100  16.4344  17.2669  19.8518  20.2445
    21.3052  28.0277

          k = 0.1863 0.3725 0.0000 (  8615 PWs)   bands (ev):

   -32.6514   0.3064   6.1992   9.1669  13.6258  18.0793  18.8157  21.1393
    24.9948  25.8138

          k = 0.1863 0.3725 0.1502 (  8618 PWs)   bands (ev):

   -32.6513   0.3602   5.5962  10.1672  13.6273  17.6365  19.0322  21.1556
    23.0129  25.4934

          k = 0.1863 0.3725 0.3004 (  8624 PWs)   bands (ev):

   -32.6511   0.4789   4.7923  12.1026  13.6693  16.7915  18.8064  20.7497
    21.2870  25.9768

          k = 0.1863 0.3725-0.4506 (  8620 PWs)   bands (ev):

   -32.6510   0.5452   4.4708  13.2311  14.1962  15.6001  18.4407  20.2442
    21.1904  26.7794

          k = 0.1863 0.5588 0.0000 (  8620 PWs)   bands (ev):

   -32.6104   1.7546   7.6724   8.8189  11.1742  15.6481  17.3836  20.5388
    25.5910  26.7852

          k = 0.1863 0.5588 0.1502 (  8612 PWs)   bands (ev):

   -32.6103   1.8296   6.7941   9.6570  11.4030  15.2480  18.2666  20.5090
    24.0104  25.7314

          k = 0.1863 0.5588 0.3004 (  8621 PWs)   bands (ev):

   -32.6102   2.0007   5.8624  10.1458  12.2545  15.0614  19.4486  20.5760
    21.9046  24.5911

          k = 0.1863 0.5588-0.4506 (  8634 PWs)   bands (ev):

   -32.6101   2.1007   5.4968  10.1999  12.7365  15.3057  19.1136  21.1881
    21.3915  23.9115

          k = 0.1863 0.7450 0.0000 (  8611 PWs)   bands (ev):

   -32.5835   3.6906   6.4007   9.6113  11.1803  12.8989  16.0230  21.9673
    24.0594  28.1845

          k = 0.1863 0.7450 0.1502 (  8614 PWs)   bands (ev):

   -32.5835   3.8068   6.3589   8.9723  10.8475  14.1732  16.4782  21.9287
    23.8119  26.6914

          k = 0.1863 0.7450 0.3004 (  8628 PWs)   bands (ev):

   -32.5834   4.0775   6.3653   7.7610  10.8254  15.9893  17.8924  21.6217
    22.6762  24.8145

          k = 0.1863 0.7450-0.4506 (  8626 PWs)   bands (ev):

   -32.5833   4.2390   6.5735   7.0133  10.8572  16.8882  19.4843  20.8740
    21.5516  23.8696

          k = 0.3725 0.3725 0.0000 (  8635 PWs)   bands (ev):

   -32.6169   1.1881   7.0970   9.6899  13.9115  14.7480  18.2859  20.4274
    23.0139  23.8902

          k = 0.3725 0.3725 0.1502 (  8617 PWs)   bands (ev):

   -32.6168   1.2527   6.4011  10.7772  13.7945  14.9319  18.3017  19.4954
    22.3022  24.6526

          k = 0.3725 0.3725 0.3004 (  8607 PWs)   bands (ev):

   -32.6167   1.3979   5.5191  12.7621  13.6570  15.4254  17.8119  18.0520
    20.6345  26.1091

          k = 0.3725 0.3725-0.4506 (  8618 PWs)   bands (ev):

   -32.6166   1.4810   5.1678  13.3579  14.6996  15.7205  16.7077  17.1461
    20.1904  26.8985

          k = 0.3725 0.5588 0.0000 (  8610 PWs)   bands (ev):

   -32.5775   2.6371   8.5469   9.6650  11.7468  15.2140  16.1526  18.8326
    22.8269  23.4567

          k = 0.3725 0.5588 0.1502 (  8607 PWs)   bands (ev):

   -32.5774   2.7197   7.6218  10.4964  12.0557  14.9318  16.6025  18.7450
    22.1882  23.1621

          k = 0.3725 0.5588 0.3004 (  8601 PWs)   bands (ev):

   -32.5773   2.9110   6.6467  10.9019  12.9782  15.1790  16.8206  18.6519
    20.5685  23.6675

          k = 0.3725 0.5588-0.4506 (  8606 PWs)   bands (ev):

   -32.5773   3.0252   6.2597  10.9403  13.3413  16.0256  16.8224  17.9660
    19.9353  24.3625

          k = 0.3725 0.7450 0.0000 (  8610 PWs)   bands (ev):

   -32.5516   4.5830   7.2628  10.4337  11.9731  13.6784  15.4216  18.5934
    20.4436  24.6160

          k = 0.3725 0.7450 0.1502 (  8604 PWs)   bands (ev):

   -32.5516   4.7003   7.2352   9.7791  11.6154  14.7306  16.1375  18.5952
    20.4203  23.4170

          k = 0.3725 0.7450 0.3004 (  8608 PWs)   bands (ev):

   -32.5515   4.9761   7.2556   8.6030  11.4149  16.3379  17.8258  18.6300
    20.3372  21.9639

          k = 0.3725 0.7450-0.4506 (  8612 PWs)   bands (ev):

   -32.5515   5.1432   7.4495   7.8868  11.3676  17.3874  18.5380  19.3383
    19.5142  21.8404

          k = 0.5588 0.5588 0.0000 (  8589 PWs)   bands (ev):

   -32.5399   4.0883   9.9541  10.6528  12.3493  12.6347  16.1709  18.1710
    19.6894  21.0626

          k = 0.5588 0.5588 0.1502 (  8599 PWs)   bands (ev):

   -32.5398   4.1833   8.8979  11.4542  12.5409  12.9339  16.3420  17.3090
    19.8655  21.9760

          k = 0.5588 0.5588 0.3004 (  8596 PWs)   bands (ev):

   -32.5398   4.4083   7.8814  11.4655  13.0948  14.1687  15.6637  17.2002
    19.7083  21.8466

          k = 0.5588 0.5588-0.4506 (  8596 PWs)   bands (ev):

   -32.5397   4.5474   7.4712  11.3615  13.7448  14.2482  15.5156  17.5749
    19.1531  21.2092

          k = 0.5588 0.7450 0.0000 (  8614 PWs)   bands (ev):

   -32.5152   6.0485   8.6670  11.7119  13.1092  13.4411  14.7373  16.4672
    17.6955  21.3826

          k = 0.5588 0.7450 0.1502 (  8609 PWs)   bands (ev):

   -32.5152   6.1667   8.6526  11.0301  12.6293  14.0238  15.4164  16.9632
    17.4107  20.8448

          k = 0.5588 0.7450 0.3004 (  8600 PWs)   bands (ev):

   -32.5151   6.4467   8.6835   9.9340  12.2010  14.9822  16.1262  16.9778
    17.8057  20.6685

          k = 0.5588 0.7450-0.4506 (  8580 PWs)   bands (ev):

   -32.5151   6.6187   8.8738   9.2494  12.1136  15.2672  16.2678  17.5460
    17.7875  19.8059

          k = 0.7450 0.7450 0.0000 (  8599 PWs)   bands (ev):

   -32.4913   8.0252  10.1941  11.1031  12.8438  13.1128  15.4888  15.6217
    16.8286  19.1313

          k = 0.7450 0.7450 0.1502 (  8613 PWs)   bands (ev):

   -32.4913   8.1431  10.0937  11.2955  12.3026  13.9094  14.3160  15.5983
    16.6788  19.5678

          k = 0.7450 0.7450 0.3004 (  8597 PWs)   bands (ev):

   -32.4913   8.4042  10.0377  11.4285  11.9020  13.8486  14.2051  15.0245
    15.9969  21.1836

          k = 0.7450 0.7450-0.4506 (  8594 PWs)   bands (ev):

   -32.4913   8.5405  10.2979  10.7152  12.6027  13.1379  14.2606  14.7290
    16.1391  20.9332

     the Fermi energy is    15.3040 ev

!    total energy              =     -30.67943866 Ry
     estimated scf accuracy    <          1.6E-11 Ry
     smearing contrib. (-TS)   =      -0.00009768 Ry
     internal energy E=F+TS    =     -30.67934098 Ry

     The total energy is F=E-TS. E is the sum of the following terms:
     one-electron contribution =       6.17736158 Ry
     hartree contribution      =       3.43450791 Ry
     xc contribution           =     -10.50662456 Ry
     ewald contribution        =     -29.78458592 Ry

     convergence has been achieved in  12 iterations

     Forces acting on atoms (cartesian axes, Ry/au):

     atom    1 type  1   force =     0.00000000    0.00000000    0.00000000
     atom    2 type  2   force =     0.00000000    0.00000000   -0.31257606
     atom    3 type  2   force =     0.00000000    0.00000000    0.31257606
     The non-local contrib.  to forces
     atom    1 type  1   force =     0.00000000    0.00000000    0.00000000
     atom    2 type  2   force =     0.00000000    0.00000000   -0.31522974
     atom    3 type  2   force =     0.00000000    0.00000000    0.31522974
     The ionic contribution  to forces
     atom    1 type  1   force =     0.00000000    0.00000000    0.00000000
     atom    2 type  2   force =    -0.00000000   -0.00000000   -1.40363973
     atom    3 type  2   force =    -0.00000000   -0.00000000    1.40363973
     The local contribution  to forces
     atom    1 type  1   force =     0.00000000    0.00000000    0.00000000
     atom    2 type  2   force =    -0.00000000    0.00000000    1.38990743
     atom    3 type  2   force =    -0.00000000   -0.00000000   -1.38990743
     The core correction contribution to forces
     atom    1 type  1   force =     0.00000000    0.00000000    0.00000000
     atom    2 type  2   force =    -0.00000000   -0.00000000    0.01638915
     atom    3 type  2   force =    -0.00000000    0.00000000   -0.01638915
     The Hubbard contrib.    to forces
     atom    1 type  1   force =     0.00000000    0.00000000    0.00000000
     atom    2 type  2   force =     0.00000000    0.00000000    0.00000000
     atom    3 type  2   force =     0.00000000    0.00000000    0.00000000
     The SCF correction term to forces
     atom    1 type  1   force =    -0.00000000   -0.00000000    0.00000000
     atom    2 type  2   force =    -0.00000000   -0.00000000   -0.00000317
     atom    3 type  2   force =    -0.00000000    0.00000000    0.00000317

     Total force =     0.442049     Total SCF correction =     0.000004


     Computing stress (Cartesian axis) and pressure

          total   stress  (Ry/bohr**3)                   (kbar)     P=     1399.87
   0.00769524   0.00000000   0.00000000         1132.01        0.00        0.00
[...]
        k(   46) = (   0.3701115   0.7402229   0.1188760), wk =   0.0658436
        k(   47) = (   0.3701115   0.7402229   0.2377520), wk =   0.0658436
        k(   48) = (   0.3701115   0.7402229  -0.3566280), wk =   0.0329218
        k(   49) = (   0.5551672   0.5551672   0.0000000), wk =   0.0164609
        k(   50) = (   0.5551672   0.5551672   0.1188760), wk =   0.0329218
        k(   51) = (   0.5551672   0.5551672   0.2377520), wk =   0.0329218
        k(   52) = (   0.5551672   0.5551672  -0.3566280), wk =   0.0164609
        k(   53) = (   0.5551672   0.7402229   0.0000000), wk =   0.0329218
        k(   54) = (   0.5551672   0.7402229   0.1188760), wk =   0.0658436
        k(   55) = (   0.5551672   0.7402229   0.2377520), wk =   0.0658436
        k(   56) = (   0.5551672   0.7402229  -0.3566280), wk =   0.0329218
        k(   57) = (   0.7402229   0.7402229   0.0000000), wk =   0.0164609
        k(   58) = (   0.7402229   0.7402229   0.1188760), wk =   0.0329218
        k(   59) = (   0.7402229   0.7402229   0.2377520), wk =   0.0329218
        k(   60) = (   0.7402229   0.7402229  -0.3566280), wk =   0.0164609

     Dense  grid:    20639 G-vectors     FFT dimensions: (  25,  25,  60)

     Estimated max dynamical RAM per process >      16.54 MB

     Estimated total dynamical RAM >     132.32 MB

     Initial potential from superposition of free atoms

     starting charge      10.9942, renormalised to      11.0000
     Starting wfcs are   10 randomized atomic wfcs

     total cpu time spent up to now is      156.2 secs

     Self-consistent Calculation

     iteration #  1     ecut=    80.00 Ry     beta= 0.70
     Davidson diagonalization with overlap
     c_bands:  1 eigenvalues not converged
     c_bands:  1 eigenvalues not converged
     c_bands:  2 eigenvalues not converged
     c_bands:  1 eigenvalues not converged
     c_bands:  1 eigenvalues not converged
     c_bands:  1 eigenvalues not converged
     c_bands:  1 eigenvalues not converged
     c_bands:  1 eigenvalues not converged
     c_bands:  1 eigenvalues not converged
     c_bands:  1 eigenvalues not converged
     c_bands:  1 eigenvalues not converged
     c_bands:  1 eigenvalues not converged
     c_bands:  2 eigenvalues not converged
     c_bands:  1 eigenvalues not converged
     c_bands:  1 eigenvalues not converged
     c_bands:  1 eigenvalues not converged
     c_bands:  1 eigenvalues not converged
     c_bands:  1 eigenvalues not converged
     c_bands:  1 eigenvalues not converged
     c_bands:  1 eigenvalues not converged
     c_bands:  1 eigenvalues not converged
     c_bands:  1 eigenvalues not converged
     c_bands:  1 eigenvalues not converged
     c_bands:  1 eigenvalues not converged
     c_bands:  1 eigenvalues not converged
     c_bands:  1 eigenvalues not converged
     ethr =  1.00E-06,  avg # of iterations = 18.2

     total cpu time spent up to now is      157.3 secs

     total energy              =     -31.14629906 Ry
     estimated scf accuracy    <       0.02846149 Ry

     iteration #  2     ecut=    80.00 Ry     beta= 0.70
     Davidson diagonalization with overlap
     ethr =  2.59E-04,  avg # of iterations =  2.2

     total cpu time spent up to now is      157.7 secs

     total energy              =     -31.14642754 Ry
     estimated scf accuracy    <       0.05259615 Ry

     iteration #  3     ecut=    80.00 Ry     beta= 0.70
     Davidson diagonalization with overlap
     ethr =  2.59E-04,  avg # of iterations =  1.9

     total cpu time spent up to now is      158.0 secs

     total energy              =     -31.15607187 Ry
     estimated scf accuracy    <       0.00075510 Ry

     iteration #  4     ecut=    80.00 Ry     beta= 0.70
     Davidson diagonalization with overlap
     ethr =  6.86E-06,  avg # of iterations =  2.7

     total cpu time spent up to now is      158.4 secs

     total energy              =     -31.15613800 Ry
     estimated scf accuracy    <       0.00003345 Ry

     iteration #  5     ecut=    80.00 Ry     beta= 0.70
     Davidson diagonalization with overlap
     ethr =  3.04E-07,  avg # of iterations =  2.2

     total cpu time spent up to now is      158.6 secs

     total energy              =     -31.15614522 Ry
     estimated scf accuracy    <       0.00000027 Ry

     iteration #  6     ecut=    80.00 Ry     beta= 0.70
     Davidson diagonalization with overlap
     ethr =  2.47E-09,  avg # of iterations =  3.5

     total cpu time spent up to now is      159.0 secs

     total energy              =     -31.15614542 Ry
     estimated scf accuracy    <       0.00000001 Ry

     iteration #  7     ecut=    80.00 Ry     beta= 0.70
     Davidson diagonalization with overlap
     ethr =  1.31E-10,  avg # of iterations =  2.1

     total cpu time spent up to now is      159.3 secs

     total energy              =     -31.15614542 Ry
     estimated scf accuracy    <          1.7E-10 Ry

     iteration #  8     ecut=    80.00 Ry     beta= 0.70
     Davidson diagonalization with overlap
     ethr =  1.53E-12,  avg # of iterations =  3.5

     total cpu time spent up to now is      159.7 secs

     End of self-consistent calculation

          k = 0.0000 0.0000 0.0000 (  2621 PWs)   bands (ev):

   -34.7562  -4.5822   0.6614   5.0263  14.4802  17.1032  17.9836  18.6967
    18.6967  21.7850

          k = 0.0000 0.0000 0.1189 (  2586 PWs)   bands (ev):

   -34.7562  -4.5801   0.5940   5.2680  13.3427  17.5833  18.7286  18.7286
    18.8756  21.8957

          k = 0.0000 0.0000 0.2378 (  2586 PWs)   bands (ev):

   -34.7562  -4.5759   0.4702   5.8069  11.8769  17.5976  18.7967  18.7967
    20.9580  22.2773

          k = 0.0000 0.0000-0.3566 (  2558 PWs)   bands (ev):

   -34.7561  -4.5738   0.4128   6.1228  11.2411  17.5774  18.8333  18.8333
    21.7362  22.5163

          k = 0.0000 0.1851 0.0000 (  2577 PWs)   bands (ev):

   -34.7457  -4.2721   0.9705   5.2621  13.8281  15.0188  17.5135  18.9599
    18.9705  20.6998

          k = 0.0000 0.1851 0.1189 (  2581 PWs)   bands (ev):

   -34.7457  -4.2693   0.8971   5.5147  13.2903  14.4311  18.2818  18.9916
    19.5012  20.7775

          k = 0.0000 0.1851 0.2378 (  2587 PWs)   bands (ev):

   -34.7457  -4.2638   0.7629   6.0788  11.9875  14.2561  18.4027  19.0592
    20.5766  21.7652

          k = 0.0000 0.1851-0.3566 (  2588 PWs)   bands (ev):

   -34.7457  -4.2610   0.7010   6.4116  11.3616  14.2322  18.3806  19.0955
    20.6255  22.7808

          k = 0.0000 0.3701 0.0000 (  2583 PWs)   bands (ev):

   -34.7190  -3.3454   1.8926   5.9551   9.9498  14.9114  15.7463  17.1264
    19.7498  20.1389

          k = 0.0000 0.3701 0.1189 (  2585 PWs)   bands (ev):

   -34.7190  -3.3407   1.8004   6.2408   9.9479  14.2336  14.9066  18.5072
    19.7809  20.6749

          k = 0.0000 0.3701 0.2378 (  2590 PWs)   bands (ev):

   -34.7190  -3.3311   1.6350   6.8797   9.9499  12.6204  14.8089  19.8474
    19.8629  21.4636

          k = 0.0000 0.3701-0.3566 (  2586 PWs)   bands (ev):

   -34.7190  -3.3263   1.5598   7.2631   9.9590  11.9016  14.7690  19.8829
    20.4997  21.8808

          k = 0.0000 0.5552 0.0000 (  2569 PWs)   bands (ev):

   -34.6886  -1.8123   3.4089   6.1653   7.1528  11.5351  14.2782  17.5767
    19.8946  21.0671

          k = 0.0000 0.5552 0.1189 (  2576 PWs)   bands (ev):

   -34.6886  -1.8045   3.2821   6.2334   7.4040  11.4042  14.1554  16.9875
    20.7840  21.0975

          k = 0.0000 0.5552 0.2378 (  2571 PWs)   bands (ev):

   -34.6886  -1.7886   3.0649   6.2893   8.0775  10.9998  13.7081  16.8328
    20.6604  21.1622

          k = 0.0000 0.5552-0.3566 (  2580 PWs)   bands (ev):

   -34.6886  -1.7805   2.9693   6.2981   8.5595  10.6387  13.4498  17.0213
    20.1714  21.1968

          k = 0.0000 0.7402 0.0000 (  2584 PWs)   bands (ev):

   -34.6687   0.3097   2.9962   5.4778   7.7752   9.0866  12.1260  19.4322
    20.3036  22.1900

          k = 0.0000 0.7402 0.1189 (  2577 PWs)   bands (ev):

   -34.6687   0.3217   3.0084   5.3245   7.5899   9.6624  12.2250  17.8775
    20.0210  22.9377

          k = 0.0000 0.7402 0.2378 (  2578 PWs)   bands (ev):

   -34.6687   0.3458   3.0425   5.0155   7.4720  10.5871  12.6635  15.8685
    19.1112  23.0016

          k = 0.0000 0.7402-0.3566 (  2584 PWs)   bands (ev):

   -34.6687   0.3580   3.0657   4.8612   7.4606  10.9734  13.4541  14.4878
    18.7365  23.0357

          k = 0.1851 0.1851 0.0000 (  2575 PWs)   bands (ev):

   -34.7353  -3.9625   1.2789   5.5003  13.5136  14.4987  16.7536  17.6083
    18.2754  21.6105

          k = 0.1851 0.1851 0.1189 (  2583 PWs)   bands (ev):

   -34.7353  -3.9591   1.1995   5.7634  13.3056  13.8406  16.3730  17.9165
    19.4003  20.9319

          k = 0.1851 0.1851 0.2378 (  2577 PWs)   bands (ev):

   -34.7353  -3.9523   1.0553   6.3512  12.1390  13.6018  16.3354  17.9985
    19.7145  22.3458

          k = 0.1851 0.1851-0.3566 (  2574 PWs)   bands (ev):

   -34.7353  -3.9488   0.9890   6.7001  11.5134  13.5731  16.3678  18.0283
    19.5021  23.5954

          k = 0.1851 0.3701 0.0000 (  2584 PWs)   bands (ev):

   -34.7090  -3.0374   2.1986   6.2013  10.1595  14.8622  15.3862  16.8423
    17.5453  19.9119

          k = 0.1851 0.3701 0.1189 (  2578 PWs)   bands (ev):

   -34.7090  -3.0321   2.1008   6.4958  10.1569  14.2309  15.0262  16.3548
    18.6817  20.4192

          k = 0.1851 0.3701 0.2378 (  2588 PWs)   bands (ev):

   -34.7090  -3.0214   1.9265   7.1538  10.1602  12.7487  14.9242  16.3349
    19.1809  21.0250

          k = 0.1851 0.3701-0.3566 (  2582 PWs)   bands (ev):

   -34.7090  -3.0159   1.8475   7.5503  10.1744  12.0343  14.8981  16.3476
    19.3101  21.0368

          k = 0.1851 0.5552 0.0000 (  2570 PWs)   bands (ev):

   -34.6790  -1.5070   3.7103   6.4446   7.4077  11.7797  14.4774  16.8274
    18.5151  19.8699

          k = 0.1851 0.5552 0.1189 (  2580 PWs)   bands (ev):

   -34.6790  -1.4987   3.5791   6.5104   7.6680  11.6497  14.3678  16.6935
    17.8665  21.0777

          k = 0.1851 0.5552 0.2378 (  2582 PWs)   bands (ev):

   -34.6790  -1.4819   3.3552   6.5632   8.3570  11.2620  13.8817  16.8326
    17.6579  20.1028

          k = 0.1851 0.5552-0.3566 (  2580 PWs)   bands (ev):

   -34.6790  -1.4733   3.2569   6.5713   8.8458  10.9151  13.5901  17.0474
    17.8656  19.2597

          k = 0.1851 0.7402 0.0000 (  2565 PWs)   bands (ev):

   -34.6593   0.6107   3.2895   5.7722   8.0580   9.3703  12.3285  18.6132
    19.8457  20.6199

          k = 0.1851 0.7402 0.1189 (  2575 PWs)   bands (ev):

   -34.6593   0.6229   3.3019   5.6166   7.8763   9.9351  12.4513  17.8430
    19.0411  20.5312

          k = 0.1851 0.7402 0.2378 (  2578 PWs)   bands (ev):

   -34.6593   0.6477   3.3359   5.3064   7.7529  10.8551  12.9273  16.0469
    18.5381  19.8195

          k = 0.1851 0.7402-0.3566 (  2584 PWs)   bands (ev):

   -34.6593   0.6601   3.3588   5.1524   7.7361  11.2556  13.7003  14.7360
    18.2563  19.6470

          k = 0.3701 0.3701 0.0000 (  2565 PWs)   bands (ev):

   -34.6836  -2.1170   3.1107   6.9270  10.1242  12.4245  14.8089  16.9068
    17.8365  18.5904

          k = 0.3701 0.3701 0.1189 (  2577 PWs)   bands (ev):

   -34.6835  -2.1100   2.9961   7.2477  10.1137  12.4170  14.7968  15.5441
    17.2565  19.5660

          k = 0.3701 0.3701 0.2378 (  2575 PWs)   bands (ev):

   -34.6835  -2.0958   2.7952   7.9616  10.1168  12.2302  13.9469  15.1146
    16.4889  21.0253

          k = 0.3701 0.3701-0.3566 (  2570 PWs)   bands (ev):

   -34.6835  -2.0886   2.7053   8.3928  10.1583  11.8924  13.5638  15.1599
    16.2008  21.5567

          k = 0.3701 0.5552 0.0000 (  2570 PWs)   bands (ev):

   -34.6545  -0.5952   4.6082   7.2341   8.1609  12.4087  12.9510  15.3200
    18.5190  18.6382

          k = 0.3701 0.5552 0.1189 (  2576 PWs)   bands (ev):

   -34.6545  -0.5856   4.4637   7.2906   8.4478  12.2812  13.0184  15.2410
    17.2883  18.6211

          k = 0.3701 0.5552 0.2378 (  2580 PWs)   bands (ev):

   -34.6545  -0.5659   4.2203   7.3305   9.1820  11.9742  13.0258  14.8843
    16.5070  18.4249

          k = 0.3701 0.5552-0.3566 (  2570 PWs)   bands (ev):

   -34.6545  -0.5559   4.1142   7.3349   9.6947  11.6780  12.9935  14.5899
    16.4933  18.2378

          k = 0.3701 0.7402 0.0000 (  2562 PWs)   bands (ev):

   -34.6355   1.5083   4.1584   6.6454   8.8960  10.1922  12.8621  14.9872
    17.2876  20.1332

          k = 0.3701 0.7402 0.1189 (  2573 PWs)   bands (ev):

   -34.6355   1.5212   4.1709   6.4839   8.7240  10.7235  13.0586  14.9801
    17.1979  18.9985

          k = 0.3701 0.7402 0.2378 (  2574 PWs)   bands (ev):

   -34.6355   1.5475   4.2041   6.1712   8.5850  11.6289  13.6403  14.9709
    16.6519  17.6134

          k = 0.3701 0.7402-0.3566 (  2576 PWs)   bands (ev):

   -34.6355   1.5608   4.2260   6.0188   8.5539  12.0736  14.2885  14.8456
    15.9854  17.0438

          k = 0.5552 0.5552 0.0000 (  2563 PWs)   bands (ev):

   -34.6266   0.9103   6.0784   7.8115   9.3548  10.2132  12.6190  15.5405
    16.2993  16.7243

          k = 0.5552 0.5552 0.1189 (  2567 PWs)   bands (ev):

   -34.6266   0.9220   5.9112   7.8376   9.6703  10.2700  12.6505  14.8235
    16.4770  17.0267

          k = 0.5552 0.5552 0.2378 (  2565 PWs)   bands (ev):

   -34.6266   0.9458   5.6391   7.8396  10.3161  10.5088  12.5729  14.2468
    15.5459  17.1348

          k = 0.5552 0.5552-0.3566 (  2572 PWs)   bands (ev):

   -34.6266   0.9579   5.5227   7.8292  10.4251  11.0110  12.3490  14.1434
    14.9727  17.1087

          k = 0.5552 0.7402 0.0000 (  2562 PWs)   bands (ev):

   -34.6083   2.9824   5.5405   8.0565  10.2433  11.2237  11.4175  13.7734
    13.9132  17.0694

          k = 0.5552 0.7402 0.1189 (  2562 PWs)   bands (ev):

   -34.6083   2.9960   5.5507   7.8912  10.0722  11.3265  11.8745  13.8713
    13.9227  16.8192

          k = 0.5552 0.7402 0.2378 (  2560 PWs)   bands (ev):

   -34.6083   3.0235   5.5777   7.5814   9.9201  11.4636  12.6811  13.8847
    14.3380  16.1099

          k = 0.5552 0.7402-0.3566 (  2552 PWs)   bands (ev):

   -34.6083   3.0375   5.5954   7.4338   9.8810  11.5094  13.0938  13.9446
    14.9035  15.2742

          k = 0.7402 0.7402 0.0000 (  2543 PWs)   bands (ev):

   -34.5905   4.9627   6.7005   9.0106   9.8789  10.6844  11.5651  12.3545
    13.8799  15.5455

          k = 0.7402 0.7402 0.1189 (  2543 PWs)   bands (ev):

   -34.5905   4.9742   6.6967   9.0648   9.7453  10.7880  11.4137  12.4161
    13.6649  15.8523

          k = 0.7402 0.7402 0.2378 (  2554 PWs)   bands (ev):

   -34.5905   4.9969   6.6943   9.1721   9.5118  10.9020  11.3929  12.1338
    13.6359  16.0311

          k = 0.7402 0.7402-0.3566 (  2542 PWs)   bands (ev):

   -34.5905   5.0080   6.6959   9.1981   9.4368  10.9393  11.4393  11.9267
    13.7036  15.8519

     the Fermi energy is    11.6503 ev

!    total energy              =     -31.15614542 Ry
     estimated scf accuracy    <          8.2E-12 Ry
     smearing contrib. (-TS)   =       0.00000471 Ry
     internal energy E=F+TS    =     -31.15615014 Ry

     The total energy is F=E-TS. E is the sum of the following terms:
     one-electron contribution =       3.54508442 Ry
     hartree contribution      =       3.26404660 Ry
     xc contribution           =     -10.14467875 Ry
     ewald contribution        =     -27.82060241 Ry

     convergence has been achieved in   8 iterations

     Forces acting on atoms (cartesian axes, Ry/au):

     atom    1 type  1   force =     0.00000000    0.00000000    0.00000000
     atom    2 type  2   force =     0.00000000    0.00000000    0.00040755
     atom    3 type  2   force =     0.00000000    0.00000000   -0.00040755
     The non-local contrib.  to forces
     atom    1 type  1   force =     0.00000000    0.00000000    0.00000000
     atom    2 type  2   force =     0.00000000    0.00000000   -0.09047776
     atom    3 type  2   force =     0.00000000    0.00000000    0.09047776
     The ionic contribution  to forces
     atom    1 type  1   force =    -0.00000000    0.00000000    0.00000000
     atom    2 type  2   force =     0.00000000   -0.00000000    0.98660462
     atom    3 type  2   force =     0.00000000    0.00000000   -0.98660462
     The local contribution  to forces
     atom    1 type  1   force =     0.00000000    0.00000000    0.00000000
     atom    2 type  2   force =     0.00000000   -0.00000000   -0.89749131
     atom    3 type  2   force =     0.00000000    0.00000000    0.89749131
     The core correction contribution to forces
     atom    1 type  1   force =     0.00000000    0.00000000    0.00000000
     atom    2 type  2   force =    -0.00000000   -0.00000000    0.00177369
     atom    3 type  2   force =    -0.00000000   -0.00000000   -0.00177369
     The Hubbard contrib.    to forces
     atom    1 type  1   force =     0.00000000    0.00000000    0.00000000
     atom    2 type  2   force =     0.00000000    0.00000000    0.00000000
     atom    3 type  2   force =     0.00000000    0.00000000    0.00000000
     The SCF correction term to forces
     atom    1 type  1   force =     0.00000000   -0.00000000    0.00000000
     atom    2 type  2   force =    -0.00000000   -0.00000000   -0.00000169
     atom    3 type  2   force =    -0.00000000   -0.00000000    0.00000169

     Total force =     0.000576     Total SCF correction =     0.000002


     Computing stress (Cartesian axis) and pressure

          total   stress  (Ry/bohr**3)                   (kbar)     P=      499.38
   0.00339249   0.00000000   0.00000000          499.05        0.00        0.00
   0.00000000   0.00339249   0.00000000            0.00      499.05        0.00
   0.00000000   0.00000000   0.00339921            0.00        0.00      500.04


     Writing all to output data dir ./output/LiSi.save/

     init_run     :      1.33s CPU      1.58s WALL (       2 calls)
     electrons    :    118.63s CPU    124.74s WALL (      13 calls)
     update_pot   :      7.30s CPU      7.38s WALL (      11 calls)
     forces       :      5.12s CPU      5.24s WALL (      13 calls)
     stress       :     19.80s CPU     20.80s WALL (      13 calls)

     Called by init_run:
     wfcinit      :      0.44s CPU      0.46s WALL (       2 calls)
     potinit      :      0.43s CPU      0.59s WALL (       2 calls)
     hinit0       :      0.39s CPU      0.43s WALL (       2 calls)

     Called by electrons:
     c_bands      :    102.75s CPU    107.41s WALL (     111 calls)
     sum_band     :     14.58s CPU     15.14s WALL (     111 calls)
     v_of_rho     :      1.33s CPU      2.06s WALL (     120 calls)
     mix_rho      :      0.10s CPU      0.15s WALL (     111 calls)

     Called by c_bands:
     init_us_2    :      3.46s CPU      3.69s WALL (   15000 calls)
     init_us_2:cp :      3.44s CPU      3.68s WALL (   15000 calls)
     cegterg      :     95.44s CPU     97.71s WALL (    6660 calls)

     Called by *egterg:
     cdiaghg      :      3.38s CPU      3.62s WALL (   29181 calls)
     h_psi        :     84.00s CPU     85.81s WALL (   30201 calls)
     g_psi        :      0.47s CPU      0.48s WALL (   23421 calls)

     Called by h_psi:
     h_psi:calbec :      3.99s CPU      4.19s WALL (   30201 calls)
     vloc_psi     :     76.46s CPU     77.97s WALL (   30201 calls)
     add_vuspsi   :      3.24s CPU      3.32s WALL (   30201 calls)

     General routines
     calbec       :      4.67s CPU      4.82s WALL (   34101 calls)
     fft          :      1.01s CPU      1.92s WALL (    1527 calls)
     ffts         :      0.06s CPU      0.12s WALL (     111 calls)
     fftw         :     79.29s CPU     80.80s WALL (  478400 calls)

     Parallel routines

     PWSCF        :   2m32.48s CPU   2m40.62s WALL


   This run was terminated on:  11:20:31  27Dec2024            

=------------------------------------------------------------------------------=
   JOB DONE.
=------------------------------------------------------------------------------=
