
     Program PWSCF v.7.2 starts on 27Dec2024 at 13:15:45 

     This program is part of the open-source Quantum ESPRESSO suite
     for quantum simulation of materials; please cite
         "P. Giannozzi et al., J. Phys.:Condens. Matter 21 395502 (2009);
         "P. Giannozzi et al., J. Phys.:Condens. Matter 29 465901 (2017);
         "P. Giannozzi et al., J. Chem. Phys. 152 154105 (2020);
          URL http://www.quantum-espresso.org", 
     in publications or presentations arising from this work. More details at
     http://www.quantum-espresso.org/quote

     Parallel version (MPI & OpenMP), running on       8 processor cores
     Number of MPI processes:                 8
     Threads/MPI process:                     1

     MPI processes distributed on     1 nodes
     482142 MiB available memory on the printing compute node when the environment starts

     Waiting for input...
     Reading input from standard input

     Current dimensions of program PWSCF are:
     Max number of different atomic species (ntypx) = 10
     Max number of k-points (npk) =  40000
     Max angular momentum in pseudopotentials (lmaxx) =  4

     R & G space division:  proc/nbgrp/npool/nimage =       8
     Subspace diagonalization in iterative solution of the eigenvalue problem:
     a serial algorithm will be used


     Parallelization info
     --------------------
     sticks:   dense  smooth     PW     G-vecs:    dense   smooth      PW
     Min         177     177     49                 6641     6641    1005
     Max         178     178     50                 6646     6646    1006
     Sum        1417    1417    397                53145    53145    8045

     Using Slab Decomposition



     bravais-lattice index     =            4
     lattice parameter (alat)  =       8.0191  a.u.
     unit-cell volume          =     549.1035 (a.u.)^3
     number of atoms/cell      =            3
     number of atomic types    =            2
     number of electrons       =        10.00
     number of Kohn-Sham states=            9
     kinetic-energy cutoff     =      80.0000  Ry
     charge density cutoff     =     320.0000  Ry
     scf convergence threshold =      1.0E-08
     mixing beta               =       0.7000
     number of iterations used =            8  plain     mixing
     energy convergence thresh.=      1.0E-04
     force convergence thresh. =      1.0E-03
     press convergence thresh. =      1.0E+00
     Exchange-correlation= PBE
                           (   1   4   3   4   0   0   0)
     nstep                     =           50


     celldm(1)=   8.019093  celldm(2)=   0.000000  celldm(3)=   1.229555
     celldm(4)=   0.000000  celldm(5)=   0.000000  celldm(6)=   0.000000

     crystal axes: (cart. coord. in units of alat)
               a(1) = (   1.000000   0.000000   0.000000 )  
               a(2) = (  -0.500000   0.866025   0.000000 )  
               a(3) = (   0.000000   0.000000   1.229555 )  

     reciprocal axes: (cart. coord. in units 2 pi/alat)
               b(1) = (  1.000000  0.577350 -0.000000 )  
               b(2) = (  0.000000  1.154701  0.000000 )  
               b(3) = (  0.000000 -0.000000  0.813303 )  


     PseudoPot. # 1 for Li read from file:
     ../pseudo/Li_ONCV_PBE_sr.upf
     MD5 check sum: 50ff420e78310ffa21704f3361e624a4
     Pseudo is Norm-conserving, Zval =  3.0
     Generated using ONCVPSP code by D. R. Hamann
     Using radial grid of 1944 points,  4 beta functions with: 
                l(1) =   0
                l(2) =   0
                l(3) =   1
                l(4) =   1

     PseudoPot. # 2 for Si read from file:
     ../pseudo/Si_ONCV_PBE_sr.upf
     MD5 check sum: e543d271109d17c80368dfa7c482276d
     Pseudo is Norm-conserving + core correction, Zval =  4.0
     Generated using ONCVPSP code by D. R. Hamann
     Using radial grid of 1510 points,  6 beta functions with: 
                l(1) =   0
                l(2) =   0
                l(3) =   1
                l(4) =   1
                l(5) =   2
                l(6) =   2

     atomic species   valence    mass     pseudopotential
        Li             3.00     6.94100     Li( 1.00)
        Si             4.00    28.08550     Si( 1.00)

     12 Sym. Ops., with inversion, found



   Cartesian axes

     site n.     atom                  positions (alat units)
         1           Li  tau(   1) = (  -0.0000000   0.5773503   0.7938964  )
         2           Li  tau(   2) = (   0.5000000   0.2886751   0.4356583  )
         3           Si  tau(   3) = (   0.0000000   0.0000000   0.0000000  )

     number of k points=    50  Marzari-Vanderbilt smearing, width (Ry)=  0.0200
                       cart. coord. in units 2pi/alat
        k(    1) = (   0.0000000   0.0000000   0.0000000), wk =   0.0052083
        k(    2) = (   0.0000000   0.0000000   0.1355504), wk =   0.0104167
        k(    3) = (   0.0000000   0.0000000   0.2711009), wk =   0.0104167
        k(    4) = (   0.0000000   0.0000000  -0.4066513), wk =   0.0052083
        k(    5) = (   0.0000000   0.1443376   0.0000000), wk =   0.0312500
        k(    6) = (   0.0000000   0.1443376   0.1355504), wk =   0.0312500
        k(    7) = (   0.0000000   0.1443376   0.2711009), wk =   0.0312500
        k(    8) = (   0.0000000   0.1443376  -0.4066513), wk =   0.0312500
        k(    9) = (   0.0000000   0.2886751   0.0000000), wk =   0.0312500
        k(   10) = (   0.0000000   0.2886751   0.1355504), wk =   0.0312500
        k(   11) = (   0.0000000   0.2886751   0.2711009), wk =   0.0312500
        k(   12) = (   0.0000000   0.2886751  -0.4066513), wk =   0.0312500
        k(   13) = (   0.0000000   0.4330127   0.0000000), wk =   0.0312500
        k(   14) = (   0.0000000   0.4330127   0.1355504), wk =   0.0312500
        k(   15) = (   0.0000000   0.4330127   0.2711009), wk =   0.0312500
        k(   16) = (   0.0000000   0.4330127  -0.4066513), wk =   0.0312500
        k(   17) = (   0.0000000  -0.5773503   0.0000000), wk =   0.0156250
        k(   18) = (   0.0000000  -0.5773503   0.1355504), wk =   0.0312500
        k(   19) = (   0.0000000  -0.5773503   0.2711009), wk =   0.0312500
        k(   20) = (   0.0000000  -0.5773503  -0.4066513), wk =   0.0156250
        k(   21) = (   0.1250000   0.2165064   0.0000000), wk =   0.0312500
        k(   22) = (   0.1250000   0.2165064   0.1355504), wk =   0.0625000
        k(   23) = (   0.1250000   0.2165064   0.2711009), wk =   0.0625000
        k(   24) = (   0.1250000   0.2165064  -0.4066513), wk =   0.0312500
        k(   25) = (   0.1250000   0.3608439   0.0000000), wk =   0.0625000
        k(   26) = (   0.1250000   0.3608439   0.1355504), wk =   0.0625000
        k(   27) = (   0.1250000   0.3608439   0.2711009), wk =   0.0625000
        k(   28) = (   0.1250000   0.3608439  -0.4066513), wk =   0.0625000
        k(   29) = (   0.1250000   0.5051815   0.0000000), wk =   0.0625000
        k(   30) = (   0.1250000   0.5051815   0.1355504), wk =   0.0625000
        k(   31) = (   0.1250000   0.5051815   0.2711009), wk =   0.0625000
        k(   32) = (   0.1250000   0.5051815  -0.4066513), wk =   0.0625000
        k(   33) = (   0.2500000   0.4330127   0.0000000), wk =   0.0312500
        k(   34) = (   0.2500000   0.4330127   0.1355504), wk =   0.0625000
        k(   35) = (   0.2500000   0.4330127   0.2711009), wk =   0.0625000
        k(   36) = (   0.2500000   0.4330127  -0.4066513), wk =   0.0312500
        k(   37) = (   0.2500000   0.5773503   0.0000000), wk =   0.0312500
        k(   38) = (   0.2500000   0.5773503   0.1355504), wk =   0.0625000
        k(   39) = (   0.2500000   0.5773503   0.2711009), wk =   0.0625000
        k(   40) = (   0.2500000   0.5773503  -0.4066513), wk =   0.0312500
        k(   41) = (   0.0000000   0.1443376  -0.1355504), wk =   0.0312500
        k(   42) = (   0.0000000   0.1443376  -0.2711009), wk =   0.0312500
        k(   43) = (   0.0000000   0.2886751  -0.1355504), wk =   0.0312500
        k(   44) = (   0.0000000   0.2886751  -0.2711009), wk =   0.0312500
        k(   45) = (   0.0000000   0.4330127  -0.1355504), wk =   0.0312500
        k(   46) = (   0.0000000   0.4330127  -0.2711009), wk =   0.0312500
        k(   47) = (  -0.1250000   0.3608439  -0.1355504), wk =   0.0625000
        k(   48) = (  -0.1250000   0.3608439  -0.2711009), wk =   0.0625000
        k(   49) = (  -0.1250000   0.5051815  -0.1355504), wk =   0.0625000
        k(   50) = (  -0.1250000   0.5051815  -0.2711009), wk =   0.0625000

     Dense  grid:    53145 G-vectors     FFT dimensions: (  45,  45,  60)

     Estimated max dynamical RAM per process >      22.28 MB

     Estimated total dynamical RAM >     178.22 MB

     Initial potential from superposition of free atoms

     starting charge       9.9903, renormalised to      10.0000
     Starting wfcs are    8 randomized atomic wfcs +    1 random wfcs

     total cpu time spent up to now is        1.2 secs

     Self-consistent Calculation

     iteration #  1     ecut=    80.00 Ry     beta= 0.70
     Davidson diagonalization with overlap
     ethr =  1.00E-02,  avg # of iterations =  5.3

     Threshold (ethr) on eigenvalues was too large:
     Diagonalizing with lowered threshold

     Davidson diagonalization with overlap
     ethr =  1.42E-04,  avg # of iterations =  5.0

     total cpu time spent up to now is        3.2 secs

     total energy              =     -37.15474572 Ry
     estimated scf accuracy    <       0.01315490 Ry

     iteration #  2     ecut=    80.00 Ry     beta= 0.70
     Davidson diagonalization with overlap
     ethr =  1.32E-04,  avg # of iterations =  1.9

     total cpu time spent up to now is        3.9 secs

     total energy              =     -37.15566898 Ry
     estimated scf accuracy    <       0.00342890 Ry

     iteration #  3     ecut=    80.00 Ry     beta= 0.70
     Davidson diagonalization with overlap
     ethr =  3.43E-05,  avg # of iterations =  2.3

     total cpu time spent up to now is        4.7 secs

     total energy              =     -37.15654594 Ry
     estimated scf accuracy    <       0.00055522 Ry

     iteration #  4     ecut=    80.00 Ry     beta= 0.70
     Davidson diagonalization with overlap
     ethr =  5.55E-06,  avg # of iterations =  3.2

     total cpu time spent up to now is        5.5 secs

     total energy              =     -37.15661798 Ry
     estimated scf accuracy    <       0.00000409 Ry

     iteration #  5     ecut=    80.00 Ry     beta= 0.70
     Davidson diagonalization with overlap
     ethr =  4.09E-08,  avg # of iterations =  4.2

     total cpu time spent up to now is        6.3 secs

     total energy              =     -37.15662091 Ry
     estimated scf accuracy    <       0.00000040 Ry

     iteration #  6     ecut=    80.00 Ry     beta= 0.70
     Davidson diagonalization with overlap
     ethr =  4.02E-09,  avg # of iterations =  1.8

     total cpu time spent up to now is        7.1 secs

     End of self-consistent calculation

          k = 0.0000 0.0000 0.0000 (  6665 PWs)   bands (ev):

   -46.0302 -46.0137  -6.0923   0.3750   0.9654   2.7738   2.7738   5.9519
     5.9740

          k = 0.0000 0.0000 0.1356 (  6640 PWs)   bands (ev):

   -46.0301 -46.0137  -6.0512  -0.5412   2.1241   2.8113   2.8113   5.9379
     6.1086

          k = 0.0000 0.0000 0.2711 (  6658 PWs)   bands (ev):

   -46.0301 -46.0137  -5.9630  -1.3245   2.8909   2.8909   3.5635   5.7693
     6.5024

          k = 0.0000 0.0000-0.4067 (  6712 PWs)   bands (ev):

   -46.0301 -46.0137  -5.9153  -1.6097   2.9333   2.9333   4.4440   5.4275
     7.0685

          k = 0.0000 0.1443 0.0000 (  6636 PWs)   bands (ev):

   -46.0296 -46.0142  -5.9872   0.4791   1.0071   2.0544   2.5342   5.6576
     6.2897

          k = 0.0000 0.1443 0.1356 (  6642 PWs)   bands (ev):

   -46.0296 -46.0142  -5.9461  -0.4254   1.8078   2.4330   2.5741   5.6779
     6.6800

          k = 0.0000 0.1443 0.2711 (  6660 PWs)   bands (ev):

   -46.0295 -46.0142  -5.8581  -1.2039   2.0490   2.6844   3.6332   5.7267
     6.3566

          k = 0.0000 0.1443-0.4067 (  6660 PWs)   bands (ev):

   -46.0295 -46.0143  -5.8106  -1.4885   2.1149   2.7596   4.3266   5.6660
     6.1444

          k = 0.0000 0.2887 0.0000 (  6622 PWs)   bands (ev):

   -46.0280 -46.0157  -5.6995   0.3878   0.7844   1.7014   2.0929   5.0217
     6.3557

          k = 0.0000 0.2887 0.1356 (  6637 PWs)   bands (ev):

   -46.0280 -46.0157  -5.6589  -0.0929   0.5629   2.1516   2.5643   4.9889
     6.3928

          k = 0.0000 0.2887 0.2711 (  6638 PWs)   bands (ev):

   -46.0280 -46.0157  -5.5718  -0.8518   0.7086   2.3061   3.3522   4.9546
     5.8177

          k = 0.0000 0.2887-0.4067 (  6654 PWs)   bands (ev):

   -46.0279 -46.0157  -5.5249  -1.1379   0.7969   2.4104   3.5011   5.2153
     5.3974

          k = 0.0000 0.4330 0.0000 (  6620 PWs)   bands (ev):

   -46.0258 -46.0177  -5.3397  -0.6141   1.1654   1.7553   2.1932   4.2736
     5.3495

          k = 0.0000 0.4330 0.1356 (  6627 PWs)   bands (ev):

   -46.0258 -46.0178  -5.3002  -0.5325   0.4211   1.8281   2.6572   4.3337
     5.8270

          k = 0.0000 0.4330 0.2711 (  6637 PWs)   bands (ev):

   -46.0258 -46.0178  -5.2156  -0.3950  -0.3102   2.0086   2.5270   4.7546
     5.3172

          k = 0.0000 0.4330-0.4067 (  6634 PWs)   bands (ev):

   -46.0258 -46.0178  -5.1702  -0.6609  -0.2231   2.1254   2.3281   5.1891
     5.5928

          k = 0.0000-0.5774 0.0000 (  6620 PWs)   bands (ev):

   -46.0245 -46.0190  -5.1560  -1.0371   1.3744   1.6342   2.6177   3.7345
     5.0011

          k = 0.0000-0.5774 0.1356 (  6634 PWs)   bands (ev):

   -46.0245 -46.0190  -5.1172  -0.9723   0.7420   1.7147   2.6806   3.8505
     5.2749

          k = 0.0000-0.5774 0.2711 (  6638 PWs)   bands (ev):

   -46.0245 -46.0190  -5.0347  -0.8281   0.0423   1.9044   2.0327   4.7552
     5.4845

          k = 0.0000-0.5774-0.4067 (  6636 PWs)   bands (ev):

   -46.0245 -46.0190  -4.9906  -0.7551  -0.2041   1.7305   2.0203   5.1558
     5.5380

          k = 0.1250 0.2165 0.0000 (  6635 PWs)   bands (ev):

   -46.0285 -46.0152  -5.7899   0.6759   0.7378   1.6993   2.0003   5.7659
     6.0497

          k = 0.1250 0.2165 0.1356 (  6635 PWs)   bands (ev):

   -46.0285 -46.0152  -5.7491  -0.2145   1.0082   2.0673   2.5802   5.5662
     5.6758

          k = 0.1250 0.2165 0.2711 (  6656 PWs)   bands (ev):

   -46.0285 -46.0153  -5.6617  -0.9717   1.1508   2.2200   3.6898   5.0860
     5.4125

          k = 0.1250 0.2165-0.4067 (  6662 PWs)   bands (ev):

   -46.0284 -46.0153  -5.6146  -1.2514   1.2243   2.3085   3.9607   4.9164
     5.6241

          k = 0.1250 0.3608 0.0000 (  6636 PWs)   bands (ev):

   -46.0266 -46.0171  -5.4582  -0.1487   1.0106   1.3990   2.0635   4.9776
     5.6870

          k = 0.1250 0.3608 0.1356 (  6637 PWs)   bands (ev):

   -46.0266 -46.0171  -5.4182  -0.0889   0.2729   1.4790   2.7897   4.8558
     5.2286

          k = 0.1250 0.3608 0.2711 (  6639 PWs)   bands (ev):

   -46.0265 -46.0171  -5.3326  -0.5296   0.1127   1.6431   3.0741   4.6074
     5.1559

          k = 0.1250 0.3608-0.4067 (  6642 PWs)   bands (ev):

   -46.0265 -46.0171  -5.2866  -0.8115   0.2063   1.7401   2.9843   4.2257
     5.7113

          k = 0.1250 0.5052 0.0000 (  6636 PWs)   bands (ev):

   -46.0245 -46.0190  -5.1643  -0.8371   1.0452   1.3782   2.6964   3.9893
     5.0479

          k = 0.1250 0.5052 0.1356 (  6626 PWs)   bands (ev):

   -46.0245 -46.0190  -5.1255  -0.7640   0.6770   1.1758   2.8027   4.2485
     4.9794

          k = 0.1250 0.5052 0.2711 (  6621 PWs)   bands (ev):

   -46.0245 -46.0190  -5.0428  -0.6099  -0.0209   1.3098   2.3279   4.2530
     5.3296

          k = 0.1250 0.5052-0.4067 (  6616 PWs)   bands (ev):

   -46.0245 -46.0190  -4.9985  -0.5691  -0.2287   1.3724   2.1033   3.9399
     5.9035

          k = 0.2500 0.4330 0.0000 (  6629 PWs)   bands (ev):

   -46.0245 -46.0190  -5.1726  -0.5194   0.4707   1.3791   2.6720   4.5223
     4.7251

          k = 0.2500 0.4330 0.1356 (  6638 PWs)   bands (ev):

   -46.0245 -46.0190  -5.1336  -0.4562   0.4879   0.7804   3.1488   3.9969
     4.7416

          k = 0.2500 0.4330 0.2711 (  6633 PWs)   bands (ev):

   -46.0245 -46.0190  -5.0507  -0.3186  -0.0344   0.7537   2.7778   3.5102
     5.6296

          k = 0.2500 0.4330-0.4067 (  6620 PWs)   bands (ev):

   -46.0245 -46.0190  -5.0063  -0.3452  -0.1880   0.8477   2.5161   3.2280
     6.3914

          k = 0.2500 0.5774 0.0000 (  6636 PWs)   bands (ev):

   -46.0229 -46.0206  -5.0357  -0.6420   0.1009   1.5445   3.3090   3.8171
     4.3688

          k = 0.2500 0.5774 0.1356 (  6622 PWs)   bands (ev):

   -46.0229 -46.0206  -4.9975  -0.5739   0.1685   0.9567   3.1928   3.7593
     4.5146

          k = 0.2500 0.5774 0.2711 (  6626 PWs)   bands (ev):

   -46.0229 -46.0206  -4.9162  -0.4173   0.2299   0.3501   2.4973   3.2016
     5.8779

          k = 0.2500 0.5774-0.4067 (  6632 PWs)   bands (ev):

   -46.0229 -46.0206  -4.8729  -0.3311  -0.0125   0.4266   2.2046   2.9084
     6.8089

          k = 0.0000 0.1443-0.1356 (  6642 PWs)   bands (ev):

   -46.0296 -46.0142  -5.9461  -0.4298   1.8082   2.4520   2.5971   5.6636
     6.1263

          k = 0.0000 0.1443-0.2711 (  6660 PWs)   bands (ev):

   -46.0295 -46.0142  -5.8581  -1.2056   2.0354   2.7113   3.7223   5.5331
     6.0453

          k = 0.0000 0.2887-0.1356 (  6637 PWs)   bands (ev):

   -46.0280 -46.0157  -5.6588  -0.1625   0.6505   2.1720   2.7117   4.5906
     5.9197

          k = 0.0000 0.2887-0.2711 (  6638 PWs)   bands (ev):

   -46.0280 -46.0157  -5.5718  -0.8708   0.7361   2.3316   3.7460   4.3648
     5.8316

          k = 0.0000 0.4330-0.1356 (  6627 PWs)   bands (ev):

   -46.0258 -46.0178  -5.3000  -0.5845   0.4905   1.8384   3.2111   3.4333
     5.3334

          k = 0.0000 0.4330-0.2711 (  6637 PWs)   bands (ev):

   -46.0258 -46.0178  -5.2155  -0.5739  -0.1118   2.0221   2.6514   4.5660
     5.3622

          k =-0.1250 0.3608-0.1356 (  6637 PWs)   bands (ev):

   -46.0266 -46.0171  -5.4181  -0.1817   0.3923   1.4634   2.9942   4.1890
     5.6244

          k =-0.1250 0.3608-0.2711 (  6639 PWs)   bands (ev):

   -46.0265 -46.0171  -5.3325  -0.5725   0.1720   1.6375   3.2889   4.1452
     5.3481

          k =-0.1250 0.5052-0.1356 (  6626 PWs)   bands (ev):

   -46.0245 -46.0190  -5.1254  -0.7813   0.7351   1.1328   3.1376   3.6001
     5.2703

          k =-0.1250 0.5052-0.2711 (  6621 PWs)   bands (ev):

   -46.0245 -46.0190  -5.0427  -0.6507   0.0401   1.2893   2.3949   4.1042
     5.4572

     the Fermi energy is     1.0891 ev

!    total energy              =     -37.15662098 Ry
     estimated scf accuracy    <          2.8E-09 Ry
     smearing contrib. (-TS)   =       0.00017751 Ry
     internal energy E=F+TS    =     -37.15679850 Ry

     The total energy is F=E-TS. E is the sum of the following terms:
     one-electron contribution =     -18.76964240 Ry
     hartree contribution      =       7.90472090 Ry
     xc contribution           =      -9.42770940 Ry
     ewald contribution        =     -16.86416760 Ry

     convergence has been achieved in   6 iterations

     Forces acting on atoms (cartesian axes, Ry/au):

     atom    1 type  1   force =     0.00000000    0.00000000    0.02433105
     atom    2 type  1   force =    -0.00000000    0.00000000   -0.02433105
     atom    3 type  2   force =     0.00000000    0.00000000    0.00000000
     The non-local contrib.  to forces
     atom    1 type  1   force =     0.00000000    0.00000000   -0.05366745
     atom    2 type  1   force =     0.00000000   -0.00000000    0.05366745
     atom    3 type  2   force =     0.00000000   -0.00000000    0.00000000
     The ionic contribution  to forces
     atom    1 type  1   force =     0.00000002   -0.00000001   -0.02108884
     atom    2 type  1   force =    -0.00000002    0.00000001    0.02108884
     atom    3 type  2   force =    -0.00000000   -0.00000000   -0.00000000
     The local contribution  to forces
     atom    1 type  1   force =     0.00000080   -0.00000046    0.09913267
     atom    2 type  1   force =    -0.00000080    0.00000046   -0.09913267
     atom    3 type  2   force =     0.00000000    0.00000000   -0.00000000
     The core correction contribution to forces
     atom    1 type  1   force =     0.00000000    0.00000000    0.00000000
     atom    2 type  1   force =     0.00000000    0.00000000    0.00000000
     atom    3 type  2   force =     0.00000000    0.00000000    0.00000000
     The Hubbard contrib.    to forces
     atom    1 type  1   force =     0.00000000    0.00000000    0.00000000
     atom    2 type  1   force =     0.00000000    0.00000000    0.00000000
     atom    3 type  2   force =     0.00000000    0.00000000    0.00000000
     The SCF correction term to forces
     atom    1 type  1   force =     0.00000000   -0.00000000   -0.00004533
     atom    2 type  1   force =    -0.00000000    0.00000000    0.00004533
     atom    3 type  2   force =    -0.00000000   -0.00000000    0.00000000

     Total force =     0.034409     Total SCF correction =     0.000064


     Computing stress (Cartesian axis) and pressure

          total   stress  (Ry/bohr**3)                   (kbar)     P=      -59.14
  -0.00038275  -0.00000000  -0.00000000          -56.30       -0.00       -0.00
  -0.00000000  -0.00038275  -0.00000000           -0.00      -56.30       -0.00
   0.00000000   0.00000000  -0.00044060            0.00        0.00      -64.82


     BFGS Geometry Optimization
     Energy error            =      0.0E+00 Ry
     Gradient error          =      2.4E-02 Ry/Bohr
     Cell gradient error     =      5.6E+02 kbar

     number of scf cycles    =   1
     number of bfgs steps    =   0

     enthalpy           new  =     -35.2902561769 Ry

     new trust radius        =       0.4498582802 bohr
ibrav =      4
 celldm(1) =      7.26095100
 celldm(3) =      1.22759068
Input lattice vectors:
     0.90545789     0.00000000     0.00000000
    -0.45272895     0.78414954     0.00000000
    -0.00000000    -0.00000000     1.11153168
New lattice vectors in INITIAL alat:
     0.90545789     0.00000000     0.00000000
    -0.45272895     0.78414954     0.00000000
     0.00000000     0.00000000     1.11153168
New lattice vectors in NEW alat (for information only):
     1.00000000     0.00000000     0.00000000
    -0.50000000     0.86602540     0.00000000
     0.00000000     0.00000000     1.22759068
Discrepancy in bohr =     0.000000    0.000000    0.000000
     new conv_thr            =       0.0000000100 Ry

     new unit-cell volume =    406.97219 a.u.^3 (    60.30706 Ang^3 )
     density =      1.15556 g/cm^3

CELL_PARAMETERS (alat=  8.01909293)
   0.905457894   0.000000000   0.000000000
  -0.452728947   0.784149539   0.000000000
   0.000000000   0.000000000   1.111531676

ATOMIC_POSITIONS (crystal)
Li            0.3333333300        0.6666666700        0.6481456744
Li            0.6666666700        0.3333333300        0.3518543256
Si            0.0000000000        0.0000000000        0.0000000000



     Writing config-only to output data dir ./output/LiSi.save/
     NEW-OLD atomic charge density approx. for the potential
     extrapolated charge    6.51099, renormalised to   10.00000

     total cpu time spent up to now is        9.3 secs

     Self-consistent Calculation

     iteration #  1     ecut=    80.00 Ry     beta= 0.70
     Davidson diagonalization with overlap
     c_bands:  1 eigenvalues not converged
     ethr =  1.00E-06,  avg # of iterations = 11.7

     total cpu time spent up to now is       11.5 secs

     total energy              =     -37.04413615 Ry
     estimated scf accuracy    <       0.15593402 Ry

     iteration #  2     ecut=    80.00 Ry     beta= 0.70
     Davidson diagonalization with overlap
     ethr =  1.56E-03,  avg # of iterations =  2.0

     total cpu time spent up to now is       12.7 secs

     total energy              =     -37.21038045 Ry
     estimated scf accuracy    <       0.00936744 Ry

     iteration #  3     ecut=    80.00 Ry     beta= 0.70
     Davidson diagonalization with overlap
     ethr =  9.37E-05,  avg # of iterations =  2.6

     total cpu time spent up to now is       13.7 secs

     total energy              =     -37.21016213 Ry
     estimated scf accuracy    <       0.00135026 Ry

     iteration #  4     ecut=    80.00 Ry     beta= 0.70
     Davidson diagonalization with overlap
     ethr =  1.35E-05,  avg # of iterations =  3.5

     total cpu time spent up to now is       14.8 secs

     total energy              =     -37.21025976 Ry
     estimated scf accuracy    <       0.00005106 Ry

     iteration #  5     ecut=    80.00 Ry     beta= 0.70
     Davidson diagonalization with overlap
     ethr =  5.11E-07,  avg # of iterations =  2.9

     total cpu time spent up to now is       15.9 secs

     total energy              =     -37.21027192 Ry
     estimated scf accuracy    <       0.00000172 Ry

     iteration #  6     ecut=    80.00 Ry     beta= 0.70
     Davidson diagonalization with overlap
     ethr =  1.72E-08,  avg # of iterations =  1.7

     total cpu time spent up to now is       16.8 secs

     total energy              =     -37.21027209 Ry
     estimated scf accuracy    <       0.00000012 Ry

     iteration #  7     ecut=    80.00 Ry     beta= 0.70
     Davidson diagonalization with overlap
     ethr =  1.24E-09,  avg # of iterations =  2.3

     total cpu time spent up to now is       17.9 secs

     End of self-consistent calculation

          k = 0.0000 0.0000 0.0000 (  6665 PWs)   bands (ev):

   -44.1534 -44.1076  -5.3737   1.6511   2.7646   4.9553   4.9553   8.0570
     8.7689

          k = 0.0000 0.0000 0.1499 (  6640 PWs)   bands (ev):

   -44.1533 -44.1077  -5.3103   0.6089   4.1273   5.0163   5.0164   8.2266
     8.7917

          k = 0.0000 0.0000 0.2999 (  6658 PWs)   bands (ev):

   -44.1531 -44.1078  -5.1700  -0.3836   5.1492   5.1492   5.9818   8.7221
     8.7221

          k = 0.0000 0.0000-0.4498 (  6712 PWs)   bands (ev):

   -44.1530 -44.1079  -5.0915  -0.7552   5.2222   5.2222   7.0446   8.7215
     9.7090

          k = 0.0000 0.1594 0.0000 (  6636 PWs)   bands (ev):

   -44.1518 -44.1090  -5.2215   1.7780   2.9064   3.8284   4.5516   7.8568
     8.6372

          k = 0.0000 0.1594 0.1499 (  6642 PWs)   bands (ev):

   -44.1517 -44.1091  -5.1570   0.7461   3.8614   4.2814   4.6175   7.8842
     8.9647

          k = 0.0000 0.1594 0.2999 (  6660 PWs)   bands (ev):

   -44.1515 -44.1093  -5.0143  -0.2474   4.0563   4.8017   5.9743   7.9566
     9.0248

          k = 0.0000 0.1594-0.4498 (  6660 PWs)   bands (ev):

   -44.1514 -44.1093  -4.9343  -0.6203   4.1417   4.9325   6.8317   8.0404
     8.4171

          k = 0.0000 0.3188 0.0000 (  6622 PWs)   bands (ev):

   -44.1472 -44.1131  -4.7902   1.8853   2.2353   3.3826   3.8892   7.2656
     8.7574

          k = 0.0000 0.3188 0.1499 (  6637 PWs)   bands (ev):

   -44.1471 -44.1131  -4.7223   1.1332   2.0667   3.9802   4.5155   7.3460
     8.2987

          k = 0.0000 0.3188 0.2999 (  6638 PWs)   bands (ev):

   -44.1470 -44.1133  -4.5721   0.1430   2.2410   4.2233   5.4334   7.3083
     8.0533

          k = 0.0000 0.3188-0.4498 (  6654 PWs)   bands (ev):

   -44.1469 -44.1133  -4.4880  -0.2330   2.3435   4.3956   5.5104   7.4724
     7.4995

          k = 0.0000 0.4782 0.0000 (  6620 PWs)   bands (ev):

   -44.1411 -44.1187  -4.2007   0.4276   2.6763   3.4164   4.0605   6.5161
     7.5048

          k = 0.0000 0.4782 0.1499 (  6627 PWs)   bands (ev):

   -44.1411 -44.1187  -4.1274   0.4840   1.7735   3.5234   4.5347   6.8752
     7.5164

          k = 0.0000 0.4782 0.2999 (  6637 PWs)   bands (ev):

   -44.1410 -44.1188  -3.9653   0.4752   0.9522   3.7967   4.2744   7.1469
     7.4306

          k = 0.0000 0.4782-0.4498 (  6634 PWs)   bands (ev):

   -44.1409 -44.1188  -3.8742   0.2431   0.9009   3.9838   4.0263   6.8817
     7.3106

          k = 0.0000-0.6376 0.0000 (  6620 PWs)   bands (ev):

   -44.1374 -44.1222  -3.8581  -0.2358   2.9654   3.2508   4.5792   5.9185
     7.1160

          k = 0.0000-0.6376 0.1499 (  6634 PWs)   bands (ev):

   -44.1374 -44.1222  -3.7818  -0.1774   2.1453   3.3666   4.4210   6.3679
     7.2011

          k = 0.0000-0.6376 0.2999 (  6638 PWs)   bands (ev):

   -44.1373 -44.1222  -3.6110  -0.0589   1.1971   3.6504   3.6577   7.1608
     7.1923

          k = 0.0000-0.6376-0.4498 (  6636 PWs)   bands (ev):

   -44.1373 -44.1223  -3.5136  -0.0128   0.8512   3.3268   3.8360   6.6826
     7.2141

          k = 0.1381 0.2391 0.0000 (  6635 PWs)   bands (ev):

   -44.1486 -44.1118  -4.9287   2.0168   2.5899   3.2587   3.7343   8.3160
     8.5255

          k = 0.1381 0.2391 0.1499 (  6635 PWs)   bands (ev):

   -44.1486 -44.1119  -4.8622   1.0097   2.6871   3.8267   4.5158   7.9474
     8.1662

          k = 0.1381 0.2391 0.2999 (  6656 PWs)   bands (ev):

   -44.1484 -44.1120  -4.7146   0.0179   2.8619   4.0488   5.9789   7.2672
     7.7330

          k = 0.1381 0.2391-0.4498 (  6662 PWs)   bands (ev):

   -44.1483 -44.1120  -4.6315  -0.3570   2.9630   4.1826   6.2309   7.0341
     7.9101

          k = 0.1381 0.3985 0.0000 (  6636 PWs)   bands (ev):

   -44.1432 -44.1168  -4.4055   1.1410   2.4255   2.9637   3.8311   7.3648
     8.0329

          k = 0.1381 0.3985 0.1499 (  6637 PWs)   bands (ev):

   -44.1431 -44.1168  -4.3345   1.1931   1.5348   3.0190   4.7502   7.1480
     7.6737

          k = 0.1381 0.3985 0.2999 (  6639 PWs)   bands (ev):

   -44.1430 -44.1169  -4.1771   0.4986   1.4163   3.2232   5.0247   6.6908
     7.7120

          k = 0.1381 0.3985-0.4498 (  6642 PWs)   bands (ev):

   -44.1430 -44.1169  -4.0884   0.1237   1.5151   3.3461   4.8909   6.2340
     8.1470

          k = 0.1381 0.5579 0.0000 (  6636 PWs)   bands (ev):

   -44.1374 -44.1222  -3.8829   0.0546   2.4568   2.9781   4.6060   6.1533
     7.1847

          k = 0.1381 0.5579 0.1499 (  6626 PWs)   bands (ev):

   -44.1374 -44.1222  -3.8068   0.1159   2.0790   2.5996   4.6338   6.7620
     7.0897

          k = 0.1381 0.5579 0.2999 (  6621 PWs)   bands (ev):

   -44.1373 -44.1222  -3.6370   0.2351   1.1499   2.7458   4.0959   6.2987
     7.9840

          k = 0.1381 0.5579-0.4498 (  6616 PWs)   bands (ev):

   -44.1373 -44.1223  -3.5408   0.2598   0.8337   2.8090   3.8814   5.8885
     8.2737

          k = 0.2761 0.4782 0.0000 (  6629 PWs)   bands (ev):

   -44.1374 -44.1222  -3.9068   0.5399   1.6404   2.9849   4.5569   6.5471
     7.0162

          k = 0.2761 0.4782 0.1499 (  6638 PWs)   bands (ev):

   -44.1374 -44.1222  -3.8315   0.6099   1.6325   2.1933   5.1377   5.9277
     7.1680

          k = 0.2761 0.4782 0.2999 (  6633 PWs)   bands (ev):

   -44.1373 -44.1222  -3.6629   0.7695   1.0042   2.0068   4.6372   5.4009
     8.3853

          k = 0.2761 0.4782-0.4498 (  6620 PWs)   bands (ev):

   -44.1373 -44.1223  -3.5669   0.6346   0.8640   2.0882   4.3339   5.0838
     9.2270

          k = 0.2761 0.6376 0.0000 (  6636 PWs)   bands (ev):

   -44.1329 -44.1266  -3.6397   0.2530   1.2019   3.2154   5.3112   5.8083
     6.3967

          k = 0.2761 0.6376 0.1499 (  6622 PWs)   bands (ev):

   -44.1329 -44.1266  -3.5613   0.3184   1.2723   2.3979   5.0396   5.7334
     6.9246

          k = 0.2761 0.6376 0.2999 (  6626 PWs)   bands (ev):

   -44.1328 -44.1266  -3.3854   0.4619   1.4053   1.4360   4.2810   5.0673
     8.7894

          k = 0.2761 0.6376-0.4498 (  6632 PWs)   bands (ev):

   -44.1328 -44.1266  -3.2849   0.5317   1.0356   1.5186   3.9749   4.7357
    10.0217

          k = 0.0000 0.1594-0.1499 (  6642 PWs)   bands (ev):

   -44.1517 -44.1091  -5.1571   0.7447   3.8520   4.2999   4.6519   7.9483
     8.4447

          k = 0.0000 0.1594-0.2999 (  6660 PWs)   bands (ev):

   -44.1515 -44.1093  -5.0144  -0.2475   4.0342   4.8451   6.0859   7.9604
     8.3073

          k = 0.0000 0.3188-0.1499 (  6637 PWs)   bands (ev):

   -44.1471 -44.1131  -4.7230   1.1123   2.0949   4.0063   4.7047   6.7554
     8.0984

          k = 0.0000 0.3188-0.2999 (  6638 PWs)   bands (ev):

   -44.1470 -44.1133  -4.5730   0.1407   2.2458   4.2589   5.9089   6.5887
     7.7651

          k = 0.0000 0.4782-0.1499 (  6627 PWs)   bands (ev):

   -44.1411 -44.1187  -4.1289   0.4770   1.7821   3.5358   5.1781   5.5526
     7.3929

          k = 0.0000 0.4782-0.2999 (  6637 PWs)   bands (ev):

   -44.1410 -44.1188  -3.9670   0.4608   0.9753   3.8142   4.4032   7.0937
     7.3234

          k =-0.1381 0.3985-0.1499 (  6637 PWs)   bands (ev):

   -44.1431 -44.1168  -4.3352   1.1524   1.5884   3.0077   5.0433   6.2504
     8.0790

          k =-0.1381 0.3985-0.2999 (  6639 PWs)   bands (ev):

   -44.1430 -44.1169  -4.1779   0.4921   1.4311   3.2209   5.2799   6.2307
     7.7657

          k =-0.1381 0.5579-0.1499 (  6626 PWs)   bands (ev):

   -44.1374 -44.1222  -3.8076   0.1147   2.1019   2.5670   4.9755   5.8305
     7.5660

          k =-0.1381 0.5579-0.2999 (  6621 PWs)   bands (ev):

   -44.1373 -44.1222  -3.6380   0.2322   1.1613   2.7341   4.1703   6.1612
     8.1689

     the Fermi energy is     2.6192 ev

!    total energy              =     -37.21027212 Ry
     estimated scf accuracy    <          1.5E-09 Ry
     smearing contrib. (-TS)   =      -0.00010966 Ry
     internal energy E=F+TS    =     -37.21016246 Ry

     The total energy is F=E-TS. E is the sum of the following terms:
     one-electron contribution =     -16.28661927 Ry
     hartree contribution      =       7.31107296 Ry
     xc contribution           =      -9.60119227 Ry
     ewald contribution        =     -18.63342389 Ry

     convergence has been achieved in   7 iterations

     Forces acting on atoms (cartesian axes, Ry/au):

     atom    1 type  1   force =     0.00000000    0.00000000    0.01861804
     atom    2 type  1   force =     0.00000000    0.00000000   -0.01861804
     atom    3 type  2   force =     0.00000000   -0.00000000    0.00000000
     The non-local contrib.  to forces
     atom    1 type  1   force =     0.00000000    0.00000000   -0.07439912
     atom    2 type  1   force =     0.00000000   -0.00000000    0.07439912
     atom    3 type  2   force =     0.00000000    0.00000000    0.00000000
     The ionic contribution  to forces
     atom    1 type  1   force =     0.00000002   -0.00000001   -0.04211662
     atom    2 type  1   force =    -0.00000002    0.00000001    0.04211662
     atom    3 type  2   force =    -0.00000000    0.00000000   -0.00000000
     The local contribution  to forces
     atom    1 type  1   force =     0.00000072   -0.00000041    0.13515730
     atom    2 type  1   force =    -0.00000072    0.00000041   -0.13515730
     atom    3 type  2   force =    -0.00000000    0.00000000    0.00000000
     The core correction contribution to forces
     atom    1 type  1   force =     0.00000000    0.00000000    0.00000000
     atom    2 type  1   force =     0.00000000    0.00000000    0.00000000
     atom    3 type  2   force =    -0.00000000    0.00000000    0.00000000
     The Hubbard contrib.    to forces
     atom    1 type  1   force =     0.00000000    0.00000000    0.00000000
     atom    2 type  1   force =     0.00000000    0.00000000    0.00000000
     atom    3 type  2   force =     0.00000000    0.00000000    0.00000000
     The SCF correction term to forces
     atom    1 type  1   force =     0.00000000   -0.00000000   -0.00002353
     atom    2 type  1   force =    -0.00000000    0.00000000    0.00002353
     atom    3 type  2   force =    -0.00000000   -0.00000000    0.00000000

     Total force =     0.026330     Total SCF correction =     0.000033


     Computing stress (Cartesian axis) and pressure

          total   stress  (Ry/bohr**3)                   (kbar)     P=      -42.69
  -0.00026910   0.00000000   0.00000000          -39.59        0.00        0.00
   0.00000000  -0.00026910   0.00000000            0.00      -39.59        0.00
   0.00000000   0.00000000  -0.00033244            0.00        0.00      -48.90

     Energy error            =      5.4E-01 Ry
     Gradient error          =      1.9E-02 Ry/Bohr
     Cell gradient error     =      5.5E+02 kbar

     number of scf cycles    =   2
     number of bfgs steps    =   1

     enthalpy           old  =     -35.2902561769 Ry
     enthalpy           new  =     -35.8270017549 Ry

     CASE: enthalpy          _new < enthalpy          _old

     new trust radius        =       0.6426111086 bohr
ibrav =      4
 celldm(1) =      6.12775543
 celldm(3) =      1.22293072
Input lattice vectors:
     0.76414571     0.00000000     0.00000000
    -0.38207285     0.66176959     0.00000000
     0.00000000     0.00000000     0.93449726
New lattice vectors in INITIAL alat:
     0.76414571     0.00000000     0.00000000
    -0.38207285     0.66176959     0.00000000
     0.00000000     0.00000000     0.93449726
New lattice vectors in NEW alat (for information only):
     1.00000000     0.00000000     0.00000000
    -0.50000000     0.86602540     0.00000000
     0.00000000     0.00000000     1.22293072
Discrepancy in bohr =     0.000000    0.000000    0.000000
     new conv_thr            =       0.0000000019 Ry

     new unit-cell volume =    243.68947 a.u.^3 (    36.11105 Ang^3 )
     density =      1.92984 g/cm^3

CELL_PARAMETERS (alat=  8.01909293)
   0.764145706   0.000000000   0.000000000
  -0.382072853   0.661769594   0.000000000
   0.000000000   0.000000000   0.934497257

ATOMIC_POSITIONS (crystal)
Li            0.3333333300        0.6666666700        0.6513593979
Li            0.6666666700        0.3333333300        0.3486406021
Si            0.0000000000       -0.0000000000        0.0000000000



     Writing config-only to output data dir ./output/LiSi.save/
     NEW-OLD atomic charge density approx. for the potential

     negative rho (up, down):  1.412E-01 0.000E+00
     extrapolated charge    3.30608, renormalised to   10.00000

     total cpu time spent up to now is       20.1 secs

     Self-consistent Calculation

     iteration #  1     ecut=    80.00 Ry     beta= 0.70
     Davidson diagonalization with overlap
     c_bands:  1 eigenvalues not converged
     c_bands:  1 eigenvalues not converged
     c_bands:  1 eigenvalues not converged
     ethr =  1.00E-06,  avg # of iterations = 13.8

     total cpu time spent up to now is       22.6 secs

     total energy              =     -36.72703935 Ry
     estimated scf accuracy    <       2.25626707 Ry

     iteration #  2     ecut=    80.00 Ry     beta= 0.70
     Davidson diagonalization with overlap
     ethr =  1.00E-02,  avg # of iterations =  2.0

     total cpu time spent up to now is       23.7 secs

     total energy              =     -37.13030973 Ry
     estimated scf accuracy    <       0.26436189 Ry

     iteration #  3     ecut=    80.00 Ry     beta= 0.70
     Davidson diagonalization with overlap
     ethr =  2.64E-03,  avg # of iterations =  2.1

     total cpu time spent up to now is       24.6 secs

     total energy              =     -37.17683763 Ry
     estimated scf accuracy    <       0.03027677 Ry

     iteration #  4     ecut=    80.00 Ry     beta= 0.70
     Davidson diagonalization with overlap
     ethr =  3.03E-04,  avg # of iterations =  2.4

     total cpu time spent up to now is       25.4 secs

     total energy              =     -37.18086999 Ry
     estimated scf accuracy    <       0.00074606 Ry

     iteration #  5     ecut=    80.00 Ry     beta= 0.70
     Davidson diagonalization with overlap
     ethr =  7.46E-06,  avg # of iterations =  5.1

     total cpu time spent up to now is       26.5 secs

     total energy              =     -37.18100275 Ry
     estimated scf accuracy    <       0.00002234 Ry

     iteration #  6     ecut=    80.00 Ry     beta= 0.70
     Davidson diagonalization with overlap
     ethr =  2.23E-07,  avg # of iterations =  1.9

     total cpu time spent up to now is       27.3 secs

     total energy              =     -37.18100492 Ry
     estimated scf accuracy    <       0.00000031 Ry

     iteration #  7     ecut=    80.00 Ry     beta= 0.70
     Davidson diagonalization with overlap
     ethr =  3.07E-09,  avg # of iterations =  3.0

     total cpu time spent up to now is       28.0 secs

     total energy              =     -37.18100506 Ry
     estimated scf accuracy    <       0.00000001 Ry

     iteration #  8     ecut=    80.00 Ry     beta= 0.70
     Davidson diagonalization with overlap
     ethr =  1.10E-10,  avg # of iterations =  2.4

     total cpu time spent up to now is       28.8 secs

     End of self-consistent calculation

          k = 0.0000 0.0000 0.0000 (  6665 PWs)   bands (ev):

   -40.2093 -39.9899  -3.6277   4.9784   6.6332  10.4037  10.4037  12.7251
    12.7251

          k = 0.0000 0.0000 0.1783 (  6640 PWs)   bands (ev):

   -40.2080 -39.9911  -3.5389   3.5730   8.5438  10.5350  10.5350  12.9611
    12.9611

          k = 0.0000 0.0000 0.3567 (  6658 PWs)   bands (ev):

   -40.2053 -39.9935  -3.3378   2.2138  10.8413  10.8413  11.3274  13.6262
    13.6262

          k = 0.0000 0.0000-0.5350 (  6712 PWs)   bands (ev):

   -40.2039 -39.9947  -3.2217   1.7004  11.0259  11.0259  13.1417  14.2552
    15.7827

          k = 0.0000 0.1889 0.0000 (  6636 PWs)   bands (ev):

   -40.2008 -39.9962  -3.3969   5.1324   6.7137   8.6737   9.4234  13.0060
    14.0899

          k = 0.0000 0.1889 0.1783 (  6642 PWs)   bands (ev):

   -40.1995 -39.9973  -3.3033   3.7133   8.3812   9.0835   9.5693  12.9915
    14.4992

          k = 0.0000 0.1889 0.3567 (  6660 PWs)   bands (ev):

   -40.1970 -39.9995  -3.0915   2.3526   9.0366   9.9861  11.3870  13.1156
    14.6019

          k = 0.0000 0.1889-0.5350 (  6660 PWs)   bands (ev):

   -40.1957 -40.0007  -2.9693   1.8390   9.2338  10.3200  12.5115  13.1243
    13.5369

          k = 0.0000 0.3778 0.0000 (  6622 PWs)   bands (ev):

   -40.1774 -40.0142  -2.7208   5.1600   5.9719   7.7113   8.2250  12.4804
    14.3363

          k = 0.0000 0.3778 0.1783 (  6637 PWs)   bands (ev):

   -40.1764 -40.0150  -2.6095   3.9455   6.2058   8.4013   9.1239  12.3189
    13.4366

          k = 0.0000 0.3778 0.3567 (  6638 PWs)   bands (ev):

   -40.1744 -40.0168  -2.3621   2.6992   6.3444   8.8899  10.2006  12.6036
    13.1844

          k = 0.0000 0.3778-0.5350 (  6654 PWs)   bands (ev):

   -40.1734 -40.0176  -2.2219   2.2285   6.3879   9.2818  10.1217  12.2278
    12.5107

          k = 0.0000 0.5667 0.0000 (  6620 PWs)   bands (ev):

   -40.1467 -40.0395  -1.6946   3.1173   6.4953   7.4588   8.4792  11.3228
    12.4102

          k = 0.0000 0.5667 0.1783 (  6627 PWs)   bands (ev):

   -40.1460 -40.0401  -1.5470   2.9636   5.5562   7.6508   8.9549  11.3821
    13.1112

          k = 0.0000 0.5667 0.3567 (  6637 PWs)   bands (ev):

   -40.1446 -40.0411  -1.2215   2.6818   4.5089   8.1698   8.3889  12.1782
    12.3102

          k = 0.0000 0.5667-0.5350 (  6634 PWs)   bands (ev):

   -40.1440 -40.0415  -1.0409   2.5903   4.0340   8.1182   8.5791  11.3904
    12.1828

          k = 0.0000-0.7555 0.0000 (  6620 PWs)   bands (ev):

   -40.1281 -40.0559  -0.9427   1.9305   6.9725   7.1993   9.0872  10.8208
    11.1209

          k = 0.0000-0.7555 0.1783 (  6634 PWs)   bands (ev):

   -40.1277 -40.0561  -0.7714   1.9469   5.7461   7.3998   8.5780  11.3084
    12.6233

          k = 0.0000-0.7555 0.3567 (  6638 PWs)   bands (ev):

   -40.1268 -40.0567  -0.3381   1.9484   4.2315   7.6298   7.9302  11.9813
    11.9897

          k = 0.0000-0.7555-0.5350 (  6636 PWs)   bands (ev):

   -40.1263 -40.0570  -0.0361   1.8961   3.6088   7.2673   8.3374  11.1078
    12.0693

          k = 0.1636 0.2833 0.0000 (  6635 PWs)   bands (ev):

   -40.1847 -40.0084  -2.9425   5.4056   6.3179   7.7683   7.9188  14.2557
    14.3891

          k = 0.1636 0.2833 0.1783 (  6635 PWs)   bands (ev):

   -40.1837 -40.0093  -2.8407   4.0014   6.8953   8.0436   9.1621  13.4918
    14.1844

          k = 0.1636 0.2833 0.3567 (  6656 PWs)   bands (ev):

   -40.1815 -40.0112  -2.6067   2.6367   7.2947   8.3943  11.1678  12.2672
    13.3947

          k = 0.1636 0.2833-0.5350 (  6662 PWs)   bands (ev):

   -40.1804 -40.0122  -2.4686   2.1085   7.5144   8.6088  11.3109  11.8932
    13.4900

          k = 0.1636 0.4722 0.0000 (  6636 PWs)   bands (ev):

   -40.1570 -40.0308  -2.0765   4.2821   5.8855   6.9055   8.2045  12.6884
    13.8288

          k = 0.1636 0.4722 0.1783 (  6637 PWs)   bands (ev):

   -40.1562 -40.0314  -1.9491   3.8665   5.4878   6.7442   9.3430  12.2067
    13.2665

          k = 0.1636 0.4722 0.3567 (  6639 PWs)   bands (ev):

   -40.1546 -40.0327  -1.6607   2.9915   5.1955   6.9967   9.6077  11.4411
    13.9097

          k = 0.1636 0.4722-0.5350 (  6642 PWs)   bands (ev):

   -40.1539 -40.0333  -1.4932   2.5824   5.1092   7.1963   9.4519  10.8516
    13.7946

          k = 0.1636 0.6611 0.0000 (  6636 PWs)   bands (ev):

   -40.1282 -40.0557  -1.0401   2.4410   5.8896   7.0226   9.0772  11.1062
    12.2179

          k = 0.1636 0.6611 0.1783 (  6626 PWs)   bands (ev):

   -40.1277 -40.0561  -0.8680   2.4054   5.8356   6.0379   8.9588  11.7793
    12.5441

          k = 0.1636 0.6611 0.3567 (  6621 PWs)   bands (ev):

   -40.1268 -40.0567  -0.4631   2.3777   4.3820   6.2073   8.4486  10.9307
    13.7673

          k = 0.1636 0.6611-0.5350 (  6616 PWs)   bands (ev):

   -40.1264 -40.0569  -0.2161   2.4521   3.6427   6.3136   8.3272  10.3742
    13.7502

          k = 0.3272 0.5667 0.0000 (  6629 PWs)   bands (ev):

   -40.1283 -40.0556  -1.1249   3.3472   4.5052   7.0665   9.0471  11.1818
    12.5648

          k = 0.3272 0.5667 0.1783 (  6638 PWs)   bands (ev):

   -40.1279 -40.0559  -0.9714   3.3963   4.4532   5.9463   9.7125  10.4201
    13.0693

          k = 0.3272 0.5667 0.3567 (  6633 PWs)   bands (ev):

   -40.1269 -40.0566  -0.5970   3.3897   4.0145   5.1562   9.1071   9.8376
    14.9557

          k = 0.3272 0.5667-0.5350 (  6620 PWs)   bands (ev):

   -40.1264 -40.0569  -0.3538   3.1091   3.8689   5.0777   8.7775   9.5119
    15.7604

          k = 0.3272 0.7555 0.0000 (  6636 PWs)   bands (ev):

   -40.1062 -40.0762  -0.4758   2.6021   3.9774   7.4522   9.8477  10.3045
    11.5557

          k = 0.3272 0.7555 0.1783 (  6622 PWs)   bands (ev):

   -40.1059 -40.0763  -0.2836   2.6339   4.0208   6.1714   9.3609  10.1809
    12.9442

          k = 0.3272 0.7555 0.3567 (  6626 PWs)   bands (ev):

   -40.1055 -40.0764   0.2132   2.6911   4.0795   4.5303   8.6387   9.4802
    15.8171

          k = 0.3272 0.7555-0.5350 (  6632 PWs)   bands (ev):

   -40.1052 -40.0765   0.5755   2.6931   3.6910   4.2148   8.3721   9.1313
    16.6193

          k = 0.0000 0.1889-0.1783 (  6642 PWs)   bands (ev):

   -40.1995 -39.9973  -3.3045   3.7345   8.2824   9.0940   9.6228  13.2638
    13.9024

          k = 0.0000 0.1889-0.3567 (  6660 PWs)   bands (ev):

   -40.1970 -39.9995  -3.0931   2.3636   8.9594  10.0695  11.3909  13.5099
    13.6054

          k = 0.0000 0.3778-0.1783 (  6637 PWs)   bands (ev):

   -40.1764 -40.0150  -2.6192   4.2311   5.7403   8.4318   9.3696  12.0014
    13.4319

          k = 0.0000 0.3778-0.3567 (  6638 PWs)   bands (ev):

   -40.1744 -40.0167  -2.3745   2.8140   6.1141   8.9398  10.7834  11.5966
    12.8851

          k = 0.0000 0.5667-0.1783 (  6627 PWs)   bands (ev):

   -40.1461 -40.0400  -1.5742   3.2896   5.0409   7.6640   9.6530  10.5157
    12.7111

          k = 0.0000 0.5667-0.3567 (  6637 PWs)   bands (ev):

   -40.1447 -40.0410  -1.2600   3.2484   3.8307   8.1918   8.6556  11.8376
    12.2055

          k =-0.1636 0.4722-0.1783 (  6637 PWs)   bands (ev):

   -40.1562 -40.0314  -1.9604   4.5104   4.6136   6.9077   9.7392  11.1904
    13.8460

          k =-0.1636 0.4722-0.3567 (  6639 PWs)   bands (ev):

   -40.1547 -40.0326  -1.6759   3.2053   4.8380   7.1258   9.9313  10.9559
    13.4428

          k =-0.1636 0.6611-0.1783 (  6626 PWs)   bands (ev):

   -40.1278 -40.0560  -0.8899   2.5360   5.3587   6.3388   9.3248  10.8058
    13.3024

          k =-0.1636 0.6611-0.3567 (  6621 PWs)   bands (ev):

   -40.1269 -40.0566  -0.4985   2.6369   4.0138   6.3401   8.5345  10.7824
    13.6807

     the Fermi energy is     6.3118 ev

!    total energy              =     -37.18100506 Ry
     estimated scf accuracy    <          7.0E-10 Ry
     smearing contrib. (-TS)   =      -0.00015482 Ry
     internal energy E=F+TS    =     -37.18085024 Ry

     The total energy is F=E-TS. E is the sum of the following terms:
     one-electron contribution =     -11.45648358 Ry
     hartree contribution      =       6.37704610 Ry
     xc contribution           =      -9.99775228 Ry
     ewald contribution        =     -22.10366048 Ry

     convergence has been achieved in   8 iterations

     Forces acting on atoms (cartesian axes, Ry/au):

     atom    1 type  1   force =     0.00000000    0.00000000   -0.02130666
     atom    2 type  1   force =    -0.00000000   -0.00000000    0.02130666
     atom    3 type  2   force =     0.00000000    0.00000000    0.00000000
     The non-local contrib.  to forces
     atom    1 type  1   force =     0.00000000   -0.00000000   -0.09250362
     atom    2 type  1   force =     0.00000000   -0.00000000    0.09250362
     atom    3 type  2   force =     0.00000000   -0.00000000    0.00000000
     The ionic contribution  to forces
     atom    1 type  1   force =     0.00000003   -0.00000002   -0.08960254
     atom    2 type  1   force =    -0.00000003    0.00000002    0.08960254
     atom    3 type  2   force =    -0.00000000    0.00000000   -0.00000000
     The local contribution  to forces
     atom    1 type  1   force =     0.00000060   -0.00000034    0.16077421
     atom    2 type  1   force =    -0.00000060    0.00000034   -0.16077421
     atom    3 type  2   force =     0.00000000    0.00000000   -0.00000000
     The core correction contribution to forces
     atom    1 type  1   force =     0.00000000    0.00000000    0.00000000
     atom    2 type  1   force =     0.00000000    0.00000000    0.00000000
     atom    3 type  2   force =     0.00000000    0.00000000   -0.00000000
     The Hubbard contrib.    to forces
     atom    1 type  1   force =     0.00000000    0.00000000    0.00000000
     atom    2 type  1   force =     0.00000000    0.00000000    0.00000000
     atom    3 type  2   force =     0.00000000    0.00000000    0.00000000
     The SCF correction term to forces
     atom    1 type  1   force =    -0.00000000    0.00000000    0.00002529
     atom    2 type  1   force =     0.00000000   -0.00000000   -0.00002529
     atom    3 type  2   force =    -0.00000000   -0.00000000    0.00000000

     Total force =     0.030132     Total SCF correction =     0.000036


     Computing stress (Cartesian axis) and pressure

          total   stress  (Ry/bohr**3)                   (kbar)     P=      175.86
   0.00116078  -0.00000000   0.00000000          170.76       -0.00        0.00
   0.00000000   0.00116078   0.00000000            0.00      170.76        0.00
   0.00000000   0.00000000   0.00126481            0.00        0.00      186.06

     Energy error            =      5.3E-01 Ry
     Gradient error          =      2.1E-02 Ry/Bohr
     Cell gradient error     =      3.3E+02 kbar

     number of scf cycles    =   3
     number of bfgs steps    =   2

     enthalpy           old  =     -35.8270017549 Ry
     enthalpy           new  =     -36.3527213981 Ry

     CASE: enthalpy          _new < enthalpy          _old

     new trust radius        =       0.4302513192 bohr
ibrav =      4
 celldm(1) =      5.28330286
 celldm(3) =      1.22447785
Input lattice vectors:
     0.65884046     0.00000000     0.00000000
    -0.32942023     0.57057257     0.00000000
     0.00000000     0.00000000     0.80673555
New lattice vectors in INITIAL alat:
     0.65884046     0.00000000     0.00000000
    -0.32942023     0.57057257     0.00000000
     0.00000000     0.00000000     0.80673555
New lattice vectors in NEW alat (for information only):
     1.00000000     0.00000000     0.00000000
    -0.50000000     0.86602540     0.00000000
     0.00000000     0.00000000     1.22447785
Discrepancy in bohr =     0.000000    0.000000    0.000000
     new conv_thr            =       0.0000000021 Ry

     new unit-cell volume =    156.38608 a.u.^3 (    23.17403 Ang^3 )
     density =      3.00719 g/cm^3

CELL_PARAMETERS (alat=  8.01909293)
   0.658840458   0.000000000   0.000000000
  -0.329420229   0.570572574   0.000000000
   0.000000000   0.000000000   0.806735549

ATOMIC_POSITIONS (crystal)
Li            0.3333333300        0.6666666700        0.6496339380
Li            0.6666666700        0.3333333300        0.3503660620
Si            0.0000000000       -0.0000000000        0.0000000000



     Writing config-only to output data dir ./output/LiSi.save/
     NEW-OLD atomic charge density approx. for the potential

     negative rho (up, down):  1.531E-02 0.000E+00
     extrapolated charge    4.42288, renormalised to   10.00000

     total cpu time spent up to now is       30.8 secs

     Self-consistent Calculation

     iteration #  1     ecut=    80.00 Ry     beta= 0.70
     Davidson diagonalization with overlap
     ethr =  1.00E-06,  avg # of iterations = 11.7

     negative rho (up, down):  8.619E-06 0.000E+00

     total cpu time spent up to now is       32.8 secs

     total energy              =     -36.51818107 Ry
     estimated scf accuracy    <       0.73147251 Ry

     iteration #  2     ecut=    80.00 Ry     beta= 0.70
     Davidson diagonalization with overlap
     ethr =  7.31E-03,  avg # of iterations =  2.0

     total cpu time spent up to now is       33.5 secs

     total energy              =     -36.88720196 Ry
     estimated scf accuracy    <       0.15749023 Ry

     iteration #  3     ecut=    80.00 Ry     beta= 0.70
     Davidson diagonalization with overlap
     ethr =  1.57E-03,  avg # of iterations =  2.0

     total cpu time spent up to now is       34.1 secs

     total energy              =     -36.91099655 Ry
     estimated scf accuracy    <       0.00593001 Ry

     iteration #  4     ecut=    80.00 Ry     beta= 0.70
     Davidson diagonalization with overlap
     ethr =  5.93E-05,  avg # of iterations =  3.3

     total cpu time spent up to now is       34.9 secs

     total energy              =     -36.91170076 Ry
     estimated scf accuracy    <       0.00024475 Ry

     iteration #  5     ecut=    80.00 Ry     beta= 0.70
     Davidson diagonalization with overlap
     ethr =  2.45E-06,  avg # of iterations =  3.6

     total cpu time spent up to now is       35.6 secs

     total energy              =     -36.91172250 Ry
     estimated scf accuracy    <       0.00002114 Ry

     iteration #  6     ecut=    80.00 Ry     beta= 0.70
     Davidson diagonalization with overlap
     ethr =  2.11E-07,  avg # of iterations =  1.2

     total cpu time spent up to now is       36.2 secs

     total energy              =     -36.91172413 Ry
     estimated scf accuracy    <       0.00000009 Ry

     iteration #  7     ecut=    80.00 Ry     beta= 0.70
     Davidson diagonalization with overlap
     ethr =  8.67E-10,  avg # of iterations =  3.5

     total cpu time spent up to now is       36.9 secs

     total energy              =     -36.91172423 Ry
     estimated scf accuracy    <          6.6E-09 Ry

     iteration #  8     ecut=    80.00 Ry     beta= 0.70
     Davidson diagonalization with overlap
     ethr =  6.61E-11,  avg # of iterations =  2.0

     total cpu time spent up to now is       37.5 secs

     End of self-consistent calculation

          k = 0.0000 0.0000 0.0000 (  6665 PWs)   bands (ev):

   -36.2527 -35.5013  -0.8854   9.4718  11.0837  17.6924  17.6924  18.3939
    18.3939

          k = 0.0000 0.0000 0.2066 (  6640 PWs)   bands (ev):

   -36.2441 -35.5087  -0.8277   7.6376  13.6842  17.9231  17.9231  18.7036
    18.7036

          k = 0.0000 0.0000 0.4132 (  6658 PWs)   bands (ev):

   -36.2266 -35.5241  -0.7004   6.0573  17.4748  18.5172  18.5172  19.5576
    19.5576

          k = 0.0000 0.0000-0.6198 (  6712 PWs)   bands (ev):

   -36.2175 -35.5321  -0.6294   5.4928  18.9449  18.9449  20.2950  20.5090
    23.0943

          k = 0.0000 0.2191 0.0000 (  6636 PWs)   bands (ev):

   -36.2208 -35.5208  -0.5973   9.6034  11.0189  14.9515  15.5692  19.7577
    21.0923

          k = 0.0000 0.2191 0.2066 (  6642 PWs)   bands (ev):

   -36.2129 -35.5276  -0.5283   7.6992  13.5677  15.3711  15.8379  19.6250
    21.4358

          k = 0.0000 0.2191 0.4132 (  6660 PWs)   bands (ev):

   -36.1966 -35.5416  -0.3801   6.1263  15.4268  16.6106  17.7655  19.6953
    20.6457

          k = 0.0000 0.2191-0.6198 (  6660 PWs)   bands (ev):

   -36.1882 -35.5489  -0.2999   5.5731  15.8425  17.3442  19.1053  19.4817
    19.7392

          k = 0.0000 0.4382 0.0000 (  6622 PWs)   bands (ev):

   -36.1347 -35.5772   0.2533   9.1896  10.6667  13.3115  13.8082  19.0042
    21.2621

          k = 0.0000 0.4382 0.2066 (  6637 PWs)   bands (ev):

   -36.1282 -35.5824   0.3681   7.5234  11.9134  14.0964  14.6383  17.8358
    20.7380

          k = 0.0000 0.4382 0.4132 (  6638 PWs)   bands (ev):

   -36.1153 -35.5929   0.5872   6.1905  12.0759  14.9227  15.9645  18.4610
    19.4386

          k = 0.0000 0.4382-0.6198 (  6654 PWs)   bands (ev):

   -36.1089 -35.5980   0.6864   5.7928  11.8510  15.7262  15.8939  17.9641
    18.7614

          k = 0.0000 0.6572 0.0000 (  6620 PWs)   bands (ev):

   -36.0230 -35.6590   1.5923   6.7776  11.4752  12.7436  13.7235  16.7725
    18.9621

          k = 0.0000 0.6572 0.2066 (  6627 PWs)   bands (ev):

   -36.0185 -35.6622   1.8073   6.2081  10.9665  13.0406  14.4386  16.2066
    20.0455

          k = 0.0000 0.6572 0.4132 (  6637 PWs)   bands (ev):

   -36.0101 -35.6679   2.1898   5.6935   9.6473  13.6542  13.8910  18.1841
    18.3121

          k = 0.0000 0.6572-0.6198 (  6634 PWs)   bands (ev):

   -36.0062 -35.6704   2.3099   5.8811   8.5789  13.5634  14.7303  16.8273
    18.3779

          k = 0.0000-0.8763 0.0000 (  6620 PWs)   bands (ev):

   -35.9561 -35.7135   2.7189   5.1596  12.2406  12.3878  14.2469  15.4550
    17.7946

          k = 0.0000-0.8763 0.2066 (  6634 PWs)   bands (ev):

   -35.9534 -35.7148   2.9648   5.0795  10.4739  12.6892  13.9106  16.6329
    19.3025

          k = 0.0000-0.8763 0.4132 (  6638 PWs)   bands (ev):

   -35.9480 -35.7175   3.6368   4.8744   8.4002  13.0068  13.5490  17.9157
    17.9570

          k = 0.0000-0.8763-0.6198 (  6636 PWs)   bands (ev):

   -35.9452 -35.7189   4.3194   4.5580   7.4530  12.6719  14.3964  16.4440
    18.2689

          k = 0.1897 0.3286 0.0000 (  6635 PWs)   bands (ev):

   -36.1617 -35.5589  -0.0271   9.7912  10.5071  13.3950  13.8605  21.4205
    21.7999

          k = 0.1897 0.3286 0.2066 (  6635 PWs)   bands (ev):

   -36.1549 -35.5645   0.0575   7.8892  12.1538  13.5592  14.9573  20.3526
    21.1867

          k = 0.1897 0.3286 0.4132 (  6656 PWs)   bands (ev):

   -36.1409 -35.5760   0.2487   6.3147  13.1943  13.9642  17.2094  18.4211
    20.5646

          k = 0.1897 0.3286-0.6198 (  6662 PWs)   bands (ev):

   -36.1337 -35.5820   0.3588   5.7331  13.7913  14.1007  17.3710  17.7633
    20.8877

          k = 0.1897 0.5477 0.0000 (  6636 PWs)   bands (ev):

   -36.0605 -35.6302   1.0818   8.2606  10.2423  12.2574  13.7505  19.0973
    20.0377

          k = 0.1897 0.5477 0.2066 (  6637 PWs)   bands (ev):

   -36.0554 -35.6340   1.2317   7.2851  10.9909  11.6528  14.9230  18.3007
    19.2033

          k = 0.1897 0.5477 0.4132 (  6639 PWs)   bands (ev):

   -36.0454 -35.6414   1.5305   6.2856  10.7510  11.8338  15.3715  17.2642
    20.5341

          k = 0.1897 0.5477-0.6198 (  6642 PWs)   bands (ev):

   -36.0405 -35.6450   1.6717   6.0079  10.1669  12.3303  15.3425  16.4744
    20.9061

          k = 0.1897 0.7668 0.0000 (  6636 PWs)   bands (ev):

   -35.9573 -35.7123   2.5285   5.8905  10.3272  12.3749  14.3672  17.2102
    17.9948

          k = 0.1897 0.7668 0.2066 (  6626 PWs)   bands (ev):

   -35.9542 -35.7140   2.8041   5.5971  10.4363  11.1749  14.3849  17.6233
    18.4185

          k = 0.1897 0.7668 0.4132 (  6621 PWs)   bands (ev):

   -35.9483 -35.7171   3.3856   5.3216   8.9583  10.9513  14.1835  16.5886
    20.4536

          k = 0.1897 0.7668-0.6198 (  6616 PWs)   bands (ev):

   -35.9456 -35.7184   3.5946   5.6894   7.6437  11.1693  14.2863  15.8563
    20.6659

          k = 0.3795 0.6572 0.0000 (  6629 PWs)   bands (ev):

   -35.9584 -35.7112   2.3802   7.2413   8.3076  12.5167  14.4663  16.9064
    19.5622

          k = 0.3795 0.6572 0.2066 (  6638 PWs)   bands (ev):

   -35.9554 -35.7128   2.5681   7.1097   8.2801  11.3057  15.1679  16.0156
    20.3264

          k = 0.3795 0.6572 0.4132 (  6633 PWs)   bands (ev):

   -35.9492 -35.7162   3.0218   6.7012   8.3673   9.8392  14.8663  15.3532
    22.7811

          k = 0.3795 0.6572-0.6198 (  6620 PWs)   bands (ev):

   -35.9461 -35.7180   3.3138   6.3993   8.7222   8.9745  14.6186  15.1183
    23.8849

          k = 0.3795 0.8763 0.0000 (  6636 PWs)   bands (ev):

   -35.8809 -35.7798   3.4401   5.9929   7.7707  13.1161  15.0174  15.7188
    18.4616

          k = 0.3795 0.8763 0.2066 (  6622 PWs)   bands (ev):

   -35.8794 -35.7800   3.7410   5.9282   7.7161  11.4816  14.7177  15.5470
    20.4526

          k = 0.3795 0.8763 0.4132 (  6626 PWs)   bands (ev):

   -35.8762 -35.7804   4.5861   5.7915   7.5584   9.1853  14.3244  15.0339
    23.8498

          k = 0.3795 0.8763-0.6198 (  6632 PWs)   bands (ev):

   -35.8746 -35.7806   5.4437   5.6311   7.2411   8.1409  14.2162  14.7656
    24.6027

          k = 0.0000 0.2191-0.2066 (  6642 PWs)   bands (ev):

   -36.2130 -35.5275  -0.5335   7.7759  13.3065  15.3371  15.8714  20.2069
    21.0313

          k = 0.0000 0.2191-0.4132 (  6660 PWs)   bands (ev):

   -36.1967 -35.5416  -0.3861   6.1661  15.1719  16.6805  17.5063  20.4500
    20.4671

          k = 0.0000 0.4382-0.2066 (  6637 PWs)   bands (ev):

   -36.1286 -35.5820   0.3271   8.2911  10.4207  14.1117  14.9343  18.8322
    20.4991

          k = 0.0000 0.4382-0.4132 (  6638 PWs)   bands (ev):

   -36.1157 -35.5923   0.5368   6.5543  11.2030  14.9549  16.7994  17.6302
    19.2581

          k = 0.0000 0.6572-0.2066 (  6627 PWs)   bands (ev):

   -36.0193 -35.6613   1.6786   7.2230   9.2642  13.0468  15.0287  16.6375
    19.7602

          k = 0.0000 0.6572-0.4132 (  6637 PWs)   bands (ev):

   -36.0109 -35.6670   2.0048   7.0756   7.8891  13.9043  14.2957  17.6983
    18.2481

          k =-0.1897 0.5477-0.2066 (  6637 PWs)   bands (ev):

   -36.0559 -35.6336   1.1816   8.4261   8.9736  12.3289  15.2101  17.5086
    20.9776

          k =-0.1897 0.5477-0.4132 (  6639 PWs)   bands (ev):

   -36.0459 -35.6409   1.4640   6.8287   9.5118  12.5163  15.7704  16.6156
    20.4704

          k =-0.1897 0.7668-0.2066 (  6626 PWs)   bands (ev):

   -35.9547 -35.7135   2.6749   6.0940   9.3921  11.6807  14.7230  16.6984
    19.7341

          k =-0.1897 0.7668-0.4132 (  6621 PWs)   bands (ev):

   -35.9489 -35.7165   3.1421   6.2535   7.7938  11.4124  14.2717  16.3706
    20.4668

     the Fermi energy is    11.4074 ev

!    total energy              =     -36.91172423 Ry
     estimated scf accuracy    <          6.2E-11 Ry
     smearing contrib. (-TS)   =       0.00007934 Ry
     internal energy E=F+TS    =     -36.91180357 Ry

     The total energy is F=E-TS. E is the sum of the following terms:
     one-electron contribution =      -6.47073837 Ry
     hartree contribution      =       5.65432363 Ry
     xc contribution           =     -10.46716268 Ry
     ewald contribution        =     -25.62822615 Ry

     convergence has been achieved in   8 iterations

     Forces acting on atoms (cartesian axes, Ry/au):

     atom    1 type  1   force =     0.00000000   -0.00000000   -0.08922428
     atom    2 type  1   force =    -0.00000000    0.00000000    0.08922428
     atom    3 type  2   force =     0.00000000    0.00000000    0.00000000
     The non-local contrib.  to forces
     atom    1 type  1   force =     0.00000000   -0.00000000   -0.07283204
     atom    2 type  1   force =     0.00000000    0.00000000    0.07283204
     atom    3 type  2   force =     0.00000000    0.00000000    0.00000000
     The ionic contribution  to forces
     atom    1 type  1   force =     0.00000004   -0.00000002   -0.09844695
     atom    2 type  1   force =    -0.00000004    0.00000002    0.09844695
     atom    3 type  2   force =    -0.00000000    0.00000000   -0.00000000
     The local contribution  to forces
     atom    1 type  1   force =     0.00000050   -0.00000029    0.08205886
     atom    2 type  1   force =    -0.00000050    0.00000029   -0.08205886
     atom    3 type  2   force =    -0.00000000   -0.00000000   -0.00000000
     The core correction contribution to forces
     atom    1 type  1   force =     0.00000000    0.00000000    0.00000000
     atom    2 type  1   force =     0.00000000    0.00000000    0.00000000
     atom    3 type  2   force =     0.00000000   -0.00000000   -0.00000000
     The Hubbard contrib.    to forces
     atom    1 type  1   force =     0.00000000    0.00000000    0.00000000
     atom    2 type  1   force =     0.00000000    0.00000000    0.00000000
     atom    3 type  2   force =     0.00000000    0.00000000    0.00000000
     The SCF correction term to forces
     atom    1 type  1   force =    -0.00000000    0.00000000   -0.00000417
     atom    2 type  1   force =     0.00000000   -0.00000000    0.00000417
     atom    3 type  2   force =     0.00000000   -0.00000000    0.00000000

     Total force =     0.126182     Total SCF correction =     0.000006


     Computing stress (Cartesian axis) and pressure

          total   stress  (Ry/bohr**3)                   (kbar)     P=      939.32
   0.00624306   0.00000000   0.00000000          918.39        0.00        0.00
   0.00000000   0.00624306   0.00000000            0.00      918.39        0.00
   0.00000000   0.00000000   0.00666996            0.00        0.00      981.18

     Energy error            =      2.7E-02 Ry
     Gradient error          =      8.9E-02 Ry/Bohr
     Cell gradient error     =      4.8E+02 kbar

     number of scf cycles    =   4
     number of bfgs steps    =   3

     enthalpy           old  =     -36.3527213981 Ry
     enthalpy           new  =     -36.3801787549 Ry

     CASE: enthalpy          _new < enthalpy          _old

     new trust radius        =       0.2024890000 bohr
ibrav =      4
 celldm(1) =      5.69032233
 celldm(3) =      1.22893621
Input lattice vectors:
     0.70959676     0.00000000     0.00000000
    -0.35479838     0.61452882    -0.00000000
     0.00000000     0.00000000     0.87204914
New lattice vectors in INITIAL alat:
     0.70959676     0.00000000     0.00000000
    -0.35479838     0.61452882     0.00000000
     0.00000000     0.00000000     0.87204914
New lattice vectors in NEW alat (for information only):
     1.00000000     0.00000000     0.00000000
    -0.50000000     0.86602540     0.00000000
     0.00000000     0.00000000     1.22893621
Discrepancy in bohr =     0.000000    0.000000    0.000000
     new conv_thr            =       0.0000000089 Ry

     new unit-cell volume =    196.09683 a.u.^3 (    29.05855 Ang^3 )
     density =      2.39822 g/cm^3

CELL_PARAMETERS (alat=  8.01909293)
   0.709596756   0.000000000   0.000000000
  -0.354798378   0.614528817   0.000000000
   0.000000000   0.000000000   0.872049144

ATOMIC_POSITIONS (crystal)
Li            0.3333333300        0.6666666700        0.6466948914
Li            0.6666666700        0.3333333300        0.3533051086
Si            0.0000000000       -0.0000000000        0.0000000000



     Writing config-only to output data dir ./output/LiSi.save/
     NEW-OLD atomic charge density approx. for the potential
     extrapolated charge   12.02309, renormalised to   10.00000

     total cpu time spent up to now is       39.5 secs

     Self-consistent Calculation

     iteration #  1     ecut=    80.00 Ry     beta= 0.70
     Davidson diagonalization with overlap
     ethr =  1.00E-06,  avg # of iterations =  9.2

     total cpu time spent up to now is       41.1 secs

     total energy              =     -37.03219518 Ry
     estimated scf accuracy    <       0.01389192 Ry

     iteration #  2     ecut=    80.00 Ry     beta= 0.70
     Davidson diagonalization with overlap
     ethr =  1.39E-04,  avg # of iterations =  3.6

     total cpu time spent up to now is       42.0 secs

     total energy              =     -37.09256840 Ry
     estimated scf accuracy    <       0.01888354 Ry

     iteration #  3     ecut=    80.00 Ry     beta= 0.70
     Davidson diagonalization with overlap
     ethr =  1.39E-04,  avg # of iterations =  1.0

     total cpu time spent up to now is       42.5 secs

     total energy              =     -37.09209664 Ry
     estimated scf accuracy    <       0.00516122 Ry

     iteration #  4     ecut=    80.00 Ry     beta= 0.70
     Davidson diagonalization with overlap
     ethr =  5.16E-05,  avg # of iterations =  1.0

     total cpu time spent up to now is       43.1 secs

     total energy              =     -37.09017104 Ry
     estimated scf accuracy    <       0.00283405 Ry

     iteration #  5     ecut=    80.00 Ry     beta= 0.70
     Davidson diagonalization with overlap
     ethr =  2.83E-05,  avg # of iterations =  2.0

     total cpu time spent up to now is       43.7 secs

     total energy              =     -37.09065187 Ry
     estimated scf accuracy    <       0.00013476 Ry

     iteration #  6     ecut=    80.00 Ry     beta= 0.70
     Davidson diagonalization with overlap
     ethr =  1.35E-06,  avg # of iterations =  2.5

     total cpu time spent up to now is       44.3 secs

     total energy              =     -37.09066337 Ry
     estimated scf accuracy    <       0.00000497 Ry

     iteration #  7     ecut=    80.00 Ry     beta= 0.70
     Davidson diagonalization with overlap
     ethr =  4.97E-08,  avg # of iterations =  2.0

     total cpu time spent up to now is       44.9 secs

     total energy              =     -37.09066314 Ry
     estimated scf accuracy    <       0.00000216 Ry

     iteration #  8     ecut=    80.00 Ry     beta= 0.70
     Davidson diagonalization with overlap
     ethr =  2.16E-08,  avg # of iterations =  1.0

     total cpu time spent up to now is       45.4 secs

     total energy              =     -37.09066285 Ry
     estimated scf accuracy    <       0.00000061 Ry

     iteration #  9     ecut=    80.00 Ry     beta= 0.70
     Davidson diagonalization with overlap
     ethr =  6.08E-09,  avg # of iterations =  2.0

     total cpu time spent up to now is       46.0 secs

     End of self-consistent calculation

          k = 0.0000 0.0000 0.0000 (  6665 PWs)   bands (ev):

   -38.3533 -37.9210  -2.4917   6.8419   8.6990  13.7128  13.7128  15.3474
    15.3474

          k = 0.0000 0.0000 0.1911 (  6640 PWs)   bands (ev):

   -38.3502 -37.9237  -2.4114   5.3123  10.8464  13.8886  13.8886  15.6177
    15.6177

          k = 0.0000 0.0000 0.3822 (  6658 PWs)   bands (ev):

   -38.3437 -37.9293  -2.2312   3.8556  14.0797  14.3176  14.3176  16.3754
    16.3754

          k = 0.0000 0.0000-0.5734 (  6712 PWs)   bands (ev):

   -38.3404 -37.9322  -2.1285   3.3155  14.5959  14.5959  16.4513  17.0721
    19.3825

          k = 0.0000 0.2034 0.0000 (  6636 PWs)   bands (ev):

   -38.3360 -37.9330  -2.2280   7.0044   8.6982  11.5763  12.2654  16.0387
    17.2705

          k = 0.0000 0.2034 0.1911 (  6642 PWs)   bands (ev):

   -38.3330 -37.9355  -2.1401   5.4322  10.7082  11.9794  12.4646  15.9737
    17.6810

          k = 0.0000 0.2034 0.3822 (  6660 PWs)   bands (ev):

   -38.3270 -37.9407  -1.9445   3.9747  11.9593  13.0409  14.2856  16.0751
    17.1440

          k = 0.0000 0.2034-0.5734 (  6660 PWs)   bands (ev):

   -38.3240 -37.9433  -1.8338   3.4377  12.2651  13.5464  15.5732  15.9035
    16.3439

          k = 0.0000 0.4068 0.0000 (  6622 PWs)   bands (ev):

   -38.2886 -37.9674  -1.4507   6.9681   8.0318  10.2390  10.7854  15.4523
    17.4074

          k = 0.0000 0.4068 0.1911 (  6637 PWs)   bands (ev):

   -38.2862 -37.9693  -1.3340   5.5240   8.7220  11.0125  11.6350  14.8400
    16.6243

          k = 0.0000 0.4068 0.3822 (  6638 PWs)   bands (ev):

   -38.2815 -37.9732  -1.0864   4.2287   8.8871  11.6563  12.8260  15.3144
    15.9987

          k = 0.0000 0.4068-0.5734 (  6654 PWs)   bands (ev):

   -38.2791 -37.9751  -0.9545   3.7775   8.8479  12.2248  12.7118  14.8112
    15.2809

          k = 0.0000 0.6102 0.0000 (  6620 PWs)   bands (ev):

   -38.2268 -38.0163  -0.2413   4.7543   8.6583   9.8720  10.8368  13.7935
    15.3135

          k = 0.0000 0.6102 0.1911 (  6627 PWs)   bands (ev):

   -38.2251 -38.0175  -0.0628   4.4205   7.8796  10.1125  11.4240  13.5563
    16.2158

          k = 0.0000 0.6102 0.3822 (  6637 PWs)   bands (ev):

   -38.2220 -38.0197   0.3032   4.0183   6.7425  10.7418  10.7847  14.8818
    14.9988

          k = 0.0000 0.6102-0.5734 (  6634 PWs)   bands (ev):

   -38.2205 -38.0206   0.4783   4.0436   6.0138  10.5229  11.3757  13.8338
    14.9214

          k = 0.0000-0.8136 0.0000 (  6620 PWs)   bands (ev):

   -38.1895 -38.0481   0.7242   3.3211   9.2809   9.5654  11.3550  12.8965
    14.1356

          k = 0.0000-0.8136 0.1911 (  6634 PWs)   bands (ev):

   -38.1885 -38.0487   0.9368   3.2972   7.8287   9.8131  10.9126  13.6839
    15.6989

          k = 0.0000-0.8136 0.3822 (  6638 PWs)   bands (ev):

   -38.1864 -38.0498   1.5027   3.2037   6.0443   9.9858  10.4964  14.6287
    14.6396

          k = 0.0000-0.8136-0.5734 (  6636 PWs)   bands (ev):

   -38.1854 -38.0504   1.9572   3.0625   5.2635   9.6393  11.0879  13.5044
    14.8071

          k = 0.1762 0.3051 0.0000 (  6635 PWs)   bands (ev):

   -38.3035 -37.9563  -1.7066   7.2826   8.2416  10.3820  10.5594  17.5781
    17.7597

          k = 0.1762 0.3051 0.1911 (  6635 PWs)   bands (ev):

   -38.3010 -37.9584  -1.6072   5.6987   9.3182  10.5265  11.7567  16.5465
    17.5667

          k = 0.1762 0.3051 0.3822 (  6656 PWs)   bands (ev):

   -38.2958 -37.9627  -1.3796   4.2344   9.9889  10.9115  13.9239  14.9810
    16.6342

          k = 0.1762 0.3051-0.5734 (  6662 PWs)   bands (ev):

   -38.2932 -37.9648  -1.2462   3.6760  10.3348  11.1325  14.0622  14.5270
    16.7514

          k = 0.1762 0.5085 0.0000 (  6636 PWs)   bands (ev):

   -38.2476 -37.9993  -0.6993   6.0943   7.8334   9.2391  10.7086  15.5304
    16.6702

          k = 0.1762 0.5085 0.1911 (  6637 PWs)   bands (ev):

   -38.2457 -38.0007  -0.5582   5.3951   7.9311   8.9329  11.8668  14.8814
    15.9405

          k = 0.1762 0.5085 0.3822 (  6639 PWs)   bands (ev):

   -38.2420 -38.0035  -0.2511   4.4492   7.6353   9.1968  12.1951  14.0134
    17.0673

          k = 0.1762 0.5085-0.5734 (  6642 PWs)   bands (ev):

   -38.2402 -38.0048  -0.0825   4.0888   7.3719   9.4918  12.0613  13.3677
    16.9914

          k = 0.1762 0.7119 0.0000 (  6636 PWs)   bands (ev):

   -38.1899 -38.0477   0.5741   3.9519   7.9139   9.3596  11.4232  13.8311
    14.8110

          k = 0.1762 0.7119 0.1911 (  6626 PWs)   bands (ev):

   -38.1887 -38.0484   0.7935   3.8155   7.9951   8.1894  11.3656  14.3633
    15.1970

          k = 0.1762 0.7119 0.3822 (  6621 PWs)   bands (ev):

   -38.1866 -38.0497   1.2952   3.6807   6.3839   8.3119  10.9790  13.4436
    16.8242

          k = 0.1762 0.7119-0.5734 (  6616 PWs)   bands (ev):

   -38.1856 -38.0502   1.5705   3.8615   5.3656   8.4713  10.9429  12.8230
    16.8685

          k = 0.3523 0.6102 0.0000 (  6629 PWs)   bands (ev):

   -38.1903 -38.0474   0.4515   5.0858   6.2212   9.4289  11.4933  13.6810
    15.6178

          k = 0.3523 0.6102 0.1911 (  6638 PWs)   bands (ev):

   -38.1892 -38.0480   0.6271   5.0734   6.1669   8.2535  12.1836  12.8426
    16.2922

          k = 0.3523 0.6102 0.3822 (  6633 PWs)   bands (ev):

   -38.1869 -38.0493   1.0591   4.8703   6.0008   7.1308  11.6504  12.2678
    18.4679

          k = 0.3523 0.6102-0.5734 (  6620 PWs)   bands (ev):

   -38.1857 -38.0500   1.3448   4.5736   5.9497   6.8254  11.3383  11.9895
    19.4126

          k = 0.3523 0.8136 0.0000 (  6636 PWs)   bands (ev):

   -38.1463 -38.0875   1.3213   4.0821   5.6735   9.9472  12.1205  12.7169
    14.5277

          k = 0.3523 0.8136 0.1911 (  6622 PWs)   bands (ev):

   -38.1457 -38.0876   1.5692   4.0765   5.6804   8.4725  11.7126  12.5548
    16.2492

          k = 0.3523 0.8136 0.3822 (  6626 PWs)   bands (ev):

   -38.1446 -38.0878   2.2481   4.0521   5.6406   6.5169  11.1257  11.9282
    19.4747

          k = 0.3523 0.8136-0.5734 (  6632 PWs)   bands (ev):

   -38.1440 -38.0880   2.8330   3.9935   5.2479   5.9037  10.9223  11.6123
    20.2598

          k = 0.0000 0.2034-0.1911 (  6642 PWs)   bands (ev):

   -38.3330 -37.9355  -2.1428   5.4737  10.5644  11.9433  12.5177  16.3804
    17.1084

          k = 0.0000 0.2034-0.3822 (  6660 PWs)   bands (ev):

   -38.3270 -37.9407  -1.9477   3.9964  11.8310  13.1360  14.1335  16.6093
    16.6629

          k = 0.0000 0.4068-0.1911 (  6637 PWs)   bands (ev):

   -38.2864 -37.9692  -1.3548   6.0025   7.8799  11.0395  11.8413  15.0425
    16.5943

          k = 0.0000 0.4068-0.3822 (  6638 PWs)   bands (ev):

   -38.2816 -37.9730  -1.1126   4.4418   8.4276  11.7056  13.4869  14.2248
    15.7392

          k = 0.0000 0.6102-0.1911 (  6627 PWs)   bands (ev):

   -38.2254 -38.0172  -0.1257   5.0389   6.9028  10.1239  11.9974  13.2583
    15.9180

          k = 0.0000 0.6102-0.3822 (  6637 PWs)   bands (ev):

   -38.2222 -38.0194   0.2124   4.9726   5.5787  10.8057  11.1331  14.4078
    14.9081

          k =-0.1762 0.5085-0.1911 (  6637 PWs)   bands (ev):

   -38.2458 -38.0006  -0.5832   6.2613   6.5789   9.3092  12.1780  14.0019
    17.0359

          k =-0.1762 0.5085-0.3822 (  6639 PWs)   bands (ev):

   -38.2421 -38.0033  -0.2848   4.8042   6.9482   9.5171  12.5169  13.4910
    16.5791

          k =-0.1762 0.7119-0.1911 (  6626 PWs)   bands (ev):

   -38.1889 -38.0483   0.7355   4.0878   7.1719   8.7002  11.6761  13.4625
    16.2347

          k =-0.1762 0.7119-0.3822 (  6621 PWs)   bands (ev):

   -38.1867 -38.0495   1.1917   4.2101   5.6757   8.5867  11.0496  13.2775
    16.7297

     the Fermi energy is     8.5665 ev

!    total energy              =     -37.09066296 Ry
     estimated scf accuracy    <          3.3E-09 Ry
     smearing contrib. (-TS)   =      -0.00006779 Ry
     internal energy E=F+TS    =     -37.09059517 Ry

     The total energy is F=E-TS. E is the sum of the following terms:
     one-electron contribution =      -9.12158339 Ry
     hartree contribution      =       6.00863930 Ry
     xc contribution           =     -10.20850394 Ry
     ewald contribution        =     -23.76914714 Ry

     convergence has been achieved in   9 iterations

     Forces acting on atoms (cartesian axes, Ry/au):

     atom    1 type  1   force =     0.00000000   -0.00000000   -0.04653490
     atom    2 type  1   force =    -0.00000000   -0.00000000    0.04653490
     atom    3 type  2   force =     0.00000000   -0.00000000    0.00000000
     The non-local contrib.  to forces
     atom    1 type  1   force =     0.00000000    0.00000000   -0.09118904
     atom    2 type  1   force =     0.00000000   -0.00000000    0.09118904
     atom    3 type  2   force =     0.00000000    0.00000000    0.00000000
     The ionic contribution  to forces
     atom    1 type  1   force =     0.00000003   -0.00000002   -0.05281883
     atom    2 type  1   force =    -0.00000003    0.00000002    0.05281883
     atom    3 type  2   force =    -0.00000000    0.00000000   -0.00000000
     The local contribution  to forces
     atom    1 type  1   force =     0.00000055   -0.00000032    0.09743550
     atom    2 type  1   force =    -0.00000055    0.00000032   -0.09743550
     atom    3 type  2   force =     0.00000000   -0.00000000    0.00000000
[...]
        k(    2) = (   0.0000000   0.0000000   0.1271081), wk =   0.0104167
        k(    3) = (   0.0000000   0.0000000   0.2542162), wk =   0.0104167
        k(    4) = (   0.0000000   0.0000000  -0.3813244), wk =   0.0052083
        k(    5) = (   0.0000000   0.2564262   0.0000000), wk =   0.0312500
        k(    6) = (   0.0000000   0.2564262   0.1271081), wk =   0.0312500
        k(    7) = (   0.0000000   0.2564262   0.2542162), wk =   0.0312500
        k(    8) = (   0.0000000   0.2564262  -0.3813244), wk =   0.0312500
        k(    9) = (   0.0000000   0.5128524   0.0000000), wk =   0.0312500
        k(   10) = (   0.0000000   0.5128524   0.1271081), wk =   0.0312500
        k(   11) = (   0.0000000   0.5128524   0.2542162), wk =   0.0312500
        k(   12) = (   0.0000000   0.5128524  -0.3813244), wk =   0.0312500
        k(   13) = (   0.0000000   0.7692786   0.0000000), wk =   0.0312500
        k(   14) = (   0.0000000   0.7692786   0.1271081), wk =   0.0312500
        k(   15) = (   0.0000000   0.7692786   0.2542162), wk =   0.0312500
        k(   16) = (   0.0000000   0.7692786  -0.3813244), wk =   0.0312500
        k(   17) = (   0.0000000  -1.0257048   0.0000000), wk =   0.0156250
        k(   18) = (   0.0000000  -1.0257048   0.1271081), wk =   0.0312500
        k(   19) = (   0.0000000  -1.0257048   0.2542162), wk =   0.0312500
        k(   20) = (   0.0000000  -1.0257048  -0.3813244), wk =   0.0156250
        k(   21) = (   0.2220716   0.3846393   0.0000000), wk =   0.0312500
        k(   22) = (   0.2220716   0.3846393   0.1271081), wk =   0.0625000
        k(   23) = (   0.2220716   0.3846393   0.2542162), wk =   0.0625000
        k(   24) = (   0.2220716   0.3846393  -0.3813244), wk =   0.0312500
        k(   25) = (   0.2220716   0.6410655   0.0000000), wk =   0.0625000
        k(   26) = (   0.2220716   0.6410655   0.1271081), wk =   0.0625000
        k(   27) = (   0.2220716   0.6410655   0.2542162), wk =   0.0625000
        k(   28) = (   0.2220716   0.6410655  -0.3813244), wk =   0.0625000
        k(   29) = (   0.2220716   0.8974917   0.0000000), wk =   0.0625000
        k(   30) = (   0.2220716   0.8974917   0.1271081), wk =   0.0625000
        k(   31) = (   0.2220716   0.8974917   0.2542162), wk =   0.0625000
        k(   32) = (   0.2220716   0.8974917  -0.3813244), wk =   0.0625000
        k(   33) = (   0.4441432   0.7692786   0.0000000), wk =   0.0312500
        k(   34) = (   0.4441432   0.7692786   0.1271081), wk =   0.0625000
        k(   35) = (   0.4441432   0.7692786   0.2542162), wk =   0.0625000
        k(   36) = (   0.4441432   0.7692786  -0.3813244), wk =   0.0312500
        k(   37) = (   0.4441432   1.0257048   0.0000000), wk =   0.0312500
        k(   38) = (   0.4441432   1.0257048   0.1271081), wk =   0.0625000
        k(   39) = (   0.4441432   1.0257048   0.2542162), wk =   0.0625000
        k(   40) = (   0.4441432   1.0257048  -0.3813244), wk =   0.0312500
        k(   41) = (   0.0000000   0.2564262  -0.1271081), wk =   0.0312500
        k(   42) = (   0.0000000   0.2564262  -0.2542162), wk =   0.0312500
        k(   43) = (   0.0000000   0.5128524  -0.1271081), wk =   0.0312500
        k(   44) = (   0.0000000   0.5128524  -0.2542162), wk =   0.0312500
        k(   45) = (   0.0000000   0.7692786  -0.1271081), wk =   0.0312500
        k(   46) = (   0.0000000   0.7692786  -0.2542162), wk =   0.0312500
        k(   47) = (  -0.2220716   0.6410655  -0.1271081), wk =   0.0625000
        k(   48) = (  -0.2220716   0.6410655  -0.2542162), wk =   0.0625000
        k(   49) = (  -0.2220716   0.8974917  -0.1271081), wk =   0.0625000
        k(   50) = (  -0.2220716   0.8974917  -0.2542162), wk =   0.0625000

     Dense  grid:    17885 G-vectors     FFT dimensions: (  25,  25,  60)

     Estimated max dynamical RAM per process >      15.21 MB

     Estimated total dynamical RAM >     121.69 MB

     Initial potential from superposition of free atoms

     starting charge       9.9903, renormalised to      10.0000
     Starting wfcs are    8 randomized atomic wfcs +    1 random wfcs

     total cpu time spent up to now is      208.8 secs

     Self-consistent Calculation

     iteration #  1     ecut=    80.00 Ry     beta= 0.70
     Davidson diagonalization with overlap
     c_bands:  2 eigenvalues not converged
     c_bands:  2 eigenvalues not converged
     c_bands:  1 eigenvalues not converged
     c_bands:  1 eigenvalues not converged
     c_bands:  1 eigenvalues not converged
     c_bands:  1 eigenvalues not converged
     ethr =  1.00E-06,  avg # of iterations = 15.9

     total cpu time spent up to now is      209.5 secs

     total energy              =     -37.12180949 Ry
     estimated scf accuracy    <       0.04103830 Ry

     iteration #  2     ecut=    80.00 Ry     beta= 0.70
     Davidson diagonalization with overlap
     ethr =  4.10E-04,  avg # of iterations =  2.1

     total cpu time spent up to now is      209.7 secs

     total energy              =     -37.10962476 Ry
     estimated scf accuracy    <       0.17585479 Ry

     iteration #  3     ecut=    80.00 Ry     beta= 0.70
     Davidson diagonalization with overlap
     ethr =  4.10E-04,  avg # of iterations =  1.8

     total cpu time spent up to now is      209.9 secs

     total energy              =     -37.14146377 Ry
     estimated scf accuracy    <       0.00154346 Ry

     iteration #  4     ecut=    80.00 Ry     beta= 0.70
     Davidson diagonalization with overlap
     ethr =  1.54E-05,  avg # of iterations =  1.7

     total cpu time spent up to now is      210.1 secs

     total energy              =     -37.14162497 Ry
     estimated scf accuracy    <       0.00002373 Ry

     iteration #  5     ecut=    80.00 Ry     beta= 0.70
     Davidson diagonalization with overlap
     ethr =  2.37E-07,  avg # of iterations =  2.1

     total cpu time spent up to now is      210.3 secs

     total energy              =     -37.14163020 Ry
     estimated scf accuracy    <       0.00000023 Ry

     iteration #  6     ecut=    80.00 Ry     beta= 0.70
     Davidson diagonalization with overlap
     ethr =  2.30E-09,  avg # of iterations =  3.0

     total cpu time spent up to now is      210.5 secs

     total energy              =     -37.14163028 Ry
     estimated scf accuracy    <       0.00000004 Ry

     iteration #  7     ecut=    80.00 Ry     beta= 0.70
     Davidson diagonalization with overlap
     ethr =  3.63E-10,  avg # of iterations =  1.4

     total cpu time spent up to now is      210.7 secs

     total energy              =     -37.14163028 Ry
     estimated scf accuracy    <          2.0E-10 Ry

     iteration #  8     ecut=    80.00 Ry     beta= 0.70
     Davidson diagonalization with overlap
     ethr =  1.98E-12,  avg # of iterations =  3.3

     total cpu time spent up to now is      210.9 secs

     total energy              =     -37.14163028 Ry
     estimated scf accuracy    <          1.4E-10 Ry

     iteration #  9     ecut=    80.00 Ry     beta= 0.70
     Davidson diagonalization with overlap
     ethr =  1.36E-12,  avg # of iterations =  1.1

     total cpu time spent up to now is      211.1 secs

     End of self-consistent calculation

          k = 0.0000 0.0000 0.0000 (  2237 PWs)   bands (ev):

   -36.8288 -36.6500  -5.3309   2.9004   5.9821  14.2247  18.4493  24.7682
    24.7683

          k = 0.0000 0.0000 0.1271 (  2244 PWs)   bands (ev):

   -36.8284 -36.6504  -5.3320   2.8530   6.1740  13.4097  19.6376  23.5211
    23.5211

          k = 0.0000 0.0000 0.2542 (  2226 PWs)   bands (ev):

   -36.8277 -36.6511  -5.3340   2.7673   6.5977  12.2040  22.0187  23.5486
    23.5486

          k = 0.0000 0.0000-0.3813 (  2214 PWs)   bands (ev):

   -36.8274 -36.6515  -5.3350   2.7282   6.8415  11.6715  23.5626  24.1687
    24.8114

          k = 0.0000 0.2564 0.0000 (  2257 PWs)   bands (ev):

   -36.7976 -36.6315  -4.8213   3.3101   6.2583  14.4936  17.7571  19.3394
    21.0749

          k = 0.0000 0.2564 0.1271 (  2257 PWs)   bands (ev):

   -36.7972 -36.6318  -4.8222   3.2497   6.4761  13.6479  18.0988  20.1531
    21.0921

          k = 0.0000 0.2564 0.2542 (  2260 PWs)   bands (ev):

   -36.7966 -36.6325  -4.8243   3.1451   6.9610  12.3383  18.5038  21.1293
    21.8918

          k = 0.0000 0.2564-0.3813 (  2256 PWs)   bands (ev):

   -36.7963 -36.6328  -4.8255   3.0992   7.2487  11.7350  18.6658  21.1493
    23.0979

          k = 0.0000 0.5129 0.0000 (  2257 PWs)   bands (ev):

   -36.7197 -36.5886  -3.3056   4.5232   7.0434  12.2268  16.1252  17.8749
    18.9491

          k = 0.0000 0.5129 0.1271 (  2252 PWs)   bands (ev):

   -36.7195 -36.5889  -3.3055   4.4079   7.3268  12.4681  14.5956  18.3548
    18.9711

          k = 0.0000 0.5129 0.2542 (  2262 PWs)   bands (ev):

   -36.7190 -36.5893  -3.3075   4.2423   7.9816  12.1348  13.4639  18.7111
    19.0180

          k = 0.0000 0.5129-0.3813 (  2252 PWs)   bands (ev):

   -36.7188 -36.5895  -3.3096   4.1829   8.4615  11.2522  13.6292  18.9501
    19.0430

          k = 0.0000 0.7693 0.0000 (  2235 PWs)   bands (ev):

   -36.6355 -36.5516  -0.8277   6.2103   6.9245   8.9388  14.9605  15.7925
    17.8308

          k = 0.0000 0.7693 0.1271 (  2243 PWs)   bands (ev):

   -36.6353 -36.5518  -0.8234   5.8993   7.0762   9.5070  13.9961  16.6235
    16.7608

          k = 0.0000 0.7693 0.2542 (  2243 PWs)   bands (ev):

   -36.6351 -36.5520  -0.8246   5.7026   7.1385  10.4626  12.6661  16.0218
    17.6659

          k = 0.0000 0.7693-0.3813 (  2232 PWs)   bands (ev):

   -36.6350 -36.5520  -0.8299   5.7188   7.1281  10.7891  12.1575  15.8397
    17.7726

          k = 0.0000-1.0257 0.0000 (  2230 PWs)   bands (ev):

   -36.5952 -36.5414   2.1149   3.0805   8.1960   9.3428  12.8797  14.0259
    17.2355

          k = 0.0000-1.0257 0.1271 (  2224 PWs)   bands (ev):

   -36.5952 -36.5414   2.1052   3.0976   7.9150   9.7123  13.0253  14.0522
    17.2625

          k = 0.0000-1.0257 0.2542 (  2236 PWs)   bands (ev):

   -36.5951 -36.5415   2.0865   3.1315   7.5585  10.2486  13.4400  14.0880
    16.9008

          k = 0.0000-1.0257-0.3813 (  2248 PWs)   bands (ev):

   -36.5951 -36.5415   2.0776   3.1483   7.4222  10.4746  13.9103  13.9393
    16.3197

          k = 0.2221 0.3846 0.0000 (  2247 PWs)   bands (ev):

   -36.7430 -36.6008  -3.8085   4.1243   6.8028  14.5370  14.9243  18.0589
    18.4306

          k = 0.2221 0.3846 0.1271 (  2258 PWs)   bands (ev):

   -36.7427 -36.6011  -3.8095   4.0382   7.0775  13.6476  15.1764  17.3854
    19.9082

          k = 0.2221 0.3846 0.2542 (  2254 PWs)   bands (ev):

   -36.7422 -36.6016  -3.8116   3.8926   7.6924  12.3790  15.2671  17.1638
    21.0988

          k = 0.2221 0.3846-0.3813 (  2260 PWs)   bands (ev):

   -36.7420 -36.6018  -3.8127   3.8294   8.0726  11.7544  15.2819  17.1296
    21.1065

          k = 0.2221 0.6411 0.0000 (  2242 PWs)   bands (ev):

   -36.6615 -36.5612  -1.8098   5.7114   7.7124  10.1409  13.7220  17.0506
    17.4997

          k = 0.2221 0.6411 0.1271 (  2238 PWs)   bands (ev):

   -36.6614 -36.5614  -1.8089   5.5290   8.0143  10.4254  13.3983  15.6169
    17.7160

          k = 0.2221 0.6411 0.2542 (  2245 PWs)   bands (ev):

   -36.6611 -36.5617  -1.8103   5.3014   8.6551  10.7340  12.5817  14.7377
    17.4267

          k = 0.2221 0.6411-0.3813 (  2248 PWs)   bands (ev):

   -36.6609 -36.5618  -1.8125   5.2295   9.2145  10.3333  12.3982  14.5961
    17.2858

          k = 0.2221 0.8975 0.0000 (  2232 PWs)   bands (ev):

   -36.5961 -36.5407   1.0981   4.9870   7.9434   9.4964  12.5120  14.0480
    14.8155

          k = 0.2221 0.8975 0.1271 (  2235 PWs)   bands (ev):

   -36.5960 -36.5408   1.1055   4.9361   7.7456  10.0970  12.3817  13.6433
    15.1139

          k = 0.2221 0.8975 0.2542 (  2238 PWs)   bands (ev):

   -36.5959 -36.5409   1.1039   4.9453   7.4459  11.0226  12.3801  12.9835
    15.4779

          k = 0.2221 0.8975-0.3813 (  2232 PWs)   bands (ev):

   -36.5959 -36.5409   1.0950   5.0097   7.2839  11.2744  12.5414  12.8008
    15.6692

          k = 0.4441 0.7693 0.0000 (  2234 PWs)   bands (ev):

   -36.5970 -36.5400   0.6350   7.4203   8.1490   8.1738  10.7520  14.4663
    16.0985

          k = 0.4441 0.7693 0.1271 (  2233 PWs)   bands (ev):

   -36.5969 -36.5401   0.6350   7.1720   8.0881   8.5285  10.9414  14.3059
    15.8576

          k = 0.4441 0.7693 0.2542 (  2228 PWs)   bands (ev):

   -36.5968 -36.5402   0.6349   6.8797   8.0650   8.8960  11.5714  14.0950
    14.4632

          k = 0.4441 0.7693-0.3813 (  2240 PWs)   bands (ev):

   -36.5967 -36.5403   0.6349   6.7721   8.0557   9.0183  12.3184  13.3557
    14.0555

          k = 0.4441 1.0257 0.0000 (  2234 PWs)   bands (ev):

   -36.5621 -36.5394   3.5465   4.4508   7.9154   9.6555  11.0299  12.7699
    13.7635

          k = 0.4441 1.0257 0.1271 (  2231 PWs)   bands (ev):

   -36.5620 -36.5394   3.5369   4.4642   7.9427   9.4072  11.1732  12.8843
    14.1911

          k = 0.4441 1.0257 0.2542 (  2228 PWs)   bands (ev):

   -36.5620 -36.5394   3.5180   4.4908   8.0503   8.9313  11.4289  13.2953
    15.0127

          k = 0.4441 1.0257-0.3813 (  2220 PWs)   bands (ev):

   -36.5620 -36.5394   3.5087   4.5041   8.1803   8.6402  11.5525  13.6382
    15.4572

          k = 0.0000 0.2564-0.1271 (  2257 PWs)   bands (ev):

   -36.7972 -36.6318  -4.8224   3.2523   6.4783  13.5483  18.6598  19.6909
    21.0938

          k = 0.0000 0.2564-0.2542 (  2260 PWs)   bands (ev):

   -36.7966 -36.6325  -4.8246   3.1474   6.9653  12.2820  18.7420  21.1311
    21.7963

          k = 0.0000 0.5129-0.1271 (  2252 PWs)   bands (ev):

   -36.7195 -36.5888  -3.3076   4.4352   7.3659  11.8227  15.3925  18.9722
    19.4001

          k = 0.0000 0.5129-0.2542 (  2262 PWs)   bands (ev):

   -36.7191 -36.5893  -3.3096   4.2661   8.0729  11.3181  14.2949  19.0192
    19.2464

          k = 0.0000 0.7693-0.1271 (  2243 PWs)   bands (ev):

   -36.6354 -36.5517  -0.8330   6.2320   6.9131   9.0099  14.6629  15.5238
    17.6905

          k = 0.0000 0.7693-0.2542 (  2243 PWs)   bands (ev):

   -36.6352 -36.5519  -0.8342   5.9345   7.0559   9.7387  13.3669  15.7676
    17.7445

          k =-0.2221 0.6411-0.1271 (  2238 PWs)   bands (ev):

   -36.6614 -36.5613  -1.8120   5.5827   8.1451   9.8881  13.7619  15.9855
    17.4784

          k =-0.2221 0.6411-0.2542 (  2245 PWs)   bands (ev):

   -36.6611 -36.5616  -1.8134   5.3451   9.1133   9.6373  13.2874  14.8762
    17.3321

          k =-0.2221 0.8975-0.1271 (  2235 PWs)   bands (ev):

   -36.5961 -36.5407   1.0893   5.0505   7.6857   9.7495  12.6349  13.8798
    15.1095

          k =-0.2221 0.8975-0.2542 (  2238 PWs)   bands (ev):

   -36.5960 -36.5408   1.0877   5.0644   7.3630  10.5139  12.6052  13.4699
    15.5717

     the Fermi energy is     8.7610 ev

!    total energy              =     -37.14163028 Ry
     estimated scf accuracy    <          3.4E-13 Ry
     smearing contrib. (-TS)   =      -0.00003520 Ry
     internal energy E=F+TS    =     -37.14159508 Ry

     The total energy is F=E-TS. E is the sum of the following terms:
     one-electron contribution =      -8.26099360 Ry
     hartree contribution      =       5.88001819 Ry
     xc contribution           =     -10.33286721 Ry
     ewald contribution        =     -24.42775246 Ry

     convergence has been achieved in   9 iterations

     Forces acting on atoms (cartesian axes, Ry/au):

     atom    1 type  1   force =    -0.00000000   -0.00000000   -0.00010208
     atom    2 type  1   force =     0.00000000   -0.00000000    0.00010208
     atom    3 type  2   force =     0.00000000    0.00000000    0.00000000
     The non-local contrib.  to forces
     atom    1 type  1   force =     0.00000000    0.00000000   -0.00433585
     atom    2 type  1   force =     0.00000000    0.00000000    0.00433585
     atom    3 type  2   force =    -0.00000000    0.00000000    0.00000000
     The ionic contribution  to forces
     atom    1 type  1   force =     0.00000000   -0.00000000   -0.62197050
     atom    2 type  1   force =    -0.00000000    0.00000000    0.62197050
     atom    3 type  2   force =     0.00000000    0.00000000    0.00000000
     The local contribution  to forces
     atom    1 type  1   force =     0.00000044   -0.00000025    0.62620342
     atom    2 type  1   force =    -0.00000044    0.00000025   -0.62620342
     atom    3 type  2   force =    -0.00000000   -0.00000000   -0.00000000
     The core correction contribution to forces
     atom    1 type  1   force =     0.00000000    0.00000000    0.00000000
     atom    2 type  1   force =     0.00000000    0.00000000    0.00000000
     atom    3 type  2   force =     0.00000000    0.00000000   -0.00000000
     The Hubbard contrib.    to forces
     atom    1 type  1   force =     0.00000000    0.00000000    0.00000000
     atom    2 type  1   force =     0.00000000    0.00000000    0.00000000
     atom    3 type  2   force =     0.00000000    0.00000000    0.00000000
     The SCF correction term to forces
     atom    1 type  1   force =     0.00000000   -0.00000000    0.00000086
     atom    2 type  1   force =    -0.00000000    0.00000000   -0.00000086
     atom    3 type  2   force =     0.00000000   -0.00000000   -0.00000000

     Total force =     0.000144     Total SCF correction =     0.000001


     Computing stress (Cartesian axis) and pressure

          total   stress  (Ry/bohr**3)                   (kbar)     P=      499.90
   0.00339584  -0.00000000   0.00000000          499.55       -0.00        0.00
  -0.00000000   0.00339584   0.00000000           -0.00      499.55        0.00
   0.00000000   0.00000000   0.00340310            0.00        0.00      500.61


     Writing all to output data dir ./output/LiSi.save/

     init_run     :      0.98s CPU      1.24s WALL (       2 calls)
     electrons    :    136.71s CPU    152.33s WALL (      31 calls)
     update_pot   :     14.72s CPU     15.02s WALL (      29 calls)
     forces       :      9.04s CPU      9.26s WALL (      31 calls)
     stress       :     30.34s CPU     32.45s WALL (      31 calls)

     Called by init_run:
     wfcinit      :      0.25s CPU      0.27s WALL (       2 calls)
     potinit      :      0.32s CPU      0.39s WALL (       2 calls)
     hinit0       :      0.36s CPU      0.45s WALL (       2 calls)

     Called by electrons:
     c_bands      :    116.49s CPU    130.04s WALL (     228 calls)
     sum_band     :     18.01s CPU     18.78s WALL (     228 calls)
     v_of_rho     :      2.21s CPU      2.74s WALL (     257 calls)
     mix_rho      :      0.15s CPU      0.21s WALL (     228 calls)

     Called by c_bands:
     init_us_2    :      4.55s CPU      4.93s WALL (   26000 calls)
     init_us_2:cp :      4.51s CPU      4.90s WALL (   26000 calls)
     cegterg      :    108.83s CPU    112.55s WALL (   11400 calls)

     Called by *egterg:
     cdiaghg      :      4.12s CPU      4.35s WALL (   42944 calls)
     h_psi        :     96.00s CPU     99.17s WALL (   44594 calls)
     g_psi        :      0.52s CPU      0.54s WALL (   33094 calls)

     Called by h_psi:
     h_psi:calbec :      3.96s CPU      4.10s WALL (   44594 calls)
     vloc_psi     :     88.57s CPU     91.45s WALL (   44594 calls)
     add_vuspsi   :      3.09s CPU      3.20s WALL (   44594 calls)

     General routines
     calbec       :      4.88s CPU      5.07s WALL (   52344 calls)
     fft          :      1.37s CPU      2.03s WALL (    3345 calls)
     ffts         :      0.08s CPU      0.12s WALL (     228 calls)
     fftw         :     92.37s CPU     95.31s WALL (  689838 calls)

     Parallel routines

     PWSCF        :   3m12.25s CPU   3m31.81s WALL


   This run was terminated on:  13:19:16  27Dec2024            

=------------------------------------------------------------------------------=
   JOB DONE.
=------------------------------------------------------------------------------=
