
     Program PWSCF v.7.2 starts on 27Dec2024 at  2: 6:32 

     This program is part of the open-source Quantum ESPRESSO suite
     for quantum simulation of materials; please cite
         "P. Giannozzi et al., J. Phys.:Condens. Matter 21 395502 (2009);
         "P. Giannozzi et al., J. Phys.:Condens. Matter 29 465901 (2017);
         "P. Giannozzi et al., J. Chem. Phys. 152 154105 (2020);
          URL http://www.quantum-espresso.org", 
     in publications or presentations arising from this work. More details at
     http://www.quantum-espresso.org/quote

     Parallel version (MPI & OpenMP), running on       8 processor cores
     Number of MPI processes:                 8
     Threads/MPI process:                     1

     MPI processes distributed on     1 nodes
     482162 MiB available memory on the printing compute node when the environment starts

     Waiting for input...
     Reading input from standard input

     Current dimensions of program PWSCF are:
     Max number of different atomic species (ntypx) = 10
     Max number of k-points (npk) =  40000
     Max angular momentum in pseudopotentials (lmaxx) =  4

     R & G space division:  proc/nbgrp/npool/nimage =       8
     Subspace diagonalization in iterative solution of the eigenvalue problem:
     a serial algorithm will be used


     Parallelization info
     --------------------
     sticks:   dense  smooth     PW     G-vecs:    dense   smooth      PW
     Min         120     120     35                 7659     7659    1175
     Max         122     122     36                 7668     7668    1178
     Sum         967     967    283                61301    61301    9405

     Using Slab Decomposition



     bravais-lattice index     =            4
     lattice parameter (alat)  =       6.6412  a.u.
     unit-cell volume          =     634.7434 (a.u.)^3
     number of atoms/cell      =            3
     number of atomic types    =            2
     number of electrons       =        10.00
     number of Kohn-Sham states=            9
     kinetic-energy cutoff     =      80.0000  Ry
     charge density cutoff     =     320.0000  Ry
     scf convergence threshold =      1.0E-08
     mixing beta               =       0.7000
     number of iterations used =            8  plain     mixing
     energy convergence thresh.=      1.0E-04
     force convergence thresh. =      1.0E-03
     press convergence thresh. =      1.0E+00
     Exchange-correlation= PBE
                           (   1   4   3   4   0   0   0)
     nstep                     =           50


     celldm(1)=   6.641201  celldm(2)=   0.000000  celldm(3)=   2.502233
     celldm(4)=   0.000000  celldm(5)=   0.000000  celldm(6)=   0.000000

     crystal axes: (cart. coord. in units of alat)
               a(1) = (   1.000000   0.000000   0.000000 )  
               a(2) = (  -0.500000   0.866025   0.000000 )  
               a(3) = (   0.000000   0.000000   2.502233 )  

     reciprocal axes: (cart. coord. in units 2 pi/alat)
               b(1) = (  1.000000  0.577350 -0.000000 )  
               b(2) = (  0.000000  1.154701  0.000000 )  
               b(3) = (  0.000000 -0.000000  0.399643 )  


     PseudoPot. # 1 for Li read from file:
     ../pseudo/Li_ONCV_PBE_sr.upf
     MD5 check sum: 50ff420e78310ffa21704f3361e624a4
     Pseudo is Norm-conserving, Zval =  3.0
     Generated using ONCVPSP code by D. R. Hamann
     Using radial grid of 1944 points,  4 beta functions with: 
                l(1) =   0
                l(2) =   0
                l(3) =   1
                l(4) =   1

     PseudoPot. # 2 for Si read from file:
     ../pseudo/Si_ONCV_PBE_sr.upf
     MD5 check sum: e543d271109d17c80368dfa7c482276d
     Pseudo is Norm-conserving + core correction, Zval =  4.0
     Generated using ONCVPSP code by D. R. Hamann
     Using radial grid of 1510 points,  6 beta functions with: 
                l(1) =   0
                l(2) =   0
                l(3) =   1
                l(4) =   1
                l(5) =   2
                l(6) =   2

     atomic species   valence    mass     pseudopotential
        Li             3.00     6.94100     Li( 1.00)
        Si             4.00    28.08550     Si( 1.00)

     24 Sym. Ops., with inversion, found



   Cartesian axes

     site n.     atom                  positions (alat units)
         1           Li  tau(   1) = (   0.0000000   0.0000000   0.4925720  )
         2           Li  tau(   2) = (   0.0000000   0.0000000   2.0096607  )
         3           Si  tau(   3) = (   0.0000000   0.0000000   1.2511164  )

     number of k points=    48  Marzari-Vanderbilt smearing, width (Ry)=  0.0200
                       cart. coord. in units 2pi/alat
        k(    1) = (   0.0000000   0.0000000   0.0000000), wk =   0.0041322
        k(    2) = (   0.0000000   0.0000000   0.0999108), wk =   0.0082645
        k(    3) = (   0.0000000   0.0000000  -0.1998215), wk =   0.0041322
        k(    4) = (   0.0000000   0.1049728   0.0000000), wk =   0.0247934
        k(    5) = (   0.0000000   0.1049728   0.0999108), wk =   0.0495868
        k(    6) = (   0.0000000   0.1049728  -0.1998215), wk =   0.0247934
        k(    7) = (   0.0000000   0.2099456   0.0000000), wk =   0.0247934
        k(    8) = (   0.0000000   0.2099456   0.0999108), wk =   0.0495868
        k(    9) = (   0.0000000   0.2099456  -0.1998215), wk =   0.0247934
        k(   10) = (   0.0000000   0.3149183   0.0000000), wk =   0.0247934
        k(   11) = (   0.0000000   0.3149183   0.0999108), wk =   0.0495868
        k(   12) = (   0.0000000   0.3149183  -0.1998215), wk =   0.0247934
        k(   13) = (   0.0000000   0.4198911   0.0000000), wk =   0.0247934
        k(   14) = (   0.0000000   0.4198911   0.0999108), wk =   0.0495868
        k(   15) = (   0.0000000   0.4198911  -0.1998215), wk =   0.0247934
        k(   16) = (   0.0000000   0.5248639   0.0000000), wk =   0.0247934
        k(   17) = (   0.0000000   0.5248639   0.0999108), wk =   0.0495868
        k(   18) = (   0.0000000   0.5248639  -0.1998215), wk =   0.0247934
        k(   19) = (   0.0909091   0.1574592   0.0000000), wk =   0.0247934
        k(   20) = (   0.0909091   0.1574592   0.0999108), wk =   0.0495868
        k(   21) = (   0.0909091   0.1574592  -0.1998215), wk =   0.0247934
        k(   22) = (   0.0909091   0.2624319   0.0000000), wk =   0.0495868
        k(   23) = (   0.0909091   0.2624319   0.0999108), wk =   0.0991736
        k(   24) = (   0.0909091   0.2624319  -0.1998215), wk =   0.0495868
        k(   25) = (   0.0909091   0.3674047   0.0000000), wk =   0.0495868
        k(   26) = (   0.0909091   0.3674047   0.0999108), wk =   0.0991736
        k(   27) = (   0.0909091   0.3674047  -0.1998215), wk =   0.0495868
        k(   28) = (   0.0909091   0.4723775   0.0000000), wk =   0.0495868
        k(   29) = (   0.0909091   0.4723775   0.0999108), wk =   0.0991736
        k(   30) = (   0.0909091   0.4723775  -0.1998215), wk =   0.0495868
        k(   31) = (   0.0909091   0.5773503   0.0000000), wk =   0.0247934
        k(   32) = (   0.0909091   0.5773503   0.0999108), wk =   0.0495868
        k(   33) = (   0.0909091   0.5773503  -0.1998215), wk =   0.0247934
        k(   34) = (   0.1818182   0.3149183   0.0000000), wk =   0.0247934
        k(   35) = (   0.1818182   0.3149183   0.0999108), wk =   0.0495868
        k(   36) = (   0.1818182   0.3149183  -0.1998215), wk =   0.0247934
        k(   37) = (   0.1818182   0.4198911   0.0000000), wk =   0.0495868
        k(   38) = (   0.1818182   0.4198911   0.0999108), wk =   0.0991736
        k(   39) = (   0.1818182   0.4198911  -0.1998215), wk =   0.0495868
        k(   40) = (   0.1818182   0.5248639   0.0000000), wk =   0.0495868
        k(   41) = (   0.1818182   0.5248639   0.0999108), wk =   0.0991736
        k(   42) = (   0.1818182   0.5248639  -0.1998215), wk =   0.0495868
        k(   43) = (   0.2727273   0.4723775   0.0000000), wk =   0.0247934
        k(   44) = (   0.2727273   0.4723775   0.0999108), wk =   0.0495868
        k(   45) = (   0.2727273   0.4723775  -0.1998215), wk =   0.0247934
        k(   46) = (   0.2727273   0.5773503   0.0000000), wk =   0.0247934
        k(   47) = (   0.2727273   0.5773503   0.0999108), wk =   0.0495868
        k(   48) = (   0.2727273   0.5773503  -0.1998215), wk =   0.0247934

     Dense  grid:    61301 G-vectors     FFT dimensions: (  40,  40,  96)

     Estimated max dynamical RAM per process >      23.72 MB

     Estimated total dynamical RAM >     189.75 MB

     Initial potential from superposition of free atoms

     starting charge       9.9903, renormalised to      10.0000
     Starting wfcs are    8 randomized atomic wfcs +    1 random wfcs

     total cpu time spent up to now is        1.3 secs

     Self-consistent Calculation

     iteration #  1     ecut=    80.00 Ry     beta= 0.70
     Davidson diagonalization with overlap
     ethr =  1.00E-02,  avg # of iterations =  6.3

     total cpu time spent up to now is        2.3 secs

     total energy              =     -37.04908663 Ry
     estimated scf accuracy    <       0.14810999 Ry

     iteration #  2     ecut=    80.00 Ry     beta= 0.70
     Davidson diagonalization with overlap
     ethr =  1.48E-03,  avg # of iterations =  3.1

     total cpu time spent up to now is        3.1 secs

     total energy              =     -36.89194755 Ry
     estimated scf accuracy    <       2.19792295 Ry

     iteration #  3     ecut=    80.00 Ry     beta= 0.70
     Davidson diagonalization with overlap
     ethr =  1.48E-03,  avg # of iterations =  2.3

     total cpu time spent up to now is        3.8 secs

     total energy              =     -37.13684641 Ry
     estimated scf accuracy    <       0.00562126 Ry

     iteration #  4     ecut=    80.00 Ry     beta= 0.70
     Davidson diagonalization with overlap
     ethr =  5.62E-05,  avg # of iterations =  2.9

     total cpu time spent up to now is        4.4 secs

     total energy              =     -37.13740479 Ry
     estimated scf accuracy    <       0.00025394 Ry

     iteration #  5     ecut=    80.00 Ry     beta= 0.70
     Davidson diagonalization with overlap
     ethr =  2.54E-06,  avg # of iterations =  4.4

     total cpu time spent up to now is        5.2 secs

     total energy              =     -37.13745297 Ry
     estimated scf accuracy    <       0.00000464 Ry

     iteration #  6     ecut=    80.00 Ry     beta= 0.70
     Davidson diagonalization with overlap
     ethr =  4.64E-08,  avg # of iterations =  2.7

     total cpu time spent up to now is        5.8 secs

     total energy              =     -37.13745456 Ry
     estimated scf accuracy    <       0.00000018 Ry

     iteration #  7     ecut=    80.00 Ry     beta= 0.70
     Davidson diagonalization with overlap
     ethr =  1.81E-09,  avg # of iterations =  2.6

     total cpu time spent up to now is        6.4 secs

     total energy              =     -37.13745461 Ry
     estimated scf accuracy    <       0.00000006 Ry

     iteration #  8     ecut=    80.00 Ry     beta= 0.70
     Davidson diagonalization with overlap
     ethr =  6.03E-10,  avg # of iterations =  1.1

     total cpu time spent up to now is        7.0 secs

     End of self-consistent calculation

          k = 0.0000 0.0000 0.0000 (  7763 PWs)   bands (ev):

   -46.5398 -46.5391  -7.2270  -1.8068  -1.3012   2.8207   3.5532   5.0232
     5.0232

          k = 0.0000 0.0000 0.0999 (  7685 PWs)   bands (ev):

   -46.5397 -46.5391  -7.2265  -2.0211  -0.8923   1.8150   4.8406   5.0242
     5.0242

          k = 0.0000 0.0000-0.1998 (  7656 PWs)   bands (ev):

   -46.5397 -46.5391  -7.2260  -2.1433  -0.4832   1.1610   5.0251   5.0251
     6.4316

          k = 0.0000 0.1050 0.0000 (  7707 PWs)   bands (ev):

   -46.5396 -46.5389  -7.1169  -1.6990  -1.1877   2.8794   3.6517   4.2631
     4.8260

          k = 0.0000 0.1050 0.0999 (  7708 PWs)   bands (ev):

   -46.5396 -46.5389  -7.1164  -1.9110  -0.7809   1.8962   4.2637   4.8271
     4.9105

          k = 0.0000 0.1050-0.1998 (  7702 PWs)   bands (ev):

   -46.5396 -46.5390  -7.1159  -2.0324  -0.3711   1.2452   4.2645   4.8282
     6.5816

          k = 0.0000 0.2099 0.0000 (  7695 PWs)   bands (ev):

   -46.5392 -46.5385  -6.7927  -1.3787  -0.8514   2.7260   3.0273   3.9758
     4.3846

          k = 0.0000 0.2099 0.0999 (  7710 PWs)   bands (ev):

   -46.5392 -46.5385  -6.7922  -1.5827  -0.4531   2.0787   2.8183   4.3860
     5.0445

          k = 0.0000 0.2099-0.1998 (  7684 PWs)   bands (ev):

   -46.5392 -46.5385  -6.7917  -1.7013  -0.0422   1.4575   2.8114   4.3875
     6.2234

          k = 0.0000 0.3149 0.0000 (  7692 PWs)   bands (ev):

   -46.5386 -46.5380  -6.2783  -0.8584  -0.3299   1.1685   3.1396   3.9254
     4.3982

          k = 0.0000 0.3149 0.0999 (  7678 PWs)   bands (ev):

   -46.5386 -46.5380  -6.2779  -1.0452   0.0431   1.1126   2.5870   3.9272
     4.8614

          k = 0.0000 0.3149-0.1998 (  7682 PWs)   bands (ev):

   -46.5386 -46.5380  -6.2774  -1.1564   0.4732   0.9435   2.1753   3.9290
     5.0890

          k = 0.0000 0.4199 0.0000 (  7650 PWs)   bands (ev):

   -46.5381 -46.5375  -5.6433  -0.4816  -0.1755   0.6881   2.9177   3.5757
     4.1957

          k = 0.0000 0.4199 0.0999 (  7665 PWs)   bands (ev):

   -46.5381 -46.5375  -5.6430  -0.4669  -0.2796   0.8794   2.8187   3.5776
     3.9694

          k = 0.0000 0.4199-0.1998 (  7660 PWs)   bands (ev):

   -46.5381 -46.5375  -5.6427  -0.4184  -0.3972   1.0704   2.6995   3.5796
     3.7643

          k = 0.0000 0.5249 0.0000 (  7650 PWs)   bands (ev):

   -46.5378 -46.5372  -5.1020  -1.3568   0.5123   1.5686   2.3358   3.0184
     3.3906

          k = 0.0000 0.5249 0.0999 (  7645 PWs)   bands (ev):

   -46.5378 -46.5372  -5.1019  -1.3451   0.4616   1.4271   2.6235   3.1426
     3.3927

          k = 0.0000 0.5249-0.1998 (  7656 PWs)   bands (ev):

   -46.5378 -46.5372  -5.1018  -1.3329   0.4110   1.3363   2.8764   3.2878
     3.3948

          k = 0.0909 0.1575 0.0000 (  7715 PWs)   bands (ev):

   -46.5393 -46.5387  -6.8996  -1.4849  -0.9625   2.9844   3.2383   3.8829
     4.3437

          k = 0.0909 0.1575 0.0999 (  7702 PWs)   bands (ev):

   -46.5393 -46.5387  -6.8991  -1.6917  -0.5610   2.0402   3.2933   4.3456
     5.0173

          k = 0.0909 0.1575-0.1998 (  7694 PWs)   bands (ev):

   -46.5393 -46.5387  -6.8986  -1.8114  -0.1504   1.3996   3.2967   4.3475
     6.8164

          k = 0.0909 0.2624 0.0000 (  7696 PWs)   bands (ev):

   -46.5388 -46.5382  -6.4789  -1.0639  -0.5253   1.8654   3.1325   3.6503
     4.2585

          k = 0.0909 0.2624 0.0999 (  7685 PWs)   bands (ev):

   -46.5388 -46.5382  -6.4784  -1.2581  -0.1390   1.7523   2.5139   3.6542
     5.0747

          k = 0.0909 0.2624-0.1998 (  7676 PWs)   bands (ev):

   -46.5388 -46.5382  -6.4780  -1.3729   0.2741   1.4353   2.2321   3.6573
     5.7304

          k = 0.0909 0.3674 0.0000 (  7672 PWs)   bands (ev):

   -46.5383 -46.5376  -5.8965  -0.4583  -0.0880   0.6617   3.0983   3.1285
     4.5735

          k = 0.0909 0.3674 0.0999 (  7660 PWs)   bands (ev):

   -46.5383 -46.5376  -5.8961  -0.6289   0.1434   0.7265   2.7896   3.1123
     4.5418

          k = 0.0909 0.3674-0.1998 (  7670 PWs)   bands (ev):

   -46.5383 -46.5376  -5.8957  -0.7289   0.2831   0.8466   2.4675   3.1161
     4.4944

          k = 0.0909 0.4724 0.0000 (  7653 PWs)   bands (ev):

   -46.5379 -46.5372  -5.2750  -0.9125   0.2572   1.1833   2.7070   2.7491
     3.7305

          k = 0.0909 0.4724 0.0999 (  7664 PWs)   bands (ev):

   -46.5379 -46.5372  -5.2748  -0.8954   0.1600   1.2832   2.7071   2.8680
     3.6134

          k = 0.0909 0.4724-0.1998 (  7646 PWs)   bands (ev):

   -46.5378 -46.5372  -5.2746  -0.8768   0.0757   1.3626   2.7396   3.1199
     3.2988

          k = 0.0909 0.5774 0.0000 (  7656 PWs)   bands (ev):

   -46.5377 -46.5371  -4.9575  -1.4059   0.7098   1.9728   2.2910   2.5071
     2.8933

          k = 0.0909 0.5774 0.0999 (  7652 PWs)   bands (ev):

   -46.5377 -46.5371  -4.9574  -1.3956   0.7014   1.5505   2.5658   2.8728
     2.9488

          k = 0.0909 0.5774-0.1998 (  7648 PWs)   bands (ev):

   -46.5377 -46.5371  -4.9574  -1.3849   0.6932   1.3540   2.6399   2.8379
     3.5013

          k = 0.1818 0.3149 0.0000 (  7667 PWs)   bands (ev):

   -46.5383 -46.5377  -5.9855  -0.5554  -0.0570   1.0068   2.5450   3.2132
     4.6551

          k = 0.1818 0.3149 0.0999 (  7673 PWs)   bands (ev):

   -46.5383 -46.5377  -5.9851  -0.7292   0.2784   0.9655   2.5500   2.7925
     4.9630

          k = 0.1818 0.3149-0.1998 (  7684 PWs)   bands (ev):

   -46.5383 -46.5377  -5.9846  -0.8339   0.7307   0.7647   2.4356   2.5550
     5.1540

          k = 0.1818 0.4199 0.0000 (  7663 PWs)   bands (ev):

   -46.5379 -46.5373  -5.3873  -0.3204   0.1020   1.0254   1.7773   3.0872
     4.5616

          k = 0.1818 0.4199 0.0999 (  7652 PWs)   bands (ev):

   -46.5379 -46.5373  -5.3870  -0.2945  -0.0010   1.1785   1.7776   3.0515
     4.3147

          k = 0.1818 0.4199-0.1998 (  7652 PWs)   bands (ev):

   -46.5379 -46.5373  -5.3867  -0.2463  -0.1111   1.3285   1.7743   3.0113
     4.1086

          k = 0.1818 0.5249 0.0000 (  7642 PWs)   bands (ev):

   -46.5376 -46.5370  -4.8948  -1.0255   0.7324   1.3820   1.9584   2.6853
     3.3747

          k = 0.1818 0.5249 0.0999 (  7652 PWs)   bands (ev):

   -46.5376 -46.5370  -4.8947  -1.0142   0.6967   1.4003   1.7732   2.9809
     3.4398

          k = 0.1818 0.5249-0.1998 (  7646 PWs)   bands (ev):

   -46.5376 -46.5370  -4.8946  -1.0024   0.6603   1.4193   1.6563   3.1227
     3.6473

          k = 0.2727 0.4724 0.0000 (  7671 PWs)   bands (ev):

   -46.5376 -46.5370  -4.8838  -0.6026   0.6724   0.7124   1.8815   3.0544
     4.2848

          k = 0.2727 0.4724 0.0999 (  7655 PWs)   bands (ev):

   -46.5376 -46.5370  -4.8837  -0.5880   0.6609   0.6801   1.8361   3.3166
     3.8832

          k = 0.2727 0.4724-0.1998 (  7664 PWs)   bands (ev):

   -46.5376 -46.5370  -4.8836  -0.5726   0.6099   0.6880   1.8022   3.6936
     4.1525

          k = 0.2727 0.5774 0.0000 (  7648 PWs)   bands (ev):

   -46.5375 -46.5369  -4.6515  -0.6984   0.2280   1.0327   2.7484   3.0671
     3.2872

          k = 0.2727 0.5774 0.0999 (  7675 PWs)   bands (ev):

   -46.5375 -46.5369  -4.6514  -0.6889   0.2373   1.0297   2.3324   3.0910
     3.7161

          k = 0.2727 0.5774-0.1998 (  7692 PWs)   bands (ev):

   -46.5375 -46.5369  -4.6514  -0.6791   0.2469   1.0265   2.1387   2.9542
     4.1391

     the Fermi energy is     0.7362 ev

!    total energy              =     -37.13745461 Ry
     estimated scf accuracy    <          1.5E-09 Ry
     smearing contrib. (-TS)   =      -0.00120378 Ry
     internal energy E=F+TS    =     -37.13625083 Ry

     The total energy is F=E-TS. E is the sum of the following terms:
     one-electron contribution =     -21.59436083 Ry
     hartree contribution      =       9.13654452 Ry
     xc contribution           =      -9.39576105 Ry
     ewald contribution        =     -15.28267347 Ry

     convergence has been achieved in   8 iterations

     Forces acting on atoms (cartesian axes, Ry/au):

     atom    1 type  1   force =     0.00000000    0.00000000    0.00605934
     atom    2 type  1   force =     0.00000000    0.00000000   -0.00605934
     atom    3 type  2   force =     0.00000000    0.00000000    0.00000000
     The non-local contrib.  to forces
     atom    1 type  1   force =    -0.00000000    0.00000000   -0.06961774
     atom    2 type  1   force =     0.00000000   -0.00000000    0.06961774
     atom    3 type  2   force =     0.00000000   -0.00000000    0.00000000
     The ionic contribution  to forces
     atom    1 type  1   force =     0.00000000   -0.00000000   -1.00962239
     atom    2 type  1   force =     0.00000000    0.00000000    1.00962239
     atom    3 type  2   force =    -0.00000000    0.00000000   -0.00000000
     The local contribution  to forces
     atom    1 type  1   force =    -0.00000000   -0.00000000    1.08529374
     atom    2 type  1   force =    -0.00000000    0.00000000   -1.08529374
     atom    3 type  2   force =    -0.00000000    0.00000000   -0.00000000
     The core correction contribution to forces
     atom    1 type  1   force =     0.00000000    0.00000000    0.00000000
     atom    2 type  1   force =     0.00000000    0.00000000    0.00000000
     atom    3 type  2   force =    -0.00000000   -0.00000000   -0.00000000
     The Hubbard contrib.    to forces
     atom    1 type  1   force =     0.00000000    0.00000000    0.00000000
     atom    2 type  1   force =     0.00000000    0.00000000    0.00000000
     atom    3 type  2   force =     0.00000000    0.00000000    0.00000000
     The SCF correction term to forces
     atom    1 type  1   force =    -0.00000000   -0.00000000    0.00000573
     atom    2 type  1   force =    -0.00000000   -0.00000000   -0.00000573
     atom    3 type  2   force =     0.00000000   -0.00000000   -0.00000000

     Total force =     0.008569     Total SCF correction =     0.000008


     Computing stress (Cartesian axis) and pressure

          total   stress  (Ry/bohr**3)                   (kbar)     P=      -51.39
  -0.00037398   0.00000000  -0.00000000          -55.01        0.00       -0.00
   0.00000000  -0.00037398  -0.00000000            0.00      -55.01       -0.00
  -0.00000000   0.00000000  -0.00030016           -0.00        0.00      -44.15


     BFGS Geometry Optimization
     Energy error            =      0.0E+00 Ry
     Gradient error          =      6.1E-03 Ry/Bohr
     Cell gradient error     =      5.6E+02 kbar

     number of scf cycles    =   1
     number of bfgs steps    =   0

     enthalpy           new  =     -34.9800056494 Ry

     new trust radius        =       0.4752760228 bohr
ibrav =      4
 celldm(1) =      6.01478407
 celldm(3) =      2.50733191
Input lattice vectors:
     0.90567717     0.00000000    -0.00000000
    -0.45283859     0.78433944     0.00000000
    -0.00000000    -0.00000000     2.27083328
New lattice vectors in INITIAL alat:
     0.90567717     0.00000000     0.00000000
    -0.45283859     0.78433944     0.00000000
     0.00000000     0.00000000     2.27083328
New lattice vectors in NEW alat (for information only):
     1.00000000     0.00000000     0.00000000
    -0.50000000     0.86602540     0.00000000
     0.00000000     0.00000000     2.50733191
Discrepancy in bohr =     0.000000    0.000000    0.000000
     new conv_thr            =       0.0000000100 Ry

     new unit-cell volume =    472.50084 a.u.^3 (    70.01740 Ang^3 )
     density =      0.99531 g/cm^3

CELL_PARAMETERS (alat=  6.64120092)
   0.905677172   0.000000000   0.000000000
  -0.452838586   0.784339439   0.000000000
   0.000000000   0.000000000   2.270833276

ATOMIC_POSITIONS (crystal)
Li            0.0000000000        0.0000000000        0.1972176286
Li            0.0000000000        0.0000000000        0.8027823714
Si            0.0000000000        0.0000000000        0.5000000000



     Writing config-only to output data dir ./output/LiSi.save/
     NEW-OLD atomic charge density approx. for the potential
     extrapolated charge    6.56964, renormalised to   10.00000

     total cpu time spent up to now is        9.4 secs

     Self-consistent Calculation

     iteration #  1     ecut=    80.00 Ry     beta= 0.70
     Davidson diagonalization with overlap
     c_bands:  1 eigenvalues not converged
     c_bands:  1 eigenvalues not converged
     ethr =  1.00E-06,  avg # of iterations = 14.3

     total cpu time spent up to now is       11.3 secs

     total energy              =     -36.08506729 Ry
     estimated scf accuracy    <       1.12094089 Ry

     iteration #  2     ecut=    80.00 Ry     beta= 0.70
     Davidson diagonalization with overlap
     ethr =  1.00E-02,  avg # of iterations =  5.5

     total cpu time spent up to now is       12.3 secs

     total energy              =     -36.01088297 Ry
     estimated scf accuracy    <      16.96537304 Ry

     iteration #  3     ecut=    80.00 Ry     beta= 0.70
     Davidson diagonalization with overlap
     ethr =  1.00E-02,  avg # of iterations =  3.1

     total cpu time spent up to now is       13.0 secs

     total energy              =     -37.12809627 Ry
     estimated scf accuracy    <       0.85168196 Ry

     iteration #  4     ecut=    80.00 Ry     beta= 0.70
     Davidson diagonalization with overlap
     ethr =  8.52E-03,  avg # of iterations =  2.0

     total cpu time spent up to now is       13.6 secs

     total energy              =     -37.18204924 Ry
     estimated scf accuracy    <       0.04761634 Ry

     iteration #  5     ecut=    80.00 Ry     beta= 0.70
     Davidson diagonalization with overlap
     ethr =  4.76E-04,  avg # of iterations =  3.0

     total cpu time spent up to now is       14.2 secs

     total energy              =     -37.18813397 Ry
     estimated scf accuracy    <       0.00385225 Ry

     iteration #  6     ecut=    80.00 Ry     beta= 0.70
     Davidson diagonalization with overlap
     ethr =  3.85E-05,  avg # of iterations =  3.2

     total cpu time spent up to now is       15.0 secs

     total energy              =     -37.18841789 Ry
     estimated scf accuracy    <       0.00027880 Ry

     iteration #  7     ecut=    80.00 Ry     beta= 0.70
     Davidson diagonalization with overlap
     ethr =  2.79E-06,  avg # of iterations =  4.0

     total cpu time spent up to now is       15.7 secs

     total energy              =     -37.18848383 Ry
     estimated scf accuracy    <       0.00001932 Ry

     iteration #  8     ecut=    80.00 Ry     beta= 0.70
     Davidson diagonalization with overlap
     ethr =  1.93E-07,  avg # of iterations =  1.3

     total cpu time spent up to now is       16.3 secs

     total energy              =     -37.18848267 Ry
     estimated scf accuracy    <       0.00000876 Ry

     iteration #  9     ecut=    80.00 Ry     beta= 0.70
     Davidson diagonalization with overlap
     ethr =  8.76E-08,  avg # of iterations =  1.1

     total cpu time spent up to now is       16.8 secs

     total energy              =     -37.18848306 Ry
     estimated scf accuracy    <       0.00000076 Ry

     iteration # 10     ecut=    80.00 Ry     beta= 0.70
     Davidson diagonalization with overlap
     ethr =  7.56E-09,  avg # of iterations =  1.6

     total cpu time spent up to now is       17.4 secs

     total energy              =     -37.18848322 Ry
     estimated scf accuracy    <       0.00000002 Ry

     iteration # 11     ecut=    80.00 Ry     beta= 0.70
     Davidson diagonalization with overlap
     ethr =  1.94E-10,  avg # of iterations =  2.5

     total cpu time spent up to now is       18.0 secs

     End of self-consistent calculation

          k = 0.0000 0.0000 0.0000 (  7763 PWs)   bands (ev):

   -44.8090 -44.8067  -7.0876  -1.2794  -0.3200   4.7824   5.3084   8.0430
    12.0999

          k = 0.0000 0.0000 0.1101 (  7685 PWs)   bands (ev):

   -44.8089 -44.8068  -7.0869  -1.4434   0.0397   3.5179   6.9173   8.0452
    11.1803

          k = 0.0000 0.0000-0.2202 (  7656 PWs)   bands (ev):

   -44.8089 -44.8068  -7.0861  -1.5582   0.4181   2.8157   8.0474   8.5162
     9.6464

          k = 0.0000 0.1159 0.0000 (  7707 PWs)   bands (ev):

   -44.8084 -44.8062  -6.9400  -1.1457  -0.1857   4.8420   5.4285   6.9400
     7.6924

          k = 0.0000 0.1159 0.1101 (  7708 PWs)   bands (ev):

   -44.8084 -44.8062  -6.9393  -1.3103   0.1764   3.6134   6.7333   7.2159
    11.1792

          k = 0.0000 0.1159-0.2202 (  7702 PWs)   bands (ev):

   -44.8083 -44.8062  -6.9385  -1.4255   0.5590   2.9117   6.8598   8.8540
     9.4787

          k = 0.0000 0.2318 0.0000 (  7695 PWs)   bands (ev):

   -44.8068 -44.8046  -6.5007  -0.7472   0.2125   4.8447   4.9828   5.8085
     6.9889

          k = 0.0000 0.2318 0.1101 (  7710 PWs)   bands (ev):

   -44.8068 -44.8046  -6.4999  -0.9128   0.5801   3.8693   4.8518   6.9919
     7.1991

          k = 0.0000 0.2318-0.2202 (  7684 PWs)   bands (ev):

   -44.8068 -44.8047  -6.4991  -1.0285   0.9744   3.1757   4.8527   8.7128
     9.2027

          k = 0.0000 0.3477 0.0000 (  7692 PWs)   bands (ev):

   -44.8048 -44.8026  -5.7833  -0.0928   0.8355   2.7354   5.0245   6.2888
     9.2384

          k = 0.0000 0.3477 0.1101 (  7678 PWs)   bands (ev):

   -44.8047 -44.8026  -5.7824  -0.2575   1.2059   2.6799   4.3254   6.3236
     6.8895

          k = 0.0000 0.3477-0.2202 (  7682 PWs)   bands (ev):

   -44.8047 -44.8026  -5.7815  -0.3720   1.6312   2.5376   3.8336   6.3270
     7.1977

          k = 0.0000 0.4636 0.0000 (  7650 PWs)   bands (ev):

   -44.8029 -44.8008  -4.8315   0.5325   0.7898   1.9798   4.5441   6.1576
     8.3072

          k = 0.0000 0.4636 0.1101 (  7665 PWs)   bands (ev):

   -44.8029 -44.8008  -4.8306   0.5317   0.6961   2.1869   4.4846   5.8602
     8.2523

          k = 0.0000 0.4636-0.2202 (  7660 PWs)   bands (ev):

   -44.8028 -44.8008  -4.8297   0.5278   0.6231   2.3947   4.4121   5.5830
     8.6666

          k = 0.0000 0.5795 0.0000 (  7650 PWs)   bands (ev):

   -44.8018 -44.7997  -3.8541  -0.8976   1.7711   2.9619   3.5691   4.9349
     5.5837

          k = 0.0000 0.5795 0.1101 (  7645 PWs)   bands (ev):

   -44.8017 -44.7997  -3.8537  -0.8847   1.6870   2.7120   4.1408   4.9818
     7.8980

          k = 0.0000 0.5795-0.2202 (  7656 PWs)   bands (ev):

   -44.8017 -44.7997  -3.8532  -0.8715   1.6029   2.5971   4.7114   4.9894
     7.2299

          k = 0.1004 0.1739 0.0000 (  7715 PWs)   bands (ev):

   -44.8073 -44.8051  -6.6465  -0.8796   0.0809   4.9453   5.5212   5.7768
     6.8129

          k = 0.1004 0.1739 0.1101 (  7702 PWs)   bands (ev):

   -44.8073 -44.8051  -6.6457  -1.0450   0.4469   3.7945   5.5742   6.8168
     7.2014

          k = 0.1004 0.1739-0.2202 (  7694 PWs)   bands (ev):

   -44.8073 -44.8051  -6.6449  -1.1606   0.8374   3.0961   5.5763   9.0672
     9.1840

          k = 0.1004 0.2898 0.0000 (  7696 PWs)   bands (ev):

   -44.8055 -44.8033  -6.0673  -0.3526   0.6006   3.7447   5.0673   5.7438
     6.1437

          k = 0.1004 0.2898 0.1101 (  7685 PWs)   bands (ev):

   -44.8055 -44.8034  -6.0664  -0.5179   0.9710   3.6391   4.2386   5.7508
     7.2108

          k = 0.1004 0.2898-0.2202 (  7676 PWs)   bands (ev):

   -44.8055 -44.8034  -6.0656  -0.6334   1.3767   3.2552   3.9570   5.7563
     8.0436

          k = 0.1004 0.4057 0.0000 (  7672 PWs)   bands (ev):

   -44.8035 -44.8014  -5.2269   0.4190   1.1434   1.9962   4.9229   5.0019
     6.5356

          k = 0.1004 0.4057 0.1101 (  7660 PWs)   bands (ev):

   -44.8035 -44.8014  -5.2260   0.2574   1.4125   2.0320   4.5385   5.0127
     6.5049

          k = 0.1004 0.4057-0.2202 (  7670 PWs)   bands (ev):

   -44.8035 -44.8014  -5.2251   0.1474   1.6210   2.1115   4.1688   5.0207
     6.4572

          k = 0.1004 0.5216 0.0000 (  7653 PWs)   bands (ev):

   -44.8020 -44.7999  -4.2161  -0.1600   1.3789   2.5544   4.1608   4.5443
     5.7243

          k = 0.1004 0.5216 0.1101 (  7664 PWs)   bands (ev):

   -44.8020 -44.7999  -4.2153  -0.1415   1.2557   2.6600   4.3387   4.5917
     5.5293

          k = 0.1004 0.5216-0.2202 (  7646 PWs)   bands (ev):

   -44.8020 -44.8000  -4.2145  -0.1216   1.1492   2.7381   4.5427   4.8560
     5.0756

          k = 0.1004 0.6375 0.0000 (  7656 PWs)   bands (ev):

   -44.8015 -44.7994  -3.5579  -1.0567   2.0989   3.3652   3.4211   4.2709
     4.8636

          k = 0.1004 0.6375 0.1101 (  7652 PWs)   bands (ev):

   -44.8014 -44.7994  -3.5577  -1.0451   2.0929   2.6950   4.3337   4.4163
     4.8109

          k = 0.1004 0.6375-0.2202 (  7648 PWs)   bands (ev):

   -44.8014 -44.7994  -3.5575  -1.0333   2.0870   2.4468   4.4172   4.7371
     5.2107

          k = 0.2008 0.3477 0.0000 (  7667 PWs)   bands (ev):

   -44.8038 -44.8016  -5.3619   0.2934   1.1806   2.6110   4.0845   5.0851
     6.6200

          k = 0.2008 0.3477 0.1101 (  7673 PWs)   bands (ev):

   -44.8037 -44.8017  -5.3610   0.1319   1.5417   2.5478   4.0917   4.5565
     7.0470

          k = 0.2008 0.3477-0.2202 (  7684 PWs)   bands (ev):

   -44.8037 -44.8017  -5.3601   0.0198   2.0066   2.3545   4.0990   4.1337
     7.3240

          k = 0.2008 0.4636 0.0000 (  7663 PWs)   bands (ev):

   -44.8022 -44.8001  -4.4339   0.7899   1.1575   2.3762   3.1132   4.7649
     6.6356

          k = 0.2008 0.4636 0.1101 (  7652 PWs)   bands (ev):

   -44.8022 -44.8001  -4.4330   0.8121   1.0487   2.5519   3.1108   4.7631
     6.2672

          k = 0.2008 0.4636-0.2202 (  7652 PWs)   bands (ev):

   -44.8022 -44.8001  -4.4321   0.8765   0.9125   2.7288   3.0995   4.7668
     5.9795

          k = 0.2008 0.5795 0.0000 (  7642 PWs)   bands (ev):

   -44.8012 -44.7992  -3.5040  -0.4792   2.0836   2.6486   3.4330   3.9929
     5.3356

          k = 0.2008 0.5795 0.1101 (  7652 PWs)   bands (ev):

   -44.8012 -44.7992  -3.5035  -0.4666   2.0196   2.6710   3.1253   4.5740
     5.2770

          k = 0.2008 0.5795-0.2202 (  7646 PWs)   bands (ev):

   -44.8012 -44.7992  -3.5030  -0.4537   1.9542   2.6934   2.9786   4.9279
     5.4291

          k = 0.3011 0.5216 0.0000 (  7671 PWs)   bands (ev):

   -44.8012 -44.7991  -3.5263   0.2307   1.5863   2.0290   3.3833   4.5633
     6.2119

          k = 0.3011 0.5216 0.1101 (  7655 PWs)   bands (ev):

   -44.8011 -44.7991  -3.5256   0.2475   1.5958   1.9461   3.3094   4.9641
     5.5517

          k = 0.3011 0.5216-0.2202 (  7664 PWs)   bands (ev):

   -44.8011 -44.7991  -3.5250   0.2653   1.6055   1.8666   3.2612   5.3105
     5.5268

          k = 0.3011 0.6375 0.0000 (  7648 PWs)   bands (ev):

   -44.8008 -44.7987  -3.0005  -0.1657   1.0580   2.5693   4.3183   4.3714
     5.1511

          k = 0.3011 0.6375 0.1101 (  7675 PWs)   bands (ev):

   -44.8008 -44.7987  -3.0003  -0.1547   1.0691   2.5639   3.6518   4.7263
     5.3610

          k = 0.3011 0.6375-0.2202 (  7692 PWs)   bands (ev):

   -44.8007 -44.7987  -3.0000  -0.1436   1.0805   2.5583   3.4058   4.5123
     6.3741

     the Fermi energy is     2.0402 ev

!    total energy              =     -37.18848322 Ry
     estimated scf accuracy    <          1.4E-09 Ry
     smearing contrib. (-TS)   =      -0.00095807 Ry
     internal energy E=F+TS    =     -37.18752515 Ry

     The total energy is F=E-TS. E is the sum of the following terms:
     one-electron contribution =     -19.35484501 Ry
     hartree contribution      =       8.58415696 Ry
     xc contribution           =      -9.56738786 Ry
     ewald contribution        =     -16.84944924 Ry

     convergence has been achieved in  11 iterations

     Forces acting on atoms (cartesian axes, Ry/au):

     atom    1 type  1   force =     0.00000000    0.00000000   -0.01742386
     atom    2 type  1   force =     0.00000000    0.00000000    0.01742386
     atom    3 type  2   force =     0.00000000    0.00000000   -0.00000000
     The non-local contrib.  to forces
     atom    1 type  1   force =    -0.00000000   -0.00000000   -0.07178878
     atom    2 type  1   force =     0.00000000   -0.00000000    0.07178878
     atom    3 type  2   force =     0.00000000    0.00000000   -0.00000000
     The ionic contribution  to forces
     atom    1 type  1   force =     0.00000000   -0.00000000   -1.23955824
     atom    2 type  1   force =     0.00000000   -0.00000000    1.23955824
     atom    3 type  2   force =    -0.00000000   -0.00000000    0.00000000
     The local contribution  to forces
     atom    1 type  1   force =    -0.00000000   -0.00000000    1.29391088
     atom    2 type  1   force =    -0.00000000    0.00000000   -1.29391088
     atom    3 type  2   force =    -0.00000000    0.00000000   -0.00000000
     The core correction contribution to forces
     atom    1 type  1   force =     0.00000000    0.00000000    0.00000000
     atom    2 type  1   force =     0.00000000    0.00000000    0.00000000
     atom    3 type  2   force =    -0.00000000   -0.00000000   -0.00000000
     The Hubbard contrib.    to forces
     atom    1 type  1   force =     0.00000000    0.00000000    0.00000000
     atom    2 type  1   force =     0.00000000    0.00000000    0.00000000
     atom    3 type  2   force =     0.00000000    0.00000000    0.00000000
     The SCF correction term to forces
     atom    1 type  1   force =     0.00000000    0.00000000    0.00001228
     atom    2 type  1   force =     0.00000000    0.00000000   -0.00001228
     atom    3 type  2   force =    -0.00000000    0.00000000   -0.00000000

     Total force =     0.024641     Total SCF correction =     0.000017


     Computing stress (Cartesian axis) and pressure

          total   stress  (Ry/bohr**3)                   (kbar)     P=      -34.14
  -0.00041095   0.00000000  -0.00000000          -60.45        0.00       -0.00
  -0.00000000  -0.00041095  -0.00000000           -0.00      -60.45       -0.00
   0.00000000   0.00000000   0.00012557            0.00        0.00       18.47

     Energy error            =      6.0E-01 Ry
     Gradient error          =      1.7E-02 Ry/Bohr
     Cell gradient error     =      5.6E+02 kbar

     number of scf cycles    =   2
     number of bfgs steps    =   1

     enthalpy           old  =     -34.9800056494 Ry
     enthalpy           new  =     -35.5824855157 Ry

     CASE: enthalpy          _new < enthalpy          _old

     new trust radius        =       0.6791503632 bohr
ibrav =      4
 celldm(1) =      5.07515879
 celldm(3) =      2.57312381
Input lattice vectors:
     0.76419293     0.00000000     0.00000000
    -0.38209647     0.66181049    -0.00000000
    -0.00000000    -0.00000000     1.96636302
New lattice vectors in INITIAL alat:
     0.76419293     0.00000000     0.00000000
    -0.38209647     0.66181049     0.00000000
     0.00000000     0.00000000     1.96636302
New lattice vectors in NEW alat (for information only):
     1.00000000     0.00000000     0.00000000
    -0.50000000     0.86602540     0.00000000
     0.00000000     0.00000000     2.57312381
Discrepancy in bohr =     0.000000    0.000000    0.000000
     new conv_thr            =       0.0000000017 Ry

     new unit-cell volume =    291.29982 a.u.^3 (    43.16618 Ang^3 )
     density =      1.61443 g/cm^3

CELL_PARAMETERS (alat=  6.64120092)
   0.764192930   0.000000000   0.000000000
  -0.382096465   0.661810491   0.000000000
   0.000000000   0.000000000   1.966363021

ATOMIC_POSITIONS (crystal)
Li            0.0000000000        0.0000000000        0.1955457133
Li            0.0000000000        0.0000000000        0.8044542867
Si            0.0000000000        0.0000000000        0.5000000000



     Writing config-only to output data dir ./output/LiSi.save/
     NEW-OLD atomic charge density approx. for the potential

     negative rho (up, down):  7.180E-02 0.000E+00
     extrapolated charge    3.78563, renormalised to   10.00000

     total cpu time spent up to now is       20.4 secs

     Self-consistent Calculation

     iteration #  1     ecut=    80.00 Ry     beta= 0.70
     Davidson diagonalization with overlap
     c_bands:  1 eigenvalues not converged
     c_bands:  1 eigenvalues not converged
     c_bands:  1 eigenvalues not converged
     c_bands:  1 eigenvalues not converged
     c_bands:  1 eigenvalues not converged
     c_bands:  1 eigenvalues not converged
     c_bands:  1 eigenvalues not converged
     c_bands:  1 eigenvalues not converged
     ethr =  1.00E-06,  avg # of iterations = 16.4

     total cpu time spent up to now is       22.6 secs

     total energy              =     -35.64265658 Ry
     estimated scf accuracy    <       3.08269111 Ry

     iteration #  2     ecut=    80.00 Ry     beta= 0.70
     Davidson diagonalization with overlap
     ethr =  1.00E-02,  avg # of iterations =  5.4

     total cpu time spent up to now is       23.6 secs

     total energy              =     -34.83247572 Ry
     estimated scf accuracy    <      17.25126705 Ry

     iteration #  3     ecut=    80.00 Ry     beta= 0.70
     Davidson diagonalization with overlap
     ethr =  1.00E-02,  avg # of iterations =  3.9

     total cpu time spent up to now is       24.3 secs

     total energy              =     -37.17330218 Ry
     estimated scf accuracy    <       0.03219990 Ry

     iteration #  4     ecut=    80.00 Ry     beta= 0.70
     Davidson diagonalization with overlap
     ethr =  3.22E-04,  avg # of iterations =  3.3

     total cpu time spent up to now is       25.1 secs

     total energy              =     -37.17628150 Ry
     estimated scf accuracy    <       0.00244764 Ry

     iteration #  5     ecut=    80.00 Ry     beta= 0.70
     Davidson diagonalization with overlap
     ethr =  2.45E-05,  avg # of iterations =  2.9

     total cpu time spent up to now is       25.6 secs

     total energy              =     -37.17651516 Ry
     estimated scf accuracy    <       0.00008301 Ry

     iteration #  6     ecut=    80.00 Ry     beta= 0.70
     Davidson diagonalization with overlap
     ethr =  8.30E-07,  avg # of iterations =  3.9

     total cpu time spent up to now is       26.3 secs

     total energy              =     -37.17653751 Ry
     estimated scf accuracy    <       0.00000327 Ry

     iteration #  7     ecut=    80.00 Ry     beta= 0.70
     Davidson diagonalization with overlap
     ethr =  3.27E-08,  avg # of iterations =  1.9

     total cpu time spent up to now is       26.8 secs

     total energy              =     -37.17653782 Ry
     estimated scf accuracy    <       0.00000040 Ry

     iteration #  8     ecut=    80.00 Ry     beta= 0.70
     Davidson diagonalization with overlap
     ethr =  4.05E-09,  avg # of iterations =  1.9

     total cpu time spent up to now is       27.4 secs

     total energy              =     -37.17653790 Ry
     estimated scf accuracy    <          9.4E-09 Ry

     iteration #  9     ecut=    80.00 Ry     beta= 0.70
     Davidson diagonalization with overlap
     ethr =  9.38E-11,  avg # of iterations =  2.6

     total cpu time spent up to now is       28.0 secs

     End of self-consistent calculation

          k = 0.0000 0.0000 0.0000 (  7763 PWs)   bands (ev):

   -41.3488 -41.3359  -6.9588   0.0238   2.1665   8.6294   9.2027  15.4959
    18.7815

          k = 0.0000 0.0000 0.1271 (  7685 PWs)   bands (ev):

   -41.3486 -41.3361  -6.9583  -0.0508   2.4117   7.1684  11.1077  15.5033
    17.1697

          k = 0.0000 0.0000-0.2543 (  7656 PWs)   bands (ev):

   -41.3484 -41.3364  -6.9578  -0.1168   2.6833   6.4352  12.7035  15.4815
    15.5108

          k = 0.0000 0.1374 0.0000 (  7707 PWs)   bands (ev):

   -41.3448 -41.3320  -6.7415   0.2110   2.3387   8.7709   9.2499  13.3107
    14.4444

          k = 0.0000 0.1374 0.1271 (  7708 PWs)   bands (ev):

   -41.3446 -41.3322  -6.7409   0.1324   2.5941   7.2820  11.0778  13.4417
    14.4511

          k = 0.0000 0.1374-0.2543 (  7702 PWs)   bands (ev):

   -41.3444 -41.3324  -6.7403   0.0632   2.8783   6.5409  12.1984  14.1692
    15.2692

          k = 0.0000 0.2747 0.0000 (  7695 PWs)   bands (ev):

   -41.3338 -41.3214  -6.0912   0.7714   2.8492   8.9661   9.3452  10.2016
    13.0474

          k = 0.0000 0.2747 0.1271 (  7710 PWs)   bands (ev):

   -41.3336 -41.3216  -6.0904   0.6805   3.1352   7.6099   9.5801  11.7367
    13.0543

          k = 0.0000 0.2747-0.2543 (  7684 PWs)   bands (ev):

   -41.3334 -41.3218  -6.0896   0.6018   3.4576   6.8546   9.5948  13.5875
    14.2024

          k = 0.0000 0.4121 0.0000 (  7692 PWs)   bands (ev):

   -41.3194 -41.3075  -5.0127   1.7007   3.6564   6.4933   9.2272  10.0736
    11.9410

          k = 0.0000 0.4121 0.1271 (  7678 PWs)   bands (ev):

   -41.3193 -41.3077  -5.0115   1.5876   3.9943   6.4609   8.0724  11.2588
    11.9485

          k = 0.0000 0.4121-0.2543 (  7682 PWs)   bands (ev):

   -41.3191 -41.3079  -5.0102   1.4928   4.3898   6.3723   7.4030  11.9939
    13.3551

          k = 0.0000 0.5495 0.0000 (  7650 PWs)   bands (ev):

   -41.3062 -41.2947  -3.5148   2.9873   3.2762   5.0142   8.2437  10.3658
    11.1924

          k = 0.0000 0.5495 0.1271 (  7665 PWs)   bands (ev):

   -41.3061 -41.2949  -3.5127   2.8289   3.3513   5.2508   8.1544  10.0397
    11.2003

          k = 0.0000 0.5495-0.2543 (  7660 PWs)   bands (ev):

   -41.3059 -41.2951  -3.5105   2.7167   3.3889   5.5052   8.0347   9.7455
    11.2082

          k = 0.0000 0.6868 0.0000 (  7650 PWs)   bands (ev):

   -41.2984 -41.2871  -1.6135   0.6971   4.5983   6.0926   6.4652   9.4397
    10.8161

          k = 0.0000 0.6868 0.1271 (  7645 PWs)   bands (ev):

   -41.2982 -41.2873  -1.6097   0.7083   4.3674   5.8189   7.3928   9.3848
    12.1050

          k = 0.0000 0.6868-0.2543 (  7656 PWs)   bands (ev):

   -41.2980 -41.2874  -1.6059   0.7197   4.1783   5.7447   8.5780   8.9541
    11.0040

          k = 0.1190 0.2060 0.0000 (  7715 PWs)   bands (ev):

   -41.3372 -41.3247  -6.3077   0.5848   2.6806   9.0033   9.3277  11.6123
    12.0385

          k = 0.1190 0.2060 0.1271 (  7702 PWs)   bands (ev):

   -41.3370 -41.3249  -6.3069   0.4981   2.9564   7.5044  10.6071  12.0453
    12.3173

          k = 0.1190 0.2060-0.2543 (  7694 PWs)   bands (ev):

   -41.3368 -41.3251  -6.3062   0.4226   3.2659   6.7520  10.8673  12.0523
    14.2898

          k = 0.1190 0.3434 0.0000 (  7696 PWs)   bands (ev):

   -41.3246 -41.3125  -5.4432   1.3302   3.3499   8.1078   9.3801   9.7798
    10.6895

          k = 0.1190 0.3434 0.1271 (  7685 PWs)   bands (ev):

   -41.3244 -41.3127  -5.4422   1.2266   3.6655   7.9131   8.1517  10.2931
    11.9166

          k = 0.1190 0.3434-0.2543 (  7676 PWs)   bands (ev):

   -41.3242 -41.3128  -5.4411   1.1384   4.0264   7.1589   8.1279  10.3296
    13.2640

          k = 0.1190 0.4808 0.0000 (  7672 PWs)   bands (ev):

   -41.3108 -41.2991  -4.1548   2.4402   4.1572   5.2747   8.9667   9.2673
    10.7778

          k = 0.1190 0.4808 0.1271 (  7660 PWs)   bands (ev):

   -41.3106 -41.2993  -4.1531   2.3083   4.5044   5.2470   8.3360   9.3279
    10.9096

          k = 0.1190 0.4808-0.2543 (  7670 PWs)   bands (ev):

   -41.3105 -41.2995  -4.1514   2.2011   4.9998   5.0902   7.8035   9.3536
    10.9346

          k = 0.1190 0.6181 0.0000 (  7653 PWs)   bands (ev):

   -41.3003 -41.2889  -2.4535   2.1233   3.8959   5.6963   7.5380   8.6947
    10.3360

          k = 0.1190 0.6181 0.1271 (  7664 PWs)   bands (ev):

   -41.3001 -41.2891  -2.4506   2.1426   3.7222   5.8771   7.8367   8.7336
     9.8932

          k = 0.1190 0.6181-0.2543 (  7646 PWs)   bands (ev):

   -41.2999 -41.2893  -2.4476   2.1638   3.5743   6.0080   8.4774   8.7784
     9.1232

          k = 0.1190 0.7555 0.0000 (  7656 PWs)   bands (ev):

   -41.2963 -41.2851  -0.4880  -0.2055   5.5172   5.7940   6.5058   8.3846
     9.5217

          k = 0.1190 0.7555 0.1271 (  7652 PWs)   bands (ev):

   -41.2962 -41.2853  -0.4868  -0.1936   5.1663   5.5094   7.6100   8.4681
     9.3844

          k = 0.1190 0.7555-0.2543 (  7648 PWs)   bands (ev):

   -41.2960 -41.2855  -0.4856  -0.1815   4.8573   5.5016   8.5822   8.8327
    10.5807

          k = 0.2379 0.4121 0.0000 (  7667 PWs)   bands (ev):

   -41.3125 -41.3008  -4.3687   2.2576   4.1452   6.8600   7.3146   9.3114
    10.7431

          k = 0.2379 0.4121 0.1271 (  7673 PWs)   bands (ev):

   -41.3123 -41.3010  -4.3671   2.1324   4.5070   6.8161   7.3232   8.3740
    11.6989

          k = 0.2379 0.4121-0.2543 (  7684 PWs)   bands (ev):

   -41.3122 -41.3011  -4.3656   2.0292   4.9385   6.6924   7.3319   7.7545
    12.3281

          k = 0.2379 0.5495 0.0000 (  7663 PWs)   bands (ev):

   -41.3014 -41.2900  -2.8760   3.5430   3.8807   5.4499   6.3588   8.6527
    11.2084

          k = 0.2379 0.5495 0.1271 (  7652 PWs)   bands (ev):

   -41.3012 -41.2902  -2.8735   3.3791   3.9545   5.7055   6.3411   8.5704
    10.5532

          k = 0.2379 0.5495-0.2543 (  7652 PWs)   bands (ev):

   -41.3011 -41.2904  -2.8710   3.2611   3.9932   6.0287   6.2621   8.4767
    10.1649

          k = 0.2379 0.6868 0.0000 (  7642 PWs)   bands (ev):

   -41.2948 -41.2836  -0.9814   1.3222   5.1455   5.7826   6.7537   7.0403
     9.8693

          k = 0.2379 0.6868 0.1271 (  7652 PWs)   bands (ev):

   -41.2946 -41.2838  -0.9773   1.3331   4.9390   5.8207   6.3810   7.9947
     9.5328

          k = 0.2379 0.6868-0.2543 (  7646 PWs)   bands (ev):

   -41.2945 -41.2840  -0.9732   1.3444   4.7656   5.8532   6.2703   9.0064
     9.1959

          k = 0.3569 0.6181 0.0000 (  7671 PWs)   bands (ev):

   -41.2942 -41.2831  -1.1875   3.1777   3.5802   4.9841   6.7904   8.1904
    10.5331

          k = 0.3569 0.6181 0.1271 (  7655 PWs)   bands (ev):

   -41.2941 -41.2832  -1.1837   3.2003   3.5903   4.8088   6.8280   8.6623
     9.1976

          k = 0.3569 0.6181-0.2543 (  7664 PWs)   bands (ev):

   -41.2939 -41.2834  -1.1799   3.2250   3.6006   4.6568   6.8401   8.8964
     9.4001

          k = 0.3569 0.7555 0.0000 (  7648 PWs)   bands (ev):

   -41.2915 -41.2805   0.7453   1.0595   3.2019   6.3747   7.1376   7.8516
     9.0464

          k = 0.3569 0.7555 0.1271 (  7675 PWs)   bands (ev):

   -41.2914 -41.2807   0.7482   1.0708   3.2144   6.3453   6.5156   8.2874
     8.9481

          k = 0.3569 0.7555-0.2543 (  7692 PWs)   bands (ev):

   -41.2912 -41.2808   0.7511   1.0823   3.2271   6.2090   6.3152   7.9920
    10.1598

     the Fermi energy is     5.0732 ev

!    total energy              =     -37.17653790 Ry
     estimated scf accuracy    <          2.6E-11 Ry
     smearing contrib. (-TS)   =      -0.00060507 Ry
     internal energy E=F+TS    =     -37.17593284 Ry

     The total energy is F=E-TS. E is the sum of the following terms:
     one-electron contribution =     -14.97002680 Ry
     hartree contribution      =       7.59445266 Ry
     xc contribution           =      -9.93311171 Ry
     ewald contribution        =     -19.86724698 Ry

     convergence has been achieved in   9 iterations

     Forces acting on atoms (cartesian axes, Ry/au):

     atom    1 type  1   force =     0.00000000    0.00000000   -0.08208214
     atom    2 type  1   force =     0.00000000    0.00000000    0.08208214
     atom    3 type  2   force =     0.00000000   -0.00000000   -0.00000000
     The non-local contrib.  to forces
     atom    1 type  1   force =     0.00000000    0.00000000   -0.04099112
     atom    2 type  1   force =     0.00000000    0.00000000    0.04099112
     atom    3 type  2   force =    -0.00000000   -0.00000000    0.00000000
     The ionic contribution  to forces
     atom    1 type  1   force =    -0.00000000   -0.00000000   -1.65970715
     atom    2 type  1   force =    -0.00000000    0.00000000    1.65970715
     atom    3 type  2   force =    -0.00000000    0.00000000    0.00000000
     The local contribution  to forces
     atom    1 type  1   force =    -0.00000000   -0.00000000    1.61862238
     atom    2 type  1   force =    -0.00000000    0.00000000   -1.61862238
     atom    3 type  2   force =    -0.00000000   -0.00000000   -0.00000000
     The core correction contribution to forces
     atom    1 type  1   force =     0.00000000    0.00000000    0.00000000
     atom    2 type  1   force =     0.00000000    0.00000000    0.00000000
     atom    3 type  2   force =     0.00000000    0.00000000   -0.00000000
     The Hubbard contrib.    to forces
     atom    1 type  1   force =     0.00000000    0.00000000    0.00000000
     atom    2 type  1   force =     0.00000000    0.00000000    0.00000000
     atom    3 type  2   force =     0.00000000    0.00000000    0.00000000
     The SCF correction term to forces
     atom    1 type  1   force =     0.00000000   -0.00000000   -0.00000625
     atom    2 type  1   force =     0.00000000   -0.00000000    0.00000625
     atom    3 type  2   force =     0.00000000    0.00000000    0.00000000

     Total force =     0.116082     Total SCF correction =     0.000009


     Computing stress (Cartesian axis) and pressure

          total   stress  (Ry/bohr**3)                   (kbar)     P=      117.88
   0.00014872  -0.00000000   0.00000000           21.88       -0.00        0.00
  -0.00000000   0.00014872   0.00000000           -0.00       21.88        0.00
   0.00000000   0.00000000   0.00210652            0.00        0.00      309.88

     Energy error            =      6.0E-01 Ry
     Gradient error          =      8.2E-02 Ry/Bohr
     Cell gradient error     =      4.8E+02 kbar

     number of scf cycles    =   3
     number of bfgs steps    =   2

     enthalpy           old  =     -35.5824855157 Ry
     enthalpy           new  =     -36.1864299311 Ry

     CASE: enthalpy          _new < enthalpy          _old

     new trust radius        =       0.8000000000 bohr
ibrav =      4
 celldm(1) =      3.88572707
 celldm(3) =      2.89617431
Input lattice vectors:
     0.58509404     0.00000000     0.00000000
    -0.29254702     0.50670630     0.00000000
     0.00000000     0.00000000     1.69453432
New lattice vectors in INITIAL alat:
     0.58509404     0.00000000     0.00000000
    -0.29254702     0.50670630     0.00000000
     0.00000000     0.00000000     1.69453432
New lattice vectors in NEW alat (for information only):
     1.00000000     0.00000000     0.00000000
    -0.50000000     0.86602540     0.00000000
     0.00000000     0.00000000     2.89617431
Discrepancy in bohr =     0.000000    0.000000    0.000000
     new conv_thr            =       0.0000000082 Ry

     new unit-cell volume =    147.15405 a.u.^3 (    21.80598 Ang^3 )
     density =      3.19585 g/cm^3

CELL_PARAMETERS (alat=  6.64120092)
   0.585094039   0.000000000   0.000000000
  -0.292547019   0.506706301   0.000000000
   0.000000000   0.000000000   1.694534322

ATOMIC_POSITIONS (crystal)
Li            0.0000000000        0.0000000000        0.1869176043
Li            0.0000000000        0.0000000000        0.8130823957
Si           -0.0000000000       -0.0000000000        0.5000000000



     Writing config-only to output data dir ./output/LiSi.save/
     NEW-OLD atomic charge density approx. for the potential

     negative rho (up, down):  1.383E+00 0.000E+00
     extrapolated charge    0.21397, renormalised to   10.00000

     total cpu time spent up to now is       30.3 secs

     Self-consistent Calculation

     iteration #  1     ecut=    80.00 Ry     beta= 0.70
     Davidson diagonalization with overlap
     c_bands:  1 eigenvalues not converged
     c_bands:  1 eigenvalues not converged
     c_bands:  1 eigenvalues not converged
     c_bands:  1 eigenvalues not converged
     c_bands:  1 eigenvalues not converged
     c_bands:  1 eigenvalues not converged
     c_bands:  1 eigenvalues not converged
     c_bands:  1 eigenvalues not converged
     ethr =  1.00E-06,  avg # of iterations = 16.3

     negative rho (up, down):  1.659E+01 0.000E+00

     total cpu time spent up to now is       32.6 secs

     total energy              =    -202.15230923 Ry
     estimated scf accuracy    <    1816.64746969 Ry

     iteration #  2     ecut=    80.00 Ry     beta= 0.70
     Davidson diagonalization with overlap
     ethr =  1.00E-02,  avg # of iterations =  7.8

     negative rho (up, down):  8.118E-01 0.000E+00

     total cpu time spent up to now is       33.8 secs

     total energy              =      -3.28836851 Ry
     estimated scf accuracy    <     215.05557706 Ry

     iteration #  3     ecut=    80.00 Ry     beta= 0.70
     Davidson diagonalization with overlap
     ethr =  1.00E-02,  avg # of iterations =  9.4

     negative rho (up, down):  1.446E-01 0.000E+00

     total cpu time spent up to now is       35.4 secs

     total energy              =     -58.14307889 Ry
     estimated scf accuracy    <      83.53806198 Ry

     iteration #  4     ecut=    80.00 Ry     beta= 0.70
     Davidson diagonalization with overlap
     ethr =  1.00E-02,  avg # of iterations =  2.1

     negative rho (up, down):  8.903E-02 0.000E+00

     total cpu time spent up to now is       36.0 secs

     total energy              =     -37.90497127 Ry
     estimated scf accuracy    <      58.62214897 Ry

     iteration #  5     ecut=    80.00 Ry     beta= 0.70
     Davidson diagonalization with overlap
     ethr =  1.00E-02,  avg # of iterations =  3.8

     total cpu time spent up to now is       36.7 secs

     total energy              =     -37.43545211 Ry
     estimated scf accuracy    <      11.09320336 Ry

     iteration #  6     ecut=    80.00 Ry     beta= 0.70
     Davidson diagonalization with overlap
     ethr =  1.00E-02,  avg # of iterations =  2.1

     total cpu time spent up to now is       37.3 secs

     total energy              =     -37.16213166 Ry
     estimated scf accuracy    <       3.55726278 Ry

     iteration #  7     ecut=    80.00 Ry     beta= 0.70
     Davidson diagonalization with overlap
     ethr =  1.00E-02,  avg # of iterations =  1.2

     total cpu time spent up to now is       37.8 secs

     total energy              =     -36.36718901 Ry
     estimated scf accuracy    <       2.01013416 Ry

     iteration #  8     ecut=    80.00 Ry     beta= 0.70
     Davidson diagonalization with overlap
     ethr =  1.00E-02,  avg # of iterations =  2.5

     total cpu time spent up to now is       38.3 secs

     total energy              =     -36.82272970 Ry
     estimated scf accuracy    <       0.42667170 Ry

     iteration #  9     ecut=    80.00 Ry     beta= 0.70
     Davidson diagonalization with overlap
     ethr =  4.27E-03,  avg # of iterations =  1.1

     total cpu time spent up to now is       38.8 secs

     total energy              =     -36.81124675 Ry
     estimated scf accuracy    <       0.28417763 Ry

     iteration # 10     ecut=    80.00 Ry     beta= 0.70
     Davidson diagonalization with overlap
     ethr =  2.84E-03,  avg # of iterations =  1.1

     total cpu time spent up to now is       39.3 secs

     total energy              =     -36.76510031 Ry
     estimated scf accuracy    <       0.20921292 Ry

     iteration # 11     ecut=    80.00 Ry     beta= 0.70
     Davidson diagonalization with overlap
     ethr =  2.09E-03,  avg # of iterations =  2.2

     total cpu time spent up to now is       39.8 secs

     total energy              =     -36.74488715 Ry
     estimated scf accuracy    <       0.20467531 Ry

     iteration # 12     ecut=    80.00 Ry     beta= 0.70
     Davidson diagonalization with overlap
     ethr =  2.05E-03,  avg # of iterations =  1.0

     total cpu time spent up to now is       40.3 secs

     total energy              =     -36.75261026 Ry
     estimated scf accuracy    <       0.02305388 Ry

     iteration # 13     ecut=    80.00 Ry     beta= 0.70
     Davidson diagonalization with overlap
     ethr =  2.31E-04,  avg # of iterations =  2.3

     total cpu time spent up to now is       40.8 secs

     total energy              =     -36.75902810 Ry
     estimated scf accuracy    <       0.01554428 Ry

     iteration # 14     ecut=    80.00 Ry     beta= 0.70
     Davidson diagonalization with overlap
     ethr =  1.55E-04,  avg # of iterations =  1.2

     total cpu time spent up to now is       41.3 secs

     total energy              =     -36.75236459 Ry
     estimated scf accuracy    <       0.02710290 Ry

     iteration # 15     ecut=    80.00 Ry     beta= 0.70
     Davidson diagonalization with overlap
     ethr =  1.55E-04,  avg # of iterations =  1.1

     total cpu time spent up to now is       41.7 secs

     total energy              =     -36.75337564 Ry
     estimated scf accuracy    <       0.00586714 Ry

     iteration # 16     ecut=    80.00 Ry     beta= 0.70
     Davidson diagonalization with overlap
     ethr =  5.87E-05,  avg # of iterations =  1.0

     total cpu time spent up to now is       42.2 secs

     total energy              =     -36.75336566 Ry
     estimated scf accuracy    <       0.00466260 Ry

     iteration # 17     ecut=    80.00 Ry     beta= 0.70
     Davidson diagonalization with overlap
     ethr =  4.66E-05,  avg # of iterations =  1.0

     total cpu time spent up to now is       42.7 secs

     total energy              =     -36.75138655 Ry
     estimated scf accuracy    <       0.00445423 Ry

     iteration # 18     ecut=    80.00 Ry     beta= 0.70
     Davidson diagonalization with overlap
     ethr =  4.45E-05,  avg # of iterations =  1.9

     total cpu time spent up to now is       43.2 secs

     total energy              =     -36.75209742 Ry
     estimated scf accuracy    <       0.00002224 Ry

     iteration # 19     ecut=    80.00 Ry     beta= 0.70
     Davidson diagonalization with overlap
     ethr =  2.22E-07,  avg # of iterations =  3.5

     total cpu time spent up to now is       43.8 secs

     total energy              =     -36.75209889 Ry
     estimated scf accuracy    <       0.00000953 Ry

     iteration # 20     ecut=    80.00 Ry     beta= 0.70
     Davidson diagonalization with overlap
     ethr =  9.53E-08,  avg # of iterations =  1.3

     total cpu time spent up to now is       44.2 secs

     total energy              =     -36.75209941 Ry
     estimated scf accuracy    <       0.00000134 Ry

     iteration # 21     ecut=    80.00 Ry     beta= 0.70
     Davidson diagonalization with overlap
     ethr =  1.34E-08,  avg # of iterations =  1.4

     total cpu time spent up to now is       44.7 secs

     total energy              =     -36.75209944 Ry
     estimated scf accuracy    <       0.00000023 Ry

     iteration # 22     ecut=    80.00 Ry     beta= 0.70
     Davidson diagonalization with overlap
     ethr =  2.34E-09,  avg # of iterations =  1.5

     total cpu time spent up to now is       45.2 secs

     total energy              =     -36.75209946 Ry
     estimated scf accuracy    <       0.00000003 Ry

     iteration # 23     ecut=    80.00 Ry     beta= 0.70
     Davidson diagonalization with overlap
     ethr =  3.29E-10,  avg # of iterations =  1.6

     total cpu time spent up to now is       45.7 secs

     total energy              =     -36.75209946 Ry
     estimated scf accuracy    <          8.3E-09 Ry

     iteration # 24     ecut=    80.00 Ry     beta= 0.70
     Davidson diagonalization with overlap
     ethr =  8.28E-11,  avg # of iterations =  1.9

     total cpu time spent up to now is       46.1 secs

     End of self-consistent calculation

          k = 0.0000 0.0000 0.0000 (  7763 PWs)   bands (ev):

   -35.3666 -35.2750  -5.8197   3.1624   8.2728  14.0006  18.9812  31.3370
    31.6479

          k = 0.0000 0.0000 0.1475 (  7685 PWs)   bands (ev):

   -35.3648 -35.2769  -5.8176   3.1577   8.2960  13.7004  19.9173  27.5693
    35.8332

          k = 0.0000 0.0000-0.2951 (  7656 PWs)   bands (ev):

   -35.3628 -35.2789  -5.8155   3.1530   8.3199  13.4459  21.1749  25.4302
    38.7437

          k = 0.0000 0.1794 0.0000 (  7707 PWs)   bands (ev):

   -35.3212 -35.2318  -5.4617   3.4621   8.5135  14.2407  18.8985  26.7989
    30.5744

          k = 0.0000 0.1794 0.1475 (  7708 PWs)   bands (ev):

   -35.3194 -35.2336  -5.4597   3.4573   8.5486  13.8818  19.8774  26.6933
    27.6143

          k = 0.0000 0.1794-0.2951 (  7702 PWs)   bands (ev):

   -35.3176 -35.2355  -5.4578   3.4525   8.5850  13.5834  21.1556  25.3445
    26.9269

          k = 0.0000 0.3588 0.0000 (  7695 PWs)   bands (ev):

   -35.1985 -35.1151  -4.3979   4.3577   9.2067  14.9468  18.6731  21.3496
    30.4025

          k = 0.0000 0.3588 0.1475 (  7710 PWs)   bands (ev):

   -35.1969 -35.1167  -4.3963   4.3488   9.2905  14.3973  19.5657  21.6364
    26.9100

          k = 0.0000 0.3588-0.2951 (  7684 PWs)   bands (ev):

   -35.1953 -35.1184  -4.3947   4.3400   9.3809  13.9629  20.2206  22.5881
    24.9708

          k = 0.0000 0.5382 0.0000 (  7692 PWs)   bands (ev):

   -35.0358 -34.9604  -2.6611   5.8356  10.2517  15.3079  17.0675  18.2276
    25.7233

          k = 0.0000 0.5382 0.1475 (  7678 PWs)   bands (ev):

   -35.0345 -34.9617  -2.6596   5.8046  10.4578  15.0203  16.0012  20.0885
    24.7244

          k = 0.0000 0.5382-0.2951 (  7682 PWs)   bands (ev):

   -35.0331 -34.9631  -2.6581   5.7746  10.6978  14.4987  15.7523  22.1109
    23.1482

          k = 0.0000 0.7176 0.0000 (  7650 PWs)   bands (ev):

   -34.8843 -34.8164  -0.3228   7.8472  10.7519  12.0148  16.9157  18.1395
    22.6298

          k = 0.0000 0.7176 0.1475 (  7665 PWs)   bands (ev):

   -34.8831 -34.8175  -0.3198   7.7416  10.9695  12.1695  15.8616  19.0740
    22.3175

          k = 0.0000 0.7176-0.2951 (  7660 PWs)   bands (ev):

   -34.8820 -34.8186  -0.3168   7.6468  11.1556  12.4265  15.0951  19.6425
    23.6835

          k = 0.0000 0.8971 0.0000 (  7650 PWs)   bands (ev):

   -34.7933 -34.7299   2.3168   7.3328  10.1081  12.7203  14.5063  19.4452
    21.7214

          k = 0.0000 0.8971 0.1475 (  7645 PWs)   bands (ev):

   -34.7923 -34.7309   2.3256   7.3473   9.7670  13.3505  14.7115  18.8892
    20.7056

          k = 0.0000 0.8971-0.2951 (  7656 PWs)   bands (ev):

   -34.7913 -34.7319   2.3345   7.3627   9.5079  13.7304  15.5262  17.4909
    20.5625

          k = 0.1554 0.2691 0.0000 (  7715 PWs)   bands (ev):

   -35.2371 -35.1518  -4.7507   4.0599   8.9818  14.7191  18.7577  26.5238
    31.8403

          k = 0.1554 0.2691 0.1475 (  7702 PWs)   bands (ev):

   -35.2355 -35.1535  -4.7490   4.0532   9.0471  14.2329  19.7935  26.1229
    28.9591

          k = 0.1554 0.2691-0.2951 (  7694 PWs)   bands (ev):

   -35.2338 -35.1552  -4.7474   4.0464   9.1165  13.8435  21.0223  23.2048
    25.1758

          k = 0.1554 0.4485 0.0000 (  7696 PWs)   bands (ev):

   -35.0943 -35.0160  -3.3498   5.2494   9.8663  15.5981  18.5278  18.5347
    24.1408

          k = 0.1554 0.4485 0.1475 (  7685 PWs)   bands (ev):

   -35.0929 -35.0175  -3.3484   5.2302  10.0154  14.8797  18.2179  19.9176
    24.2677

          k = 0.1554 0.4485-0.2951 (  7676 PWs)   bands (ev):

   -35.0914 -35.0190  -3.3469   5.2114  10.1829  14.3175  18.1926  20.9556
    24.5742

          k = 0.1554 0.6279 0.0000 (  7672 PWs)   bands (ev):

   -34.9370 -34.8665  -1.3065   7.0087  11.0092  13.5567  17.2937  17.9439
    23.7896

          k = 0.1554 0.6279 0.1475 (  7660 PWs)   bands (ev):

   -34.9358 -34.8677  -1.3045   6.9463  11.3374  13.5399  15.7943  19.4593
    22.1448

          k = 0.1554 0.6279-0.2951 (  7670 PWs)   bands (ev):

   -34.9346 -34.8689  -1.3024   6.8876  11.7580  13.4839  14.9441  20.4345
    21.5819

          k = 0.1554 0.8074 0.0000 (  7653 PWs)   bands (ev):

   -34.8155 -34.7510   1.2554   9.1909   9.2415  12.5245  15.9902  18.5046
    21.5337

          k = 0.1554 0.8074 0.1475 (  7664 PWs)   bands (ev):

   -34.8145 -34.7520   1.2605   9.0276   9.2522  12.9887  15.8097  18.4888
    20.3860

          k = 0.1554 0.8074-0.2951 (  7646 PWs)   bands (ev):

   -34.8134 -34.7531   1.2656   8.8862   9.2632  13.5263  15.5694  18.2947
    19.9300

          k = 0.1554 0.9868 0.0000 (  7656 PWs)   bands (ev):

   -34.7699 -34.7076   3.2724   6.6631  10.9845  13.1670  14.0479  18.8751
    20.7553

          k = 0.1554 0.9868 0.1475 (  7652 PWs)   bands (ev):

   -34.7689 -34.7086   3.2848   6.6689  10.5014  14.0072  14.2809  19.1119
    19.8619

          k = 0.1554 0.9868-0.2951 (  7648 PWs)   bands (ev):

   -34.7680 -34.7096   3.2975   6.6746  10.1793  13.9672  15.8706  17.7479
    19.7210

          k = 0.3108 0.5382 0.0000 (  7667 PWs)   bands (ev):

   -34.9567 -34.8852  -1.6396   6.7291  10.9205  15.2054  16.4551  18.4717
    21.2729

          k = 0.3108 0.5382 0.1475 (  7673 PWs)   bands (ev):

   -34.9555 -34.8864  -1.6378   6.6789  11.2002  15.2109  15.6328  18.5448
    22.5493

          k = 0.3108 0.5382-0.2951 (  7684 PWs)   bands (ev):

   -34.9543 -34.8877  -1.6361   6.6313  11.5398  14.9109  15.2165  18.5847
    24.0002

          k = 0.3108 0.7176 0.0000 (  7663 PWs)   bands (ev):

   -34.8291 -34.7638   0.6621   8.7695  11.3454  12.4097  16.5242  17.8961
    21.0551

          k = 0.3108 0.7176 0.1475 (  7652 PWs)   bands (ev):

   -34.8280 -34.7649   0.6656   8.6421  11.4092  12.8188  16.3221  17.3024
    20.1589

          k = 0.3108 0.7176-0.2951 (  7652 PWs)   bands (ev):

   -34.8270 -34.7660   0.6691   8.5296  11.4504  13.3949  15.7269  17.0452
    19.8253

          k = 0.3108 0.8971 0.0000 (  7642 PWs)   bands (ev):

   -34.7527 -34.6912   3.2782   7.9151  11.1643  13.7397  15.3522  16.0801
    20.1000

          k = 0.3108 0.8971 0.1475 (  7652 PWs)   bands (ev):

   -34.7517 -34.6921   3.2868   7.9251  10.8269  14.3459  15.5828  16.1701
    19.1452

          k = 0.3108 0.8971-0.2951 (  7646 PWs)   bands (ev):

   -34.7508 -34.6931   3.2954   7.9354  10.5726  14.6586  16.2667  16.5899
    17.8040

          k = 0.4661 0.8074 0.0000 (  7671 PWs)   bands (ev):

   -34.7464 -34.6851   3.1275   9.1972  11.0989  13.6697  14.6342  18.0287
    19.9857

          k = 0.4661 0.8074 0.1475 (  7655 PWs)   bands (ev):

   -34.7455 -34.6861   3.1340   9.2052  10.8521  14.1031  14.8933  17.4465
    17.6197

          k = 0.4661 0.8074-0.2951 (  7664 PWs)   bands (ev):

   -34.7445 -34.6871   3.1405   9.2134  10.6557  14.3681  15.4883  17.0239
    17.1339

          k = 0.4661 0.9868 0.0000 (  7648 PWs)   bands (ev):

   -34.7155 -34.6557   5.2359   7.1298  13.3042  13.3937  15.1735  15.4403
    18.0842

          k = 0.4661 0.9868 0.1475 (  7675 PWs)   bands (ev):

   -34.7146 -34.6567   5.2466   7.1373  12.8225  13.4423  14.9466  16.5489
    17.3878

          k = 0.4661 0.9868-0.2951 (  7692 PWs)   bands (ev):

   -34.7137 -34.6576   5.2574   7.1449  12.5034  13.4939  14.7539  17.1496
    18.1078

     the Fermi energy is    12.3533 ev

!    total energy              =     -36.75209946 Ry
     estimated scf accuracy    <          4.1E-10 Ry
     smearing contrib. (-TS)   =      -0.00024770 Ry
     internal energy E=F+TS    =     -36.75185176 Ry

     The total energy is F=E-TS. E is the sum of the following terms:
     one-electron contribution =      -6.89334060 Ry
     hartree contribution      =       6.09552567 Ry
     xc contribution           =     -10.72044467 Ry
     ewald contribution        =     -25.23359216 Ry

     convergence has been achieved in  24 iterations

     Forces acting on atoms (cartesian axes, Ry/au):

     atom    1 type  1   force =     0.00000000    0.00000000   -0.13326975
     atom    2 type  1   force =     0.00000000    0.00000000    0.13326975
     atom    3 type  2   force =     0.00000000    0.00000000   -0.00000000
     The non-local contrib.  to forces
     atom    1 type  1   force =     0.00000000    0.00000000    0.12013246
     atom    2 type  1   force =     0.00000000    0.00000000   -0.12013246
     atom    3 type  2   force =     0.00000000    0.00000000    0.00000000
     The ionic contribution  to forces
     atom    1 type  1   force =     0.00000000    0.00000000   -2.20567579
     atom    2 type  1   force =     0.00000000    0.00000000    2.20567579
     atom    3 type  2   force =    -0.00000000    0.00000000    0.00000000
     The local contribution  to forces
     atom    1 type  1   force =     0.00000000   -0.00000000    1.95230813
     atom    2 type  1   force =    -0.00000000    0.00000000   -1.95230813
     atom    3 type  2   force =     0.00000000   -0.00000000   -0.00000000
     The core correction contribution to forces
     atom    1 type  1   force =     0.00000000    0.00000000    0.00000000
     atom    2 type  1   force =     0.00000000    0.00000000    0.00000000
     atom    3 type  2   force =     0.00000000    0.00000000   -0.00000000
     The Hubbard contrib.    to forces
     atom    1 type  1   force =     0.00000000    0.00000000    0.00000000
     atom    2 type  1   force =     0.00000000    0.00000000    0.00000000
     atom    3 type  2   force =     0.00000000    0.00000000    0.00000000
     The SCF correction term to forces
     atom    1 type  1   force =    -0.00000000   -0.00000000   -0.00003455
     atom    2 type  1   force =    -0.00000000   -0.00000000    0.00003455
     atom    3 type  2   force =     0.00000000   -0.00000000    0.00000000

     Total force =     0.188472     Total SCF correction =     0.000049


     Computing stress (Cartesian axis) and pressure

          total   stress  (Ry/bohr**3)                   (kbar)     P=     1359.79
   0.01008943   0.00000000   0.00000000         1484.21        0.00        0.00
   0.00000000   0.01008943   0.00000000            0.00     1484.21        0.00
   0.00000000   0.00000000   0.00755221            0.00        0.00     1110.97

     Energy error            =      6.6E-02 Ry
     Gradient error          =      1.3E-01 Ry/Bohr
     Cell gradient error     =      9.8E+02 kbar

     number of scf cycles    =   4
     number of bfgs steps    =   3

     enthalpy           old  =     -36.1864299311 Ry
     enthalpy           new  =     -36.2519330229 Ry

     CASE: enthalpy          _new < enthalpy          _old

     new trust radius        =       0.4163502763 bohr
ibrav =      4
 celldm(1) =      4.55255695
 celldm(3) =      2.70578937
Input lattice vectors:
     0.68550207    -0.00000000     0.00000000
    -0.34275103     0.59366220     0.00000000
    -0.00000000     0.00000000     1.85482420
New lattice vectors in INITIAL alat:
     0.68550207     0.00000000     0.00000000
    -0.34275103     0.59366220     0.00000000
     0.00000000     0.00000000     1.85482420
New lattice vectors in NEW alat (for information only):
     1.00000000     0.00000000     0.00000000
    -0.50000000     0.86602540     0.00000000
     0.00000000     0.00000000     2.70578937
Discrepancy in bohr =     0.000000    0.000000    0.000000
     new conv_thr            =       0.0000000100 Ry

     new unit-cell volume =    221.10104 a.u.^3 (    32.76379 Ang^3 )
     density =      2.12700 g/cm^3

CELL_PARAMETERS (alat=  6.64120092)
   0.685502066   0.000000000   0.000000000
  -0.342751033   0.593662203   0.000000000
   0.000000000   0.000000000   1.854824202

ATOMIC_POSITIONS (crystal)
Li            0.0000000000        0.0000000000        0.1872843547
Li            0.0000000000        0.0000000000        0.8127156453
Si           -0.0000000000       -0.0000000000        0.5000000000



     Writing config-only to output data dir ./output/LiSi.save/
     NEW-OLD atomic charge density approx. for the potential
     extrapolated charge   13.34123, renormalised to   10.00000

     total cpu time spent up to now is       48.3 secs

     Self-consistent Calculation

     iteration #  1     ecut=    80.00 Ry     beta= 0.70
     Davidson diagonalization with overlap
     c_bands:  1 eigenvalues not converged
     ethr =  1.00E-06,  avg # of iterations = 10.1

     total cpu time spent up to now is       49.8 secs

     total energy              =     -35.93898327 Ry
     estimated scf accuracy    <       0.99485977 Ry

     iteration #  2     ecut=    80.00 Ry     beta= 0.70
     Davidson diagonalization with overlap
     ethr =  9.95E-03,  avg # of iterations =  4.4

     total cpu time spent up to now is       50.5 secs

     total energy              =     -37.27967317 Ry
     estimated scf accuracy    <       4.77831348 Ry

     iteration #  3     ecut=    80.00 Ry     beta= 0.70
     Davidson diagonalization with overlap
     ethr =  9.95E-03,  avg # of iterations =  1.9

     total cpu time spent up to now is       51.0 secs

     total energy              =     -37.11628044 Ry
     estimated scf accuracy    <       1.82450092 Ry

     iteration #  4     ecut=    80.00 Ry     beta= 0.70
     Davidson diagonalization with overlap
     ethr =  9.95E-03,  avg # of iterations =  1.2

     total cpu time spent up to now is       51.5 secs

     total energy              =     -37.17781519 Ry
     estimated scf accuracy    <       0.39996475 Ry

     iteration #  5     ecut=    80.00 Ry     beta= 0.70
     Davidson diagonalization with overlap
     ethr =  4.00E-03,  avg # of iterations =  1.0

     total cpu time spent up to now is       51.9 secs

     total energy              =     -37.06405905 Ry
     estimated scf accuracy    <       0.38610635 Ry

     iteration #  6     ecut=    80.00 Ry     beta= 0.70
     Davidson diagonalization with overlap
     ethr =  3.86E-03,  avg # of iterations =  1.5

     total cpu time spent up to now is       52.4 secs

     total energy              =     -37.10849192 Ry
     estimated scf accuracy    <       0.00362241 Ry

     iteration #  7     ecut=    80.00 Ry     beta= 0.70
     Davidson diagonalization with overlap
     ethr =  3.62E-05,  avg # of iterations =  4.2

     total cpu time spent up to now is       53.1 secs

     total energy              =     -37.11069288 Ry
     estimated scf accuracy    <       0.00733739 Ry

     iteration #  8     ecut=    80.00 Ry     beta= 0.70
     Davidson diagonalization with overlap
     ethr =  3.62E-05,  avg # of iterations =  1.1

     total cpu time spent up to now is       53.6 secs

     total energy              =     -37.10840221 Ry
     estimated scf accuracy    <       0.00570682 Ry

     iteration #  9     ecut=    80.00 Ry     beta= 0.70
     Davidson diagonalization with overlap
     ethr =  3.62E-05,  avg # of iterations =  1.6

     total cpu time spent up to now is       54.1 secs

     total energy              =     -37.10929832 Ry
     estimated scf accuracy    <       0.00002101 Ry

     iteration # 10     ecut=    80.00 Ry     beta= 0.70
     Davidson diagonalization with overlap
     ethr =  2.10E-07,  avg # of iterations =  3.1

     total cpu time spent up to now is       54.7 secs

     total energy              =     -37.10927792 Ry
     estimated scf accuracy    <       0.00030189 Ry

     iteration # 11     ecut=    80.00 Ry     beta= 0.70
     Davidson diagonalization with overlap
     ethr =  2.10E-07,  avg # of iterations =  2.2

     total cpu time spent up to now is       55.2 secs

     total energy              =     -37.10926826 Ry
     estimated scf accuracy    <       0.00007062 Ry

     iteration # 12     ecut=    80.00 Ry     beta= 0.70
     Davidson diagonalization with overlap
     ethr =  2.10E-07,  avg # of iterations =  2.1

     total cpu time spent up to now is       55.8 secs

     total energy              =     -37.10928244 Ry
     estimated scf accuracy    <       0.00000206 Ry

     iteration # 13     ecut=    80.00 Ry     beta= 0.70
     Davidson diagonalization with overlap
     ethr =  2.06E-08,  avg # of iterations =  1.4

     total cpu time spent up to now is       56.2 secs

     total energy              =     -37.10928254 Ry
     estimated scf accuracy    <       0.00000048 Ry

     iteration # 14     ecut=    80.00 Ry     beta= 0.70
     Davidson diagonalization with overlap
     ethr =  4.81E-09,  avg # of iterations =  1.0

     total cpu time spent up to now is       56.7 secs

     total energy              =     -37.10928254 Ry
     estimated scf accuracy    <       0.00000021 Ry

     iteration # 15     ecut=    80.00 Ry     beta= 0.70
     Davidson diagonalization with overlap
     ethr =  2.13E-09,  avg # of iterations =  1.1

     total cpu time spent up to now is       57.1 secs

     total energy              =     -37.10928253 Ry
     estimated scf accuracy    <       0.00000011 Ry

     iteration # 16     ecut=    80.00 Ry     beta= 0.70
     Davidson diagonalization with overlap
     ethr =  1.12E-09,  avg # of iterations =  1.0

     total cpu time spent up to now is       57.6 secs

     total energy              =     -37.10928251 Ry
     estimated scf accuracy    <       0.00000005 Ry

     iteration # 17     ecut=    80.00 Ry     beta= 0.70
     Davidson diagonalization with overlap
     ethr =  5.07E-10,  avg # of iterations =  1.5

     total cpu time spent up to now is       58.1 secs

     End of self-consistent calculation

          k = 0.0000 0.0000 0.0000 (  7763 PWs)   bands (ev):

   -39.0746 -39.0384  -6.6471   1.0685   4.0555  10.2912  12.5102  23.6290
    24.6764

          k = 0.0000 0.0000 0.1348 (  7685 PWs)   bands (ev):
[...]
        k(    3) = (   0.0000000   0.0000000  -0.2824248), wk =   0.0041322
        k(    4) = (   0.0000000   0.1600836   0.0000000), wk =   0.0247934
        k(    5) = (   0.0000000   0.1600836   0.1412124), wk =   0.0495868
        k(    6) = (   0.0000000   0.1600836  -0.2824248), wk =   0.0247934
        k(    7) = (   0.0000000   0.3201671   0.0000000), wk =   0.0247934
        k(    8) = (   0.0000000   0.3201671   0.1412124), wk =   0.0495868
        k(    9) = (   0.0000000   0.3201671  -0.2824248), wk =   0.0247934
        k(   10) = (   0.0000000   0.4802507   0.0000000), wk =   0.0247934
        k(   11) = (   0.0000000   0.4802507   0.1412124), wk =   0.0495868
        k(   12) = (   0.0000000   0.4802507  -0.2824248), wk =   0.0247934
        k(   13) = (   0.0000000   0.6403343   0.0000000), wk =   0.0247934
        k(   14) = (   0.0000000   0.6403343   0.1412124), wk =   0.0495868
        k(   15) = (   0.0000000   0.6403343  -0.2824248), wk =   0.0247934
        k(   16) = (   0.0000000   0.8004179   0.0000000), wk =   0.0247934
        k(   17) = (   0.0000000   0.8004179   0.1412124), wk =   0.0495868
        k(   18) = (   0.0000000   0.8004179  -0.2824248), wk =   0.0247934
        k(   19) = (   0.1386364   0.2401254   0.0000000), wk =   0.0247934
        k(   20) = (   0.1386364   0.2401254   0.1412124), wk =   0.0495868
        k(   21) = (   0.1386364   0.2401254  -0.2824248), wk =   0.0247934
        k(   22) = (   0.1386364   0.4002089   0.0000000), wk =   0.0495868
        k(   23) = (   0.1386364   0.4002089   0.1412124), wk =   0.0991736
        k(   24) = (   0.1386364   0.4002089  -0.2824248), wk =   0.0495868
        k(   25) = (   0.1386364   0.5602925   0.0000000), wk =   0.0495868
        k(   26) = (   0.1386364   0.5602925   0.1412124), wk =   0.0991736
        k(   27) = (   0.1386364   0.5602925  -0.2824248), wk =   0.0495868
        k(   28) = (   0.1386364   0.7203761   0.0000000), wk =   0.0495868
        k(   29) = (   0.1386364   0.7203761   0.1412124), wk =   0.0991736
        k(   30) = (   0.1386364   0.7203761  -0.2824248), wk =   0.0495868
        k(   31) = (   0.1386364   0.8804596   0.0000000), wk =   0.0247934
        k(   32) = (   0.1386364   0.8804596   0.1412124), wk =   0.0495868
        k(   33) = (   0.1386364   0.8804596  -0.2824248), wk =   0.0247934
        k(   34) = (   0.2772729   0.4802507   0.0000000), wk =   0.0247934
        k(   35) = (   0.2772729   0.4802507   0.1412124), wk =   0.0495868
        k(   36) = (   0.2772729   0.4802507  -0.2824248), wk =   0.0247934
        k(   37) = (   0.2772729   0.6403343   0.0000000), wk =   0.0495868
        k(   38) = (   0.2772729   0.6403343   0.1412124), wk =   0.0991736
        k(   39) = (   0.2772729   0.6403343  -0.2824248), wk =   0.0495868
        k(   40) = (   0.2772729   0.8004179   0.0000000), wk =   0.0495868
        k(   41) = (   0.2772729   0.8004179   0.1412124), wk =   0.0991736
        k(   42) = (   0.2772729   0.8004179  -0.2824248), wk =   0.0495868
        k(   43) = (   0.4159093   0.7203761   0.0000000), wk =   0.0247934
        k(   44) = (   0.4159093   0.7203761   0.1412124), wk =   0.0495868
        k(   45) = (   0.4159093   0.7203761  -0.2824248), wk =   0.0247934
        k(   46) = (   0.4159093   0.8804596   0.0000000), wk =   0.0247934
        k(   47) = (   0.4159093   0.8804596   0.1412124), wk =   0.0495868
        k(   48) = (   0.4159093   0.8804596  -0.2824248), wk =   0.0247934

     Dense  grid:    18703 G-vectors     FFT dimensions: (  25,  25,  72)

     Estimated max dynamical RAM per process >      15.33 MB

     Estimated total dynamical RAM >     122.61 MB

     Initial potential from superposition of free atoms

     starting charge       9.9903, renormalised to      10.0000
     Starting wfcs are    8 randomized atomic wfcs +    1 random wfcs

     total cpu time spent up to now is      113.6 secs

     Self-consistent Calculation

     iteration #  1     ecut=    80.00 Ry     beta= 0.70
     Davidson diagonalization with overlap
     c_bands:  2 eigenvalues not converged
     c_bands:  1 eigenvalues not converged
     c_bands:  1 eigenvalues not converged
     c_bands:  1 eigenvalues not converged
     c_bands:  1 eigenvalues not converged
     c_bands:  1 eigenvalues not converged
     c_bands:  1 eigenvalues not converged
     c_bands:  1 eigenvalues not converged
     c_bands:  1 eigenvalues not converged
     ethr =  1.00E-06,  avg # of iterations = 16.0

     total cpu time spent up to now is      114.3 secs

     total energy              =     -36.91517583 Ry
     estimated scf accuracy    <       0.23334240 Ry

     iteration #  2     ecut=    80.00 Ry     beta= 0.70
     Davidson diagonalization with overlap
     ethr =  2.33E-03,  avg # of iterations =  3.0

     total cpu time spent up to now is      114.5 secs

     total energy              =     -36.74664833 Ry
     estimated scf accuracy    <       2.57328928 Ry

     iteration #  3     ecut=    80.00 Ry     beta= 0.70
     Davidson diagonalization with overlap
     ethr =  2.33E-03,  avg # of iterations =  2.2

     total cpu time spent up to now is      114.7 secs

     total energy              =     -37.06485593 Ry
     estimated scf accuracy    <       0.00084585 Ry

     iteration #  4     ecut=    80.00 Ry     beta= 0.70
     Davidson diagonalization with overlap
     ethr =  8.46E-06,  avg # of iterations =  5.2

     total cpu time spent up to now is      115.0 secs

     total energy              =     -37.06513393 Ry
     estimated scf accuracy    <       0.00024246 Ry

     iteration #  5     ecut=    80.00 Ry     beta= 0.70
     Davidson diagonalization with overlap
     ethr =  2.42E-06,  avg # of iterations =  1.6

     total cpu time spent up to now is      115.2 secs

     total energy              =     -37.06516834 Ry
     estimated scf accuracy    <       0.00002018 Ry

     iteration #  6     ecut=    80.00 Ry     beta= 0.70
     Davidson diagonalization with overlap
     ethr =  2.02E-07,  avg # of iterations =  1.2

     total cpu time spent up to now is      115.3 secs

     total energy              =     -37.06517201 Ry
     estimated scf accuracy    <       0.00000230 Ry

     iteration #  7     ecut=    80.00 Ry     beta= 0.70
     Davidson diagonalization with overlap
     ethr =  2.30E-08,  avg # of iterations =  1.1

     total cpu time spent up to now is      115.5 secs

     total energy              =     -37.06517217 Ry
     estimated scf accuracy    <       0.00000011 Ry

     iteration #  8     ecut=    80.00 Ry     beta= 0.70
     Davidson diagonalization with overlap
     ethr =  1.09E-09,  avg # of iterations =  1.8

     total cpu time spent up to now is      115.7 secs

     total energy              =     -37.06517218 Ry
     estimated scf accuracy    <          2.2E-10 Ry

     iteration #  9     ecut=    80.00 Ry     beta= 0.70
     Davidson diagonalization with overlap
     ethr =  2.21E-12,  avg # of iterations =  3.9

     total cpu time spent up to now is      115.9 secs

     total energy              =     -37.06517219 Ry
     estimated scf accuracy    <          1.6E-10 Ry

     iteration # 10     ecut=    80.00 Ry     beta= 0.70
     Davidson diagonalization with overlap
     ethr =  1.55E-12,  avg # of iterations =  1.0

     total cpu time spent up to now is      116.1 secs

     End of self-consistent calculation

          k = 0.0000 0.0000 0.0000 (  2325 PWs)   bands (ev):

   -37.7054 -37.4716  -6.2153   1.7530   5.5211  10.7058  15.5539  24.5823
    24.5824

          k = 0.0000 0.0000 0.1412 (  2349 PWs)   bands (ev):

   -37.7051 -37.4718  -6.2139   1.7249   5.6835  10.1275  16.8319  23.1167
    24.5838

          k = 0.0000 0.0000-0.2824 (  2362 PWs)   bands (ev):

   -37.7049 -37.4721  -6.2124   1.6977   5.8661   9.6295  19.5490  19.7107
    24.5853

          k = 0.0000 0.1601 0.0000 (  2333 PWs)   bands (ev):

   -37.6868 -37.4555  -5.9210   2.0146   5.6810  10.9446  15.5332  21.1356
    23.0750

          k = 0.0000 0.1601 0.1412 (  2330 PWs)   bands (ev):

   -37.6866 -37.4557  -5.9195   1.9810   5.8610  10.3232  16.8104  21.0672
    22.9835

          k = 0.0000 0.1601-0.2824 (  2324 PWs)   bands (ev):

   -37.6864 -37.4559  -5.9180   1.9486   6.0649   9.7922  19.2982  19.6172
    21.5193

          k = 0.0000 0.3202 0.0000 (  2331 PWs)   bands (ev):

   -37.6368 -37.4121  -5.0429   2.7986   6.1547  11.6079  15.4580  16.5280
    21.3087

          k = 0.0000 0.3202 0.1412 (  2327 PWs)   bands (ev):

   -37.6366 -37.4123  -5.0410   2.7443   6.3913  10.8806  15.9728  17.3135
    21.3232

          k = 0.0000 0.3202-0.2824 (  2318 PWs)   bands (ev):

   -37.6364 -37.4125  -5.0392   2.6932   6.6637  10.2637  16.0938  19.6681
    19.7140

          k = 0.0000 0.4803 0.0000 (  2331 PWs)   bands (ev):

   -37.5710 -37.3550  -3.5958   4.1017   6.9125  11.3587  13.5651  15.1253
    19.9461

          k = 0.0000 0.4803 0.1412 (  2327 PWs)   bands (ev):

   -37.5709 -37.3551  -3.5930   3.9957   7.2570  11.2335  12.4172  16.7085
    19.8825

          k = 0.0000 0.4803-0.2824 (  2346 PWs)   bands (ev):

   -37.5707 -37.3553  -3.5903   3.9020   7.6573  10.8892  11.9186  18.3395
    18.9871

          k = 0.0000 0.6403 0.0000 (  2341 PWs)   bands (ev):

   -37.5102 -37.3022  -1.6110   5.9131   7.4414   8.2110  13.6336  14.6093
    18.1528

          k = 0.0000 0.6403 0.1412 (  2334 PWs)   bands (ev):

   -37.5101 -37.3023  -1.6061   5.6734   7.6596   8.5065  12.7141  15.1709
    18.1515

          k = 0.0000 0.6403-0.2824 (  2332 PWs)   bands (ev):

   -37.5099 -37.3025  -1.6010   5.4934   7.7595   8.9451  11.9979  15.4173
    18.1527

          k = 0.0000 0.8004 0.0000 (  2330 PWs)   bands (ev):

   -37.4739 -37.2707   0.7814   4.3369   8.1859   8.8111  10.9751  15.1682
    17.1194

          k = 0.0000 0.8004 0.1412 (  2337 PWs)   bands (ev):

   -37.4738 -37.2708   0.7927   4.3516   7.4814   9.5648  11.4505  14.9633
    16.3638

          k = 0.0000 0.8004-0.2824 (  2344 PWs)   bands (ev):

   -37.4737 -37.2710   0.8041   4.3670   7.1281   9.8306  12.7630  13.6781
    15.7141

          k = 0.1386 0.2401 0.0000 (  2329 PWs)   bands (ev):

   -37.6525 -37.4257  -5.3348   2.5375   5.9989  11.4042  15.4952  18.3264
    19.9353

          k = 0.1386 0.2401 0.1412 (  2328 PWs)   bands (ev):

   -37.6523 -37.4259  -5.3331   2.4909   6.2159  10.7030  16.6960  18.3340
    19.9054

          k = 0.1386 0.2401-0.2824 (  2326 PWs)   bands (ev):

   -37.6521 -37.4261  -5.3313   2.4466   6.4646  10.1108  18.2285  18.3416
    19.7207

          k = 0.1386 0.4002 0.0000 (  2320 PWs)   bands (ev):

   -37.5946 -37.3754  -4.1719   3.5818   6.6260  12.1056  14.4104  15.3873
    17.9342

          k = 0.1386 0.4002 0.1412 (  2328 PWs)   bands (ev):

   -37.5945 -37.3756  -4.1696   3.5002   6.9238  11.3777  14.1197  16.4092
    18.3947

          k = 0.1386 0.4002-0.2824 (  2326 PWs)   bands (ev):

   -37.5943 -37.3758  -4.1673   3.4259   7.2698  10.7139  14.0478  16.8925
    19.5265

          k = 0.1386 0.5603 0.0000 (  2337 PWs)   bands (ev):

   -37.5313 -37.3205  -2.4539   5.1422   7.5044   9.8109  13.7466  14.7417
    16.9053

          k = 0.1386 0.5603 0.1412 (  2337 PWs)   bands (ev):

   -37.5311 -37.3206  -2.4501   4.9774   7.9460   9.8166  12.5407  15.4565
    17.0176

          k = 0.1386 0.5603-0.2824 (  2336 PWs)   bands (ev):

   -37.5310 -37.3208  -2.4463   4.8412   8.4568   9.8166  11.6814  15.7508
    16.9787

          k = 0.1386 0.7204 0.0000 (  2333 PWs)   bands (ev):

   -37.4827 -37.2783  -0.2336   6.0920   7.2004   8.6423  12.5588  14.2707
    16.1924

          k = 0.1386 0.7204 0.1412 (  2334 PWs)   bands (ev):

   -37.4826 -37.2785  -0.2262   6.1167   6.8229   9.2349  12.5420  14.3294
    15.6181

          k = 0.1386 0.7204-0.2824 (  2344 PWs)   bands (ev):

   -37.4825 -37.2786  -0.2187   6.1553   6.5512   9.7412  12.5928  14.3130
    14.9694

          k = 0.1386 0.8805 0.0000 (  2348 PWs)   bands (ev):

   -37.4645 -37.2626   1.7945   3.6037   9.1795   9.4168  10.0759  14.2478
    15.3961

          k = 0.1386 0.8805 0.1412 (  2340 PWs)   bands (ev):

   -37.4644 -37.2627   1.8117   3.6096   8.1250  10.0390  11.1080  14.3855
    15.2264

          k = 0.1386 0.8805-0.2824 (  2342 PWs)   bands (ev):

   -37.4643 -37.2628   1.8292   3.6155   7.7167  10.0025  13.1180  13.8798
    14.9425

          k = 0.2773 0.4803 0.0000 (  2344 PWs)   bands (ev):

   -37.5392 -37.3273  -2.7371   4.8855   7.4170  11.7561  12.3334  15.2715
    15.8167

          k = 0.2773 0.4803 0.1412 (  2331 PWs)   bands (ev):

   -37.5390 -37.3274  -2.7337   4.7421   7.8252  11.7663  11.9591  13.9940
    17.8072

          k = 0.2773 0.4803-0.2824 (  2326 PWs)   bands (ev):

   -37.5389 -37.3276  -2.7303   4.6206   8.2972  11.4028  11.7766  13.6284
    18.7081

          k = 0.2773 0.6403 0.0000 (  2337 PWs)   bands (ev):

   -37.4880 -37.2829  -0.7702   6.7037   8.1686   8.6833  11.6698  14.3458
    16.4039

          k = 0.2773 0.6403 0.1412 (  2333 PWs)   bands (ev):

   -37.4879 -37.2830  -0.7644   6.4229   8.3197   9.1180  11.6928  13.5737
    15.8044

          k = 0.2773 0.6403-0.2824 (  2330 PWs)   bands (ev):

   -37.4878 -37.2832  -0.7585   6.2200   8.3685   9.6824  11.7059  12.8352
    15.4486

          k = 0.2773 0.8004 0.0000 (  2334 PWs)   bands (ev):

   -37.4575 -37.2565   1.6032   5.0643   9.0067   9.6440  11.1832  11.7747
    14.8546

          k = 0.2773 0.8004 0.1412 (  2332 PWs)   bands (ev):

   -37.4574 -37.2566   1.6146   5.0779   8.3192  10.3645  11.2291  12.2204
    14.5611

          k = 0.2773 0.8004-0.2824 (  2340 PWs)   bands (ev):

   -37.4573 -37.2567   1.6262   5.0920   7.9723  10.5980  11.2781  13.6256
    13.7487

          k = 0.4159 0.7204 0.0000 (  2334 PWs)   bands (ev):

   -37.4549 -37.2542   1.3991   6.7679   8.7824   8.8995   9.9870  13.7925
    14.6584

          k = 0.4159 0.7204 0.1412 (  2340 PWs)   bands (ev):

   -37.4548 -37.2543   1.4085   6.7809   8.2717   9.0199  10.6461  13.6434
    13.7791

          k = 0.4159 0.7204-0.2824 (  2334 PWs)   bands (ev):

   -37.4547 -37.2544   1.4180   6.7941   7.9916   9.0619  11.1713  13.2476
    13.9043

          k = 0.4159 0.8805 0.0000 (  2336 PWs)   bands (ev):

   -37.4426 -37.2435   3.4490   4.7438   8.2333  11.0087  11.2584  11.4419
    13.1311

          k = 0.4159 0.8805 0.1412 (  2340 PWs)   bands (ev):

   -37.4425 -37.2436   3.4646   4.7546   8.2603   9.9690  11.2383  12.6943
    12.9340

          k = 0.4159 0.8805-0.2824 (  2332 PWs)   bands (ev):

   -37.4424 -37.2437   3.4805   4.7656   8.2883   9.5651  11.0549  12.4725
    14.9243

     the Fermi energy is     8.5879 ev

!    total energy              =     -37.06517219 Ry
     estimated scf accuracy    <          7.6E-13 Ry
     smearing contrib. (-TS)   =       0.00101180 Ry
     internal energy E=F+TS    =     -37.06618398 Ry

     The total energy is F=E-TS. E is the sum of the following terms:
     one-electron contribution =      -8.80450219 Ry
     hartree contribution      =       5.94880148 Ry
     xc contribution           =     -10.31162241 Ry
     ewald contribution        =     -23.89886087 Ry

     convergence has been achieved in  10 iterations

     Forces acting on atoms (cartesian axes, Ry/au):

     atom    1 type  1   force =     0.00000000    0.00000000   -0.00000272
     atom    2 type  1   force =    -0.00000000   -0.00000000    0.00000272
     atom    3 type  2   force =     0.00000000    0.00000000    0.00000000
     The non-local contrib.  to forces
     atom    1 type  1   force =     0.00000000   -0.00000000    0.04396003
     atom    2 type  1   force =     0.00000000   -0.00000000   -0.04396003
     atom    3 type  2   force =     0.00000000    0.00000000    0.00000000
     The ionic contribution  to forces
     atom    1 type  1   force =     0.00000000   -0.00000000   -0.22110849
     atom    2 type  1   force =     0.00000000    0.00000000    0.22110849
     atom    3 type  2   force =     0.00000000    0.00000000   -0.00000000
     The local contribution  to forces
     atom    1 type  1   force =     0.00000000   -0.00000000    0.17714486
     atom    2 type  1   force =     0.00000000    0.00000000   -0.17714486
     atom    3 type  2   force =     0.00000000   -0.00000000    0.00000000
     The core correction contribution to forces
     atom    1 type  1   force =     0.00000000    0.00000000    0.00000000
     atom    2 type  1   force =     0.00000000    0.00000000    0.00000000
     atom    3 type  2   force =    -0.00000000   -0.00000000    0.00000000
     The Hubbard contrib.    to forces
     atom    1 type  1   force =     0.00000000    0.00000000    0.00000000
     atom    2 type  1   force =     0.00000000    0.00000000    0.00000000
     atom    3 type  2   force =     0.00000000    0.00000000    0.00000000
     The SCF correction term to forces
     atom    1 type  1   force =     0.00000000   -0.00000000    0.00000087
     atom    2 type  1   force =    -0.00000000   -0.00000000   -0.00000087
     atom    3 type  2   force =     0.00000000    0.00000000   -0.00000000

     Total force =     0.000004     Total SCF correction =     0.000001
     SCF correction compared to forces is large: reduce conv_thr to get better values


     Computing stress (Cartesian axis) and pressure

          total   stress  (Ry/bohr**3)                   (kbar)     P=      500.01
   0.00339908   0.00000000   0.00000000          500.02        0.00        0.00
   0.00000000   0.00339908  -0.00000000            0.00      500.02       -0.00
   0.00000000   0.00000000   0.00339888            0.00        0.00      499.99


     Writing all to output data dir ./output/LiSi.save/

     init_run     :      1.31s CPU      1.49s WALL (       2 calls)
     electrons    :     80.83s CPU     86.39s WALL (      14 calls)
     update_pot   :      7.14s CPU      7.25s WALL (      12 calls)
     forces       :      4.62s CPU      4.72s WALL (      14 calls)
     stress       :     15.38s CPU     16.31s WALL (      14 calls)

     Called by init_run:
     wfcinit      :      0.25s CPU      0.26s WALL (       2 calls)
     potinit      :      0.37s CPU      0.41s WALL (       2 calls)
     hinit0       :      0.64s CPU      0.71s WALL (       2 calls)

     Called by electrons:
     c_bands      :     68.55s CPU     72.90s WALL (     145 calls)
     sum_band     :     10.70s CPU     11.08s WALL (     145 calls)
     v_of_rho     :      1.54s CPU      2.05s WALL (     157 calls)
     mix_rho      :      0.13s CPU      0.17s WALL (     145 calls)

     Called by c_bands:
     init_us_2    :      3.00s CPU      3.19s WALL (   15360 calls)
     init_us_2:cp :      2.98s CPU      3.18s WALL (   15360 calls)
     cegterg      :     63.33s CPU     65.21s WALL (    6960 calls)

     Called by *egterg:
     cdiaghg      :      2.53s CPU      2.62s WALL (   26225 calls)
     h_psi        :     54.64s CPU     56.19s WALL (   26993 calls)
     g_psi        :      0.35s CPU      0.36s WALL (   19937 calls)

     Called by h_psi:
     h_psi:calbec :      2.96s CPU      3.09s WALL (   26993 calls)
     vloc_psi     :     49.17s CPU     50.50s WALL (   26993 calls)
     add_vuspsi   :      2.26s CPU      2.32s WALL (   26993 calls)

     General routines
     calbec       :      3.46s CPU      3.58s WALL (   30353 calls)
     fft          :      1.21s CPU      1.86s WALL (    1920 calls)
     ffts         :      0.07s CPU      0.09s WALL (     145 calls)
     fftw         :     50.02s CPU     51.31s WALL (  411304 calls)

     Parallel routines

     PWSCF        :   1m49.56s CPU   1m56.95s WALL


   This run was terminated on:   2: 8:29  27Dec2024            

=------------------------------------------------------------------------------=
   JOB DONE.
=------------------------------------------------------------------------------=
