
     Program PWSCF v.7.2 starts on 26Dec2024 at 19:46:17 

     This program is part of the open-source Quantum ESPRESSO suite
     for quantum simulation of materials; please cite
         "P. Giannozzi et al., J. Phys.:Condens. Matter 21 395502 (2009);
         "P. Giannozzi et al., J. Phys.:Condens. Matter 29 465901 (2017);
         "P. Giannozzi et al., J. Chem. Phys. 152 154105 (2020);
          URL http://www.quantum-espresso.org", 
     in publications or presentations arising from this work. More details at
     http://www.quantum-espresso.org/quote

     Parallel version (MPI & OpenMP), running on       8 processor cores
     Number of MPI processes:                 8
     Threads/MPI process:                     1

     MPI processes distributed on     1 nodes
     486396 MiB available memory on the printing compute node when the environment starts

     Waiting for input...
     Reading input from standard input

     Current dimensions of program PWSCF are:
     Max number of different atomic species (ntypx) = 10
     Max number of k-points (npk) =  40000
     Max angular momentum in pseudopotentials (lmaxx) =  4

     R & G space division:  proc/nbgrp/npool/nimage =       8
     Subspace diagonalization in iterative solution of the eigenvalue problem:
     a serial algorithm will be used


     Parallelization info
     --------------------
     sticks:   dense  smooth     PW     G-vecs:    dense   smooth      PW
     Min         109     109     32                 2157     2157     354
     Max         110     110     35                 2158     2158     355
     Sum         877     877    265                17261    17261    2837

     Using Slab Decomposition



     bravais-lattice index     =            2
     lattice parameter (alat)  =       8.9441  a.u.
     unit-cell volume          =     178.8728 (a.u.)^3
     number of atoms/cell      =            3
     number of atomic types    =            2
     number of electrons       =        10.00
     number of Kohn-Sham states=            9
     kinetic-energy cutoff     =      80.0000  Ry
     charge density cutoff     =     320.0000  Ry
     scf convergence threshold =      1.0E-08
     mixing beta               =       0.7000
     number of iterations used =            8  plain     mixing
     energy convergence thresh.=      1.0E-04
     force convergence thresh. =      1.0E-03
     press convergence thresh. =      1.0E+00
     Exchange-correlation= PBE
                           (   1   4   3   4   0   0   0)
     nstep                     =           50


     celldm(1)=   8.944061  celldm(2)=   0.000000  celldm(3)=   0.000000
     celldm(4)=   0.000000  celldm(5)=   0.000000  celldm(6)=   0.000000

     crystal axes: (cart. coord. in units of alat)
               a(1) = (  -0.500000   0.000000   0.500000 )  
               a(2) = (   0.000000   0.500000   0.500000 )  
               a(3) = (  -0.500000   0.500000   0.000000 )  

     reciprocal axes: (cart. coord. in units 2 pi/alat)
               b(1) = ( -1.000000 -1.000000  1.000000 )  
               b(2) = (  1.000000  1.000000  1.000000 )  
               b(3) = ( -1.000000  1.000000 -1.000000 )  


     PseudoPot. # 1 for Li read from file:
     ../pseudo/Li_ONCV_PBE_sr.upf
     MD5 check sum: 50ff420e78310ffa21704f3361e624a4
     Pseudo is Norm-conserving, Zval =  3.0
     Generated using ONCVPSP code by D. R. Hamann
     Using radial grid of 1944 points,  4 beta functions with: 
                l(1) =   0
                l(2) =   0
                l(3) =   1
                l(4) =   1

     PseudoPot. # 2 for Si read from file:
     ../pseudo/Si_ONCV_PBE_sr.upf
     MD5 check sum: e543d271109d17c80368dfa7c482276d
     Pseudo is Norm-conserving + core correction, Zval =  4.0
     Generated using ONCVPSP code by D. R. Hamann
     Using radial grid of 1510 points,  6 beta functions with: 
                l(1) =   0
                l(2) =   0
                l(3) =   1
                l(4) =   1
                l(5) =   2
                l(6) =   2

     atomic species   valence    mass     pseudopotential
        Li             3.00     6.94100     Li( 1.00)
        Si             4.00    28.08550     Si( 1.00)

     48 Sym. Ops., with inversion, found



   Cartesian axes

     site n.     atom                  positions (alat units)
         1           Li  tau(   1) = (   0.2500000   0.2500000   0.2500000  )
         2           Li  tau(   2) = (   0.7500000   0.7500000   0.7500000  )
         3           Si  tau(   3) = (   0.0000000   0.0000000   0.5000000  )

     number of k points=    16  Marzari-Vanderbilt smearing, width (Ry)=  0.0200
                       cart. coord. in units 2pi/alat
        k(    1) = (   0.0000000   0.0000000   0.0000000), wk =   0.0092593
        k(    2) = (  -0.1666667   0.1666667  -0.1666667), wk =   0.0740741
        k(    3) = (  -0.3333333   0.3333333  -0.3333333), wk =   0.0740741
        k(    4) = (   0.5000000  -0.5000000   0.5000000), wk =   0.0370370
        k(    5) = (   0.0000000   0.3333333   0.0000000), wk =   0.0555556
        k(    6) = (  -0.1666667   0.5000000  -0.1666667), wk =   0.2222222
        k(    7) = (   0.6666667  -0.3333333   0.6666667), wk =   0.2222222
        k(    8) = (   0.5000000  -0.1666667   0.5000000), wk =   0.2222222
        k(    9) = (   0.3333333   0.0000000   0.3333333), wk =   0.1111111
        k(   10) = (   0.0000000   0.6666667   0.0000000), wk =   0.0555556
        k(   11) = (   0.8333333  -0.1666667   0.8333333), wk =   0.2222222
        k(   12) = (   0.6666667  -0.0000000   0.6666667), wk =   0.1111111
        k(   13) = (   0.0000000  -1.0000000   0.0000000), wk =   0.0277778
        k(   14) = (   0.6666667  -0.3333333   1.0000000), wk =   0.2222222
        k(   15) = (   0.5000000  -0.1666667   0.8333333), wk =   0.2222222
        k(   16) = (  -0.3333333  -1.0000000   0.0000000), wk =   0.1111111

     Dense  grid:    17261 G-vectors     FFT dimensions: (  40,  40,  40)

     Estimated max dynamical RAM per process >      13.94 MB

     Estimated total dynamical RAM >     111.52 MB

     Initial potential from superposition of free atoms

     starting charge       9.9903, renormalised to      10.0000
     Starting wfcs are    8 randomized atomic wfcs +    1 random wfcs

     total cpu time spent up to now is        1.0 secs

     Self-consistent Calculation

     iteration #  1     ecut=    80.00 Ry     beta= 0.70
     Davidson diagonalization with overlap
     ethr =  1.00E-02,  avg # of iterations =  6.6

     Threshold (ethr) on eigenvalues was too large:
     Diagonalizing with lowered threshold

     Davidson diagonalization with overlap
     ethr =  9.38E-05,  avg # of iterations =  4.0

     total cpu time spent up to now is        1.5 secs

     total energy              =     -36.92115349 Ry
     estimated scf accuracy    <       0.00938251 Ry

     iteration #  2     ecut=    80.00 Ry     beta= 0.70
     Davidson diagonalization with overlap
     ethr =  9.38E-05,  avg # of iterations =  1.0

     total cpu time spent up to now is        1.6 secs

     total energy              =     -36.92161081 Ry
     estimated scf accuracy    <       0.00055063 Ry

     iteration #  3     ecut=    80.00 Ry     beta= 0.70
     Davidson diagonalization with overlap
     ethr =  5.51E-06,  avg # of iterations =  1.9

     total cpu time spent up to now is        1.8 secs

     total energy              =     -36.92163430 Ry
     estimated scf accuracy    <       0.00001306 Ry

     iteration #  4     ecut=    80.00 Ry     beta= 0.70
     Davidson diagonalization with overlap
     ethr =  1.31E-07,  avg # of iterations =  2.6

     total cpu time spent up to now is        1.9 secs

     total energy              =     -36.92163617 Ry
     estimated scf accuracy    <       0.00000022 Ry

     iteration #  5     ecut=    80.00 Ry     beta= 0.70
     Davidson diagonalization with overlap
     ethr =  2.21E-09,  avg # of iterations =  2.8

     total cpu time spent up to now is        2.0 secs

     End of self-consistent calculation

          k = 0.0000 0.0000 0.0000 (  2109 PWs)   bands (ev):

   -36.9169 -36.5923  -1.3307  12.0216  12.0216  12.0216  12.8508  12.8508
    12.8508

          k =-0.1667 0.1667-0.1667 (  2151 PWs)   bands (ev):

   -36.8922 -36.6116  -1.0292   8.6089  10.8610  10.8610  14.2243  14.2244
    15.5636

          k =-0.3333 0.3333-0.3333 (  2151 PWs)   bands (ev):

   -36.8271 -36.6657  -0.1424   5.2610  10.0839  10.0839  13.8184  13.8184
    17.5971

          k = 0.5000-0.5000 0.5000 (  2138 PWs)   bands (ev):

   -36.7446 -36.7427   0.7267   3.5204   9.8766   9.8766  13.2223  13.2223
    18.5155

          k = 0.0000 0.3333 0.0000 (  2145 PWs)   bands (ev):

   -36.8857 -36.6161  -0.9380   9.3054   9.3054  10.4433  13.4560  15.1272
    16.3127

          k =-0.1667 0.5000-0.1667 (  2151 PWs)   bands (ev):

   -36.8392 -36.6532  -0.2651   6.4444   8.4727   9.6736  13.5862  15.3283
    16.7681

          k = 0.6667-0.3333 0.6667 (  2161 PWs)   bands (ev):

   -36.7692 -36.7158   0.7567   4.0421   8.5256   8.5533  13.6664  15.5192
    18.6249

          k = 0.5000-0.1667 0.5000 (  2160 PWs)   bands (ev):

   -36.7900 -36.6970   0.4616   4.5645   7.9134   9.4971  14.5328  14.8515
    19.0146

          k = 0.3333 0.0000 0.3333 (  2149 PWs)   bands (ev):

   -36.8559 -36.6405  -0.5345   7.0954   8.3476  10.9868  14.2556  15.4847
    16.5994

          k = 0.0000 0.6667 0.0000 (  2137 PWs)   bands (ev):

   -36.8231 -36.6633   0.1066   7.3711   7.3711   7.7051  11.7679  14.8429
    20.0780

          k = 0.8333-0.1667 0.8333 (  2161 PWs)   bands (ev):

   -36.7859 -36.6946   0.8523   5.4450   6.8414   7.1937  12.4665  16.1141
    19.6653

          k = 0.6667-0.0000 0.6667 (  2165 PWs)   bands (ev):

   -36.7408 -36.7401   1.1775   4.3282   6.5124   7.9586  13.8958  18.3122
    18.8904

          k = 0.0000-1.0000 0.0000 (  2200 PWs)   bands (ev):

   -36.7915 -36.6868   0.9193   6.1377   6.7155   6.7155  10.7569  15.6626
    22.6233

          k = 0.6667-0.3333 1.0000 (  2166 PWs)   bands (ev):

   -36.7957 -36.6890   0.5030   5.3811   7.0565   8.3038  14.5482  15.8635
    16.8669

          k = 0.5000-0.1667 0.8333 (  2176 PWs)   bands (ev):

   -36.7406 -36.7402   1.1784   4.2875   7.0547   7.3005  15.1540  16.3143
    18.7247

          k =-0.3333-1.0000 0.0000 (  2174 PWs)   bands (ev):

   -36.7655 -36.7131   1.2362   5.2020   6.2707   6.5581  13.8167  16.7837
    19.8180

     the Fermi energy is     8.3034 ev

!    total energy              =     -36.92163623 Ry
     estimated scf accuracy    <          1.6E-09 Ry
     smearing contrib. (-TS)   =      -0.00083713 Ry
     internal energy E=F+TS    =     -36.92079911 Ry

     The total energy is F=E-TS. E is the sum of the following terms:
     one-electron contribution =      -8.96837728 Ry
     hartree contribution      =       6.33680429 Ry
     xc contribution           =     -10.36346878 Ry
     ewald contribution        =     -23.92575734 Ry

     convergence has been achieved in   5 iterations

     Forces acting on atoms (cartesian axes, Ry/au):

     atom    1 type  1   force =    -0.00000000   -0.00000000    0.00000000
     atom    2 type  1   force =    -0.00000000   -0.00000000   -0.00000000
     atom    3 type  2   force =     0.00000000    0.00000000    0.00000000
     The non-local contrib.  to forces
     atom    1 type  1   force =    -0.00000000    0.00000000    0.00000000
     atom    2 type  1   force =     0.00000000   -0.00000000   -0.00000000
     atom    3 type  2   force =     0.00000000    0.00000000   -0.00000000
     The ionic contribution  to forces
     atom    1 type  1   force =     0.00000000    0.00000000    0.00000000
     atom    2 type  1   force =    -0.00000000   -0.00000000    0.00000000
     atom    3 type  2   force =    -0.00000000   -0.00000000   -0.00000000
     The local contribution  to forces
     atom    1 type  1   force =     0.00000000    0.00000000    0.00000000
     atom    2 type  1   force =     0.00000000    0.00000000    0.00000000
     atom    3 type  2   force =     0.00000000    0.00000000    0.00000000
     The core correction contribution to forces
     atom    1 type  1   force =     0.00000000    0.00000000    0.00000000
     atom    2 type  1   force =     0.00000000    0.00000000    0.00000000
     atom    3 type  2   force =     0.00000000   -0.00000000   -0.00000000
     The Hubbard contrib.    to forces
     atom    1 type  1   force =     0.00000000    0.00000000    0.00000000
     atom    2 type  1   force =     0.00000000    0.00000000    0.00000000
     atom    3 type  2   force =     0.00000000    0.00000000    0.00000000
     The SCF correction term to forces
     atom    1 type  1   force =    -0.00000000    0.00000000    0.00000000
     atom    2 type  1   force =     0.00000000    0.00000000   -0.00000000
     atom    3 type  2   force =     0.00000000   -0.00000000    0.00000000

     Total force =     0.000000     Total SCF correction =     0.000000


     Computing stress (Cartesian axis) and pressure

          total   stress  (Ry/bohr**3)                   (kbar)     P=      832.31
   0.00565793  -0.00000000  -0.00000000          832.31       -0.00       -0.00
  -0.00000000   0.00565793   0.00000000           -0.00      832.31        0.00
  -0.00000000   0.00000000   0.00565793           -0.00        0.00      832.31


     BFGS Geometry Optimization
     Energy error            =      0.0E+00 Ry
     Gradient error          =      2.5E-32 Ry/Bohr
     Cell gradient error     =      3.3E+02 kbar

     number of scf cycles    =   1
     number of bfgs steps    =   0

     enthalpy           new  =     -36.3136600321 Ry

     new trust radius        =       0.1510629210 bohr
ibrav =      2
 celldm(1) =      9.44917611
Input lattice vectors:
    -0.52823747     0.00000000     0.52823747
    -0.00000000     0.52823747     0.52823747
    -0.52823747     0.52823747     0.00000000
New lattice vectors in INITIAL alat:
    -0.52823747     0.00000000     0.52823747
     0.00000000     0.52823747     0.52823747
    -0.52823747     0.52823747     0.00000000
New lattice vectors in NEW alat (for information only):
    -0.50000000     0.00000000     0.50000000
     0.00000000     0.50000000     0.50000000
    -0.50000000     0.50000000     0.00000000
Discrepancy in bohr =     0.000000    0.000000    0.000000
     new conv_thr            =       0.0000000100 Ry

     new unit-cell volume =    210.92198 a.u.^3 (    31.25541 Ang^3 )
     density =      2.22965 g/cm^3

CELL_PARAMETERS (alat=  8.94406083)
  -0.528237469   0.000000000   0.528237469
   0.000000000   0.528237469   0.528237469
  -0.528237469   0.528237469   0.000000000

ATOMIC_POSITIONS (crystal)
Li           -0.2500000000        0.7500000000       -0.2500000000
Li           -0.7500000000        2.2500000000       -0.7500000000
Si            0.5000000000        0.5000000000       -0.5000000000



     Writing config-only to output data dir ./output/LiSi.save/
     NEW-OLD atomic charge density approx. for the potential
     extrapolated charge   11.51800, renormalised to   10.00000

     total cpu time spent up to now is        2.8 secs

     Self-consistent Calculation

     iteration #  1     ecut=    80.00 Ry     beta= 0.70
     Davidson diagonalization with overlap
     ethr =  1.00E-06,  avg # of iterations =  7.6

     total cpu time spent up to now is        3.2 secs

     total energy              =     -37.02794838 Ry
     estimated scf accuracy    <       0.00475422 Ry

     iteration #  2     ecut=    80.00 Ry     beta= 0.70
     Davidson diagonalization with overlap
     ethr =  4.75E-05,  avg # of iterations =  3.8

     total cpu time spent up to now is        3.4 secs

     total energy              =     -37.06225754 Ry
     estimated scf accuracy    <       0.00638546 Ry

     iteration #  3     ecut=    80.00 Ry     beta= 0.70
     Davidson diagonalization with overlap
     ethr =  4.75E-05,  avg # of iterations =  1.0

     total cpu time spent up to now is        3.7 secs

     total energy              =     -37.06073525 Ry
     estimated scf accuracy    <       0.00251122 Ry

     iteration #  4     ecut=    80.00 Ry     beta= 0.70
     Davidson diagonalization with overlap
     ethr =  2.51E-05,  avg # of iterations =  2.0

     total cpu time spent up to now is        3.9 secs

     total energy              =     -37.06098296 Ry
     estimated scf accuracy    <       0.00000757 Ry

     iteration #  5     ecut=    80.00 Ry     beta= 0.70
     Davidson diagonalization with overlap
     ethr =  7.57E-08,  avg # of iterations =  3.0

     total cpu time spent up to now is        4.1 secs

     total energy              =     -37.06097533 Ry
     estimated scf accuracy    <       0.00001582 Ry

     iteration #  6     ecut=    80.00 Ry     beta= 0.70
     Davidson diagonalization with overlap
     ethr =  7.57E-08,  avg # of iterations =  2.0

     total cpu time spent up to now is        4.5 secs

     total energy              =     -37.06097593 Ry
     estimated scf accuracy    <       0.00000055 Ry

     iteration #  7     ecut=    80.00 Ry     beta= 0.70
     Davidson diagonalization with overlap
     ethr =  5.45E-09,  avg # of iterations =  2.0

     total cpu time spent up to now is        4.8 secs

     End of self-consistent calculation

          k = 0.0000 0.0000 0.0000 (  2109 PWs)   bands (ev):

   -38.3765 -38.1873  -2.5963   9.6556   9.6556   9.6556  11.1333  11.1333
    11.1333

          k =-0.1578 0.1578-0.1578 (  2151 PWs)   bands (ev):

   -38.3625 -38.1987  -2.3091   6.8468   8.8211   8.8211  12.1757  12.1757
    13.1896

          k =-0.3155 0.3155-0.3155 (  2151 PWs)   bands (ev):

   -38.3250 -38.2307  -1.4959   3.8493   8.1136   8.1136  11.9718  11.9718
    14.7577

          k = 0.4733-0.4733 0.4733 (  2138 PWs)   bands (ev):

   -38.2768 -38.2761  -0.7719   2.3534   7.9020   7.9020  11.4985  11.4985
    15.4306

          k =-0.0000 0.3155-0.0000 (  2145 PWs)   bands (ev):

   -38.3588 -38.2014  -2.2192   7.5401   7.5401   8.2087  11.5949  13.0932
    13.9127

          k =-0.1578 0.4733-0.1578 (  2151 PWs)   bands (ev):

   -38.3321 -38.2234  -1.5902   4.9117   6.8001   7.6590  11.6671  13.2060
    14.4382

          k = 0.6310-0.3155 0.6310 (  2161 PWs)   bands (ev):

   -38.2916 -38.2603  -0.7137   2.8230   6.7159   6.8460  11.6675  13.4282
    16.1083

          k = 0.4733-0.1578 0.4733 (  2160 PWs)   bands (ev):

   -38.3036 -38.2492  -0.9614   3.2745   6.2126   7.6317  12.3986  12.8935
    16.0956

          k = 0.3155-0.0000 0.3155 (  2149 PWs)   bands (ev):

   -38.3416 -38.2158  -1.8452   5.4958   6.6412   8.8398  12.3886  13.2090
    14.4573

          k =-0.0000 0.6310-0.0000 (  2137 PWs)   bands (ev):

   -38.3231 -38.2294  -1.2206   5.7858   5.8395   5.8395   9.9707  12.6272
    17.3220

          k = 0.7888-0.1578 0.7888 (  2161 PWs)   bands (ev):

   -38.3017 -38.2481  -0.5559   4.0648   5.1558   5.6769  10.4753  13.7388
    17.1061

          k = 0.6310 0.0000 0.6310 (  2165 PWs)   bands (ev):

   -38.2751 -38.2748  -0.3426   3.1936   4.8474   6.3364  11.6978  16.0085
    16.3112

          k = 0.0000-0.9465 0.0000 (  2200 PWs)   bands (ev):

   -38.3052 -38.2436  -0.4511   4.4059   5.2579   5.2579   8.9901  13.2153
    19.8247

          k = 0.6310-0.3155 0.9465 (  2166 PWs)   bands (ev):

   -38.3071 -38.2447  -0.8958   4.0179   5.4598   6.5432  12.3666  13.6773
    14.4732

          k = 0.4733-0.1578 0.7888 (  2176 PWs)   bands (ev):

   -38.2751 -38.2749  -0.3417   3.1302   5.3849   5.7059  12.8712  14.0039
    16.2254

          k =-0.3155-0.9465-0.0000 (  2174 PWs)   bands (ev):

   -38.2898 -38.2590  -0.2422   4.0387   4.5881   5.0080  11.6682  14.3368
    17.0700

     the Fermi energy is     6.5701 ev

!    total energy              =     -37.06097600 Ry
     estimated scf accuracy    <          1.7E-09 Ry
     smearing contrib. (-TS)   =      -0.00107284 Ry
     internal energy E=F+TS    =     -37.05990315 Ry

     The total energy is F=E-TS. E is the sum of the following terms:
     one-electron contribution =     -10.82980999 Ry
     hartree contribution      =       6.60345746 Ry
     xc contribution           =     -10.18676888 Ry
     ewald contribution        =     -22.64678175 Ry

     convergence has been achieved in   7 iterations

     Forces acting on atoms (cartesian axes, Ry/au):

     atom    1 type  1   force =     0.00000000   -0.00000000    0.00000000
     atom    2 type  1   force =    -0.00000000    0.00000000   -0.00000000
     atom    3 type  2   force =     0.00000000   -0.00000000    0.00000000
     The non-local contrib.  to forces
     atom    1 type  1   force =    -0.00000000   -0.00000000    0.00000000
     atom    2 type  1   force =    -0.00000000    0.00000000   -0.00000000
     atom    3 type  2   force =     0.00000000   -0.00000000   -0.00000000
     The ionic contribution  to forces
     atom    1 type  1   force =     0.00000000    0.00000000    0.00000000
     atom    2 type  1   force =    -0.00000000   -0.00000000    0.00000000
     atom    3 type  2   force =    -0.00000000    0.00000000    0.00000000
     The local contribution  to forces
     atom    1 type  1   force =     0.00000000   -0.00000000   -0.00000000
     atom    2 type  1   force =    -0.00000000    0.00000000    0.00000000
     atom    3 type  2   force =    -0.00000000    0.00000000    0.00000000
     The core correction contribution to forces
     atom    1 type  1   force =     0.00000000    0.00000000    0.00000000
     atom    2 type  1   force =     0.00000000    0.00000000    0.00000000
     atom    3 type  2   force =    -0.00000000    0.00000000   -0.00000000
     The Hubbard contrib.    to forces
     atom    1 type  1   force =     0.00000000    0.00000000    0.00000000
     atom    2 type  1   force =     0.00000000    0.00000000    0.00000000
     atom    3 type  2   force =     0.00000000    0.00000000    0.00000000
     The SCF correction term to forces
     atom    1 type  1   force =    -0.00000000    0.00000000    0.00000000
     atom    2 type  1   force =    -0.00000000    0.00000000   -0.00000000
     atom    3 type  2   force =     0.00000000   -0.00000000   -0.00000000

     Total force =     0.000000     Total SCF correction =     0.000000


     Computing stress (Cartesian axis) and pressure

          total   stress  (Ry/bohr**3)                   (kbar)     P=      481.15
   0.00327081  -0.00000000  -0.00000000          481.15       -0.00       -0.00
  -0.00000000   0.00327081   0.00000000           -0.00      481.15        0.00
  -0.00000000   0.00000000   0.00327081           -0.00        0.00      481.15

     Energy error            =      3.0E-02 Ry
     Gradient error          =      1.6E-31 Ry/Bohr
     Cell gradient error     =      1.9E+01 kbar

     number of scf cycles    =   2
     number of bfgs steps    =   1

     enthalpy           old  =     -36.3136600321 Ry
     enthalpy           new  =     -36.3440667615 Ry

     CASE: enthalpy          _new < enthalpy          _old

     new trust radius        =       0.0092436289 bohr
ibrav =      2
 celldm(1) =      9.41910527
Input lattice vectors:
    -0.52655642     0.00000000     0.52655642
    -0.00000000     0.52655642     0.52655642
    -0.52655642     0.52655642     0.00000000
New lattice vectors in INITIAL alat:
    -0.52655642     0.00000000     0.52655642
     0.00000000     0.52655642     0.52655642
    -0.52655642     0.52655642     0.00000000
New lattice vectors in NEW alat (for information only):
    -0.50000000     0.00000000     0.50000000
     0.00000000     0.50000000     0.50000000
    -0.50000000     0.50000000     0.00000000
Discrepancy in bohr =     0.000000    0.000000    0.000000
     new conv_thr            =            1.0E-10 Ry

     new unit-cell volume =    208.91468 a.u.^3 (    30.95796 Ang^3 )
     density =      2.25107 g/cm^3

CELL_PARAMETERS (alat=  8.94406083)
  -0.526556418   0.000000000   0.526556418
   0.000000000   0.526556418   0.526556418
  -0.526556418   0.526556418   0.000000000

ATOMIC_POSITIONS (crystal)
Li           -0.2500000000        0.7500000000       -0.2500000000
Li           -0.7500000000        2.2500000000       -0.7500000000
Si            0.5000000000        0.5000000000       -0.5000000000



     Writing config-only to output data dir ./output/LiSi.save/
     NEW-OLD atomic charge density approx. for the potential
     extrapolated charge    9.90401, renormalised to   10.00000

     total cpu time spent up to now is        5.5 secs

     Self-consistent Calculation

     iteration #  1     ecut=    80.00 Ry     beta= 0.70
     Davidson diagonalization with overlap
     ethr =  1.00E-06,  avg # of iterations =  3.1

     total cpu time spent up to now is        5.7 secs

     total energy              =     -37.05416624 Ry
     estimated scf accuracy    <       0.00002958 Ry

     iteration #  2     ecut=    80.00 Ry     beta= 0.70
     Davidson diagonalization with overlap
     ethr =  2.96E-07,  avg # of iterations =  2.9

     total cpu time spent up to now is        6.0 secs

     total energy              =     -37.05430149 Ry
     estimated scf accuracy    <       0.00002081 Ry

     iteration #  3     ecut=    80.00 Ry     beta= 0.70
     Davidson diagonalization with overlap
     ethr =  2.08E-07,  avg # of iterations =  1.0

     total cpu time spent up to now is        6.2 secs

     total energy              =     -37.05429761 Ry
     estimated scf accuracy    <       0.00000677 Ry

     iteration #  4     ecut=    80.00 Ry     beta= 0.70
     Davidson diagonalization with overlap
     ethr =  6.77E-08,  avg # of iterations =  2.0

     total cpu time spent up to now is        6.4 secs

     total energy              =     -37.05429822 Ry
     estimated scf accuracy    <       0.00000070 Ry

     iteration #  5     ecut=    80.00 Ry     beta= 0.70
     Davidson diagonalization with overlap
     ethr =  6.99E-09,  avg # of iterations =  1.0

     total cpu time spent up to now is        6.5 secs

     total energy              =     -37.05429826 Ry
     estimated scf accuracy    <       0.00000005 Ry

     iteration #  6     ecut=    80.00 Ry     beta= 0.70
     Davidson diagonalization with overlap
     ethr =  4.64E-10,  avg # of iterations =  1.0

     total cpu time spent up to now is        6.8 secs

     total energy              =     -37.05429823 Ry
     estimated scf accuracy    <       0.00000006 Ry

     iteration #  7     ecut=    80.00 Ry     beta= 0.70
     Davidson diagonalization with overlap
     ethr =  4.64E-10,  avg # of iterations =  1.0

     total cpu time spent up to now is        7.0 secs

     total energy              =     -37.05429823 Ry
     estimated scf accuracy    <       0.00000001 Ry

     iteration #  8     ecut=    80.00 Ry     beta= 0.70
     Davidson diagonalization with overlap
     ethr =  1.29E-10,  avg # of iterations =  2.0

     total cpu time spent up to now is        7.3 secs

     total energy              =     -37.05429823 Ry
     estimated scf accuracy    <          1.2E-10 Ry

     iteration #  9     ecut=    80.00 Ry     beta= 0.70
     Davidson diagonalization with overlap
     ethr =  1.15E-12,  avg # of iterations =  2.5

     total cpu time spent up to now is        7.5 secs

     total energy              =     -37.05429823 Ry
     estimated scf accuracy    <          1.8E-10 Ry

     iteration # 10     ecut=    80.00 Ry     beta= 0.70
     Davidson diagonalization with overlap
     ethr =  1.15E-12,  avg # of iterations =  1.3

     total cpu time spent up to now is        7.7 secs

     End of self-consistent calculation

          k = 0.0000 0.0000 0.0000 (  2109 PWs)   bands (ev):

   -38.2926 -38.0972  -2.5307   9.7828   9.7828   9.7828  11.2273  11.2273
    11.2273

          k =-0.1583 0.1583-0.1583 (  2151 PWs)   bands (ev):

   -38.2780 -38.1090  -2.2424   6.9426   8.9327   8.9327  12.2857  12.2857
    13.3182

          k =-0.3165 0.3165-0.3165 (  2151 PWs)   bands (ev):

   -38.2393 -38.1419  -1.4243   3.9248   8.2204   8.2204  12.0724  12.0724
    14.9125

          k = 0.4748-0.4748 0.4748 (  2138 PWs)   bands (ev):

   -38.1896 -38.1888  -0.6922   2.4154   8.0085   8.0085  11.5929  11.5929
    15.5984

          k = 0.0000 0.3165 0.0000 (  2145 PWs)   bands (ev):

   -38.2743 -38.1117  -2.1522   7.6363   7.6363   8.3287  11.6966  13.2050
    14.0422

          k =-0.1583 0.4748-0.1583 (  2151 PWs)   bands (ev):

   -38.2467 -38.1344  -1.5201   4.9944   6.8909   7.7674  11.7716  13.3218
    14.5649

          k = 0.6330-0.3165 0.6330 (  2161 PWs)   bands (ev):

   -38.2048 -38.1725  -0.6351   2.8880   6.8135   6.9386  11.7758  13.5421
    16.2479

          k = 0.4748-0.1583 0.4748 (  2160 PWs)   bands (ev):

   -38.2172 -38.1611  -0.8856   3.3436   6.3042   7.7328  12.5142  13.0004
    16.2554

          k = 0.3165 0.0000 0.3165 (  2149 PWs)   bands (ev):

   -38.2565 -38.1266  -1.7763   5.5825   6.7334   8.9559  12.4908  13.3324
    14.5738

          k = 0.0000 0.6330 0.0000 (  2137 PWs)   bands (ev):

   -38.2373 -38.1406  -1.1496   5.8884   5.9224   5.9224  10.0676  12.7476
    17.4722

          k = 0.7913-0.1583 0.7913 (  2161 PWs)   bands (ev):

   -38.2152 -38.1598  -0.4796   4.1396   5.2447   5.7589  10.5825  13.8679
    17.2461

          k = 0.6330 0.0000 0.6330 (  2165 PWs)   bands (ev):

   -38.1877 -38.1874  -0.2610   3.2549   4.9359   6.4243  11.8161  16.1347
    16.4522

          k = 0.0000-0.9496 0.0000 (  2200 PWs)   bands (ev):

   -38.2188 -38.1552  -0.3762   4.4972   5.3366   5.3366   9.0848  13.3477
    19.9779

          k = 0.6330-0.3165 0.9496 (  2166 PWs)   bands (ev):

   -38.2208 -38.1563  -0.8209   4.0916   5.5455   6.6377  12.4846  13.7967
    14.6038

          k = 0.4748-0.1583 0.7913 (  2176 PWs)   bands (ev):

   -38.1877 -38.1875  -0.2601   3.1928   5.4744   5.7912  12.9947  14.1300
    16.3622

          k =-0.3165-0.9496-0.0000 (  2174 PWs)   bands (ev):

   -38.2029 -38.1711  -0.1620   4.1016   4.6771   5.0910  11.7843  14.4697
    17.2202

     the Fermi energy is     6.6636 ev

!    total energy              =     -37.05429823 Ry
     estimated scf accuracy    <          4.8E-11 Ry
     smearing contrib. (-TS)   =      -0.00105657 Ry
     internal energy E=F+TS    =     -37.05324166 Ry

     The total energy is F=E-TS. E is the sum of the following terms:
     one-electron contribution =     -10.72540535 Ry
     hartree contribution      =       6.58773558 Ry
     xc contribution           =     -10.19648946 Ry
     ewald contribution        =     -22.71908243 Ry

     convergence has been achieved in  10 iterations

     Forces acting on atoms (cartesian axes, Ry/au):

     atom    1 type  1   force =     0.00000000   -0.00000000    0.00000000
     atom    2 type  1   force =     0.00000000    0.00000000    0.00000000
     atom    3 type  2   force =    -0.00000000    0.00000000    0.00000000
     The non-local contrib.  to forces
     atom    1 type  1   force =     0.00000000   -0.00000000    0.00000000
     atom    2 type  1   force =    -0.00000000    0.00000000   -0.00000000
     atom    3 type  2   force =     0.00000000    0.00000000    0.00000000
     The ionic contribution  to forces
     atom    1 type  1   force =     0.00000000    0.00000000    0.00000000
     atom    2 type  1   force =    -0.00000000   -0.00000000   -0.00000000
     atom    3 type  2   force =    -0.00000000    0.00000000    0.00000000
     The local contribution  to forces
     atom    1 type  1   force =     0.00000000    0.00000000   -0.00000000
     atom    2 type  1   force =    -0.00000000    0.00000000    0.00000000
     atom    3 type  2   force =     0.00000000   -0.00000000   -0.00000000
     The core correction contribution to forces
     atom    1 type  1   force =     0.00000000    0.00000000    0.00000000
     atom    2 type  1   force =     0.00000000    0.00000000    0.00000000
     atom    3 type  2   force =     0.00000000   -0.00000000   -0.00000000
     The Hubbard contrib.    to forces
     atom    1 type  1   force =     0.00000000    0.00000000    0.00000000
     atom    2 type  1   force =     0.00000000    0.00000000    0.00000000
     atom    3 type  2   force =     0.00000000    0.00000000    0.00000000
     The SCF correction term to forces
     atom    1 type  1   force =    -0.00000000    0.00000000   -0.00000000
     atom    2 type  1   force =    -0.00000000    0.00000000    0.00000000
     atom    3 type  2   force =    -0.00000000   -0.00000000   -0.00000000

     Total force =     0.000000     Total SCF correction =     0.000000


     Computing stress (Cartesian axis) and pressure

          total   stress  (Ry/bohr**3)                   (kbar)     P=      497.71
   0.00338336  -0.00000000  -0.00000000          497.71       -0.00       -0.00
  -0.00000000   0.00338336   0.00000000           -0.00      497.71        0.00
  -0.00000000   0.00000000   0.00338336           -0.00        0.00      497.71

     Energy error            =      1.4E-04 Ry
     Gradient error          =      2.2E-31 Ry/Bohr
     Cell gradient error     =      2.3E+00 kbar

     number of scf cycles    =   3
     number of bfgs steps    =   2

     enthalpy           old  =     -36.3440667615 Ry
     enthalpy           new  =     -36.3442116587 Ry

     CASE: enthalpy          _new < enthalpy          _old

     new trust radius        =       0.0012674411 bohr
ibrav =      2
 celldm(1) =      9.41497553
Input lattice vectors:
    -0.52632555     0.00000000     0.52632555
    -0.00000000     0.52632555     0.52632555
    -0.52632555     0.52632555     0.00000000
New lattice vectors in INITIAL alat:
    -0.52632555     0.00000000     0.52632555
     0.00000000     0.52632555     0.52632555
    -0.52632555     0.52632555     0.00000000
New lattice vectors in NEW alat (for information only):
    -0.50000000     0.00000000     0.50000000
     0.00000000     0.50000000     0.50000000
    -0.50000000     0.50000000     0.00000000
Discrepancy in bohr =     0.000000    0.000000    0.000000
     new conv_thr            =            1.0E-10 Ry

     new unit-cell volume =    208.64001 a.u.^3 (    30.91726 Ang^3 )
     density =      2.25404 g/cm^3

CELL_PARAMETERS (alat=  8.94406083)
  -0.526325553   0.000000000   0.526325553
   0.000000000   0.526325553   0.526325553
  -0.526325553   0.526325553   0.000000000

ATOMIC_POSITIONS (crystal)
Li           -0.2500000000        0.7500000000       -0.2500000000
Li           -0.7500000000        2.2500000000       -0.7500000000
Si            0.5000000000        0.5000000000       -0.5000000000



     Writing config-only to output data dir ./output/LiSi.save/
     NEW-OLD atomic charge density approx. for the potential
     extrapolated charge    9.98685, renormalised to   10.00000

     total cpu time spent up to now is        8.4 secs

     Self-consistent Calculation

     iteration #  1     ecut=    80.00 Ry     beta= 0.70
     Davidson diagonalization with overlap
     ethr =  1.00E-06,  avg # of iterations =  1.0

     Threshold (ethr) on eigenvalues was too large:
     Diagonalizing with lowered threshold

     Davidson diagonalization with overlap
     ethr =  6.05E-09,  avg # of iterations =  3.1

     total cpu time spent up to now is        8.9 secs

     total energy              =     -37.05336425 Ry
     estimated scf accuracy    <       0.00000055 Ry

     iteration #  2     ecut=    80.00 Ry     beta= 0.70
     Davidson diagonalization with overlap
     ethr =  5.47E-09,  avg # of iterations =  2.9

     total cpu time spent up to now is        9.2 secs

     total energy              =     -37.05336683 Ry
     estimated scf accuracy    <       0.00000040 Ry

     iteration #  3     ecut=    80.00 Ry     beta= 0.70
     Davidson diagonalization with overlap
     ethr =  4.01E-09,  avg # of iterations =  1.0

     total cpu time spent up to now is        9.4 secs

     total energy              =     -37.05336675 Ry
     estimated scf accuracy    <       0.00000013 Ry

     iteration #  4     ecut=    80.00 Ry     beta= 0.70
     Davidson diagonalization with overlap
     ethr =  1.32E-09,  avg # of iterations =  2.0

     total cpu time spent up to now is        9.6 secs

     total energy              =     -37.05336677 Ry
     estimated scf accuracy    <       0.00000001 Ry

     iteration #  5     ecut=    80.00 Ry     beta= 0.70
     Davidson diagonalization with overlap
     ethr =  1.35E-10,  avg # of iterations =  1.0

     total cpu time spent up to now is        9.8 secs

     total energy              =     -37.05336677 Ry
     estimated scf accuracy    <          6.5E-10 Ry

     iteration #  6     ecut=    80.00 Ry     beta= 0.70
     Davidson diagonalization with overlap
     ethr =  6.47E-12,  avg # of iterations =  1.0

     total cpu time spent up to now is       10.1 secs

     total energy              =     -37.05336677 Ry
     estimated scf accuracy    <          2.6E-10 Ry

     iteration #  7     ecut=    80.00 Ry     beta= 0.70
     Davidson diagonalization with overlap
     ethr =  2.65E-12,  avg # of iterations =  2.0

     total cpu time spent up to now is       10.3 secs

     End of self-consistent calculation

          k = 0.0000 0.0000 0.0000 (  2109 PWs)   bands (ev):

   -38.2811 -38.0848  -2.5215   9.8004   9.8004   9.8004  11.2403  11.2403
    11.2403

          k =-0.1583 0.1583-0.1583 (  2151 PWs)   bands (ev):

   -38.2665 -38.0966  -2.2331   6.9559   8.9481   8.9481  12.3009  12.3009
    13.3360

          k =-0.3167 0.3167-0.3167 (  2151 PWs)   bands (ev):

   -38.2276 -38.1297  -1.4143   3.9353   8.2351   8.2351  12.0863  12.0863
    14.9339

          k = 0.4750-0.4750 0.4750 (  2138 PWs)   bands (ev):

   -38.1776 -38.1768  -0.6812   2.4240   8.0233   8.0233  11.6059  11.6059
    15.6216

          k =-0.0000 0.3167-0.0000 (  2145 PWs)   bands (ev):

   -38.2627 -38.0994  -2.1429   7.6496   7.6496   8.3453  11.7107  13.2204
    14.0601

          k =-0.1583 0.4750-0.1583 (  2151 PWs)   bands (ev):

   -38.2350 -38.1222  -1.5103   5.0059   6.9035   7.7824  11.7860  13.3379
    14.5825

          k = 0.6333-0.3167 0.6333 (  2161 PWs)   bands (ev):

   -38.1929 -38.1604  -0.6242   2.8971   6.8270   6.9514  11.7908  13.5578
    16.2671

          k = 0.4750-0.1583 0.4750 (  2160 PWs)   bands (ev):

   -38.2053 -38.1489  -0.8751   3.3532   6.3169   7.7468  12.5302  13.0151
    16.2775

          k = 0.3167-0.0000 0.3167 (  2149 PWs)   bands (ev):

   -38.2448 -38.1143  -1.7667   5.5945   6.7461   8.9719  12.5049  13.3495
    14.5899

          k =-0.0000 0.6333-0.0000 (  2137 PWs)   bands (ev):

   -38.2256 -38.1284  -1.1398   5.9026   5.9338   5.9338  10.0810  12.7643
    17.4930

          k = 0.7917-0.1583 0.7917 (  2161 PWs)   bands (ev):

   -38.2033 -38.1477  -0.4691   4.1500   5.2570   5.7702  10.5973  13.8857
    17.2654

          k = 0.6333 0.0000 0.6333 (  2165 PWs)   bands (ev):

   -38.1757 -38.1754  -0.2496   3.2634   4.9481   6.4364  11.8325  16.1522
    16.4717

          k = 0.0000-0.9500 0.0000 (  2200 PWs)   bands (ev):

   -38.2070 -38.1431  -0.3658   4.5098   5.3475   5.3475   9.0979  13.3660
    19.9990

          k = 0.6333-0.3167 0.9500 (  2166 PWs)   bands (ev):

   -38.2090 -38.1442  -0.8105   4.1018   5.5574   6.6507  12.5010  13.8133
    14.6218

          k = 0.4750-0.1583 0.7917 (  2176 PWs)   bands (ev):

   -38.1757 -38.1755  -0.2488   3.2015   5.4868   5.8031  13.0117  14.1475
    16.3811

          k =-0.3167-0.9500 0.0000 (  2174 PWs)   bands (ev):

   -38.1910 -38.1591  -0.1509   4.1103   4.6895   5.1025  11.8004  14.4881
    17.2410

     the Fermi energy is     6.6765 ev

!    total energy              =     -37.05336677 Ry
     estimated scf accuracy    <          3.1E-13 Ry
     smearing contrib. (-TS)   =      -0.00105431 Ry
     internal energy E=F+TS    =     -37.05231246 Ry

     The total energy is F=E-TS. E is the sum of the following terms:
     one-electron contribution =     -10.71100700 Ry
     hartree contribution      =       6.58557374 Ry
     xc contribution           =     -10.19783138 Ry
     ewald contribution        =     -22.72904782 Ry

     convergence has been achieved in   7 iterations

     Forces acting on atoms (cartesian axes, Ry/au):

     atom    1 type  1   force =    -0.00000000   -0.00000000    0.00000000
     atom    2 type  1   force =    -0.00000000    0.00000000   -0.00000000
     atom    3 type  2   force =    -0.00000000    0.00000000   -0.00000000
     The non-local contrib.  to forces
     atom    1 type  1   force =     0.00000000   -0.00000000   -0.00000000
     atom    2 type  1   force =     0.00000000    0.00000000   -0.00000000
     atom    3 type  2   force =     0.00000000    0.00000000    0.00000000
     The ionic contribution  to forces
     atom    1 type  1   force =    -0.00000000   -0.00000000   -0.00000000
     atom    2 type  1   force =    -0.00000000    0.00000000    0.00000000
     atom    3 type  2   force =    -0.00000000    0.00000000    0.00000000
     The local contribution  to forces
     atom    1 type  1   force =     0.00000000    0.00000000    0.00000000
     atom    2 type  1   force =     0.00000000   -0.00000000   -0.00000000
     atom    3 type  2   force =     0.00000000   -0.00000000   -0.00000000
     The core correction contribution to forces
     atom    1 type  1   force =     0.00000000    0.00000000    0.00000000
     atom    2 type  1   force =     0.00000000    0.00000000    0.00000000
     atom    3 type  2   force =     0.00000000   -0.00000000   -0.00000000
     The Hubbard contrib.    to forces
     atom    1 type  1   force =     0.00000000    0.00000000    0.00000000
     atom    2 type  1   force =     0.00000000    0.00000000    0.00000000
     atom    3 type  2   force =     0.00000000    0.00000000    0.00000000
     The SCF correction term to forces
     atom    1 type  1   force =    -0.00000000    0.00000000   -0.00000000
     atom    2 type  1   force =    -0.00000000   -0.00000000   -0.00000000
     atom    3 type  2   force =     0.00000000   -0.00000000   -0.00000000

     Total force =     0.000000     Total SCF correction =     0.000000


     Computing stress (Cartesian axis) and pressure

          total   stress  (Ry/bohr**3)                   (kbar)     P=      500.02
   0.00339905   0.00000000  -0.00000000          500.02        0.00       -0.00
  -0.00000000   0.00339905   0.00000000           -0.00      500.02        0.00
  -0.00000000   0.00000000   0.00339905           -0.00        0.00      500.02

     Energy error            =      2.1E-06 Ry
     Gradient error          =      6.6E-32 Ry/Bohr
     Cell gradient error     =      1.8E-02 kbar
ibrav =      2
 celldm(1) =      9.41497553
Input lattice vectors:
    -0.52632555     0.00000000     0.52632555
     0.00000000     0.52632555     0.52632555
    -0.52632555     0.52632555     0.00000000
New lattice vectors in INITIAL alat:
    -0.52632555     0.00000000     0.52632555
     0.00000000     0.52632555     0.52632555
    -0.52632555     0.52632555     0.00000000
New lattice vectors in NEW alat (for information only):
    -0.50000000     0.00000000     0.50000000
     0.00000000     0.50000000     0.50000000
    -0.50000000     0.50000000     0.00000000
Discrepancy in bohr =     0.000000    0.000000    0.000000

     bfgs converged in   4 scf cycles and   3 bfgs steps
     (criteria: energy <  1.0E-04 Ry, force <  1.0E-03 Ry/Bohr, cell <  1.0E+00 kbar)

     End of BFGS Geometry Optimization

     Final enthalpy           =     -36.3442137843 Ry

     File ./output/LiSi.bfgs deleted, as requested
Begin final coordinates
     new unit-cell volume =    208.64001 a.u.^3 (    30.91726 Ang^3 )
     density =      2.25404 g/cm^3

CELL_PARAMETERS (alat=  8.94406083)
  -0.526325553   0.000000000   0.526325553
   0.000000000   0.526325553   0.526325553
  -0.526325553   0.526325553   0.000000000

ATOMIC_POSITIONS (crystal)
Li           -0.2500000000        0.7500000000       -0.2500000000
Li           -0.7500000000        2.2500000000       -0.7500000000
Si            0.5000000000        0.5000000000       -0.5000000000
End final coordinates



     Writing config-only to output data dir ./output/LiSi.save/

     Final scf calculation at the relaxed structure.
     The G-vectors are recalculated for the final unit cell
     Results may differ from those at the preceding step.

     Parallelization info
     --------------------
     sticks:   dense  smooth     PW     G-vecs:    dense   smooth      PW
     Min         120     120     36                 2512     2512     410
     Max         122     122     37                 2514     2514     412
     Sum         967     967    295                20107    20107    3287

     Using Slab Decomposition



     bravais-lattice index     =            2
     lattice parameter (alat)  =       8.9441  a.u.
     unit-cell volume          =     208.6400 (a.u.)^3
     number of atoms/cell      =            3
     number of atomic types    =            2
     number of electrons       =        10.00
     number of Kohn-Sham states=            9
     kinetic-energy cutoff     =      80.0000  Ry
     charge density cutoff     =     320.0000  Ry
     scf convergence threshold =      1.0E-10
     mixing beta               =       0.7000
     number of iterations used =            8  plain     mixing
     press convergence thresh. =      1.0E+00
     Exchange-correlation= PBE
                           (   1   4   3   4   0   0   0)

     celldm(1)=   8.944061  celldm(2)=   0.000000  celldm(3)=   0.000000
     celldm(4)=   0.000000  celldm(5)=   0.000000  celldm(6)=   0.000000

     crystal axes: (cart. coord. in units of alat)
               a(1) = (  -0.526326   0.000000   0.526326 )  
               a(2) = (   0.000000   0.526326   0.526326 )  
               a(3) = (  -0.526326   0.526326   0.000000 )  

     reciprocal axes: (cart. coord. in units 2 pi/alat)
               b(1) = ( -0.949982 -0.949982  0.949982 )  
               b(2) = (  0.949982  0.949982  0.949982 )  
               b(3) = ( -0.949982  0.949982 -0.949982 )  


     PseudoPot. # 1 for Li read from file:
     ../pseudo/Li_ONCV_PBE_sr.upf
     MD5 check sum: 50ff420e78310ffa21704f3361e624a4
     Pseudo is Norm-conserving, Zval =  3.0
     Generated using ONCVPSP code by D. R. Hamann
     Using radial grid of 1944 points,  4 beta functions with: 
                l(1) =   0
                l(2) =   0
                l(3) =   1
                l(4) =   1

     PseudoPot. # 2 for Si read from file:
     ../pseudo/Si_ONCV_PBE_sr.upf
     MD5 check sum: e543d271109d17c80368dfa7c482276d
     Pseudo is Norm-conserving + core correction, Zval =  4.0
     Generated using ONCVPSP code by D. R. Hamann
     Using radial grid of 1510 points,  6 beta functions with: 
                l(1) =   0
                l(2) =   0
                l(3) =   1
                l(4) =   1
                l(5) =   2
                l(6) =   2

     atomic species   valence    mass     pseudopotential
        Li             3.00     6.94100     Li( 1.00)
        Si             4.00    28.08550     Si( 1.00)

     48 Sym. Ops., with inversion, found



   Cartesian axes

     site n.     atom                  positions (alat units)
         1           Li  tau(   1) = (   0.2631628   0.2631628   0.2631628  )
         2           Li  tau(   2) = (   0.7894883   0.7894883   0.7894883  )
         3           Si  tau(   3) = (   0.0000000  -0.0000000   0.5263256  )

     number of k points=    16  Marzari-Vanderbilt smearing, width (Ry)=  0.0200
                       cart. coord. in units 2pi/alat
        k(    1) = (   0.0000000   0.0000000   0.0000000), wk =   0.0092593
        k(    2) = (  -0.1583304   0.1583304  -0.1583304), wk =   0.0740741
        k(    3) = (  -0.3166608   0.3166608  -0.3166608), wk =   0.0740741
        k(    4) = (   0.4749912  -0.4749912   0.4749912), wk =   0.0370370
        k(    5) = (  -0.0000000   0.3166608  -0.0000000), wk =   0.0555556
        k(    6) = (  -0.1583304   0.4749912  -0.1583304), wk =   0.2222222
        k(    7) = (   0.6333216  -0.3166608   0.6333216), wk =   0.2222222
        k(    8) = (   0.4749912  -0.1583304   0.4749912), wk =   0.2222222
        k(    9) = (   0.3166608  -0.0000000   0.3166608), wk =   0.1111111
        k(   10) = (  -0.0000000   0.6333216  -0.0000000), wk =   0.0555556
        k(   11) = (   0.7916520  -0.1583304   0.7916520), wk =   0.2222222
        k(   12) = (   0.6333216   0.0000000   0.6333216), wk =   0.1111111
        k(   13) = (   0.0000000  -0.9499824   0.0000000), wk =   0.0277778
        k(   14) = (   0.6333216  -0.3166608   0.9499824), wk =   0.2222222
        k(   15) = (   0.4749912  -0.1583304   0.7916520), wk =   0.2222222
        k(   16) = (  -0.3166608  -0.9499824   0.0000000), wk =   0.1111111

     Dense  grid:    20107 G-vectors     FFT dimensions: (  40,  40,  40)

     Estimated max dynamical RAM per process >      14.28 MB

     Estimated total dynamical RAM >     114.28 MB

     Initial potential from superposition of free atoms

     starting charge       9.9903, renormalised to      10.0000
     Starting wfcs are    8 randomized atomic wfcs +    1 random wfcs

     total cpu time spent up to now is       11.0 secs

     Self-consistent Calculation

     iteration #  1     ecut=    80.00 Ry     beta= 0.70
     Davidson diagonalization with overlap
     c_bands:  1 eigenvalues not converged
     ethr =  1.00E-06,  avg # of iterations = 15.4

     total cpu time spent up to now is       11.5 secs

     total energy              =     -37.05302833 Ry
     estimated scf accuracy    <       0.00839055 Ry

     iteration #  2     ecut=    80.00 Ry     beta= 0.70
     Davidson diagonalization with overlap
     ethr =  8.39E-05,  avg # of iterations =  1.0

     total cpu time spent up to now is       11.6 secs

     total energy              =     -37.05341152 Ry
     estimated scf accuracy    <       0.00052080 Ry

     iteration #  3     ecut=    80.00 Ry     beta= 0.70
     Davidson diagonalization with overlap
     ethr =  5.21E-06,  avg # of iterations =  1.1

     total cpu time spent up to now is       11.8 secs

     total energy              =     -37.05343108 Ry
     estimated scf accuracy    <       0.00001283 Ry

     iteration #  4     ecut=    80.00 Ry     beta= 0.70
     Davidson diagonalization with overlap
     ethr =  1.28E-07,  avg # of iterations =  2.4

     total cpu time spent up to now is       12.1 secs

     total energy              =     -37.05343249 Ry
     estimated scf accuracy    <       0.00000017 Ry

     iteration #  5     ecut=    80.00 Ry     beta= 0.70
     Davidson diagonalization with overlap
     ethr =  1.73E-09,  avg # of iterations =  2.4

     total cpu time spent up to now is       12.3 secs

     total energy              =     -37.05343254 Ry
     estimated scf accuracy    <          1.1E-09 Ry

     iteration #  6     ecut=    80.00 Ry     beta= 0.70
     Davidson diagonalization with overlap
     ethr =  1.11E-11,  avg # of iterations =  3.6

     total cpu time spent up to now is       12.6 secs

     End of self-consistent calculation

          k = 0.0000 0.0000 0.0000 (  2565 PWs)   bands (ev):

   -38.2803 -38.0839  -2.5217   9.8004   9.8004   9.8004  11.2402  11.2402
    11.2402

          k =-0.1583 0.1583-0.1583 (  2553 PWs)   bands (ev):

   -38.2656 -38.0957  -2.2332   6.9558   8.9480   8.9480  12.3009  12.3009
    13.3360

          k =-0.3167 0.3167-0.3167 (  2527 PWs)   bands (ev):

   -38.2267 -38.1289  -1.4144   3.9353   8.2351   8.2351  12.0862  12.0862
    14.9338

          k = 0.4750-0.4750 0.4750 (  2512 PWs)   bands (ev):

   -38.1768 -38.1759  -0.6812   2.4239   8.0232   8.0232  11.6058  11.6058
    15.6214

          k =-0.0000 0.3167-0.0000 (  2541 PWs)   bands (ev):

   -38.2618 -38.0985  -2.1430   7.6495   7.6495   8.3453  11.7106  13.2204
    14.0600

          k =-0.1583 0.4750-0.1583 (  2520 PWs)   bands (ev):

   -38.2341 -38.1214  -1.5104   5.0058   6.9034   7.7823  11.7859  13.3378
    14.5824

          k = 0.6333-0.3167 0.6333 (  2510 PWs)   bands (ev):

   -38.1920 -38.1596  -0.6242   2.8970   6.8269   6.9514  11.7907  13.5578
    16.2671

          k = 0.4750-0.1583 0.4750 (  2514 PWs)   bands (ev):

   -38.2045 -38.1481  -0.8751   3.3531   6.3168   7.7468  12.5301  13.0150
    16.2774

          k = 0.3167-0.0000 0.3167 (  2535 PWs)   bands (ev):

   -38.2440 -38.1135  -1.7668   5.5945   6.7460   8.9719  12.5049  13.3494
    14.5899

          k =-0.0000 0.6333-0.0000 (  2502 PWs)   bands (ev):

   -38.2247 -38.1276  -1.1399   5.9025   5.9338   5.9338  10.0810  12.7641
    17.4929

          k = 0.7917-0.1583 0.7917 (  2524 PWs)   bands (ev):

   -38.2025 -38.1469  -0.4691   4.1499   5.2569   5.7701  10.5973  13.8855
    17.2653

          k = 0.6333 0.0000 0.6333 (  2526 PWs)   bands (ev):

   -38.1749 -38.1746  -0.2497   3.2633   4.9481   6.4364  11.8324  16.1521
    16.4716

          k = 0.0000-0.9500 0.0000 (  2498 PWs)   bands (ev):

   -38.2061 -38.1422  -0.3658   4.5098   5.3475   5.3475   9.0979  13.3659
    19.9989

          k = 0.6333-0.3167 0.9500 (  2517 PWs)   bands (ev):

   -38.2081 -38.1433  -0.8105   4.1018   5.5573   6.6507  12.5009  13.8131
    14.6217

          k = 0.4750-0.1583 0.7917 (  2514 PWs)   bands (ev):

   -38.1748 -38.1746  -0.2488   3.2014   5.4867   5.8030  13.0117  14.1474
    16.3810

          k =-0.3167-0.9500 0.0000 (  2520 PWs)   bands (ev):

   -38.1901 -38.1582  -0.1509   4.1102   4.6894   5.1025  11.8003  14.4880
    17.2409

     the Fermi energy is     6.6764 ev

!    total energy              =     -37.05343254 Ry
     estimated scf accuracy    <          6.0E-11 Ry
     smearing contrib. (-TS)   =      -0.00105427 Ry
     internal energy E=F+TS    =     -37.05237827 Ry

     The total energy is F=E-TS. E is the sum of the following terms:
     one-electron contribution =     -10.71128139 Ry
     hartree contribution      =       6.58588163 Ry
     xc contribution           =     -10.19793069 Ry
     ewald contribution        =     -22.72904782 Ry

     convergence has been achieved in   6 iterations

     Forces acting on atoms (cartesian axes, Ry/au):

     atom    1 type  1   force =     0.00000000   -0.00000000    0.00000000
     atom    2 type  1   force =    -0.00000000    0.00000000   -0.00000000
     atom    3 type  2   force =     0.00000000    0.00000000   -0.00000000
     The non-local contrib.  to forces
     atom    1 type  1   force =     0.00000000    0.00000000    0.00000000
     atom    2 type  1   force =    -0.00000000   -0.00000000   -0.00000000
     atom    3 type  2   force =    -0.00000000   -0.00000000    0.00000000
     The ionic contribution  to forces
     atom    1 type  1   force =    -0.00000000    0.00000000    0.00000000
     atom    2 type  1   force =     0.00000000    0.00000000    0.00000000
     atom    3 type  2   force =    -0.00000000    0.00000000    0.00000000
     The local contribution  to forces
     atom    1 type  1   force =     0.00000000    0.00000000    0.00000000
     atom    2 type  1   force =     0.00000000   -0.00000000   -0.00000000
     atom    3 type  2   force =     0.00000000   -0.00000000   -0.00000000
     The core correction contribution to forces
     atom    1 type  1   force =     0.00000000    0.00000000    0.00000000
     atom    2 type  1   force =     0.00000000    0.00000000    0.00000000
     atom    3 type  2   force =     0.00000000   -0.00000000   -0.00000000
     The Hubbard contrib.    to forces
     atom    1 type  1   force =     0.00000000    0.00000000    0.00000000
     atom    2 type  1   force =     0.00000000    0.00000000    0.00000000
     atom    3 type  2   force =     0.00000000    0.00000000    0.00000000
     The SCF correction term to forces
     atom    1 type  1   force =     0.00000000    0.00000000    0.00000000
     atom    2 type  1   force =    -0.00000000    0.00000000   -0.00000000
     atom    3 type  2   force =    -0.00000000   -0.00000000    0.00000000

     Total force =     0.000000     Total SCF correction =     0.000000


     Computing stress (Cartesian axis) and pressure

          total   stress  (Ry/bohr**3)                   (kbar)     P=      500.78
   0.00340424   0.00000000  -0.00000000          500.78        0.00       -0.00
   0.00000000   0.00340424  -0.00000000            0.00      500.78       -0.00
  -0.00000000  -0.00000000   0.00340424           -0.00       -0.00      500.78


     Writing all to output data dir ./output/LiSi.save/

     init_run     :      0.64s CPU      0.84s WALL (       2 calls)
     electrons    :      3.99s CPU      8.90s WALL (       5 calls)
     update_pot   :      0.56s CPU      0.65s WALL (       3 calls)
     forces       :      0.53s CPU      0.57s WALL (       5 calls)
     stress       :      1.32s CPU      1.41s WALL (       5 calls)

     Called by init_run:
     wfcinit      :      0.06s CPU      0.07s WALL (       2 calls)
     potinit      :      0.20s CPU      0.33s WALL (       2 calls)
     hinit0       :      0.37s CPU      0.43s WALL (       2 calls)

     Called by electrons:
     c_bands      :      3.09s CPU      7.02s WALL (      37 calls)
     sum_band     :      0.55s CPU      0.78s WALL (      37 calls)
     v_of_rho     :      0.37s CPU      0.85s WALL (      40 calls)
     mix_rho      :      0.04s CPU      0.07s WALL (      37 calls)

     Called by c_bands:
     init_us_2    :      0.10s CPU      0.15s WALL (    1376 calls)
     init_us_2:cp :      0.10s CPU      0.15s WALL (    1376 calls)
     cegterg      :      2.82s CPU      3.08s WALL (     592 calls)

     Called by *egterg:
     cdiaghg      :      0.21s CPU      0.23s WALL (    2079 calls)
     h_psi        :      2.41s CPU      2.60s WALL (    2191 calls)
     g_psi        :      0.01s CPU      0.01s WALL (    1567 calls)

     Called by h_psi:
     h_psi:calbec :      0.15s CPU      0.16s WALL (    2191 calls)
     vloc_psi     :      2.18s CPU      2.35s WALL (    2191 calls)
     add_vuspsi   :      0.08s CPU      0.08s WALL (    2191 calls)

     General routines
     calbec       :      0.18s CPU      0.19s WALL (    2591 calls)
     fft          :      0.66s CPU      1.35s WALL (     525 calls)
     ffts         :      0.05s CPU      0.15s WALL (      37 calls)
     fftw         :      2.26s CPU      2.40s WALL (   33862 calls)

     Parallel routines

     PWSCF        :      7.34s CPU     13.47s WALL


   This run was terminated on:  19:46:30  26Dec2024            

=------------------------------------------------------------------------------=
   JOB DONE.
=------------------------------------------------------------------------------=
