
     Program PWSCF v.7.2 starts on 28Dec2024 at 18:49:54 

     This program is part of the open-source Quantum ESPRESSO suite
     for quantum simulation of materials; please cite
         "P. Giannozzi et al., J. Phys.:Condens. Matter 21 395502 (2009);
         "P. Giannozzi et al., J. Phys.:Condens. Matter 29 465901 (2017);
         "P. Giannozzi et al., J. Chem. Phys. 152 154105 (2020);
          URL http://www.quantum-espresso.org", 
     in publications or presentations arising from this work. More details at
     http://www.quantum-espresso.org/quote

     Parallel version (MPI & OpenMP), running on       8 processor cores
     Number of MPI processes:                 8
     Threads/MPI process:                     1

     MPI processes distributed on     1 nodes
     481896 MiB available memory on the printing compute node when the environment starts

     Waiting for input...
     Reading input from standard input

     Current dimensions of program PWSCF are:
     Max number of different atomic species (ntypx) = 10
     Max number of k-points (npk) =  40000
     Max angular momentum in pseudopotentials (lmaxx) =  4

     R & G space division:  proc/nbgrp/npool/nimage =       8
     Subspace diagonalization in iterative solution of the eigenvalue problem:
     a serial algorithm will be used


     Parallelization info
     --------------------
     sticks:   dense  smooth     PW     G-vecs:    dense   smooth      PW
     Min         325     325     97                10916    10916    1773
     Max         326     326     98                10918    10918    1775
     Sum        2607    2607    779                87335    87335   14189

     Using Slab Decomposition



     bravais-lattice index     =            7
     lattice parameter (alat)  =      10.4277  a.u.
     unit-cell volume          =     903.2999 (a.u.)^3
     number of atoms/cell      =            6
     number of atomic types    =            2
     number of electrons       =        20.00
     number of Kohn-Sham states=           14
     kinetic-energy cutoff     =      80.0000  Ry
     charge density cutoff     =     320.0000  Ry
     scf convergence threshold =      1.0E-08
     mixing beta               =       0.7000
     number of iterations used =            8  plain     mixing
     energy convergence thresh.=      1.0E-04
     force convergence thresh. =      1.0E-03
     press convergence thresh. =      1.0E+00
     Exchange-correlation= PBE
                           (   1   4   3   4   0   0   0)
     nstep                     =           50


     celldm(1)=  10.427701  celldm(2)=   0.000000  celldm(3)=   1.593295
     celldm(4)=   0.000000  celldm(5)=   0.000000  celldm(6)=   0.000000

     crystal axes: (cart. coord. in units of alat)
               a(1) = (   0.500000  -0.500000   0.796648 )  
               a(2) = (   0.500000   0.500000   0.796648 )  
               a(3) = (  -0.500000  -0.500000   0.796648 )  

     reciprocal axes: (cart. coord. in units 2 pi/alat)
               b(1) = (  1.000000 -1.000000  0.000000 )  
               b(2) = (  0.000000  1.000000  0.627630 )  
               b(3) = ( -1.000000  0.000000  0.627630 )  


     PseudoPot. # 1 for Li read from file:
     ../pseudo/Li_ONCV_PBE_sr.upf
     MD5 check sum: 50ff420e78310ffa21704f3361e624a4
     Pseudo is Norm-conserving, Zval =  3.0
     Generated using ONCVPSP code by D. R. Hamann
     Using radial grid of 1944 points,  4 beta functions with: 
                l(1) =   0
                l(2) =   0
                l(3) =   1
                l(4) =   1

     PseudoPot. # 2 for Si read from file:
     ../pseudo/Si_ONCV_PBE_sr.upf
     MD5 check sum: e543d271109d17c80368dfa7c482276d
     Pseudo is Norm-conserving + core correction, Zval =  4.0
     Generated using ONCVPSP code by D. R. Hamann
     Using radial grid of 1510 points,  6 beta functions with: 
                l(1) =   0
                l(2) =   0
                l(3) =   1
                l(4) =   1
                l(5) =   2
                l(6) =   2

     atomic species   valence    mass     pseudopotential
        Li             3.00     6.94100     Li( 1.00)
        Si             4.00    28.08550     Si( 1.00)

     16 Sym. Ops., with inversion, found ( 8 have fractional translation)



   Cartesian axes

     site n.     atom                  positions (alat units)
         1           Li  tau(   1) = (   0.0000000   0.0000000   0.5261882  )
         2           Li  tau(   2) = (   0.0000000   0.5000000   0.9245120  )
         3           Li  tau(   3) = (   0.0000000   0.5000000   1.4654310  )
         4           Li  tau(   4) = (   0.0000000   0.0000000   1.0671071  )
         5           Si  tau(   5) = (   0.0000000   0.0000000   0.0000000  )
         6           Si  tau(   6) = (   0.0000000   0.5000000   0.3983238  )

     number of k points=    54  Marzari-Vanderbilt smearing, width (Ry)=  0.0200
                       cart. coord. in units 2pi/alat
        k(    1) = (   0.0000000   0.0000000   0.0000000), wk =   0.0138889
        k(    2) = (  -0.2500000   0.0000000   0.1569075), wk =   0.0277778
        k(    3) = (   0.5000000   0.0000000  -0.3138150), wk =   0.0555556
        k(    4) = (   0.0000000   0.1666667   0.1046050), wk =   0.0555556
        k(    5) = (  -0.2500000   0.1666667   0.2615125), wk =   0.0277778
        k(    6) = (   0.5000000   0.1666667  -0.2092100), wk =   0.1111111
        k(    7) = (   0.2500000   0.1666667  -0.0523025), wk =   0.0277778
        k(    8) = (   0.0000000   0.3333333   0.2092100), wk =   0.0555556
        k(    9) = (  -0.2500000   0.3333333   0.3661175), wk =   0.0277778
        k(   10) = (   0.5000000   0.3333333  -0.1046050), wk =   0.1111111
        k(   11) = (   0.2500000   0.3333333   0.0523025), wk =   0.0277778
        k(   12) = (  -0.2500000  -0.5000000  -0.1569075), wk =   0.0555556
        k(   13) = (   0.5000000  -0.5000000  -0.6276300), wk =   0.0277778
        k(   14) = (   0.1666667  -0.1666667   0.0000000), wk =   0.0277778
        k(   15) = (  -0.0833333  -0.1666667   0.1569075), wk =   0.0277778
        k(   16) = (   0.6666667  -0.1666667  -0.3138150), wk =   0.1111111
        k(   17) = (   0.4166667  -0.1666667  -0.1569075), wk =   0.0277778
        k(   18) = (  -0.0833333   0.0000000   0.2615125), wk =   0.0277778
        k(   19) = (   0.6666667   0.0000000  -0.2092100), wk =   0.0555556
        k(   20) = (   0.4166667   0.0000000  -0.0523025), wk =   0.0277778
        k(   21) = (   0.1666667   0.1666667   0.2092100), wk =   0.0277778
        k(   22) = (  -0.0833333   0.1666667   0.3661175), wk =   0.0277778
        k(   23) = (   0.6666667   0.1666667  -0.1046050), wk =   0.0555556
        k(   24) = (   0.4166667   0.1666667   0.0523025), wk =   0.0277778
        k(   25) = (  -0.0833333  -0.6666667  -0.1569075), wk =   0.0277778
        k(   26) = (   0.6666667  -0.6666667  -0.6276300), wk =   0.0277778
        k(   27) = (   0.4166667  -0.6666667  -0.4707225), wk =   0.0277778
        k(   28) = (  -0.0833333  -0.5000000  -0.0523025), wk =   0.0555556
        k(   29) = (   0.4166667  -0.5000000  -0.3661175), wk =   0.0555556
        k(   30) = (   0.1666667  -0.3333333  -0.1046050), wk =   0.0555556
        k(   31) = (  -0.0833333  -0.3333333   0.0523025), wk =   0.0277778
        k(   32) = (   0.6666667  -0.3333333  -0.4184200), wk =   0.0277778
        k(   33) = (   0.4166667  -0.3333333  -0.2615125), wk =   0.0277778
        k(   34) = (   0.3333333  -0.3333333   0.0000000), wk =   0.0277778
        k(   35) = (   0.0833333  -0.3333333   0.1569075), wk =   0.0277778
        k(   36) = (   0.5833333  -0.3333333  -0.1569075), wk =   0.0277778
        k(   37) = (   0.0833333  -0.1666667   0.2615125), wk =   0.0277778
        k(   38) = (   0.8333333  -0.1666667  -0.2092100), wk =   0.0277778
        k(   39) = (   0.5833333  -0.1666667  -0.0523025), wk =   0.0277778
        k(   40) = (   0.0833333   0.0000000   0.3661175), wk =   0.0277778
        k(   41) = (   0.8333333   0.0000000  -0.1046050), wk =   0.0555556
        k(   42) = (   0.5833333   0.0000000   0.0523025), wk =   0.0277778
        k(   43) = (   0.0833333  -0.8333333  -0.1569075), wk =   0.0277778
        k(   44) = (   0.8333333  -0.8333333  -0.6276300), wk =   0.0277778
        k(   45) = (   0.5833333  -0.8333333  -0.4707225), wk =   0.0277778
        k(   46) = (   0.3333333  -0.6666667  -0.2092100), wk =   0.0277778
        k(   47) = (   0.0833333  -0.6666667  -0.0523025), wk =   0.0277778
        k(   48) = (   0.5833333  -0.6666667  -0.3661175), wk =   0.0277778
        k(   49) = (  -0.7500000   0.6666667   0.2615125), wk =   0.0277778
        k(   50) = (  -0.2500000   0.6666667  -0.0523025), wk =   0.0277778
        k(   51) = (  -0.7500000   0.8333333   0.3661175), wk =   0.0277778
        k(   52) = (  -0.2500000   0.8333333   0.0523025), wk =   0.0277778
        k(   53) = (  -0.7500000   0.0000000  -0.1569075), wk =   0.0277778
        k(   54) = (   0.0000000   0.0000000  -0.6276300), wk =   0.0138889

     Dense  grid:    87335 G-vectors     FFT dimensions: (  64,  64,  64)

     Estimated max dynamical RAM per process >      37.27 MB

     Estimated total dynamical RAM >     298.15 MB

     Initial potential from superposition of free atoms

     starting charge      19.9805, renormalised to      20.0000
     Starting wfcs are   16 randomized atomic wfcs

     total cpu time spent up to now is        4.4 secs

     Self-consistent Calculation

     iteration #  1     ecut=    80.00 Ry     beta= 0.70
     Davidson diagonalization with overlap
     ethr =  1.00E-02,  avg # of iterations =  3.7

     Threshold (ethr) on eigenvalues was too large:
     Diagonalizing with lowered threshold

     Davidson diagonalization with overlap
     ethr =  1.86E-04,  avg # of iterations =  4.5

     total cpu time spent up to now is        8.9 secs

     total energy              =     -74.41422227 Ry
     estimated scf accuracy    <       0.02611493 Ry

     iteration #  2     ecut=    80.00 Ry     beta= 0.70
     Davidson diagonalization with overlap
     ethr =  1.31E-04,  avg # of iterations =  2.2

     total cpu time spent up to now is       10.8 secs

     total energy              =     -74.41771241 Ry
     estimated scf accuracy    <       0.01185643 Ry

     iteration #  3     ecut=    80.00 Ry     beta= 0.70
     Davidson diagonalization with overlap
     ethr =  5.93E-05,  avg # of iterations =  2.0

     total cpu time spent up to now is       12.5 secs

     total energy              =     -74.42024825 Ry
     estimated scf accuracy    <       0.00039858 Ry

     iteration #  4     ecut=    80.00 Ry     beta= 0.70
     Davidson diagonalization with overlap
     ethr =  1.99E-06,  avg # of iterations =  5.9

     total cpu time spent up to now is       14.8 secs

     total energy              =     -74.42028883 Ry
     estimated scf accuracy    <       0.00002518 Ry

     iteration #  5     ecut=    80.00 Ry     beta= 0.70
     Davidson diagonalization with overlap
     ethr =  1.26E-07,  avg # of iterations =  2.4

     total cpu time spent up to now is       16.6 secs

     total energy              =     -74.42029661 Ry
     estimated scf accuracy    <       0.00000136 Ry

     iteration #  6     ecut=    80.00 Ry     beta= 0.70
     Davidson diagonalization with overlap
     ethr =  6.80E-09,  avg # of iterations =  2.8

     total cpu time spent up to now is       18.4 secs

     total energy              =     -74.42029688 Ry
     estimated scf accuracy    <       0.00000004 Ry

     iteration #  7     ecut=    80.00 Ry     beta= 0.70
     Davidson diagonalization with overlap
     ethr =  1.89E-10,  avg # of iterations =  4.1

     total cpu time spent up to now is       20.5 secs

     End of self-consistent calculation

          k = 0.0000 0.0000 0.0000 ( 10883 PWs)   bands (ev):

   -44.6313 -44.6250 -44.6173 -44.6153  -5.8312  -2.9291   0.8138   1.1319
     1.1319   1.5527   1.5527   2.2560   2.4592   3.6465

          k =-0.2500 0.0000 0.1569 ( 10904 PWs)   bands (ev):

   -44.6302 -44.6245 -44.6185 -44.6158  -5.6082  -3.4196   0.1495   0.5637
     0.7800   2.0621   2.1244   2.6569   3.4518   4.1946

          k = 0.5000 0.0000-0.3138 ( 10926 PWs)   bands (ev):

   -44.6290 -44.6226 -44.6213 -44.6160  -5.2633  -3.9980  -0.2646   0.2695
     0.6550   2.0959   2.5404   3.4149   3.7635   4.3639

          k = 0.0000 0.1667 0.1046 ( 10905 PWs)   bands (ev):

   -44.6307 -44.6248 -44.6178 -44.6156  -5.7282  -3.1710   0.4398   0.7693
     0.8945   1.8081   1.8931   2.4794   3.1949   3.7916

          k =-0.2500 0.1667 0.2615 ( 10906 PWs)   bands (ev):

   -44.6293 -44.6248 -44.6184 -44.6164  -5.4279  -3.7320  -0.2364   0.4425
     0.7746   2.0043   2.4805   2.7290   3.8345   4.3129

          k = 0.5000 0.1667-0.2092 ( 10923 PWs)   bands (ev):

   -44.6283 -44.6226 -44.6213 -44.6167  -5.1902  -4.0789  -0.4727   0.2370
     0.9361   1.8092   2.5388   3.2114   4.1488   4.2649

          k = 0.2500 0.1667-0.0523 ( 10894 PWs)   bands (ev):

   -44.6297 -44.6240 -44.6188 -44.6163  -5.5950  -3.4310   0.1499   0.4918
     0.9756   1.4206   2.4382   3.0124   3.1152   3.8288

          k = 0.0000 0.3333 0.2092 ( 10910 PWs)   bands (ev):

   -44.6296 -44.6240 -44.6194 -44.6159  -5.4613  -3.6867  -0.0779   0.4044
     0.7057   2.1231   2.3914   2.9444   3.4869   4.2540

          k =-0.2500 0.3333 0.3661 ( 10916 PWs)   bands (ev):

   -44.6277 -44.6245 -44.6192 -44.6174  -5.1330  -4.1469  -0.5649   0.2183
     0.8491   2.1948   2.6524   2.7928   3.7896   4.7991

          k = 0.5000 0.3333-0.1046 ( 10921 PWs)   bands (ev):

   -44.6264 -44.6230 -44.6210 -44.6185  -4.9792  -4.3236  -0.3962   0.0324
     0.7469   1.3880   2.7054   3.5674   4.1128   4.5552

          k = 0.2500 0.3333 0.0523 ( 10908 PWs)   bands (ev):

   -44.6285 -44.6231 -44.6201 -44.6172  -5.3926  -3.7699  -0.0508   0.2515
     0.7418   1.4766   2.4950   3.2165   3.4641   4.4567

          k =-0.2500-0.5000-0.1569 ( 10925 PWs)   bands (ev):

   -44.6274 -44.6228 -44.6212 -44.6175  -5.1007  -4.1825  -0.4947   0.1298
     0.9097   1.8186   2.3166   3.3256   4.1573   4.5127

          k = 0.5000-0.5000-0.6276 ( 10920 PWs)   bands (ev):

   -44.6242 -44.6242 -44.6203 -44.6203  -4.6637  -4.6637  -0.0565  -0.0565
     0.6205   0.6205   3.8464   3.8464   3.9774   3.9774

          k = 0.1667-0.1667 0.0000 ( 10881 PWs)   bands (ev):

   -44.6303 -44.6244 -44.6182 -44.6160  -5.6886  -3.2482   0.3719   0.7321
     0.8662   1.4041   2.2554   2.8994   3.1979   3.3878

          k =-0.0833-0.1667 0.1569 ( 10901 PWs)   bands (ev):

   -44.6305 -44.6249 -44.6178 -44.6157  -5.6712  -3.2930   0.3269   0.6040
     0.8271   1.7661   2.3207   2.4280   3.3853   3.8105

          k = 0.6667-0.1667-0.3138 ( 10916 PWs)   bands (ev):

   -44.6287 -44.6244 -44.6193 -44.6166  -5.2780  -3.9597  -0.4111   0.3299
     0.7899   2.0222   2.5999   2.9638   3.8269   4.5522

          k = 0.4167-0.1667-0.1569 ( 10912 PWs)   bands (ev):

   -44.6286 -44.6228 -44.6209 -44.6167  -5.3118  -3.9040  -0.3537   0.2674
     1.0572   1.6478   2.3732   3.1771   3.8616   4.4382

          k =-0.0833 0.0000 0.2615 ( 10896 PWs)   bands (ev):

   -44.6306 -44.6257 -44.6171 -44.6155  -5.6079  -3.4277   0.2550   0.3661
     0.8674   1.6637   2.5473   2.5511   3.5553   3.8883

          k = 0.6667 0.0000-0.2092 ( 10919 PWs)   bands (ev):

   -44.6290 -44.6249 -44.6190 -44.6160  -5.1992  -4.0814  -0.5360   0.3408
     0.7122   2.3780   2.5890   3.3311   3.7931   4.5416

          k = 0.4167 0.0000-0.0523 ( 10903 PWs)   bands (ev):

   -44.6294 -44.6226 -44.6210 -44.6160  -5.4189  -3.7426  -0.4774   0.7889
     0.8921   1.9857   2.1648   3.2289   3.7751   3.8405

          k = 0.1667 0.1667 0.2092 ( 10905 PWs)   bands (ev):

   -44.6300 -44.6249 -44.6180 -44.6161  -5.5674  -3.4931   0.0231   0.5578
     0.7821   1.8331   2.4914   2.5405   3.7022   3.9346

          k =-0.0833 0.1667 0.3661 ( 10911 PWs)   bands (ev):

   -44.6296 -44.6260 -44.6173 -44.6160  -5.3640  -3.8466  -0.2314   0.1243
     0.9450   1.8679   2.8059   2.8915   3.9349   4.4799

          k = 0.6667 0.1667-0.1046 ( 10927 PWs)   bands (ev):

   -44.6280 -44.6253 -44.6188 -44.6168  -4.9809  -4.3416  -0.6637  -0.0965
     1.2725   2.0882   2.9245   3.2599   3.7594   4.6476

          k = 0.4167 0.1667 0.0523 ( 10908 PWs)   bands (ev):

   -44.6287 -44.6225 -44.6211 -44.6166  -5.3447  -3.8488  -0.3881   0.3330
     1.1549   1.4706   2.6218   3.0335   3.5973   4.5463

          k =-0.0833-0.6667-0.1569 ( 10918 PWs)   bands (ev):

   -44.6287 -44.6251 -44.6189 -44.6162  -5.1053  -4.1990  -0.6377   0.1530
     0.9658   2.2511   2.8204   3.2911   3.8430   4.5695

          k = 0.6667-0.6667-0.6276 ( 10932 PWs)   bands (ev):

   -44.6257 -44.6257 -44.6187 -44.6187  -4.6669  -4.6669  -0.4174  -0.4174
     1.3966   1.3966   3.3172   3.3172   4.1990   4.1990

          k = 0.4167-0.6667-0.4707 ( 10930 PWs)   bands (ev):

   -44.6268 -44.6226 -44.6211 -44.6183  -5.1050  -4.1701  -0.3220   0.0092
     0.9747   1.4627   2.1515   3.4440   4.3342   4.5095

          k =-0.0833-0.5000-0.0523 ( 10914 PWs)   bands (ev):

   -44.6288 -44.6226 -44.6213 -44.6162  -5.2533  -3.9890  -0.6396   0.4119
     1.1096   1.8801   2.6944   3.1023   3.8100   4.4666

          k = 0.4167-0.5000-0.3661 ( 10903 PWs)   bands (ev):

   -44.6252 -44.6234 -44.6208 -44.6195  -4.8264  -4.4921  -0.4627  -0.1712
     1.3435   1.8561   1.9471   2.4814   4.6482   5.0338

          k = 0.1667-0.3333-0.1046 ( 10911 PWs)   bands (ev):

   -44.6291 -44.6235 -44.6198 -44.6165  -5.4625  -3.6656  -0.1367   0.3483
     1.1330   1.4351   2.3794   3.1093   3.4455   4.2370

          k =-0.0833-0.3333 0.0523 ( 10905 PWs)   bands (ev):

   -44.6296 -44.6235 -44.6197 -44.6161  -5.5351  -3.5443  -0.2001   0.6501
     1.1715   1.4759   2.3028   3.0755   3.3452   4.0710

          k = 0.6667-0.3333-0.4184 ( 10906 PWs)   bands (ev):

   -44.6274 -44.6233 -44.6202 -44.6179  -5.1998  -4.0491  -0.3601   0.0840
     1.3909   1.4206   1.8658   3.2992   4.3195   4.4634

          k = 0.4167-0.3333-0.2615 ( 10909 PWs)   bands (ev):

   -44.6267 -44.6232 -44.6207 -44.6184  -5.0497  -4.2403  -0.4857   0.0231
     1.3773   1.5522   1.9827   2.9694   4.3296   4.8502

          k = 0.3333-0.3333 0.0000 ( 10913 PWs)   bands (ev):

   -44.6277 -44.6227 -44.6207 -44.6178  -5.2801  -3.9342  -0.0022   0.2110
     0.4509   1.3082   2.7926   3.3034   3.6183   4.6370

          k = 0.0833-0.3333 0.1569 ( 10921 PWs)   bands (ev):

   -44.6295 -44.6237 -44.6196 -44.6161  -5.4858  -3.6377  -0.1278   0.4347
     0.9335   1.7843   2.3774   3.0476   3.4342   4.1586

          k = 0.5833-0.3333-0.1569 ( 10918 PWs)   bands (ev):

   -44.6262 -44.6241 -44.6201 -44.6186  -4.8937  -4.4237  -0.5566   0.0498
     0.7696   1.8517   2.6385   3.1698   3.9932   4.8829

          k = 0.0833-0.1667 0.2615 ( 10911 PWs)   bands (ev):

   -44.6301 -44.6254 -44.6176 -44.6158  -5.5467  -3.5377   0.0212   0.4362
     0.7665   2.0449   2.4051   2.5881   3.6485   4.1673

          k = 0.8333-0.1667-0.2092 ( 10914 PWs)   bands (ev):

   -44.6290 -44.6262 -44.6174 -44.6164  -5.2172  -4.0553  -0.4018  -0.0542
     1.1254   1.9723   2.7905   3.0989   3.9389   4.7854

          k = 0.5833-0.1667-0.0523 ( 10921 PWs)   bands (ev):

   -44.6280 -44.6241 -44.6200 -44.6168  -5.0496  -4.2526  -0.6744   0.0172
     1.3269   1.8058   2.8730   3.2474   4.0342   4.3624

          k = 0.0833 0.0000 0.3661 ( 10916 PWs)   bands (ev):

   -44.6301 -44.6264 -44.6168 -44.6157  -5.4147  -3.7742  -0.0184   0.1099
     0.9285   1.4440   2.9710   2.9782   4.0029   4.1793

          k = 0.8333 0.0000-0.1046 ( 10902 PWs)   bands (ev):

   -44.6289 -44.6271 -44.6169 -44.6160  -5.0051  -4.3417  -0.4767  -0.0464
     0.9681   1.6441   3.3455   3.3738   4.3388   4.7723

          k = 0.5833 0.0000 0.0523 ( 10924 PWs)   bands (ev):

   -44.6288 -44.6240 -44.6201 -44.6160  -5.1272  -4.1647  -0.7656   0.3958
     0.9294   2.3497   2.6717   3.3050   4.1888   4.3264

          k = 0.0833-0.8333-0.1569 ( 10902 PWs)   bands (ev):

   -44.6290 -44.6267 -44.6170 -44.6161  -5.1287  -4.1826  -0.4059  -0.0922
     1.0864   1.7081   3.0561   3.3181   4.1708   4.7274

          k = 0.8333-0.8333-0.6276 ( 10914 PWs)   bands (ev):

   -44.6276 -44.6276 -44.6168 -44.6168  -4.6830  -4.6830  -0.4357  -0.4357
     1.5729   1.5729   3.2594   3.2594   4.4843   4.4843

          k = 0.5833-0.8333-0.4707 ( 10913 PWs)   bands (ev):

   -44.6281 -44.6239 -44.6201 -44.6167  -5.0987  -4.1960  -0.6069   0.1269
     1.0247   2.0233   2.7203   3.2033   3.9293   4.5011

          k = 0.3333-0.6667-0.2092 ( 10921 PWs)   bands (ev):

   -44.6268 -44.6245 -44.6194 -44.6182  -4.9786  -4.3300  -0.6155   0.1150
     0.8128   2.3585   2.5490   2.7464   3.8416   4.9736

          k = 0.0833-0.6667-0.0523 ( 10936 PWs)   bands (ev):

   -44.6284 -44.6254 -44.6188 -44.6162  -4.9794  -4.3499  -0.7529   0.0645
     1.1316   2.2244   3.0412   3.2312   4.0148   4.4355

          k = 0.5833-0.6667-0.3661 ( 10915 PWs)   bands (ev):

   -44.6264 -44.6236 -44.6204 -44.6185  -4.9753  -4.3302  -0.5715   0.0886
     0.9652   2.0313   2.4096   2.5501   4.1861   5.0155

          k =-0.7500 0.6667 0.2615 ( 10905 PWs)   bands (ev):

   -44.6281 -44.6239 -44.6196 -44.6173  -5.2585  -3.9761  -0.4150   0.2569
     1.0331   1.7355   2.2205   3.0957   4.0671   4.5050

          k =-0.2500 0.6667-0.0523 ( 10927 PWs)   bands (ev):

   -44.6270 -44.6255 -44.6188 -44.6176  -4.8323  -4.5007  -0.5904  -0.2977
     1.4085   1.8311   2.9537   3.3417   3.9148   4.5259

          k =-0.7500 0.8333 0.3661 ( 10905 PWs)   bands (ev):

   -44.6288 -44.6254 -44.6181 -44.6166  -5.2672  -3.9779  -0.4400   0.1611
     0.9352   2.2850   2.6722   2.7775   3.8298   4.7148

          k =-0.2500 0.8333 0.0523 ( 10930 PWs)   bands (ev):

   -44.6278 -44.6266 -44.6177 -44.6168  -4.8409  -4.5078  -0.6052  -0.2989
     1.4743   1.9553   3.0052   3.2381   4.0753   4.6296

          k =-0.7500 0.0000-0.1569 ( 10918 PWs)   bands (ev):

   -44.6290 -44.6261 -44.6178 -44.6160  -5.1183  -4.1912  -0.5707   0.1247
     0.8953   2.1107   2.9885   3.2004   4.0683   4.6932

          k = 0.0000 0.0000-0.6276 ( 10908 PWs)   bands (ev):

   -44.6284 -44.6284 -44.6161 -44.6161  -4.6955  -4.6955  -0.1905  -0.1905
     0.9867   0.9867   3.6760   3.6760   4.8090   4.8090

     the Fermi energy is     2.1730 ev

!    total energy              =     -74.42029690 Ry
     estimated scf accuracy    <          4.8E-09 Ry
     smearing contrib. (-TS)   =      -0.00001116 Ry
     internal energy E=F+TS    =     -74.42028575 Ry

     The total energy is F=E-TS. E is the sum of the following terms:
     one-electron contribution =     -34.25443796 Ry
     hartree contribution      =      15.04401108 Ry
     xc contribution           =     -19.07923636 Ry
     ewald contribution        =     -36.13062250 Ry

     convergence has been achieved in   7 iterations

     Forces acting on atoms (cartesian axes, Ry/au):

     atom    1 type  1   force =    -0.00000000   -0.00000000   -0.01864525
     atom    2 type  1   force =    -0.00000000    0.00000000   -0.01864525
     atom    3 type  1   force =     0.00000000   -0.00000000    0.01864525
     atom    4 type  1   force =     0.00000000    0.00000000    0.01864525
     atom    5 type  2   force =     0.00000000    0.00000000   -0.00000000
     atom    6 type  2   force =     0.00000000   -0.00000000    0.00000000
     The non-local contrib.  to forces
     atom    1 type  1   force =     0.00000000   -0.00000000    0.03774142
     atom    2 type  1   force =    -0.00000000    0.00000000    0.03774142
     atom    3 type  1   force =    -0.00000000    0.00000000   -0.03774142
     atom    4 type  1   force =     0.00000000    0.00000000   -0.03774142
     atom    5 type  2   force =     0.00000000   -0.00000000   -0.00000000
     atom    6 type  2   force =    -0.00000000   -0.00000000    0.00000000
     The ionic contribution  to forces
     atom    1 type  1   force =    -0.00000000    0.00000000    0.15779458
     atom    2 type  1   force =     0.00000000    0.00000000    0.15779458
     atom    3 type  1   force =     0.00000000    0.00000000   -0.15779458
     atom    4 type  1   force =    -0.00000000    0.00000000   -0.15779458
     atom    5 type  2   force =    -0.00000000   -0.00000000   -0.00000000
     atom    6 type  2   force =    -0.00000000   -0.00000000   -0.00000000
     The local contribution  to forces
     atom    1 type  1   force =     0.00000000    0.00000000   -0.21418715
     atom    2 type  1   force =     0.00000000    0.00000000   -0.21418715
     atom    3 type  1   force =     0.00000000    0.00000000    0.21418715
     atom    4 type  1   force =     0.00000000    0.00000000    0.21418715
     atom    5 type  2   force =     0.00000000   -0.00000000    0.00000000
     atom    6 type  2   force =    -0.00000000    0.00000000   -0.00000000
     The core correction contribution to forces
     atom    1 type  1   force =     0.00000000    0.00000000    0.00000000
     atom    2 type  1   force =     0.00000000    0.00000000    0.00000000
     atom    3 type  1   force =     0.00000000    0.00000000    0.00000000
     atom    4 type  1   force =     0.00000000    0.00000000    0.00000000
     atom    5 type  2   force =     0.00000000    0.00000000    0.00000000
     atom    6 type  2   force =    -0.00000000   -0.00000000   -0.00000000
     The Hubbard contrib.    to forces
     atom    1 type  1   force =     0.00000000    0.00000000    0.00000000
     atom    2 type  1   force =     0.00000000    0.00000000    0.00000000
     atom    3 type  1   force =     0.00000000    0.00000000    0.00000000
     atom    4 type  1   force =     0.00000000    0.00000000    0.00000000
     atom    5 type  2   force =     0.00000000    0.00000000    0.00000000
     atom    6 type  2   force =     0.00000000    0.00000000    0.00000000
     The SCF correction term to forces
     atom    1 type  1   force =    -0.00000000    0.00000000    0.00000590
     atom    2 type  1   force =     0.00000000    0.00000000    0.00000590
     atom    3 type  1   force =     0.00000000    0.00000000   -0.00000590
     atom    4 type  1   force =     0.00000000    0.00000000   -0.00000590
     atom    5 type  2   force =    -0.00000000    0.00000000   -0.00000000
     atom    6 type  2   force =    -0.00000000    0.00000000    0.00000000

     Total force =     0.037290     Total SCF correction =     0.000012


     Computing stress (Cartesian axis) and pressure

          total   stress  (Ry/bohr**3)                   (kbar)     P=      -52.11
  -0.00037158   0.00000000   0.00000000          -54.66        0.00        0.00
   0.00000000  -0.00037158  -0.00000000            0.00      -54.66       -0.00
   0.00000000  -0.00000000  -0.00031957            0.00       -0.00      -47.01


     BFGS Geometry Optimization
     Energy error            =      0.0E+00 Ry
     Gradient error          =      1.9E-02 Ry/Bohr
     Cell gradient error     =      5.5E+02 kbar

     number of scf cycles    =   1
     number of bfgs steps    =   0

     enthalpy           new  =     -71.3500430937 Ry

     new trust radius        =       0.5000000000 bohr
ibrav =      7
 celldm(1) =      9.56031422
 celldm(3) =      1.59528930
Input lattice vectors:
     0.45840951    -0.45840951     0.73129578
     0.45840951     0.45840951     0.73129578
    -0.45840951    -0.45840951     0.73129578
New lattice vectors in INITIAL alat:
     0.45840951    -0.45840951     0.73129578
     0.45840951     0.45840951     0.73129578
    -0.45840951    -0.45840951     0.73129578
New lattice vectors in NEW alat (for information only):
     0.50000000    -0.50000000     0.79764465
     0.50000000     0.50000000     0.79764465
    -0.50000000    -0.50000000     0.79764465
Discrepancy in bohr =     0.000000    0.000000    0.000000
     new conv_thr            =       0.0000000100 Ry

     new unit-cell volume =    696.98905 a.u.^3 (   103.28312 Ang^3 )
     density =      1.34947 g/cm^3

CELL_PARAMETERS (alat= 10.42770058)
   0.458409509  -0.458409509   0.731295783
   0.458409509   0.458409509   0.731295783
  -0.458409509  -0.458409509   0.731295783

ATOMIC_POSITIONS (crystal)
Li            0.0000000000        0.3292612001        0.3292612001
Li           -0.5000000000        1.0792612001        0.5792612001
Li           -0.5000000000        1.4207387999        0.9207387999
Li            0.0000000000        0.6707387999        0.6707387999
Si            0.0000000000       -0.0000000000       -0.0000000000
Si           -0.5000000000        0.7500000000        0.2500000000



     Writing config-only to output data dir ./output/LiSi.save/
     NEW-OLD atomic charge density approx. for the potential
     extrapolated charge   14.08570, renormalised to   20.00000

     total cpu time spent up to now is       25.5 secs

     Self-consistent Calculation

     iteration #  1     ecut=    80.00 Ry     beta= 0.70
     Davidson diagonalization with overlap
     c_bands:  1 eigenvalues not converged
     c_bands:  1 eigenvalues not converged
     ethr =  1.00E-06,  avg # of iterations = 12.4

     total cpu time spent up to now is       31.1 secs

     total energy              =     -74.24122940 Ry
     estimated scf accuracy    <       0.17303176 Ry

     iteration #  2     ecut=    80.00 Ry     beta= 0.70
     Davidson diagonalization with overlap
     ethr =  8.65E-04,  avg # of iterations =  2.0

     total cpu time spent up to now is       33.3 secs

     total energy              =     -74.47034451 Ry
     estimated scf accuracy    <       0.03389821 Ry

     iteration #  3     ecut=    80.00 Ry     beta= 0.70
     Davidson diagonalization with overlap
     ethr =  1.69E-04,  avg # of iterations =  1.5

     total cpu time spent up to now is       34.8 secs

     total energy              =     -74.47251238 Ry
     estimated scf accuracy    <       0.00321194 Ry

     iteration #  4     ecut=    80.00 Ry     beta= 0.70
     Davidson diagonalization with overlap
     ethr =  1.61E-05,  avg # of iterations =  2.2

     total cpu time spent up to now is       36.5 secs

     total energy              =     -74.47232815 Ry
     estimated scf accuracy    <       0.00090649 Ry

     iteration #  5     ecut=    80.00 Ry     beta= 0.70
     Davidson diagonalization with overlap
     ethr =  4.53E-06,  avg # of iterations =  2.7

     total cpu time spent up to now is       38.4 secs

     total energy              =     -74.47242363 Ry
     estimated scf accuracy    <       0.00000612 Ry

     iteration #  6     ecut=    80.00 Ry     beta= 0.70
     Davidson diagonalization with overlap
     ethr =  3.06E-08,  avg # of iterations =  5.1

     total cpu time spent up to now is       40.8 secs

     total energy              =     -74.47242883 Ry
     estimated scf accuracy    <       0.00000114 Ry

     iteration #  7     ecut=    80.00 Ry     beta= 0.70
     Davidson diagonalization with overlap
     ethr =  5.69E-09,  avg # of iterations =  2.1

     total cpu time spent up to now is       42.5 secs

     total energy              =     -74.47242908 Ry
     estimated scf accuracy    <       0.00000001 Ry

     iteration #  8     ecut=    80.00 Ry     beta= 0.70
     Davidson diagonalization with overlap
     ethr =  6.52E-11,  avg # of iterations =  4.0

     total cpu time spent up to now is       44.7 secs

     End of self-consistent calculation

          k = 0.0000 0.0000 0.0000 ( 10883 PWs)   bands (ev):

   -42.7771 -42.7599 -42.7409 -42.7371  -5.2110  -0.8469   1.8483   2.2458
     2.2458   2.7244   2.7244   4.1043   4.2928   5.0513

          k =-0.2727-0.0000 0.1709 ( 10904 PWs)   bands (ev):

   -42.7741 -42.7588 -42.7439 -42.7381  -4.9236  -1.8003   1.3130   1.6265
     1.8011   3.3862   3.6934   4.4558   5.2589   5.6487

          k = 0.5454 0.0000-0.3419 ( 10926 PWs)   bands (ev):

   -42.7708 -42.7545 -42.7513 -42.7385  -4.4668  -2.7443   1.0527   1.1953
     1.6576   3.3604   4.0948   5.3044   6.1183   6.4367

          k = 0.0000 0.1818 0.1140 ( 10905 PWs)   bands (ev):

   -42.7756 -42.7595 -42.7421 -42.7378  -5.0790  -1.3448   1.5240   1.8856
     1.9404   3.1756   3.2855   4.1932   5.0705   5.3757

          k =-0.2727 0.1818 0.2849 ( 10906 PWs)   bands (ev):

   -42.7718 -42.7596 -42.7439 -42.7398  -4.6875  -2.3025   0.7307   1.4079
     2.0641   3.4702   4.0072   4.4816   5.7612   6.1577

          k = 0.5454 0.1818-0.2279 ( 10923 PWs)   bands (ev):

   -42.7690 -42.7546 -42.7512 -42.7402  -4.3706  -2.8404   0.5195   1.1939
     2.2374   3.1864   4.0379   5.0331   6.2381   6.3302

          k = 0.2727 0.1818-0.0570 ( 10894 PWs)   bands (ev):

   -42.7731 -42.7576 -42.7448 -42.7395  -4.9073  -1.8010   1.1104   1.5539
     2.2333   2.8841   3.8640   4.5204   4.8081   5.8572

          k = 0.0000 0.3636 0.2279 ( 10910 PWs)   bands (ev):

   -42.7725 -42.7577 -42.7465 -42.7383  -4.7314  -2.2509   1.1595   1.4050
     1.7139   3.4359   3.9515   4.9289   5.3228   5.8326

          k =-0.2727 0.3636 0.3988 ( 10916 PWs)   bands (ev):

   -42.7677 -42.7591 -42.7461 -42.7421  -4.2941  -2.9273   0.3325   1.1558
     2.1788   3.7204   4.2022   4.5857   5.6914   6.8166

          k = 0.5454 0.3636-0.1140 ( 10921 PWs)   bands (ev):

   -42.7641 -42.7554 -42.7507 -42.7447  -4.0886  -3.1748   0.5099   0.9723
     1.9966   2.7663   4.3655   5.4436   6.1974   6.6308

          k = 0.2727 0.3636 0.0570 ( 10908 PWs)   bands (ev):

   -42.7697 -42.7556 -42.7480 -42.7416  -4.6428  -2.3475   0.8844   1.2652
     1.9754   2.9575   3.9382   4.9192   5.2707   6.5575

          k =-0.2727-0.5454-0.1709 ( 10925 PWs)   bands (ev):

   -42.7668 -42.7549 -42.7510 -42.7423  -4.2517  -2.9775   0.4272   1.0760
     2.1933   3.3950   3.7094   5.1390   6.2438   6.5880

          k = 0.5454-0.5454-0.6837 ( 10920 PWs)   bands (ev):

   -42.7585 -42.7585 -42.7490 -42.7490  -3.6553  -3.6553   0.8742   0.8742
     1.8508   1.8508   5.8343   5.8343   5.9965   5.9965

          k = 0.1818-0.1818 0.0000 ( 10881 PWs)   bands (ev):

   -42.7746 -42.7585 -42.7432 -42.7388  -5.0284  -1.4792   1.3193   1.8149
     2.1363   2.8226   3.6316   4.5894   4.6292   5.3853

          k =-0.0909-0.1818 0.1709 ( 10901 PWs)   bands (ev):

   -42.7750 -42.7597 -42.7421 -42.7382  -5.0052  -1.5688   1.3921   1.6382
     1.9494   3.1697   3.8051   4.1422   5.2193   5.5031

          k = 0.7272-0.1818-0.3419 ( 10916 PWs)   bands (ev):

   -42.7700 -42.7587 -42.7462 -42.7401  -4.4884  -2.6588   0.5626   1.2796
     2.0857   3.4307   4.1510   4.8258   5.7539   6.5638

          k = 0.4545-0.1818-0.1709 ( 10912 PWs)   bands (ev):

   -42.7699 -42.7548 -42.7501 -42.7402  -4.5346  -2.5711   0.6387   1.2443
     2.3651   3.0728   3.7835   4.9271   5.8265   6.4998

          k =-0.0909 0.0000 0.2849 ( 10896 PWs)   bands (ev):

   -42.7751 -42.7618 -42.7405 -42.7376  -4.9225  -1.7959   1.1861   1.2714
     2.1556   3.4111   4.0412   4.0759   5.4762   5.6898

          k = 0.7272 0.0000-0.2279 ( 10919 PWs)   bands (ev):

   -42.7707 -42.7602 -42.7456 -42.7385  -4.3821  -2.8443   0.3901   1.2499
     2.0838   4.0350   4.0433   5.3123   5.7043   6.6858

          k = 0.4545 0.0000-0.0570 ( 10903 PWs)   bands (ev):

   -42.7719 -42.7543 -42.7505 -42.7384  -4.6768  -2.3191   0.4260   1.8262
     2.3375   3.5026   3.5307   5.1136   5.1836   5.5759

          k = 0.1818 0.1818 0.2279 ( 10905 PWs)   bands (ev):

   -42.7736 -42.7598 -42.7426 -42.7390  -4.8704  -1.9131   1.0072   1.5576
     2.0241   3.2828   4.0183   4.2435   5.6409   5.6641

          k =-0.0909 0.1818 0.3988 ( 10911 PWs)   bands (ev):

   -42.7726 -42.7627 -42.7412 -42.7385  -4.6029  -2.4738   0.6633   1.0014
     2.3446   3.5859   4.4048   4.5495   5.8775   6.5295

          k = 0.7272 0.1818-0.1140 ( 10927 PWs)   bands (ev):

   -42.7681 -42.7613 -42.7454 -42.7403  -4.0884  -3.2063   0.1854   0.7993
     2.7546   3.7000   4.5839   5.0757   5.6079   6.7129

          k = 0.4545 0.1818 0.0570 ( 10908 PWs)   bands (ev):

   -42.7701 -42.7541 -42.7507 -42.7401  -4.5791  -2.4754   0.5232   1.3556
     2.4600   2.9828   4.0574   4.6876   5.4114   6.6613

          k =-0.0909-0.7272-0.1709 ( 10918 PWs)   bands (ev):

   -42.7698 -42.7607 -42.7455 -42.7389  -4.2561  -3.0088   0.2376   1.0610
     2.4051   3.8587   4.4065   5.2140   5.7153   6.6740

          k = 0.7272-0.7272-0.6837 ( 10932 PWs)   bands (ev):

   -42.7624 -42.7624 -42.7451 -42.7451  -3.6587  -3.6587   0.4594   0.4594
     2.8064   2.8064   5.1859   5.1859   6.1809   6.1809

          k = 0.4545-0.7272-0.5128 ( 10930 PWs)   bands (ev):

   -42.7654 -42.7545 -42.7508 -42.7443  -4.2589  -2.9526   0.6202   0.9410
     2.2475   2.8700   3.6392   5.3014   6.4431   6.5914

          k =-0.0909-0.5454-0.0570 ( 10914 PWs)   bands (ev):

   -42.7704 -42.7544 -42.7514 -42.7389  -4.4571  -2.6936   0.2302   1.4185
     2.5774   3.3385   4.2428   4.7903   5.5799   6.2645

          k = 0.4545-0.5454-0.3988 ( 10903 PWs)   bands (ev):

   -42.7612 -42.7566 -42.7501 -42.7471  -3.8779  -3.4149   0.4368   0.7520
     2.6568   3.1798   3.5724   4.1759   6.7883   7.3675

          k = 0.1818-0.3636-0.1140 ( 10911 PWs)   bands (ev):

   -42.7714 -42.7564 -42.7472 -42.7399  -4.7342  -2.1921   0.8476   1.3576
     2.4183   2.9006   3.7537   4.7894   5.2316   6.2625

          k =-0.0909-0.3636 0.0570 ( 10905 PWs)   bands (ev):

   -42.7727 -42.7564 -42.7471 -42.7387  -4.8293  -1.9975   0.7432   1.7577
     2.5199   2.8497   3.7467   4.6873   4.9831   5.9178

          k = 0.7272-0.3636-0.4558 ( 10906 PWs)   bands (ev):

   -42.7670 -42.7562 -42.7484 -42.7434  -4.3857  -2.7764   0.5842   1.0243
     2.7366   2.9513   3.1423   5.1273   6.3312   6.6180

          k = 0.4545-0.3636-0.2849 ( 10909 PWs)   bands (ev):

   -42.7650 -42.7558 -42.7498 -42.7444  -4.1826  -3.0582   0.4330   0.9586
     2.8117   2.8699   3.4423   4.7465   6.3372   7.1567

          k = 0.3636-0.3636 0.0000 ( 10913 PWs)   bands (ev):

   -42.7677 -42.7546 -42.7496 -42.7432  -4.4942  -2.5978   0.9032   1.2110
     1.6795   2.6794   4.4416   5.0428   5.4723   6.7532

          k = 0.0909-0.3636 0.1709 ( 10921 PWs)   bands (ev):

   -42.7724 -42.7571 -42.7468 -42.7388  -4.7641  -2.1627   0.9494   1.4586
     2.1325   3.1378   3.8788   4.8626   5.1845   5.9174

          k = 0.6363-0.3636-0.1709 ( 10918 PWs)   bands (ev):

   -42.7636 -42.7582 -42.7484 -42.7448  -3.9698  -3.3209   0.3227   0.9817
     2.0428   3.3272   4.2865   4.9647   6.0046   7.0659

          k = 0.0909-0.1818 0.2849 ( 10911 PWs)   bands (ev):

   -42.7740 -42.7610 -42.7417 -42.7383  -4.8430  -1.9871   0.9895   1.3809
     2.0283   3.7519   3.9091   4.1700   5.5436   6.0360

          k = 0.9089-0.1818-0.2279 ( 10914 PWs)   bands (ev):

   -42.7709 -42.7631 -42.7415 -42.7395  -4.4079  -2.7872   0.4687   0.8168
     2.5783   3.6966   4.4202   4.7998   5.8404   6.7748

          k = 0.6363-0.1818-0.0570 ( 10921 PWs)   bands (ev):

   -42.7682 -42.7582 -42.7483 -42.7403  -4.1829  -3.0765   0.1764   0.9511
     2.8090   3.3141   4.4689   5.0269   5.9709   6.3873

          k = 0.0909 0.0000 0.3988 ( 10916 PWs)   bands (ev):

   -42.7737 -42.7635 -42.7400 -42.7379  -4.6698  -2.3578   0.8434   0.9549
     2.3423   3.1533   4.6193   4.6352   5.9908   6.2032

          k = 0.9089 0.0000-0.1140 ( 10902 PWs)   bands (ev):

   -42.7703 -42.7657 -42.7405 -42.7385  -4.1235  -3.2039   0.3418   0.7642
     2.5249   3.3108   5.1159   5.2469   6.3548   7.0329

          k = 0.6363 0.0000 0.0570 ( 10924 PWs)   bands (ev):

   -42.7701 -42.7580 -42.7483 -42.7385  -4.2872  -2.9543   0.0716   1.3216
     2.4482   4.0205   4.1700   5.2640   5.7254   6.2309

          k = 0.0909-0.9089-0.1709 ( 10902 PWs)   bands (ev):

   -42.7709 -42.7646 -42.7407 -42.7388  -4.2898  -2.9739   0.4358   0.7452
     2.5965   3.3924   4.7594   5.1206   6.1168   6.9799

          k = 0.9089-0.9089-0.6837 ( 10914 PWs)   bands (ev):

   -42.7671 -42.7671 -42.7404 -42.7404  -3.6821  -3.6821   0.3906   0.3906
     3.2021   3.2021   5.0527   5.0527   6.4991   6.4991

          k = 0.6363-0.9089-0.5128 ( 10913 PWs)   bands (ev):

   -42.7685 -42.7577 -42.7485 -42.7403  -4.2475  -3.0041   0.2965   1.0675
     2.3909   3.5644   4.2222   5.0158   5.9772   6.5572

          k = 0.3636-0.7272-0.2279 ( 10921 PWs)   bands (ev):

   -42.7651 -42.7592 -42.7466 -42.7441  -4.0850  -3.1886   0.2557   1.0469
     2.1155   3.9486   4.1906   4.4133   5.7868   7.0537

          k = 0.0909-0.7272-0.0570 ( 10936 PWs)   bands (ev):

   -42.7692 -42.7615 -42.7453 -42.7390  -4.0868  -3.2185   0.0689   0.9570
     2.6703   3.8752   4.7362   5.0773   5.8847   6.3190

          k = 0.6363-0.7272-0.3988 ( 10915 PWs)   bands (ev):

   -42.7643 -42.7571 -42.7490 -42.7446  -4.0806  -3.1891   0.3203   1.0327
     2.2628   3.5107   3.8973   4.3227   6.1926   7.2748

          k =-0.8180 0.7272 0.2849 ( 10905 PWs)   bands (ev):

   -42.7687 -42.7576 -42.7469 -42.7419  -4.4632  -2.6738   0.5293   1.2155
     2.3942   3.1134   3.6914   4.8931   6.0343   6.5957

          k =-0.2727 0.7272-0.0570 ( 10927 PWs)   bands (ev):

   -42.7655 -42.7618 -42.7452 -42.7424  -3.8863  -3.4274   0.2603   0.5841
     2.8601   3.3814   4.6669   5.2069   5.7990   6.5709

          k =-0.8180 0.9089 0.3988 ( 10905 PWs)   bands (ev):

   -42.7705 -42.7612 -42.7434 -42.7400  -4.4742  -2.6769   0.4646   1.0783
     2.3039   3.9372   4.2779   4.4605   5.7307   6.5353

          k =-0.2727 0.9089 0.0570 ( 10930 PWs)   bands (ev):

   -42.7676 -42.7645 -42.7426 -42.7403  -3.8983  -3.4382   0.2230   0.5558
     3.0548   3.6215   4.7174   5.0284   5.9444   6.6898

          k =-0.8180-0.0000-0.1709 ( 10918 PWs)   bands (ev):

   -42.7706 -42.7632 -42.7428 -42.7385  -4.2748  -2.9918   0.2796   0.9775
     2.3880   3.8344   4.5949   5.0403   6.0032   6.8998

          k = 0.0000 0.0000-0.6837 ( 10908 PWs)   bands (ev):

   -42.7689 -42.7689 -42.7386 -42.7386  -3.7016  -3.7016   0.5856   0.5856
     2.5905   2.5905   5.6201   5.6201   7.1112   7.1112

     the Fermi energy is     3.6780 ev

!    total energy              =     -74.47242909 Ry
     estimated scf accuracy    <          1.9E-09 Ry
     smearing contrib. (-TS)   =       0.00050080 Ry
     internal energy E=F+TS    =     -74.47292989 Ry

     The total energy is F=E-TS. E is the sum of the following terms:
     one-electron contribution =     -29.71608635 Ry
     hartree contribution      =      14.04928246 Ry
     xc contribution           =     -19.42494424 Ry
     ewald contribution        =     -39.38118176 Ry

     convergence has been achieved in   8 iterations

     Forces acting on atoms (cartesian axes, Ry/au):

     atom    1 type  1   force =     0.00000000   -0.00000000   -0.01213631
     atom    2 type  1   force =     0.00000000   -0.00000000   -0.01213631
     atom    3 type  1   force =     0.00000000   -0.00000000    0.01213631
     atom    4 type  1   force =    -0.00000000   -0.00000000    0.01213631
     atom    5 type  2   force =    -0.00000000    0.00000000    0.00000000
     atom    6 type  2   force =     0.00000000    0.00000000   -0.00000000
     The non-local contrib.  to forces
     atom    1 type  1   force =    -0.00000000    0.00000000    0.04031217
     atom    2 type  1   force =     0.00000000    0.00000000    0.04031217
     atom    3 type  1   force =    -0.00000000   -0.00000000   -0.04031217
     atom    4 type  1   force =    -0.00000000   -0.00000000   -0.04031217
     atom    5 type  2   force =    -0.00000000    0.00000000   -0.00000000
     atom    6 type  2   force =    -0.00000000   -0.00000000    0.00000000
     The ionic contribution  to forces
     atom    1 type  1   force =     0.00000000    0.00000000    0.19754877
     atom    2 type  1   force =    -0.00000000   -0.00000000    0.19754877
     atom    3 type  1   force =    -0.00000000   -0.00000000   -0.19754877
     atom    4 type  1   force =     0.00000000    0.00000000   -0.19754877
     atom    5 type  2   force =    -0.00000000    0.00000000   -0.00000000
     atom    6 type  2   force =    -0.00000000   -0.00000000    0.00000000
     The local contribution  to forces
     atom    1 type  1   force =    -0.00000000   -0.00000000   -0.24999083
     atom    2 type  1   force =     0.00000000   -0.00000000   -0.24999083
     atom    3 type  1   force =    -0.00000000    0.00000000    0.24999083
     atom    4 type  1   force =    -0.00000000   -0.00000000    0.24999083
     atom    5 type  2   force =     0.00000000    0.00000000    0.00000000
     atom    6 type  2   force =    -0.00000000   -0.00000000   -0.00000000
     The core correction contribution to forces
     atom    1 type  1   force =     0.00000000    0.00000000    0.00000000
     atom    2 type  1   force =     0.00000000    0.00000000    0.00000000
     atom    3 type  1   force =     0.00000000    0.00000000    0.00000000
     atom    4 type  1   force =     0.00000000    0.00000000    0.00000000
     atom    5 type  2   force =    -0.00000000   -0.00000000   -0.00000000
     atom    6 type  2   force =     0.00000000   -0.00000000   -0.00000000
     The Hubbard contrib.    to forces
     atom    1 type  1   force =     0.00000000    0.00000000    0.00000000
     atom    2 type  1   force =     0.00000000    0.00000000    0.00000000
     atom    3 type  1   force =     0.00000000    0.00000000    0.00000000
     atom    4 type  1   force =     0.00000000    0.00000000    0.00000000
     atom    5 type  2   force =     0.00000000    0.00000000    0.00000000
     atom    6 type  2   force =     0.00000000    0.00000000    0.00000000
     The SCF correction term to forces
     atom    1 type  1   force =     0.00000000    0.00000000   -0.00000641
     atom    2 type  1   force =     0.00000000   -0.00000000   -0.00000641
     atom    3 type  1   force =    -0.00000000    0.00000000    0.00000641
     atom    4 type  1   force =    -0.00000000    0.00000000    0.00000641
     atom    5 type  2   force =    -0.00000000   -0.00000000   -0.00000000
     atom    6 type  2   force =     0.00000000   -0.00000000    0.00000000

     Total force =     0.024273     Total SCF correction =     0.000013


     Computing stress (Cartesian axis) and pressure

          total   stress  (Ry/bohr**3)                   (kbar)     P=      -10.92
  -0.00009707  -0.00000000  -0.00000000          -14.28       -0.00       -0.00
  -0.00000000  -0.00009707   0.00000000           -0.00      -14.28        0.00
  -0.00000000   0.00000000  -0.00002855           -0.00        0.00       -4.20

     Energy error            =      7.5E-01 Ry
     Gradient error          =      1.2E-02 Ry/Bohr
     Cell gradient error     =      5.1E+02 kbar

     number of scf cycles    =   2
     number of bfgs steps    =   1

     enthalpy           old  =     -71.3500430937 Ry
     enthalpy           new  =     -72.1034114534 Ry

     CASE: enthalpy          _new < enthalpy          _old

     new trust radius        =       0.7185792242 bohr
ibrav =      7
 celldm(1) =      8.25923467
 celldm(3) =      1.60106348
Input lattice vectors:
     0.39602377    -0.39602377     0.63405920
     0.39602377     0.39602377     0.63405920
    -0.39602377    -0.39602377     0.63405920
New lattice vectors in INITIAL alat:
     0.39602377    -0.39602377     0.63405920
     0.39602377     0.39602377     0.63405920
    -0.39602377    -0.39602377     0.63405920
New lattice vectors in NEW alat (for information only):
     0.50000000    -0.50000000     0.80053174
     0.50000000     0.50000000     0.80053174
    -0.50000000    -0.50000000     0.80053174
Discrepancy in bohr =     0.000000    0.000000    0.000000
     new conv_thr            =       0.0000000012 Ry

     new unit-cell volume =    451.02226 a.u.^3 (    66.83460 Ang^3 )
     density =      2.08541 g/cm^3

CELL_PARAMETERS (alat= 10.42770058)
   0.396023774  -0.396023774   0.634059202
   0.396023774   0.396023774   0.634059202
  -0.396023774  -0.396023774   0.634059202

ATOMIC_POSITIONS (crystal)
Li           -0.0000000000        0.3281698615        0.3281698615
Li           -0.5000000000        1.0781698615        0.5781698615
Li           -0.5000000000        1.4218301385        0.9218301385
Li           -0.0000000000        0.6718301385        0.6718301385
Si           -0.0000000000        0.0000000000        0.0000000000
Si           -0.5000000000        0.7500000000        0.2500000000



     Writing config-only to output data dir ./output/LiSi.save/
     NEW-OLD atomic charge density approx. for the potential

     negative rho (up, down):  2.037E-02 0.000E+00
     extrapolated charge    9.10354, renormalised to   20.00000

     total cpu time spent up to now is       49.7 secs

     Self-consistent Calculation

     iteration #  1     ecut=    80.00 Ry     beta= 0.70
     Davidson diagonalization with overlap
     c_bands:  1 eigenvalues not converged
     c_bands:  1 eigenvalues not converged
     c_bands:  1 eigenvalues not converged
     c_bands:  1 eigenvalues not converged
     c_bands:  1 eigenvalues not converged
     c_bands:  1 eigenvalues not converged
     c_bands:  1 eigenvalues not converged
     c_bands:  1 eigenvalues not converged
     ethr =  1.00E-06,  avg # of iterations = 15.3

     total cpu time spent up to now is       55.8 secs

     total energy              =     -73.74230879 Ry
     estimated scf accuracy    <       1.38235800 Ry

     iteration #  2     ecut=    80.00 Ry     beta= 0.70
     Davidson diagonalization with overlap
     ethr =  6.91E-03,  avg # of iterations =  2.0

     total cpu time spent up to now is       57.8 secs

     total energy              =     -74.32219586 Ry
     estimated scf accuracy    <       0.09030436 Ry

     iteration #  3     ecut=    80.00 Ry     beta= 0.70
     Davidson diagonalization with overlap
     ethr =  4.52E-04,  avg # of iterations =  2.0

     total cpu time spent up to now is       59.6 secs

     total energy              =     -74.33728794 Ry
     estimated scf accuracy    <       0.01189285 Ry

     iteration #  4     ecut=    80.00 Ry     beta= 0.70
     Davidson diagonalization with overlap
     ethr =  5.95E-05,  avg # of iterations =  3.1

     total cpu time spent up to now is       61.4 secs

     total energy              =     -74.33880274 Ry
     estimated scf accuracy    <       0.00042618 Ry

     iteration #  5     ecut=    80.00 Ry     beta= 0.70
     Davidson diagonalization with overlap
     ethr =  2.13E-06,  avg # of iterations =  6.0

     total cpu time spent up to now is       63.5 secs

     total energy              =     -74.33884192 Ry
     estimated scf accuracy    <       0.00000813 Ry

     iteration #  6     ecut=    80.00 Ry     beta= 0.70
     Davidson diagonalization with overlap
     ethr =  4.07E-08,  avg # of iterations =  3.1

     total cpu time spent up to now is       65.3 secs

     total energy              =     -74.33884423 Ry
     estimated scf accuracy    <       0.00000116 Ry

     iteration #  7     ecut=    80.00 Ry     beta= 0.70
     Davidson diagonalization with overlap
     ethr =  5.82E-09,  avg # of iterations =  2.0

     total cpu time spent up to now is       67.0 secs

     total energy              =     -74.33884445 Ry
     estimated scf accuracy    <          6.3E-09 Ry

     iteration #  8     ecut=    80.00 Ry     beta= 0.70
     Davidson diagonalization with overlap
     ethr =  3.17E-11,  avg # of iterations =  4.2

     total cpu time spent up to now is       69.0 secs

     End of self-consistent calculation

          k = 0.0000 0.0000 0.0000 ( 10883 PWs)   bands (ev):

   -39.1585 -39.0745 -39.0014 -38.9954  -3.6367   4.1583   4.3058   4.8292
     4.8292   5.3763   5.3763   8.0286   8.1007   8.8705

          k =-0.3156-0.0000 0.1971 ( 10904 PWs)   bands (ev):

   -39.1439 -39.0723 -39.0161 -38.9975  -3.2620   1.3811   3.7936   4.1951
     4.8280   6.3682   7.3406   8.7990   8.8718   9.0831

          k = 0.6313 0.0000-0.3943 ( 10926 PWs)   bands (ev):

   -39.1267 -39.0598 -39.0453 -38.9978  -2.6533  -0.2019   3.4103   4.0392
     4.5365   6.1273   7.6890   9.5541  10.5341  11.1071

          k = 0.0000 0.2104 0.1314 ( 10905 PWs)   bands (ev):

   -39.1515 -39.0737 -39.0076 -38.9971  -3.4652   2.3169   4.0514   4.3772
     4.9711   6.0799   6.7768   8.2425   8.6225   9.0981

          k =-0.3156 0.2104 0.3286 ( 10906 PWs)   bands (ev):

   -39.1331 -39.0760 -39.0161 -39.0044  -2.9423   0.5647   3.0329   3.6946
     5.3641   6.6834   7.5551   8.5765  10.0146  10.1213

          k = 0.6313 0.2104-0.2629 ( 10923 PWs)   bands (ev):

   -39.1193 -39.0599 -39.0454 -39.0050  -2.5185  -0.2934   2.8948   3.5216
     5.3692   6.3401   7.4979   9.1245  10.5555  11.0988

          k = 0.3156 0.2104-0.0657 ( 10894 PWs)   bands (ev):

   -39.1402 -39.0677 -39.0182 -39.0038  -3.2437   1.5134   3.3991   4.0945
     5.0792   6.6648   7.0237   7.9388   8.7784   9.7336

          k = 0.0000 0.4209 0.2629 ( 10910 PWs)   bands (ev):

   -39.1357 -39.0692 -39.0271 -38.9977  -3.0079   0.5895   3.5862   4.0922
     4.6789   6.3497   7.5669   9.2301   9.3472   9.7039

          k =-0.3156 0.4209 0.4600 ( 10916 PWs)   bands (ev):

   -39.1145 -39.0760 -39.0261 -39.0129  -2.4019  -0.4089   2.5584   3.4175
     5.2810   7.1179   7.7813   8.8259   9.9862  11.0510

          k = 0.6313 0.4209-0.1314 ( 10921 PWs)   bands (ev):

   -39.0995 -39.0627 -39.0445 -39.0228  -2.1188  -0.7608   2.7632   3.2967
     4.8474   5.7830   8.3991   9.7087  10.9208  11.1840

          k = 0.3156 0.4209 0.0657 ( 10908 PWs)   bands (ev):

   -39.1251 -39.0612 -39.0317 -39.0117  -2.8907   0.5678   3.1346   3.7438
     4.8026   6.1753   7.6096   8.8308   9.3609  11.0535

          k =-0.3156-0.6313-0.1971 ( 10925 PWs)   bands (ev):

   -39.1106 -39.0606 -39.0453 -39.0131  -2.3509  -0.4704   2.7010   3.3944
     5.1222   6.6084   7.4020   9.2641  10.7866  11.3210

          k = 0.6313-0.6313-0.7886 ( 10920 PWs)   bands (ev):

   -39.0760 -39.0760 -39.0388 -39.0388  -1.4869  -1.4869   3.1928   3.1928
     4.6553   4.6553  10.3934  10.3934  10.5748  10.5748

          k = 0.2104-0.2104-0.0000 ( 10881 PWs)   bands (ev):

   -39.1470 -39.0702 -39.0110 -39.0017  -3.4021   2.1636   3.5997   4.3942
     4.9304   6.7149   6.7749   7.7089   8.5079   9.1976

          k =-0.1052-0.2104 0.1971 ( 10901 PWs)   bands (ev):

   -39.1482 -39.0751 -39.0077 -38.9987  -3.3667   1.8554   3.8077   4.0662
     5.1002   6.2488   7.3659   8.2188   8.8661   9.2769

          k = 0.8417-0.2104-0.3943 ( 10916 PWs)   bands (ev):

   -39.1246 -39.0739 -39.0262 -39.0049  -2.6732  -0.0168   2.8939   3.5494
     5.3357   6.5831   7.7253   9.0548  10.0890  10.7710

          k = 0.5261-0.2104-0.1971 ( 10912 PWs)   bands (ev):

   -39.1242 -39.0595 -39.0411 -39.0049  -2.7446   0.1447   3.0048   3.6344
     5.4329   6.3765   7.0823   8.8482  10.1636  11.0780

          k =-0.1052-0.0000 0.3286 ( 10896 PWs)   bands (ev):

   -39.1482 -39.0831 -39.0016 -38.9969  -3.2484   1.4673   3.3672   3.4073
     5.6813   7.3971   7.5033   7.5733   9.6994   9.9272

          k = 0.8417 0.0000-0.2629 ( 10919 PWs)   bands (ev):

   -39.1263 -39.0805 -39.0250 -38.9979  -2.5261  -0.3094   2.6200   3.4084
     5.6531   7.2092   7.8115   9.7862  10.1075  10.7810

          k = 0.5261 0.0000-0.0657 ( 10903 PWs)   bands (ev):

   -39.1326 -39.0569 -39.0426 -38.9977  -2.9414   0.5725   2.6349   4.2791
     6.0829   6.4830   7.0627   8.2111   9.2175   9.6716

          k = 0.2104 0.2104 0.2629 ( 10905 PWs)   bands (ev):

   -39.1418 -39.0760 -39.0096 -39.0024  -3.1872   1.2325   3.3202   3.8914
     5.3251   6.4687   7.5782   8.2766   9.4362   9.8224

          k =-0.1052 0.2104 0.4600 ( 10911 PWs)   bands (ev):

   -39.1357 -39.0882 -39.0062 -38.9996  -2.8165   0.3034   2.7841   3.0947
     5.9613   7.6365   7.9745   8.3513  10.2192  10.6374

          k = 0.8417 0.2104-0.1314 ( 10927 PWs)   bands (ev):

   -39.1145 -39.0856 -39.0244 -39.0052  -2.1148  -0.8204   2.3079   2.9648
     6.2397   7.4206   8.1966   9.2289   9.9349  11.2130

          k = 0.5261 0.2104 0.0657 ( 10908 PWs)   bands (ev):

   -39.1254 -39.0562 -39.0433 -39.0048  -2.8071   0.3394   2.7451   3.8182
     5.4176   6.5915   7.3643   8.4108   9.5322  10.9548

          k =-0.1052-0.8417-0.1971 ( 10918 PWs)   bands (ev):

   -39.1221 -39.0831 -39.0247 -38.9998  -2.3510  -0.5384   2.3956   3.2146
     6.0311   7.3730   8.0165   9.5346  10.0265  10.9732

          k = 0.8417-0.8417-0.7886 ( 10932 PWs)   bands (ev):

   -39.0910 -39.0910 -39.0238 -39.0238  -1.4917  -1.4917   2.6500   2.6500
     5.9715   5.9715   9.5629   9.5629  10.5916  10.5916

          k = 0.5261-0.8417-0.5914 ( 10930 PWs)   bands (ev):

   -39.1057 -39.0585 -39.0436 -39.0217  -2.3589  -0.4173   2.9402   3.2448
     5.1157   5.7950   7.5195   9.5339  10.9635  11.4236

          k =-0.1052-0.6313-0.0657 ( 10914 PWs)   bands (ev):

   -39.1251 -39.0583 -39.0466 -38.9996  -2.6431  -0.0224   2.3934   3.7776
     6.1977   6.7163   7.6366   8.3208   9.7959  10.2957

          k = 0.5261-0.6313-0.4600 ( 10903 PWs)   bands (ev):

   -39.0872 -39.0677 -39.0424 -39.0323  -1.8097  -1.1258   2.7045   3.0443
     5.4220   5.9931   7.6552   8.3182  11.4313  12.4311

          k = 0.2104-0.4209-0.1314 ( 10911 PWs)   bands (ev):

   -39.1319 -39.0641 -39.0292 -39.0045  -3.0140   0.7908   3.1817   3.8209
     5.3650   6.5162   6.8412   8.5578   9.3739  10.4412

          k =-0.1052-0.4209 0.0657 ( 10905 PWs)   bands (ev):

   -39.1376 -39.0639 -39.0289 -38.9994  -3.1427   1.1265   3.0080   4.3424
     5.6479   6.3739   7.0689   7.8784   8.9554   9.7856

          k = 0.8417-0.4209-0.5257 ( 10906 PWs)   bands (ev):

   -39.1128 -39.0643 -39.0336 -39.0189  -2.5344  -0.1487   2.9162   3.3142
     5.7430   5.7761   6.9719   9.3076  10.7686  11.5592

          k = 0.5261-0.4209-0.3286 ( 10909 PWs)   bands (ev):

   -39.1034 -39.0638 -39.0402 -39.0222  -2.2488  -0.5899   2.7313   3.2480
     5.5197   6.0531   7.2436   8.9176  10.7379  12.1925

          k = 0.4209-0.4209-0.0000 ( 10913 PWs)   bands (ev):

   -39.1162 -39.0576 -39.0377 -39.0181  -2.6879   0.1599   3.1332   3.6767
     4.4771   5.6845   8.6296   8.9065   9.6333  11.3921

          k = 0.1052-0.4209 0.1971 ( 10921 PWs)   bands (ev):

   -39.1356 -39.0668 -39.0279 -38.9995  -3.0533   0.7733   3.4024   3.9668
     5.3292   6.0937   7.3853   8.5817   9.3627   9.9326

          k = 0.7365-0.4209-0.1971 ( 10918 PWs)   bands (ev):

   -39.0971 -39.0736 -39.0357 -39.0232  -1.9438  -0.9920   2.5397   3.2695
     4.9427   6.4560   8.3146   9.1658  10.5284  11.7167

          k = 0.1052-0.2104 0.3286 ( 10911 PWs)   bands (ev):

   -39.1430 -39.0807 -39.0069 -38.9992  -3.1461   1.0935   3.2390   3.6141
     5.4256   7.1353   7.6719   8.0748   9.7757   9.8208

          k = 1.0521-0.2104-0.2629 ( 10914 PWs)   bands (ev):

   -39.1278 -39.0907 -39.0072 -39.0039  -2.5490  -0.1864   2.5597   2.9190
     6.1958   7.7714   8.1418   8.5869  10.0983  10.8396

          k = 0.7365-0.2104-0.0657 ( 10921 PWs)   bands (ev):

   -39.1153 -39.0736 -39.0356 -39.0051  -2.2576  -0.6115   2.3141   3.2018
     6.1747   6.8708   8.0192   9.0413  10.3682  11.0121

          k = 0.1052-0.0000 0.4600 ( 10916 PWs)   bands (ev):

   -39.1404 -39.0909 -39.0009 -38.9975  -2.9030   0.5102   2.8841   2.9665
     6.0493   7.2637   8.2933   8.3790  10.4393  10.8888

          k = 1.0521 0.0000-0.1314 ( 10902 PWs)   bands (ev):

   -39.1238 -39.1020 -39.0056 -38.9982  -2.1469  -0.8106   2.3312   2.7073
     6.4181   7.3586   9.0483   9.4910  10.7969  11.5450

          k = 0.7365 0.0000 0.0657 ( 10924 PWs)   bands (ev):

   -39.1230 -39.0730 -39.0358 -38.9979  -2.4070  -0.4287   2.1822   3.5196
     6.2854   7.4810   7.7645   9.0406   9.8596  10.2528

          k = 0.1052-1.0521-0.1971 ( 10902 PWs)   bands (ev):

   -39.1270 -39.0970 -39.0057 -38.9999  -2.3812  -0.4669   2.4652   2.7489
     6.3978   7.4465   8.5633   9.1706  10.4114  11.5795

          k = 1.0521-1.0521-0.7886 ( 10914 PWs)   bands (ev):

   -39.1094 -39.1094 -39.0054 -39.0054  -1.5175  -1.5175   2.4025   2.4025
     7.1471   7.1471   9.0677   9.0677  10.8766  10.8766

          k = 0.7365-1.0521-0.5914 ( 10913 PWs)   bands (ev):

   -39.1168 -39.0717 -39.0360 -39.0051  -2.3448  -0.5266   2.5207   3.3364
     5.6196   7.1908   7.5279   9.1224  10.6624  11.0640

          k = 0.4209-0.8417-0.2629 ( 10921 PWs)   bands (ev):

   -39.1036 -39.0772 -39.0278 -39.0210  -2.1059  -0.7987   2.4522   3.3160
     5.0943   7.1078   8.1677   8.5994  10.1835  11.3794

          k = 0.1052-0.8417-0.0657 ( 10936 PWs)   bands (ev):

   -39.1185 -39.0869 -39.0243 -38.9998  -2.1179  -0.8284   2.1429   3.0735
     6.5034   7.5268   8.5468   9.0909  10.1481  10.6334

          k = 0.7365-0.8417-0.4600 ( 10915 PWs)   bands (ev):

   -39.1003 -39.0690 -39.0375 -39.0228  -2.1019  -0.7949   2.5667   3.3368
     5.1275   6.6006   7.6877   8.5454  10.6260  11.9795

          k =-0.9469 0.8417 0.3286 ( 10905 PWs)   bands (ev):

   -39.1195 -39.0696 -39.0281 -39.0124  -2.6399  -0.0097   2.8450   3.5166
     5.5186   6.2455   7.2345   9.0232  10.4027  11.0284

          k =-0.3156 0.8417-0.0657 ( 10927 PWs)   bands (ev):

   -39.1039 -39.0881 -39.0241 -39.0135  -1.8249  -1.1468   2.3959   2.7598
     6.1438   6.8332   8.6917   9.5375  10.0700  11.0567

          k =-0.9469 1.0521 0.4600 ( 10905 PWs)   bands (ev):

   -39.1268 -39.0830 -39.0150 -39.0048  -2.6467  -0.0280   2.6519   3.2759
     5.6988   7.5134   7.8924   8.5873  10.0173  10.4841

          k =-0.3156 1.0521 0.0657 ( 10930 PWs)   bands (ev):

   -39.1121 -39.0984 -39.0138 -39.0053  -1.8360  -1.1615   2.2824   2.6304
     6.8353   7.4655   8.6221   9.0737  10.1016  11.1944

          k =-0.9469-0.0000-0.1971 ( 10918 PWs)   bands (ev):

   -39.1255 -39.0920 -39.0141 -38.9981  -2.3674  -0.5047   2.3674   3.0118
     6.1665   7.8461   8.1263   9.2494  10.3402  11.0952

          k = 0.0000 0.0000-0.7886 ( 10908 PWs)   bands (ev):

   -39.1165 -39.1165 -38.9983 -38.9983  -1.5376  -1.5376   2.4553   2.4553
     6.5777   6.5777  10.0558  10.0558  12.2993  12.2993

     the Fermi energy is     7.3017 ev

!    total energy              =     -74.33884445 Ry
     estimated scf accuracy    <          5.9E-10 Ry
     smearing contrib. (-TS)   =      -0.00108842 Ry
     internal energy E=F+TS    =     -74.33775604 Ry

     The total energy is F=E-TS. E is the sum of the following terms:
     one-electron contribution =     -21.13374041 Ry
     hartree contribution      =      12.47416677 Ry
     xc contribution           =     -20.16198084 Ry
     ewald contribution        =     -45.51620157 Ry

     convergence has been achieved in   8 iterations

     Forces acting on atoms (cartesian axes, Ry/au):

     atom    1 type  1   force =    -0.00000000   -0.00000000    0.01467696
     atom    2 type  1   force =     0.00000000    0.00000000    0.01467696
     atom    3 type  1   force =    -0.00000000    0.00000000   -0.01467696
     atom    4 type  1   force =    -0.00000000   -0.00000000   -0.01467696
     atom    5 type  2   force =     0.00000000   -0.00000000    0.00000000
     atom    6 type  2   force =    -0.00000000    0.00000000   -0.00000000
     The non-local contrib.  to forces
     atom    1 type  1   force =    -0.00000000   -0.00000000    0.02834308
     atom    2 type  1   force =     0.00000000   -0.00000000    0.02834308
     atom    3 type  1   force =     0.00000000    0.00000000   -0.02834308
     atom    4 type  1   force =    -0.00000000    0.00000000   -0.02834308
     atom    5 type  2   force =     0.00000000    0.00000000    0.00000000
     atom    6 type  2   force =     0.00000000    0.00000000    0.00000000
     The ionic contribution  to forces
     atom    1 type  1   force =     0.00000000   -0.00000000    0.27747138
     atom    2 type  1   force =     0.00000000   -0.00000000    0.27747138
     atom    3 type  1   force =    -0.00000000    0.00000000   -0.27747138
     atom    4 type  1   force =    -0.00000000    0.00000000   -0.27747138
     atom    5 type  2   force =    -0.00000000   -0.00000000   -0.00000000
     atom    6 type  2   force =    -0.00000000   -0.00000000   -0.00000000
     The local contribution  to forces
     atom    1 type  1   force =     0.00000000    0.00000000   -0.29114919
     atom    2 type  1   force =    -0.00000000   -0.00000000   -0.29114919
     atom    3 type  1   force =    -0.00000000    0.00000000    0.29114919
     atom    4 type  1   force =     0.00000000    0.00000000    0.29114919
     atom    5 type  2   force =    -0.00000000   -0.00000000   -0.00000000
     atom    6 type  2   force =    -0.00000000    0.00000000   -0.00000000
     The core correction contribution to forces
     atom    1 type  1   force =     0.00000000    0.00000000    0.00000000
     atom    2 type  1   force =     0.00000000    0.00000000    0.00000000
     atom    3 type  1   force =     0.00000000    0.00000000    0.00000000
     atom    4 type  1   force =     0.00000000    0.00000000    0.00000000
     atom    5 type  2   force =    -0.00000000   -0.00000000    0.00000000
     atom    6 type  2   force =     0.00000000   -0.00000000   -0.00000000
     The Hubbard contrib.    to forces
     atom    1 type  1   force =     0.00000000    0.00000000    0.00000000
     atom    2 type  1   force =     0.00000000    0.00000000    0.00000000
     atom    3 type  1   force =     0.00000000    0.00000000    0.00000000
     atom    4 type  1   force =     0.00000000    0.00000000    0.00000000
     atom    5 type  2   force =     0.00000000    0.00000000    0.00000000
     atom    6 type  2   force =     0.00000000    0.00000000    0.00000000
     The SCF correction term to forces
     atom    1 type  1   force =     0.00000000   -0.00000000    0.00001169
     atom    2 type  1   force =     0.00000000   -0.00000000    0.00001169
     atom    3 type  1   force =    -0.00000000    0.00000000   -0.00001169
     atom    4 type  1   force =     0.00000000    0.00000000   -0.00001169
     atom    5 type  2   force =    -0.00000000   -0.00000000   -0.00000000
     atom    6 type  2   force =    -0.00000000    0.00000000    0.00000000

     Total force =     0.029354     Total SCF correction =     0.000023


     Computing stress (Cartesian axis) and pressure

          total   stress  (Ry/bohr**3)                   (kbar)     P=      244.56
   0.00163716  -0.00000000   0.00000000          240.83       -0.00        0.00
  -0.00000000   0.00163716   0.00000000           -0.00      240.83        0.00
   0.00000000   0.00000000   0.00171320            0.00        0.00      252.02

     Energy error            =      7.0E-01 Ry
     Gradient error          =      1.5E-02 Ry/Bohr
     Cell gradient error     =      2.6E+02 kbar

     number of scf cycles    =   3
     number of bfgs steps    =   2

     enthalpy           old  =     -72.1034114534 Ry
     enthalpy           new  =     -72.8058509556 Ry

     CASE: enthalpy          _new < enthalpy          _old

     new trust radius        =       0.4025773900 bohr
ibrav =      7
 celldm(1) =      7.47641775
 celldm(3) =      1.60815687
Input lattice vectors:
     0.35848832    -0.35848832     0.57650546
     0.35848832     0.35848832     0.57650546
    -0.35848832    -0.35848832     0.57650546
New lattice vectors in INITIAL alat:
     0.35848832    -0.35848832     0.57650546
     0.35848832     0.35848832     0.57650546
    -0.35848832    -0.35848832     0.57650546
New lattice vectors in NEW alat (for information only):
     0.50000000    -0.50000000     0.80407843
     0.50000000     0.50000000     0.80407843
    -0.50000000    -0.50000000     0.80407843
Discrepancy in bohr =     0.000000    0.000000    0.000000
     new conv_thr            =       0.0000000015 Ry

     new unit-cell volume =    336.03081 a.u.^3 (    49.79463 Ang^3 )
     density =      2.79904 g/cm^3

CELL_PARAMETERS (alat= 10.42770058)
   0.358488321  -0.358488321   0.576505456
   0.358488321   0.358488321   0.576505456
  -0.358488321  -0.358488321   0.576505456

ATOMIC_POSITIONS (crystal)
Li           -0.0000000000        0.3290374063        0.3290374063
Li           -0.5000000000        1.0790374063        0.5790374063
Li           -0.5000000000        1.4209625937        0.9209625937
Li           -0.0000000000        0.6709625937        0.6709625937
Si           -0.0000000000        0.0000000000        0.0000000000
Si           -0.5000000000        0.7500000000        0.2500000000



     Writing config-only to output data dir ./output/LiSi.save/
     NEW-OLD atomic charge density approx. for the potential

     negative rho (up, down):  2.677E-05 0.000E+00
     extrapolated charge   13.16256, renormalised to   20.00000

     total cpu time spent up to now is       73.7 secs

     Self-consistent Calculation

     iteration #  1     ecut=    80.00 Ry     beta= 0.70
     Davidson diagonalization with overlap
     c_bands:  1 eigenvalues not converged
     c_bands:  1 eigenvalues not converged
     ethr =  1.00E-06,  avg # of iterations = 12.3

     total cpu time spent up to now is       78.9 secs

     total energy              =     -73.71573348 Ry
     estimated scf accuracy    <       0.21313281 Ry

     iteration #  2     ecut=    80.00 Ry     beta= 0.70
     Davidson diagonalization with overlap
     ethr =  1.07E-03,  avg # of iterations =  2.1

     total cpu time spent up to now is       80.9 secs

     total energy              =     -73.99708362 Ry
     estimated scf accuracy    <       0.05071335 Ry

     iteration #  3     ecut=    80.00 Ry     beta= 0.70
     Davidson diagonalization with overlap
     ethr =  2.54E-04,  avg # of iterations =  1.7

     total cpu time spent up to now is       82.5 secs

     total energy              =     -74.00067615 Ry
     estimated scf accuracy    <       0.00430586 Ry

     iteration #  4     ecut=    80.00 Ry     beta= 0.70
     Davidson diagonalization with overlap
     ethr =  2.15E-05,  avg # of iterations =  3.6

     total cpu time spent up to now is       84.0 secs

     total energy              =     -74.00064189 Ry
     estimated scf accuracy    <       0.00056320 Ry

     iteration #  5     ecut=    80.00 Ry     beta= 0.70
     Davidson diagonalization with overlap
     ethr =  2.82E-06,  avg # of iterations =  3.7

     total cpu time spent up to now is       86.1 secs

     total energy              =     -74.00076546 Ry
     estimated scf accuracy    <       0.00002301 Ry

     iteration #  6     ecut=    80.00 Ry     beta= 0.70
     Davidson diagonalization with overlap
     ethr =  1.15E-07,  avg # of iterations =  2.5

     total cpu time spent up to now is       87.8 secs

     total energy              =     -74.00077003 Ry
     estimated scf accuracy    <       0.00000002 Ry

     iteration #  7     ecut=    80.00 Ry     beta= 0.70
     Davidson diagonalization with overlap
     ethr =  8.98E-11,  avg # of iterations =  5.3

     total cpu time spent up to now is       90.1 secs

     total energy              =     -74.00077009 Ry
     estimated scf accuracy    <       0.00000003 Ry

     iteration #  8     ecut=    80.00 Ry     beta= 0.70
     Davidson diagonalization with overlap
     ethr =  8.98E-11,  avg # of iterations =  2.0

     total cpu time spent up to now is       91.7 secs

     End of self-consistent calculation

          k = 0.0000 0.0000 0.0000 ( 10883 PWs)   bands (ev):

   -36.4124 -36.1861 -36.0238 -36.0182  -1.8628   6.7018   7.2877   7.2877
     7.8183   7.8183   8.9176  10.8912  11.8023  13.0321

          k =-0.3487-0.0000 0.2168 ( 10904 PWs)   bands (ev):

   -36.3737 -36.1843 -36.0614 -36.0206  -1.4696   3.9247   6.0529   6.4948
     8.1197   9.1129  10.8749  11.6657  12.3302  13.1689

          k = 0.6974 0.0000-0.4336 ( 10926 PWs)   bands (ev):

   -36.3254 -36.1664 -36.1267 -36.0211  -0.8369   2.1105   5.5509   6.3713
     7.9422   8.5786  11.0583  13.4747  14.1651  15.3274

          k =-0.0000 0.2325 0.1445 ( 10905 PWs)   bands (ev):

   -36.3939 -36.1858 -36.0403 -36.0203  -1.6830   5.0148   6.4082   6.7007
     8.1539   8.7685  10.4867  11.6344  11.9752  12.2045

          k =-0.3487 0.2325 0.3614 ( 10906 PWs)   bands (ev):

   -36.3457 -36.1950 -36.0613 -36.0378  -1.1159   2.9822   5.2763   5.8932
     8.4450   9.6165  10.9327  12.3237  13.3761  14.1528

          k = 0.6974 0.2325-0.2891 ( 10923 PWs)   bands (ev):

   -36.3081 -36.1658 -36.1276 -36.0381  -0.6769   2.0067   5.1714   5.8230
     8.0865   9.3532  10.8358  12.8233  14.3410  15.1132

          k = 0.3487 0.2325-0.0723 ( 10894 PWs)   bands (ev):

   -36.3654 -36.1735 -36.0648 -36.0363  -1.4555   4.2231   5.6407   6.5628
     7.7057   9.6046  10.1684  11.7050  12.2658  13.2068

          k =-0.0000 0.4649 0.2891 ( 10910 PWs)   bands (ev):

   -36.3512 -36.1804 -36.0873 -36.0209  -1.2035   3.0080   5.7789   6.3957
     8.0380   8.9785  10.9949  12.2004  12.9669  14.2661

          k =-0.3487 0.4649 0.5059 ( 10916 PWs)   bands (ev):

   -36.2978 -36.1990 -36.0853 -36.0573  -0.5208   1.8373   4.8052   5.6239
     8.0384  10.0621  11.3826  12.7080  13.9088  14.7777

          k = 0.6974 0.4649-0.1445 ( 10921 PWs)   bands (ev):

   -36.2616 -36.1714 -36.1267 -36.0796  -0.2032   1.4323   5.0392   5.6223
     7.4432   8.4306  12.2438  13.6172  14.9405  15.3345

          k = 0.3487 0.4649 0.0723 ( 10908 PWs)   bands (ev):

   -36.3271 -36.1610 -36.0969 -36.0547  -1.0745   3.0725   5.3553   6.1987
     7.4248   8.7784  11.1983  12.5754  13.0061  14.9749

          k =-0.3487-0.6974-0.2168 ( 10925 PWs)   bands (ev):

   -36.2877 -36.1667 -36.1279 -36.0572  -0.4782   1.7915   4.9715   5.6962
     7.7473   9.3042  11.1450  13.0423  14.6639  15.4832

          k = 0.6974-0.6974-0.8673 ( 10920 PWs)   bands (ev):

   -36.2048 -36.2048 -36.1148 -36.1148   0.5494   0.5494   5.5253   5.5253
     7.2156   7.2156  14.4522  14.4522  14.7861  14.7861

          k = 0.2325-0.2325-0.0000 ( 10881 PWs)   bands (ev):

   -36.3830 -36.1780 -36.0465 -36.0327  -1.6222   5.0562   5.8323   6.8935
     7.4783   9.5424  10.3863  11.2468  12.0546  12.1819

          k =-0.1162-0.2325 0.2168 ( 10901 PWs)   bands (ev):

   -36.3853 -36.1896 -36.0405 -36.0247  -1.5747   4.4844   6.0815   6.3488
     8.3381   9.0633  10.8735  11.8903  12.2053  12.5627

          k = 0.9298-0.2325-0.4336 ( 10916 PWs)   bands (ev):

   -36.3228 -36.1930 -36.0855 -36.0383  -0.8287   2.3032   5.1581   5.7485
     8.2869   9.5580  11.1172  12.8333  13.9457  14.5720

          k = 0.5811-0.2325-0.2168 ( 10912 PWs)   bands (ev):

   -36.3221 -36.1607 -36.1191 -36.0378  -0.9217   2.5299   5.2736   6.0042
     8.1197   9.2762  10.4611  12.4086  13.7924  15.3644

          k =-0.1162-0.0000 0.3614 ( 10896 PWs)   bands (ev):

   -36.3836 -36.2087 -36.0265 -36.0213  -1.4279   4.0565   5.4675   5.4723
     9.2746  10.4678  10.7629  11.4675  13.6663  13.9260

          k = 0.9298 0.0000-0.2891 ( 10919 PWs)   bands (ev):

   -36.3243 -36.2099 -36.0837 -36.0217  -0.6683   1.9632   4.7996   5.5070
     9.1484  10.0425  11.2704  13.7893  14.1897  14.4345

          k = 0.5811 0.0000-0.0723 ( 10903 PWs)   bands (ev):

   -36.3429 -36.1530 -36.1233 -36.0206  -1.1442   3.0610   4.8395   6.6684
     9.1730   9.5825  10.5011  10.8601  12.4117  14.0397

          k = 0.2325 0.2325 0.2891 ( 10905 PWs)   bands (ev):

   -36.3683 -36.1930 -36.0441 -36.0345  -1.3801   3.7698   5.5595   6.1185
     8.5176   9.3669  10.9206  12.0649  12.5988  13.7822

          k =-0.1162 0.2325 0.5059 ( 10911 PWs)   bands (ev):

   -36.3503 -36.2235 -36.0397 -36.0264  -0.9527   2.6661   4.8509   5.1394
     9.4678  11.2042  11.3777  11.9802  14.0203  14.1615

          k = 0.9298 0.2325-0.1445 ( 10927 PWs)   bands (ev):

   -36.2943 -36.2234 -36.0829 -36.0388  -0.2022   1.3588   4.4651   5.1024
     9.3139  10.8066  11.5414  13.0433  14.0049  15.1491

          k = 0.5811 0.2325 0.0723 ( 10908 PWs)   bands (ev):

   -36.3258 -36.1515 -36.1248 -36.0375  -0.9909   2.7852   4.9590   6.2334
     8.1110   9.4197  10.8643  11.8973  13.0498  15.0638

          k =-0.1162-0.9298-0.2168 ( 10918 PWs)   bands (ev):

   -36.3131 -36.2169 -36.0834 -36.0262  -0.4725   1.6989   4.5552   5.3124
     9.4055  10.5749  11.3282  13.3408  14.0847  14.7503

          k = 0.9298-0.9298-0.8673 ( 10932 PWs)   bands (ev):

   -36.2380 -36.2380 -36.0816 -36.0816   0.5364   0.5364   4.8735   4.8735
     8.7943   8.7943  13.6588  13.6588  14.5274  14.5274

          k = 0.5811-0.9298-0.6505 ( 10930 PWs)   bands (ev):

   -36.2780 -36.1593 -36.1244 -36.0776  -0.4768   1.8543   5.2513   5.5604
     7.6958   8.3370  11.3234  13.4085  14.8794  15.4566

          k =-0.1162-0.6974-0.0723 ( 10914 PWs)   bands (ev):

   -36.3222 -36.1607 -36.1314 -36.0253  -0.8199   2.3473   4.5840   6.0640
     9.1935  10.2218  10.5819  11.5421  13.2433  14.4989

          k = 0.5811-0.6974-0.5059 ( 10903 PWs)   bands (ev):

   -36.2317 -36.1841 -36.1223 -36.1011   0.1639   0.9905   5.0243   5.3464
     7.8466   8.5080  11.5705  12.2424  15.4624  16.6161

          k = 0.2325-0.4649-0.1445 ( 10911 PWs)   bands (ev):

   -36.3435 -36.1676 -36.0915 -36.0373  -1.2108   3.3159   5.4394   6.2460
     8.0549   9.2797  10.2538  12.1056  12.9037  14.4975

          k =-0.1162-0.4649 0.0723 ( 10905 PWs)   bands (ev):

   -36.3576 -36.1664 -36.0911 -36.0247  -1.3536   3.7291   5.2363   6.8292
     8.3487   9.6418  10.2166  11.0037  12.1815  13.9139

          k = 0.9298-0.4649-0.5782 ( 10906 PWs)   bands (ev):

   -36.2957 -36.1708 -36.1011 -36.0719  -0.6736   2.1756   5.2654   5.5633
     8.1977   8.4671  10.7669  13.1387  14.7408  15.0402

          k = 0.5811-0.4649-0.3614 ( 10909 PWs)   bands (ev):

   -36.2716 -36.1724 -36.1166 -36.0788  -0.3508   1.6412   5.0683   5.5085
     7.9252   8.7692  11.0564  12.7980  14.6376  16.0238

          k = 0.4649-0.4649-0.0000 ( 10913 PWs)   bands (ev):

   -36.3052 -36.1535 -36.1110 -36.0698  -0.8482   2.5701   5.3548   6.1371
     7.0716   8.2553  12.3920  12.6345  13.4156  15.4813

          k = 0.1162-0.4649 0.2168 ( 10921 PWs)   bands (ev):

   -36.3519 -36.1740 -36.0889 -36.0250  -1.2540   3.2477   5.6644   6.3819
     8.4973   8.7574  10.6728  11.7778  12.8589  14.2524

          k = 0.8136-0.4649-0.2168 ( 10918 PWs)   bands (ev):

   -36.2545 -36.1967 -36.1076 -36.0805   0.0006   1.1462   4.8103   5.5385
     7.5618   9.1703  12.1837  13.0802  14.5664  15.7182

          k = 0.1162-0.2325 0.3614 ( 10911 PWs)   bands (ev):

   -36.3706 -36.2040 -36.0398 -36.0256  -1.3258   3.5865   5.3940   5.7682
     8.7953  10.1500  11.1175  11.9095  12.9072  13.7205

          k = 1.1623-0.2325-0.2891 ( 10914 PWs)   bands (ev):

   -36.3297 -36.2309 -36.0411 -36.0379  -0.6564   2.0851   4.6236   4.9883
     9.5696  11.5046  11.6602  12.0758  14.0088  14.4188

          k = 0.8136-0.2325-0.0723 ( 10921 PWs)   bands (ev):

   -36.2968 -36.1964 -36.1079 -36.0383  -0.3802   1.6254   4.4978   5.4173
     9.1001  10.0260  11.4865  12.6756  14.1900  15.3002

          k = 0.1162 0.0000 0.5059 ( 10916 PWs)   bands (ev):

   -36.3620 -36.2289 -36.0268 -36.0222  -1.0362   2.9349   4.8731   4.9241
     9.7334  11.2067  11.6324  11.8023  14.4363  15.3802

          k = 1.1623 0.0000-0.1445 ( 10902 PWs)   bands (ev):

   -36.3169 -36.2597 -36.0401 -36.0229  -0.1880   1.3722   4.3137   4.6115
    10.2054  11.2274  12.5566  13.3432  14.8115  15.2472

          k = 0.8136-0.0000 0.0723 ( 10924 PWs)   bands (ev):

   -36.3149 -36.1948 -36.1084 -36.0214  -0.5587   1.8619   4.3453   5.6584
     9.9957  10.4387  11.1428  11.9696  13.6607  14.2800

          k = 0.1162-1.1623-0.2168 ( 10902 PWs)   bands (ev):

   -36.3263 -36.2464 -36.0399 -36.0270  -0.4571   1.7662   4.4737   4.7154
    10.0586  11.2908  12.0198  12.8319  14.3003  15.3567

[...]
     c_bands:  1 eigenvalues not converged
     c_bands:  1 eigenvalues not converged
     c_bands:  1 eigenvalues not converged
     c_bands:  1 eigenvalues not converged
     c_bands:  1 eigenvalues not converged
     c_bands:  1 eigenvalues not converged
     c_bands:  1 eigenvalues not converged
     c_bands:  1 eigenvalues not converged
     c_bands:  2 eigenvalues not converged
     c_bands:  1 eigenvalues not converged
     c_bands:  1 eigenvalues not converged
     c_bands:  1 eigenvalues not converged
     c_bands:  1 eigenvalues not converged
     c_bands:  2 eigenvalues not converged
     ethr =  1.00E-06,  avg # of iterations = 18.3

     total cpu time spent up to now is      237.7 secs

     total energy              =     -74.13734931 Ry
     estimated scf accuracy    <       0.01954358 Ry

     iteration #  2     ecut=    80.00 Ry     beta= 0.70
     Davidson diagonalization with overlap
     ethr =  9.77E-05,  avg # of iterations =  1.0

     total cpu time spent up to now is      238.4 secs

     total energy              =     -74.13751303 Ry
     estimated scf accuracy    <       0.00114811 Ry

     iteration #  3     ecut=    80.00 Ry     beta= 0.70
     Davidson diagonalization with overlap
     ethr =  5.74E-06,  avg # of iterations =  2.1

     total cpu time spent up to now is      239.0 secs

     total energy              =     -74.13760060 Ry
     estimated scf accuracy    <       0.00001467 Ry

     iteration #  4     ecut=    80.00 Ry     beta= 0.70
     Davidson diagonalization with overlap
     ethr =  7.33E-08,  avg # of iterations =  3.5

     total cpu time spent up to now is      239.8 secs

     total energy              =     -74.13760507 Ry
     estimated scf accuracy    <       0.00000170 Ry

     iteration #  5     ecut=    80.00 Ry     beta= 0.70
     Davidson diagonalization with overlap
     ethr =  8.48E-09,  avg # of iterations =  2.1

     total cpu time spent up to now is      240.5 secs

     total energy              =     -74.13760528 Ry
     estimated scf accuracy    <       0.00000007 Ry

     iteration #  6     ecut=    80.00 Ry     beta= 0.70
     Davidson diagonalization with overlap
     ethr =  3.35E-10,  avg # of iterations =  2.6

     total cpu time spent up to now is      241.2 secs

     total energy              =     -74.13760530 Ry
     estimated scf accuracy    <          1.5E-09 Ry

     iteration #  7     ecut=    80.00 Ry     beta= 0.70
     Davidson diagonalization with overlap
     ethr =  7.52E-12,  avg # of iterations =  3.6

     total cpu time spent up to now is      241.9 secs

     End of self-consistent calculation

          k = 0.0000 0.0000 0.0000 (  4417 PWs)   bands (ev):

   -37.3332 -37.0546 -36.9970 -36.8814  -2.4402   6.3526   6.7329   6.7329
     7.1822   7.1822   7.7828   9.7503  10.2388  12.1104

          k =-0.3367 0.0000 0.2141 (  4417 PWs)   bands (ev):

   -37.3005 -37.0728 -36.9975 -36.8955  -2.0305   3.3195   5.5526   5.9205
     7.3820   8.3693   9.5876  10.6455  11.4032  11.9975

          k = 0.6734-0.0000-0.4282 (  4420 PWs)   bands (ev):

   -37.2576 -37.1006 -37.0002 -36.9081  -1.3683   1.4992   5.0340   5.7920
     7.1973   7.7264   9.7407  12.4871  13.1730  14.1085

          k =-0.0000 0.2245 0.1427 (  4426 PWs)   bands (ev):

   -37.3177 -37.0630 -36.9970 -36.8886  -2.2527   4.4156   5.9209   6.1284
     7.4378   8.1130   9.3476  10.5768  10.8202  10.9103

          k =-0.3367 0.2245 0.3568 (  4401 PWs)   bands (ev):

   -37.2759 -37.1000 -36.9827 -36.9079  -1.6669   2.4000   4.6299   5.3877
     7.5946   8.9190   9.9822  11.1357  12.0812  13.1168

          k = 0.6734 0.2245-0.2855 (  4413 PWs)   bands (ev):

   -37.2432 -37.1051 -36.9986 -36.9198  -1.2088   1.4227   4.5538   5.1697
     7.3647   8.7055   9.7938  11.6957  13.2170  13.9038

          k = 0.3367 0.2245-0.0714 (  4415 PWs)   bands (ev):

   -37.2945 -37.0475 -37.0226 -36.9020  -2.0148   3.6364   5.0731   5.8314
     7.1394   8.9103   9.3265  10.6096  10.9609  12.0242

          k =-0.0000 0.4489 0.2855 (  4398 PWs)   bands (ev):

   -37.2810 -37.0848 -36.9986 -36.9020  -1.7530   2.4025   5.2693   5.8187
     7.2933   8.1506   9.6757  11.2752  12.0775  13.0756

          k =-0.3367 0.4489 0.4995 (  4408 PWs)   bands (ev):

   -37.2342 -37.1243 -36.9792 -36.9290  -1.0551   1.2745   4.1167   5.0306
     7.2886   9.4443  10.4330  11.6814  12.7341  13.3888

          k = 0.6734 0.4489-0.1427 (  4427 PWs)   bands (ev):

   -37.2053 -37.1228 -36.9915 -36.9474  -0.7353   0.8926   4.3121   4.8409
     6.9026   7.8725  11.2264  12.5446  13.7461  14.3702

          k = 0.3367 0.4489 0.0714 (  4410 PWs)   bands (ev):

   -37.2626 -37.0639 -37.0213 -36.9191  -1.6220   2.5140   4.7139   5.3878
     6.9120   8.0959  10.3052  11.6186  11.7937  13.6339

          k =-0.3367-0.6734-0.2141 (  4418 PWs)   bands (ev):

   -37.2265 -37.1119 -36.9960 -36.9326  -1.0103   1.2336   4.2943   4.9793
     7.1216   8.7434  10.1395  11.8836  13.5200  14.3814

          k = 0.6734-0.6734-0.8564 (  4416 PWs)   bands (ev):

   -37.1589 -37.1589 -36.9747 -36.9747   0.0180   0.0180   4.6942   4.6942
     6.7429   6.7429  13.2536  13.2536  13.8788  13.8788

          k = 0.2245-0.2245 0.0000 (  4413 PWs)   bands (ev):

   -37.3091 -37.0446 -37.0180 -36.8947  -2.1880   4.4588   5.2930   6.1520
     6.9381   9.0217   9.5484   9.9107  10.8692  10.8820

          k =-0.1122-0.2245 0.2141 (  4416 PWs)   bands (ev):

   -37.3101 -37.0748 -36.9895 -36.8919  -2.1412   3.8915   5.4797   5.8790
     7.5349   8.3747   9.8461  10.7041  10.9828  11.4316

          k = 0.8979-0.2245-0.4282 (  4406 PWs)   bands (ev):

   -37.2558 -37.1105 -36.9845 -36.9157  -1.3688   1.7210   4.5078   5.2040
     7.4747   8.8657  10.0613  11.7684  12.8373  13.3655

          k = 0.5612-0.2245-0.2141 (  4411 PWs)   bands (ev):

   -37.2566 -37.0863 -37.0078 -36.9160  -1.4624   1.9487   4.6765   5.3083
     7.4421   8.6782   9.4167  11.2250  12.7625  14.0552

          k =-0.1122 0.0000 0.3568 (  4403 PWs)   bands (ev):

   -37.3068 -37.1053 -36.9641 -36.8898  -1.9951   3.4871   4.9100   4.9277
     8.3617   9.7491   9.8054  10.1670  12.4733  12.5289

          k = 0.8979 0.0000-0.2855 (  4395 PWs)   bands (ev):

   -37.2542 -37.1313 -36.9724 -36.9085  -1.2057   1.3760   4.2485   4.9265
     8.2655   9.1680  10.0352  12.7829  12.9769  13.3988

          k = 0.5612 0.0000-0.0714 (  4410 PWs)   bands (ev):

   -37.2741 -37.0709 -37.0177 -36.9040  -1.6913   2.4644   4.2835   6.0613
     8.4159   8.6790   9.6163   9.9146  11.3374  12.7354

          k = 0.2245 0.2245 0.2855 (  4405 PWs)   bands (ev):

   -37.2954 -37.0874 -36.9846 -36.8990  -1.9401   3.1838   4.9273   5.6413
     7.6521   8.6815  10.0405  10.7713  11.3212  12.6948

          k =-0.1122 0.2245 0.4995 (  4398 PWs)   bands (ev):

   -37.2766 -37.1329 -36.9549 -36.9017  -1.5076   2.0959   4.2743   4.6041
     8.5052  10.0150  10.3620  11.0663  12.8469  13.2147

          k = 0.8979 0.2245-0.1427 (  4404 PWs)   bands (ev):

   -37.2260 -37.1527 -36.9643 -36.9234  -0.7361   0.8000   3.8593   4.4988
     8.4144   9.7809  10.7745  11.9400  12.9029  13.9207

          k = 0.5612 0.2245 0.0714 (  4408 PWs)   bands (ev):

   -37.2601 -37.0769 -37.0149 -36.9149  -1.5352   2.2127   4.3643   5.5034
     7.5145   8.5915   9.9882  10.9889  11.7985  13.7590

          k =-0.1122-0.8979-0.2141 (  4403 PWs)   bands (ev):

   -37.2433 -37.1419 -36.9681 -36.9131  -1.0077   1.1236   3.9803   4.7283
     8.4557   9.6411  10.2946  12.3603  12.9203  13.5871

          k = 0.8979-0.8979-0.8564 (  4442 PWs)   bands (ev):

   -37.1765 -37.1765 -36.9569 -36.9569   0.0008   0.0008   4.2081   4.2081
     8.0676   8.0676  12.5637  12.5637  13.4674  13.4674

          k = 0.5612-0.8979-0.6423 (  4423 PWs)   bands (ev):

   -37.2208 -37.1045 -37.0007 -36.9411  -1.0112   1.3120   4.5045   4.7741
     7.1970   7.8521  10.2444  12.3622  13.7191  14.4601

          k =-0.1122-0.6734-0.0714 (  4403 PWs)   bands (ev):

   -37.2546 -37.0999 -37.0014 -36.9106  -1.3592   1.7684   4.0096   5.4279
     8.4274   9.0739   9.8928  10.7030  12.0400  13.2604

          k = 0.5612-0.6734-0.4995 (  4421 PWs)   bands (ev):

   -37.1816 -37.1389 -36.9843 -36.9624  -0.3610   0.4587   4.2238   4.5220
     7.5020   8.1452  10.4170  11.1248  14.2325  15.3454

          k = 0.2245-0.4489-0.1427 (  4408 PWs)   bands (ev):

   -37.2757 -37.0648 -37.0166 -36.9097  -1.7614   2.7336   4.8572   5.5287
     7.4421   8.6395   9.2530  10.9563  11.8259  13.2478

          k =-0.1122-0.4489 0.0714 (  4413 PWs)   bands (ev):

   -37.2875 -37.0514 -37.0258 -36.9018  -1.9083   3.1276   4.6835   6.1735
     7.7265   8.9384   9.1730  10.0245  10.9808  12.6768

          k = 0.8979-0.4489-0.5709 (  4418 PWs)   bands (ev):

   -37.2355 -37.0981 -37.0000 -36.9333  -1.2108   1.6256   4.5116   4.8485
     7.7365   7.9228   9.6666  12.0898  13.6550  13.7792

          k = 0.5612-0.4489-0.3568 (  4426 PWs)   bands (ev):

   -37.2147 -37.1151 -36.9937 -36.9436  -0.8806   1.0961   4.3064   4.7442
     7.5167   8.2772   9.9516  11.7634  13.3985  14.7207

          k = 0.4489-0.4489 0.0000 (  4404 PWs)   bands (ev):

   -37.2445 -37.0764 -37.0163 -36.9298  -1.3911   2.0242   4.6614   5.2609
     6.6255   7.6285  11.3361  11.8111  12.2912  14.3938

          k = 0.1122-0.4489 0.2141 (  4409 PWs)   bands (ev):

   -37.2821 -37.0735 -37.0075 -36.9034  -1.8053   2.6467   5.1281   5.7553
     7.8385   7.9611   9.5543  10.6882  11.9046  13.0025

          k = 0.7856-0.4489-0.2141 (  4424 PWs)   bands (ev):

   -37.1974 -37.1398 -36.9797 -36.9501  -0.5269   0.6026   4.0820   4.8217
     6.9604   8.6298  11.1786  12.0555  13.3242  14.3426

          k = 0.1122-0.2245 0.3568 (  4403 PWs)   bands (ev):

   -37.2962 -37.1028 -36.9711 -36.8960  -1.8870   3.0030   4.8053   5.2624
     7.9282   9.3914   9.9958  10.7588  11.7188  12.7111

          k = 1.1223-0.2245-0.2855 (  4397 PWs)   bands (ev):

   -37.2579 -37.1461 -36.9516 -36.9105  -1.2048   1.5224   4.0219   4.4530
     8.5807  10.1655  10.7142  11.3374  13.1267  13.1556

          k = 0.7856-0.2245-0.0714 (  4401 PWs)   bands (ev):

   -37.2302 -37.1325 -36.9814 -36.9225  -0.9144   1.0665   3.8960   4.7692
     8.3165   9.0943  10.6218  11.7409  12.9224  14.1700

          k = 0.1122 0.0000 0.4995 (  4397 PWs)   bands (ev):

   -37.2860 -37.1361 -36.9480 -36.8957  -1.5970   2.3720   4.3250   4.3738
     8.7019   9.7744  10.8121  10.9769  13.4854  13.5789

          k = 1.1223 0.0000-0.1427 (  4395 PWs)   bands (ev):

   -37.2421 -37.1792 -36.9347 -36.9099  -0.7363   0.8172   3.7556   4.0594
     9.0114   9.9086  11.6018  12.3844  13.9930  14.0896

          k = 0.7856 0.0000 0.0714 (  4392 PWs)   bands (ev):

   -37.2454 -37.1279 -36.9831 -36.9101  -1.0938   1.2880   3.7722   5.0608
     8.8082   9.6059  10.4221  11.0077  12.5690  13.0463

          k = 0.1122-1.1223-0.2141 (  4391 PWs)   bands (ev):

   -37.2526 -37.1635 -36.9411 -36.9087  -1.0065   1.2083   3.9060   4.1643
     8.9594   9.9389  11.0631  11.9576  13.4695  14.1735

          k = 1.1223-1.1223-0.8564 (  4414 PWs)   bands (ev):

   -37.2053 -37.2053 -36.9277 -36.9277  -0.0158  -0.0158   3.8336   3.8336
     9.6252   9.6252  11.7819  11.7819  13.8428  13.8428

          k = 0.7856-1.1223-0.6423 (  4412 PWs)   bands (ev):

   -37.2350 -37.1257 -36.9844 -36.9216  -1.0090   1.1502   4.1228   4.9411
     7.6767   9.7069   9.8064  11.7449  13.5472  13.9352

          k = 0.4489-0.8979-0.2855 (  4415 PWs)   bands (ev):

   -37.2111 -37.1369 -36.9761 -36.9428  -0.7113   0.8202   3.9906   4.8941
     7.0925   9.3244  11.0688  11.4409  12.9990  13.6717

          k = 0.1122-0.8979-0.0714 (  4406 PWs)   bands (ev):

   -37.2319 -37.1562 -36.9630 -36.9152  -0.7518   0.8111   3.6907   4.5468
     8.9565   9.8885  11.0058  11.6369  12.9630  13.5980

          k = 0.7856-0.8979-0.4995 (  4415 PWs)   bands (ev):

   -37.2064 -37.1276 -36.9862 -36.9468  -0.7087   0.8419   4.1168   4.8542
     7.1535   8.8201  10.4496  11.3804  13.3056  14.5610

          k =-1.0101 0.8979 0.3568 (  4413 PWs)   bands (ev):

   -37.2478 -37.1019 -36.9928 -36.9243  -1.3303   1.7615   4.4500   5.1175
     7.5255   8.5237   9.8108  11.6732  13.0725  13.5871

          k =-0.3367 0.8979-0.0714 (  4422 PWs)   bands (ev):

   -37.2032 -37.1641 -36.9607 -36.9387  -0.3967   0.4127   3.9416   4.3111
     8.2473   9.0230  11.5553  12.3885  13.0064  13.8580

          k =-1.0101 1.1223 0.4995 (  4403 PWs)   bands (ev):

   -37.2587 -37.1278 -36.9667 -36.9132  -1.3266   1.7011   4.1856   4.8906
     7.9162   9.9335  10.2506  11.4523  12.6267  13.0593

          k =-0.3367 1.1223 0.0714 (  4429 PWs)   bands (ev):

   -37.2162 -37.1802 -36.9444 -36.9254  -0.4002   0.3972   3.7780   4.1026
     9.1721   9.8389  11.2877  11.8468  13.0149  14.1163

          k =-1.0101-0.0000-0.2141 (  4395 PWs)   bands (ev):

   -37.2494 -37.1556 -36.9520 -36.9090  -1.0068   1.1594   3.8980   4.4308
     8.7658  10.2688  10.3532  12.0959  13.3956  13.6860

          k =-0.0000 0.0000-0.8564 (  4394 PWs)   bands (ev):

   -37.2176 -37.2176 -36.9151 -36.9151  -0.0144  -0.0144   3.7558   3.7558
     9.1894   9.1894  13.1528  13.1528  14.9120  14.9120

     the Fermi energy is     9.6745 ev

!    total energy              =     -74.13760530 Ry
     estimated scf accuracy    <          3.5E-11 Ry
     smearing contrib. (-TS)   =      -0.00118071 Ry
     internal energy E=F+TS    =     -74.13642459 Ry

     The total energy is F=E-TS. E is the sum of the following terms:
     one-electron contribution =     -16.26253065 Ry
     hartree contribution      =      11.68152301 Ry
     xc contribution           =     -20.57017858 Ry
     ewald contribution        =     -48.98523837 Ry

     convergence has been achieved in   7 iterations

     Forces acting on atoms (cartesian axes, Ry/au):

     atom    1 type  1   force =    -0.00000000   -0.00000000   -0.00006537
     atom    2 type  1   force =     0.00000000   -0.00000000   -0.00006537
     atom    3 type  1   force =    -0.00000000    0.00000000    0.00006537
     atom    4 type  1   force =    -0.00000000   -0.00000000    0.00006537
     atom    5 type  2   force =    -0.00000000   -0.00000000    0.00000000
     atom    6 type  2   force =    -0.00000000    0.00000000    0.00000000
     The non-local contrib.  to forces
     atom    1 type  1   force =    -0.00000000   -0.00000000    0.03897407
     atom    2 type  1   force =    -0.00000000   -0.00000000    0.03897407
     atom    3 type  1   force =     0.00000000    0.00000000   -0.03897407
     atom    4 type  1   force =     0.00000000    0.00000000   -0.03897407
     atom    5 type  2   force =    -0.00000000    0.00000000    0.00000000
     atom    6 type  2   force =     0.00000000   -0.00000000   -0.00000000
     The ionic contribution  to forces
     atom    1 type  1   force =    -0.00000000   -0.00000000    0.00885580
     atom    2 type  1   force =     0.00000000    0.00000000    0.00885580
     atom    3 type  1   force =     0.00000000    0.00000000   -0.00885580
     atom    4 type  1   force =    -0.00000000   -0.00000000   -0.00885580
     atom    5 type  2   force =     0.00000000    0.00000000    0.00000000
     atom    6 type  2   force =     0.00000000    0.00000000   -0.00000000
     The local contribution  to forces
     atom    1 type  1   force =     0.00000000    0.00000000   -0.04789698
     atom    2 type  1   force =    -0.00000000    0.00000000   -0.04789698
     atom    3 type  1   force =     0.00000000    0.00000000    0.04789698
     atom    4 type  1   force =     0.00000000    0.00000000    0.04789698
     atom    5 type  2   force =    -0.00000000    0.00000000    0.00000000
     atom    6 type  2   force =     0.00000000   -0.00000000   -0.00000000
     The core correction contribution to forces
     atom    1 type  1   force =     0.00000000    0.00000000    0.00000000
     atom    2 type  1   force =     0.00000000    0.00000000    0.00000000
     atom    3 type  1   force =     0.00000000    0.00000000    0.00000000
     atom    4 type  1   force =     0.00000000    0.00000000    0.00000000
     atom    5 type  2   force =    -0.00000000    0.00000000    0.00000000
     atom    6 type  2   force =    -0.00000000   -0.00000000    0.00000000
     The Hubbard contrib.    to forces
     atom    1 type  1   force =     0.00000000    0.00000000    0.00000000
     atom    2 type  1   force =     0.00000000    0.00000000    0.00000000
     atom    3 type  1   force =     0.00000000    0.00000000    0.00000000
     atom    4 type  1   force =     0.00000000    0.00000000    0.00000000
     atom    5 type  2   force =     0.00000000    0.00000000    0.00000000
     atom    6 type  2   force =     0.00000000    0.00000000    0.00000000
     The SCF correction term to forces
     atom    1 type  1   force =     0.00000000    0.00000000    0.00000174
     atom    2 type  1   force =    -0.00000000   -0.00000000    0.00000174
     atom    3 type  1   force =    -0.00000000   -0.00000000   -0.00000174
     atom    4 type  1   force =    -0.00000000    0.00000000   -0.00000174
     atom    5 type  2   force =    -0.00000000   -0.00000000    0.00000000
     atom    6 type  2   force =    -0.00000000   -0.00000000   -0.00000000

     Total force =     0.000131     Total SCF correction =     0.000003


     Computing stress (Cartesian axis) and pressure

          total   stress  (Ry/bohr**3)                   (kbar)     P=      499.91
   0.00340100  -0.00000000   0.00000000          500.30       -0.00        0.00
  -0.00000000   0.00340100  -0.00000000           -0.00      500.30       -0.00
   0.00000000  -0.00000000   0.00339289            0.00       -0.00      499.11


     Writing all to output data dir ./output/LiSi.save/

     init_run     :      2.67s CPU      5.00s WALL (       2 calls)
     electrons    :    161.74s CPU    184.04s WALL (      13 calls)
     update_pot   :      9.37s CPU      9.51s WALL (      11 calls)
     forces       :      7.33s CPU      7.47s WALL (      13 calls)
     stress       :     35.42s CPU     36.79s WALL (      13 calls)

     Called by init_run:
     wfcinit      :      1.26s CPU      3.14s WALL (       2 calls)
     potinit      :      0.58s CPU      0.79s WALL (       2 calls)
     hinit0       :      0.72s CPU      0.87s WALL (       2 calls)

     Called by electrons:
     c_bands      :    141.36s CPU    159.91s WALL (      97 calls)
     sum_band     :     18.64s CPU     21.54s WALL (      97 calls)
     v_of_rho     :      1.77s CPU      2.42s WALL (     107 calls)
     mix_rho      :      0.12s CPU      0.20s WALL (      97 calls)

     Called by c_bands:
     init_us_2    :      4.16s CPU      4.70s WALL (   11988 calls)
     init_us_2:cp :      4.14s CPU      4.68s WALL (   11988 calls)
     cegterg      :    132.13s CPU    148.65s WALL (    5238 calls)

     Called by *egterg:
     cdiaghg      :      4.60s CPU      4.84s WALL (   22466 calls)
     h_psi        :    114.97s CPU    132.69s WALL (   23330 calls)
     g_psi        :      0.65s CPU      0.66s WALL (   17984 calls)

     Called by h_psi:
     h_psi:calbec :      7.54s CPU      8.37s WALL (   23330 calls)
     vloc_psi     :    100.33s CPU    116.80s WALL (   23330 calls)
     add_vuspsi   :      6.70s CPU      7.09s WALL (   23330 calls)

     General routines
     calbec       :      9.11s CPU      9.96s WALL (   26840 calls)
     fft          :      1.30s CPU      2.18s WALL (    1396 calls)
     ffts         :      0.05s CPU      0.09s WALL (      97 calls)
     fftw         :    101.20s CPU    117.96s WALL (  518684 calls)

     Parallel routines

     PWSCF        :   3m36.89s CPU   4m 3.62s WALL


   This run was terminated on:  18:53:58  28Dec2024            

=------------------------------------------------------------------------------=
   JOB DONE.
=------------------------------------------------------------------------------=
