
     Program PWSCF v.7.2 starts on 27Dec2024 at 15:29:41 

     This program is part of the open-source Quantum ESPRESSO suite
     for quantum simulation of materials; please cite
         "P. Giannozzi et al., J. Phys.:Condens. Matter 21 395502 (2009);
         "P. Giannozzi et al., J. Phys.:Condens. Matter 29 465901 (2017);
         "P. Giannozzi et al., J. Chem. Phys. 152 154105 (2020);
          URL http://www.quantum-espresso.org", 
     in publications or presentations arising from this work. More details at
     http://www.quantum-espresso.org/quote

     Parallel version (MPI & OpenMP), running on       8 processor cores
     Number of MPI processes:                 8
     Threads/MPI process:                     1

     MPI processes distributed on     1 nodes
     481886 MiB available memory on the printing compute node when the environment starts

     Waiting for input...
     Reading input from standard input

     Current dimensions of program PWSCF are:
     Max number of different atomic species (ntypx) = 10
     Max number of k-points (npk) =  40000
     Max angular momentum in pseudopotentials (lmaxx) =  4

     R & G space division:  proc/nbgrp/npool/nimage =       8
     Subspace diagonalization in iterative solution of the eigenvalue problem:
     a serial algorithm will be used


     Parallelization info
     --------------------
     sticks:   dense  smooth     PW     G-vecs:    dense   smooth      PW
     Min         331     331     96                 6068     6068     967
     Max         333     333     98                 6069     6069     968
     Sum        2661    2661    777                48551    48551    7743

     Using Slab Decomposition



     bravais-lattice index     =            6
     lattice parameter (alat)  =      10.2124  a.u.
     unit-cell volume          =     502.4243 (a.u.)^3
     number of atoms/cell      =            6
     number of atomic types    =            2
     number of electrons       =        22.00
     number of Kohn-Sham states=           15
     kinetic-energy cutoff     =      80.0000  Ry
     charge density cutoff     =     320.0000  Ry
     scf convergence threshold =      1.0E-08
     mixing beta               =       0.7000
     number of iterations used =            8  plain     mixing
     energy convergence thresh.=      1.0E-04
     force convergence thresh. =      1.0E-03
     press convergence thresh. =      1.0E+00
     Exchange-correlation= PBE
                           (   1   4   3   4   0   0   0)
     nstep                     =           50


     celldm(1)=  10.212419  celldm(2)=   0.000000  celldm(3)=   0.471720
     celldm(4)=   0.000000  celldm(5)=   0.000000  celldm(6)=   0.000000

     crystal axes: (cart. coord. in units of alat)
               a(1) = (   1.000000   0.000000   0.000000 )  
               a(2) = (   0.000000   1.000000   0.000000 )  
               a(3) = (   0.000000   0.000000   0.471720 )  

     reciprocal axes: (cart. coord. in units 2 pi/alat)
               b(1) = (  1.000000  0.000000  0.000000 )  
               b(2) = (  0.000000  1.000000  0.000000 )  
               b(3) = (  0.000000  0.000000  2.119900 )  


     PseudoPot. # 1 for Li read from file:
     ../pseudo/Li_ONCV_PBE_sr.upf
     MD5 check sum: 50ff420e78310ffa21704f3361e624a4
     Pseudo is Norm-conserving, Zval =  3.0
     Generated using ONCVPSP code by D. R. Hamann
     Using radial grid of 1944 points,  4 beta functions with: 
                l(1) =   0
                l(2) =   0
                l(3) =   1
                l(4) =   1

     PseudoPot. # 2 for Si read from file:
     ../pseudo/Si_ONCV_PBE_sr.upf
     MD5 check sum: e543d271109d17c80368dfa7c482276d
     Pseudo is Norm-conserving + core correction, Zval =  4.0
     Generated using ONCVPSP code by D. R. Hamann
     Using radial grid of 1510 points,  6 beta functions with: 
                l(1) =   0
                l(2) =   0
                l(3) =   1
                l(4) =   1
                l(5) =   2
                l(6) =   2

     atomic species   valence    mass     pseudopotential
        Li             3.00     6.94100     Li( 1.00)
        Si             4.00    28.08550     Si( 1.00)

      8 Sym. Ops. (no inversion) found ( 4 have fractional translation)



   Cartesian axes

     site n.     atom                  positions (alat units)
         1           Li  tau(   1) = (   0.0000000   0.0000000   0.2358602  )
         2           Li  tau(   2) = (   0.5000000   0.5000000   0.2358602  )
         3           Si  tau(   3) = (   0.1294880   0.3705120   0.0198561  )
         4           Si  tau(   4) = (   0.3705120   0.8705120   0.4518643  )
         5           Si  tau(   5) = (   0.8705120   0.6294880   0.0198561  )
         6           Si  tau(   6) = (   0.6294880   0.1294880   0.4518643  )

     number of k points=    36  Marzari-Vanderbilt smearing, width (Ry)=  0.0200
                       cart. coord. in units 2pi/alat
        k(    1) = (   0.0000000   0.0000000   0.0000000), wk =   0.0080000
        k(    2) = (   0.0000000   0.0000000   0.2119900), wk =   0.0160000
        k(    3) = (   0.0000000   0.0000000   0.4239799), wk =   0.0160000
        k(    4) = (   0.0000000   0.0000000   0.6359699), wk =   0.0160000
        k(    5) = (   0.0000000   0.0000000   0.8479598), wk =   0.0160000
        k(    6) = (   0.0000000   0.0000000  -1.0599498), wk =   0.0080000
        k(    7) = (   0.0000000   0.2000000   0.0000000), wk =   0.0320000
        k(    8) = (   0.0000000   0.2000000   0.2119900), wk =   0.0640000
        k(    9) = (   0.0000000   0.2000000   0.4239799), wk =   0.0640000
        k(   10) = (   0.0000000   0.2000000   0.6359699), wk =   0.0640000
        k(   11) = (   0.0000000   0.2000000   0.8479598), wk =   0.0640000
        k(   12) = (   0.0000000   0.2000000  -1.0599498), wk =   0.0320000
        k(   13) = (   0.0000000   0.4000000   0.0000000), wk =   0.0320000
        k(   14) = (   0.0000000   0.4000000   0.2119900), wk =   0.0640000
        k(   15) = (   0.0000000   0.4000000   0.4239799), wk =   0.0640000
        k(   16) = (   0.0000000   0.4000000   0.6359699), wk =   0.0640000
        k(   17) = (   0.0000000   0.4000000   0.8479598), wk =   0.0640000
        k(   18) = (   0.0000000   0.4000000  -1.0599498), wk =   0.0320000
        k(   19) = (   0.2000000   0.2000000   0.0000000), wk =   0.0320000
        k(   20) = (   0.2000000   0.2000000   0.2119900), wk =   0.0640000
        k(   21) = (   0.2000000   0.2000000   0.4239799), wk =   0.0640000
        k(   22) = (   0.2000000   0.2000000   0.6359699), wk =   0.0640000
        k(   23) = (   0.2000000   0.2000000   0.8479598), wk =   0.0640000
        k(   24) = (   0.2000000   0.2000000  -1.0599498), wk =   0.0320000
        k(   25) = (   0.2000000   0.4000000   0.0000000), wk =   0.0640000
        k(   26) = (   0.2000000   0.4000000   0.2119900), wk =   0.1280000
        k(   27) = (   0.2000000   0.4000000   0.4239799), wk =   0.1280000
        k(   28) = (   0.2000000   0.4000000   0.6359699), wk =   0.1280000
        k(   29) = (   0.2000000   0.4000000   0.8479598), wk =   0.1280000
        k(   30) = (   0.2000000   0.4000000  -1.0599498), wk =   0.0640000
        k(   31) = (   0.4000000   0.4000000   0.0000000), wk =   0.0320000
        k(   32) = (   0.4000000   0.4000000   0.2119900), wk =   0.0640000
        k(   33) = (   0.4000000   0.4000000   0.4239799), wk =   0.0640000
        k(   34) = (   0.4000000   0.4000000   0.6359699), wk =   0.0640000
        k(   35) = (   0.4000000   0.4000000   0.8479598), wk =   0.0640000
        k(   36) = (   0.4000000   0.4000000  -1.0599498), wk =   0.0320000

     Dense  grid:    48551 G-vectors     FFT dimensions: (  60,  60,  27)

     Estimated max dynamical RAM per process >      23.38 MB

     Estimated total dynamical RAM >     187.03 MB

     Initial potential from superposition of free atoms

     starting charge      21.9884, renormalised to      22.0000
     Starting wfcs are   20 randomized atomic wfcs

     total cpu time spent up to now is        1.4 secs

     Self-consistent Calculation

     iteration #  1     ecut=    80.00 Ry     beta= 0.70
     Davidson diagonalization with overlap
     ethr =  1.00E-02,  avg # of iterations =  4.9

     Threshold (ethr) on eigenvalues was too large:
     Diagonalizing with lowered threshold

     Davidson diagonalization with overlap
     ethr =  2.57E-04,  avg # of iterations =  5.0

     total cpu time spent up to now is        3.5 secs

     total energy              =     -62.39317989 Ry
     estimated scf accuracy    <       0.06769783 Ry

     iteration #  2     ecut=    80.00 Ry     beta= 0.70
     Davidson diagonalization with overlap
     ethr =  3.08E-04,  avg # of iterations =  1.8

     total cpu time spent up to now is        4.1 secs

     total energy              =     -62.39801745 Ry
     estimated scf accuracy    <       0.00306197 Ry

     iteration #  3     ecut=    80.00 Ry     beta= 0.70
     Davidson diagonalization with overlap
     ethr =  1.39E-05,  avg # of iterations =  6.1

     total cpu time spent up to now is        5.1 secs

     total energy              =     -62.39857196 Ry
     estimated scf accuracy    <       0.00032955 Ry

     iteration #  4     ecut=    80.00 Ry     beta= 0.70
     Davidson diagonalization with overlap
     ethr =  1.50E-06,  avg # of iterations =  3.9

     total cpu time spent up to now is        6.0 secs

     total energy              =     -62.39864237 Ry
     estimated scf accuracy    <       0.00001627 Ry

     iteration #  5     ecut=    80.00 Ry     beta= 0.70
     Davidson diagonalization with overlap
     ethr =  7.40E-08,  avg # of iterations =  2.5

     total cpu time spent up to now is        6.7 secs

     total energy              =     -62.39864536 Ry
     estimated scf accuracy    <       0.00000017 Ry

     iteration #  6     ecut=    80.00 Ry     beta= 0.70
     Davidson diagonalization with overlap
     ethr =  7.58E-10,  avg # of iterations =  4.5

     total cpu time spent up to now is        7.7 secs

     total energy              =     -62.39864553 Ry
     estimated scf accuracy    <       0.00000002 Ry

     iteration #  7     ecut=    80.00 Ry     beta= 0.70
     Davidson diagonalization with overlap
     ethr =  9.50E-11,  avg # of iterations =  2.2

     total cpu time spent up to now is        8.4 secs

     End of self-consistent calculation

          k = 0.0000 0.0000 0.0000 (  6053 PWs)   bands (ev):

   -36.2553 -36.2534  -4.1795  -1.7812   0.6947   0.6947   5.2420   5.4513
     5.4513   5.8186   6.1219  13.8360  15.3471  15.4985  15.7117

          k = 0.0000 0.0000 0.2120 (  6041 PWs)   bands (ev):

   -36.2506 -36.2488  -3.9707  -1.5699   0.9135   0.9135   5.3635   5.6585
     5.6585   6.0086   6.2651  12.3358  14.0221  14.8243  15.3156

          k = 0.0000 0.0000 0.4240 (  6074 PWs)   bands (ev):

   -36.2383 -36.2367  -3.3490  -0.9408   1.5675   1.5675   5.7124   6.2718
     6.2718   6.5402   6.6770   9.1529  11.8617  13.9057  14.5667

          k = 0.0000 0.0000 0.6360 (  6110 PWs)   bands (ev):

   -36.2231 -36.2217  -2.3329   0.0877   2.6481   2.6481   6.2166   6.2287
     7.0523   7.2401   7.2401   7.3307   9.4827  11.2559  11.2559

          k = 0.0000 0.0000 0.8480 (  6094 PWs)   bands (ev):

   -36.2108 -36.2095  -0.9940   1.4475   3.7532   4.1347   4.1347   5.7887
     6.7592   7.8463   7.8463   7.9868   9.4309   9.4309   9.5606

          k = 0.0000 0.0000-1.0599 (  6094 PWs)   bands (ev):

   -36.2061 -36.2049   0.0371   2.2028   2.7015   4.4193   5.7447   5.7447
     6.2876   6.2876   7.0063   8.3027  10.1199  10.1199  10.4453

          k = 0.0000 0.2000 0.0000 (  6049 PWs)   bands (ev):

   -36.2551 -36.2536  -4.0383  -2.2145   0.8682   1.1164   4.0253   4.4438
     5.6658   7.2594   7.5733  12.0497  14.7913  14.8960  15.5162

          k = 0.0000 0.2000 0.2120 (  6073 PWs)   bands (ev):

   -36.2504 -36.2490  -3.8290  -2.0016   1.0868   1.3270   4.2292   4.6213
     5.7988   7.4367   7.7524  12.1098  12.5320  14.4588  15.1160

          k = 0.0000 0.2000 0.4240 (  6070 PWs)   bands (ev):

   -36.2382 -36.2368  -3.2053  -1.3669   1.7401   1.9538   4.8305   5.1385
     6.1808   7.9453   8.2065   9.2985  11.6439  12.5887  13.9592

          k = 0.0000 0.2000 0.6360 (  6085 PWs)   bands (ev):

   -36.2230 -36.2218  -2.1856  -0.3274   2.8191   2.9775   5.7555   5.8872
     6.4412   6.7122   7.8794   8.7696  10.1478  11.2750  11.5003

          k = 0.0000 0.2000 0.8480 (  6092 PWs)   bands (ev):

   -36.2107 -36.2097  -0.8397   1.0567   3.8513   4.3135   4.3501   5.4427
     6.8164   6.8847   7.6919   8.4194   9.2572  10.2281  11.0858

          k = 0.0000 0.2000-1.0599 (  6078 PWs)   bands (ev):

   -36.2060 -36.2050   0.2059   2.1096   2.5503   3.9966   5.4809   5.9326
     6.4187   6.6735   7.4976   8.1369   8.7023  10.6803  11.4584

          k = 0.0000 0.4000 0.0000 (  6051 PWs)   bands (ev):

   -36.2546 -36.2541  -3.6240  -2.9746   1.3446   1.6737   3.0481   3.4206
     6.8297   8.0062   9.5675  10.4632  13.0067  13.1750  15.9991

          k = 0.0000 0.4000 0.2120 (  6045 PWs)   bands (ev):

   -36.2500 -36.2494  -3.4130  -2.7618   1.5620   1.8812   3.2418   3.5966
     6.9857   8.1877   9.6974  10.5990  12.5031  13.0940  14.0931

          k = 0.0000 0.4000 0.4240 (  6074 PWs)   bands (ev):

   -36.2378 -36.2373  -2.7843  -2.1276   2.2113   2.4968   3.8154   4.1129
     7.4087   8.5639   9.6324   9.9964  10.9360  11.5206  13.2066

          k = 0.0000 0.4000 0.6360 (  6067 PWs)   bands (ev):

   -36.2226 -36.2222  -1.7552  -1.0883   3.2819   3.4928   4.7334   4.9151
     6.7213   7.1103   8.5158   9.9558  10.7236  11.3412  11.9699

          k = 0.0000 0.4000 0.8480 (  6083 PWs)   bands (ev):

   -36.2104 -36.2100  -0.3906   0.2968   4.1874   4.6879   4.8128   4.9046
     5.8935   5.9379   8.6699   8.7869   9.9694  11.0594  11.6865

          k = 0.0000 0.4000-1.0599 (  6074 PWs)   bands (ev):

   -36.2057 -36.2053   0.6948   1.4267   2.7872   3.3208   5.6973   6.4083
     6.5220   6.7482   6.9882   7.4261  10.1926  10.4724  10.9363

          k = 0.2000 0.2000 0.0000 (  6049 PWs)   bands (ev):

   -36.2550 -36.2537  -3.9072  -2.4396   0.4987   1.6945   3.1180   5.6703
     6.0658   6.1448   8.9466  11.3295  13.3748  14.2540  15.9864

          k = 0.2000 0.2000 0.2120 (  6057 PWs)   bands (ev):

   -36.2503 -36.2491  -3.6971  -2.2253   0.7062   1.9090   3.3105   5.8484
     6.2331   6.3122   9.1015  11.5159  12.4357  13.7358  14.3401

          k = 0.2000 0.2000 0.4240 (  6074 PWs)   bands (ev):

   -36.2380 -36.2370  -3.0712  -1.5865   1.3234   2.5487   3.8779   6.3336
     6.7060   6.8359   9.1301   9.7329  11.6124  11.9916  13.6617

          k = 0.2000 0.2000 0.6360 (  6078 PWs)   bands (ev):

   -36.2229 -36.2219  -2.0473  -0.5391   2.3306   3.5972   4.7679   6.5091
     6.9493   7.1289   7.7500   8.3761  11.0559  11.1103  11.6480

          k = 0.2000 0.2000 0.8480 (  6085 PWs)   bands (ev):

   -36.2106 -36.2098  -0.6932   0.8610   3.6605   3.9588   5.0538   5.2583
     6.0138   7.1256   8.4229   8.6782   9.5642   9.6986  11.5607

          k = 0.2000 0.2000-1.0599 (  6096 PWs)   bands (ev):

   -36.2059 -36.2051   0.3688   1.9934   2.6020   3.7677   4.7347   6.3257
     6.4663   6.9378   6.9447   8.7499   9.5770  10.4698  10.5457

          k = 0.2000 0.4000 0.0000 (  6082 PWs)   bands (ev):

   -36.2546 -36.2541  -3.5307  -2.9786   0.6543   1.2735   3.5901   4.6662
     7.0201   7.5744   9.3664  10.0110  12.5929  13.9428  14.6530

          k = 0.2000 0.4000 0.2120 (  6051 PWs)   bands (ev):

   -36.2499 -36.2495  -3.3187  -2.7644   0.8564   1.4762   3.7854   4.8549
     7.1807   7.7642   9.4944  10.1590  12.6628  13.0738  13.9036

          k = 0.2000 0.4000 0.4240 (  6058 PWs)   bands (ev):

   -36.2377 -36.2373  -2.6867  -2.1259   1.4567   2.0781   4.3620   5.4076
     7.6123   8.2619   9.3650  10.1923  10.5992  11.3537  13.2871

          k = 0.2000 0.4000 0.6360 (  6083 PWs)   bands (ev):

   -36.2226 -36.2222  -1.6517  -1.0786   2.4311   3.0528   5.2688   6.2304
     6.8300   7.2378   8.6188   9.5056  10.4493  10.9409  12.0934

          k = 0.2000 0.4000 0.8480 (  6075 PWs)   bands (ev):

   -36.2103 -36.2100  -0.2758   0.3217   3.6884   4.1238   4.5504   4.8414
     6.4179   7.0797   8.4307   8.9711  10.0905  10.7888  11.8960

          k = 0.2000 0.4000-1.0599 (  6088 PWs)   bands (ev):

   -36.2056 -36.2053   0.8327   1.4841   2.8496   3.2878   4.6725   5.3496
     6.5297   6.8862   7.8274   8.7640  10.4988  10.8010  11.4822

          k = 0.4000 0.4000 0.0000 (  6070 PWs)   bands (ev):

   -36.2544 -36.2542  -3.2964  -3.0662   0.2383   0.5018   5.0274   6.1713
     6.7431   7.7703   8.4377   8.8574  12.3308  12.9520  15.0091

          k = 0.4000 0.4000 0.2120 (  6069 PWs)   bands (ev):

   -36.2498 -36.2496  -3.0818  -2.8502   0.4333   0.6972   5.2217   6.3509
     6.9335   7.9634   8.5905   9.0595  12.3967  13.0135  13.4918

          k = 0.4000 0.4000 0.4240 (  6054 PWs)   bands (ev):

   -36.2376 -36.2374  -2.4419  -2.2059   1.0119   1.2771   5.7856   6.8447
     7.4721   8.5322   8.8355   9.6487  10.4769  10.7797  12.4948

          k = 0.4000 0.4000 0.6360 (  6063 PWs)   bands (ev):

   -36.2225 -36.2223  -1.3922  -1.1478   1.9485   2.2155   6.4653   6.8452
     7.3873   8.0840   8.4969   9.4160   9.8352  10.3824  11.3736

          k = 0.4000 0.4000 0.8480 (  6075 PWs)   bands (ev):

   -36.2102 -36.2101   0.0123   0.2738   3.1502   3.4095   4.5675   4.7462
     7.3280   7.3799   8.7741   9.4077  10.4716  10.8835  11.8596

          k = 0.4000 0.4000-1.0599 (  6094 PWs)   bands (ev):

   -36.2055 -36.2054   1.1842   1.4871   3.0080   3.1765   4.0035   4.3207
     6.3865   6.5646   9.3177  10.0283  11.4753  11.5950  11.8541

     the Fermi energy is     8.9579 ev

!    total energy              =     -62.39864554 Ry
     estimated scf accuracy    <          7.7E-10 Ry
     smearing contrib. (-TS)   =       0.00127216 Ry
     internal energy E=F+TS    =     -62.39991770 Ry

     The total energy is F=E-TS. E is the sum of the following terms:
     one-electron contribution =       3.31216940 Ry
     hartree contribution      =       6.71263693 Ry
     xc contribution           =     -19.70665329 Ry
     ewald contribution        =     -52.71807074 Ry

     convergence has been achieved in   7 iterations

     Forces acting on atoms (cartesian axes, Ry/au):

     atom    1 type  1   force =     0.00000000    0.00000000    0.00000000
     atom    2 type  1   force =     0.00000000    0.00000000    0.00000000
     atom    3 type  2   force =     0.18459867   -0.18459867   -0.01915651
     atom    4 type  2   force =    -0.18459867   -0.18459867    0.01915651
     atom    5 type  2   force =    -0.18459867    0.18459867   -0.01915651
     atom    6 type  2   force =     0.18459867    0.18459867    0.01915651
     The non-local contrib.  to forces
     atom    1 type  1   force =     0.00000000    0.00000000    0.00000000
     atom    2 type  1   force =     0.00000000    0.00000000    0.00000000
     atom    3 type  2   force =     0.20746119   -0.20746119   -0.02556837
     atom    4 type  2   force =    -0.20746119   -0.20746119    0.02556837
     atom    5 type  2   force =    -0.20746119    0.20746119   -0.02556837
     atom    6 type  2   force =     0.20746119    0.20746119    0.02556837
     The ionic contribution  to forces
     atom    1 type  1   force =     0.00000000    0.00000000    0.00000000
     atom    2 type  1   force =    -0.00000000   -0.00000000    0.00000000
     atom    3 type  2   force =     0.50426307   -0.50426307   -0.01994217
     atom    4 type  2   force =    -0.50426307   -0.50426307    0.01994217
     atom    5 type  2   force =    -0.50426307    0.50426307   -0.01994217
     atom    6 type  2   force =     0.50426307    0.50426307    0.01994217
     The local contribution  to forces
     atom    1 type  1   force =     0.00000000    0.00000000    0.00000000
     atom    2 type  1   force =     0.00000000    0.00000000    0.00000000
     atom    3 type  2   force =    -0.51163114    0.51163114    0.02488272
     atom    4 type  2   force =     0.51163114    0.51163114   -0.02488272
     atom    5 type  2   force =     0.51163114   -0.51163114    0.02488272
     atom    6 type  2   force =    -0.51163114   -0.51163114   -0.02488272
     The core correction contribution to forces
     atom    1 type  1   force =     0.00000000    0.00000000    0.00000000
     atom    2 type  1   force =     0.00000000    0.00000000    0.00000000
     atom    3 type  2   force =    -0.01548630    0.01548630    0.00147128
     atom    4 type  2   force =     0.01548630    0.01548630   -0.00147128
     atom    5 type  2   force =     0.01548630   -0.01548630    0.00147128
     atom    6 type  2   force =    -0.01548630   -0.01548630   -0.00147128
     The Hubbard contrib.    to forces
     atom    1 type  1   force =     0.00000000    0.00000000    0.00000000
     atom    2 type  1   force =     0.00000000    0.00000000    0.00000000
     atom    3 type  2   force =     0.00000000    0.00000000    0.00000000
     atom    4 type  2   force =     0.00000000    0.00000000    0.00000000
     atom    5 type  2   force =     0.00000000    0.00000000    0.00000000
     atom    6 type  2   force =     0.00000000    0.00000000    0.00000000
     The SCF correction term to forces
     atom    1 type  1   force =     0.00000000    0.00000000   -0.00000000
     atom    2 type  1   force =     0.00000000    0.00000000    0.00000000
     atom    3 type  2   force =    -0.00000817    0.00000817    0.00000003
     atom    4 type  2   force =     0.00000817    0.00000817   -0.00000003
     atom    5 type  2   force =     0.00000817   -0.00000817    0.00000003
     atom    6 type  2   force =    -0.00000817   -0.00000817   -0.00000003

     Total force =     0.523528     Total SCF correction =     0.000023


     Computing stress (Cartesian axis) and pressure

          total   stress  (Ry/bohr**3)                   (kbar)     P=      292.83
   0.00272688   0.00000000   0.00000000          401.14        0.00        0.00
   0.00000000   0.00272688   0.00000000            0.00      401.14        0.00
   0.00000000   0.00000000   0.00051814            0.00        0.00       76.22


     BFGS Geometry Optimization
     Energy error            =      0.0E+00 Ry
     Gradient error          =      1.8E-01 Ry/Bohr
     Cell gradient error     =      4.2E+02 kbar

     number of scf cycles    =   1
     number of bfgs steps    =   0

     enthalpy           new  =     -60.6909401104 Ry

     new trust radius        =       0.3228626464 bohr
ibrav =      6
 celldm(1) =     10.04083709
 celldm(3) =      0.44522761
Input lattice vectors:
     0.98319867     0.00000000     0.00000000
     0.00000000     0.98319867     0.00000000
     0.00000000     0.00000000     0.43774720
New lattice vectors in INITIAL alat:
     0.98319867     0.00000000     0.00000000
     0.00000000     0.98319867     0.00000000
     0.00000000     0.00000000     0.43774720
New lattice vectors in NEW alat (for information only):
     1.00000000     0.00000000     0.00000000
     0.00000000     1.00000000     0.00000000
     0.00000000     0.00000000     0.44522761
Discrepancy in bohr =     0.000000    0.000000    0.000000
     new conv_thr            =       0.0000000100 Ry

     new unit-cell volume =    450.70446 a.u.^3 (    66.78751 Ang^3 )
     density =      3.13831 g/cm^3

CELL_PARAMETERS (alat= 10.21241928)
   0.983198673   0.000000000   0.000000000
   0.000000000   0.983198673   0.000000000
   0.000000000   0.000000000   0.437747197

ATOMIC_POSITIONS (crystal)
Li            0.0000000000        0.0000000000        0.5000000000
Li            0.5000000000        0.5000000000        0.5000000000
Si            0.1475638996        0.3524361004        0.0381164801
Si            0.3524361004        0.8524361004        0.9618835199
Si            0.8524361004        0.6475638996        0.0381164801
Si            0.6475638996        0.1475638996        0.9618835199



     Writing config-only to output data dir ./output/LiSi.save/
     NEW-OLD atomic charge density approx. for the potential
     extrapolated charge   19.47676, renormalised to   22.00000

     total cpu time spent up to now is       11.2 secs

     Self-consistent Calculation

     iteration #  1     ecut=    80.00 Ry     beta= 0.70
     Davidson diagonalization with overlap
     c_bands:  1 eigenvalues not converged
     c_bands:  1 eigenvalues not converged
     c_bands:  1 eigenvalues not converged
     c_bands:  1 eigenvalues not converged
     c_bands:  1 eigenvalues not converged
     c_bands:  1 eigenvalues not converged
     c_bands:  1 eigenvalues not converged
     ethr =  1.00E-06,  avg # of iterations = 15.1

     total cpu time spent up to now is       13.8 secs

     total energy              =     -62.42778513 Ry
     estimated scf accuracy    <       0.03004461 Ry

     iteration #  2     ecut=    80.00 Ry     beta= 0.70
     Davidson diagonalization with overlap
     ethr =  1.37E-04,  avg # of iterations =  2.5

     total cpu time spent up to now is       14.6 secs

     total energy              =     -62.45866953 Ry
     estimated scf accuracy    <       0.01916270 Ry

     iteration #  3     ecut=    80.00 Ry     beta= 0.70
     Davidson diagonalization with overlap
     ethr =  8.71E-05,  avg # of iterations =  1.5

     total cpu time spent up to now is       15.2 secs

     total energy              =     -62.45940091 Ry
     estimated scf accuracy    <       0.00207494 Ry

     iteration #  4     ecut=    80.00 Ry     beta= 0.70
     Davidson diagonalization with overlap
     ethr =  9.43E-06,  avg # of iterations =  2.3

     total cpu time spent up to now is       16.0 secs

     total energy              =     -62.45978061 Ry
     estimated scf accuracy    <       0.00002358 Ry

     iteration #  5     ecut=    80.00 Ry     beta= 0.70
     Davidson diagonalization with overlap
     ethr =  1.07E-07,  avg # of iterations =  4.7

     total cpu time spent up to now is       16.9 secs

     total energy              =     -62.45979604 Ry
     estimated scf accuracy    <       0.00000236 Ry

     iteration #  6     ecut=    80.00 Ry     beta= 0.70
     Davidson diagonalization with overlap
     ethr =  1.07E-08,  avg # of iterations =  2.3

     total cpu time spent up to now is       17.7 secs

     total energy              =     -62.45979671 Ry
     estimated scf accuracy    <       0.00000008 Ry

     iteration #  7     ecut=    80.00 Ry     beta= 0.70
     Davidson diagonalization with overlap
     ethr =  3.59E-10,  avg # of iterations =  3.4

     total cpu time spent up to now is       18.5 secs

     End of self-consistent calculation

          k = 0.0000 0.0000 0.0000 (  6053 PWs)   bands (ev):

   -34.9342 -34.9311  -3.2652  -0.0676   0.9884   0.9884   5.7003   6.1782
     6.1782   6.1888   7.8638  14.9345  16.0631  16.0631  17.4387

          k = 0.0000 0.0000 0.2284 (  6041 PWs)   bands (ev):

   -34.9246 -34.9217  -3.0216   0.1827   1.2428   1.2428   5.8424   6.4200
     6.4215   6.4215   8.0363  15.0758  15.1564  16.1289  16.1289

          k = 0.0000 0.0000 0.4569 (  6074 PWs)   bands (ev):

   -34.8996 -34.8970  -2.2945   0.9295   2.0024   2.0024   6.2527   7.0921
     7.1439   7.1439   8.5206  11.7100  15.5384  15.5631  15.8168

          k = 0.0000 0.0000 0.6853 (  6110 PWs)   bands (ev):

   -34.8685 -34.8663  -1.0973   2.1597   3.2545   3.2545   6.8678   7.9994
     8.2778   8.2969   8.2969   9.5449  12.4936  13.0443  13.0443

          k = 0.0000 0.0000 0.9138 (  6094 PWs)   bands (ev):

   -34.8432 -34.8414   0.5299   3.8432   4.9694   4.9694   5.4402   7.5155
     8.0248   9.1522   9.1522  10.2765  10.9902  10.9902  11.2221

          k = 0.0000 0.0000-1.1422 (  6094 PWs)   bands (ev):

   -34.8336 -34.8319   2.0324   3.5212   5.6835   6.1926   6.7827   6.7827
     7.4879   7.4879   7.8258  10.7281  12.0833  12.0833  12.4526

          k = 0.0000 0.2034 0.0000 (  6049 PWs)   bands (ev):

   -34.9339 -34.9314  -3.1089  -0.8841   1.1727   1.7803   4.5484   5.4650
     6.1085   8.2388   8.6470  13.0158  15.8844  15.9990  16.8869

          k = 0.0000 0.2034 0.2284 (  6073 PWs)   bands (ev):

   -34.9243 -34.9220  -2.8645  -0.6322   1.4267   2.0256   4.7881   5.6826
     6.2650   8.4630   8.8580  13.1628  14.9295  16.0566  16.9411

          k = 0.0000 0.2034 0.4569 (  6070 PWs)   bands (ev):

   -34.8993 -34.8972  -2.1350   0.1200   2.1849   2.7551   5.4968   6.3195
     6.7195   9.0945   9.4772  11.7321  13.7506  14.7559  15.9089

          k = 0.0000 0.2034 0.6853 (  6085 PWs)   bands (ev):

   -34.8683 -34.8665  -0.9335   1.3606   3.4340   3.9452   6.6108   7.2459
     7.4076   8.6496   9.6860  10.4395  12.1987  12.9183  13.5997

          k = 0.0000 0.2034 0.9138 (  6092 PWs)   bands (ev):

   -34.8430 -34.8416   0.7012   3.0642   5.1321   5.5304   5.5846   7.4600
     7.7109   8.5838   8.9354  10.0966  11.1517  11.9861  12.6556

          k = 0.0000 0.2034-1.1422 (  6078 PWs)   bands (ev):

   -34.8334 -34.8321   2.2295   3.6429   4.9563   5.4511   6.9190   7.1049
     7.3920   7.6923   9.4545   9.6845  10.6118  11.9482  12.9007

          k = 0.0000 0.4068 0.0000 (  6051 PWs)   bands (ev):

   -34.9331 -34.9321  -2.6435  -1.8838   1.6960   2.2752   3.8269   4.4739
     7.3022   8.8006  10.5720  11.9784  13.7089  14.1498  16.9599

          k = 0.0000 0.4068 0.2284 (  6045 PWs)   bands (ev):

   -34.9236 -34.9227  -2.3968  -1.6341   1.9485   2.5207   4.0508   4.6833
     7.4907   9.0278  10.7655  12.1427  13.6659  14.2861  16.6582

          k = 0.0000 0.4068 0.4569 (  6074 PWs)   bands (ev):

   -34.8987 -34.8979  -1.6605  -0.8886   2.7013   3.2496   4.7139   5.2995
     8.0262   9.6594  11.1642  12.1806  12.5567  13.8642  14.8789

          k = 0.0000 0.4068 0.6853 (  6067 PWs)   bands (ev):

   -34.8677 -34.8671  -0.4473   0.3403   3.9380   4.4327   5.7775   6.2586
     8.5724   8.9158  10.1563  11.1281  12.4117  13.0185  13.9284

          k = 0.0000 0.4068 0.9138 (  6083 PWs)   bands (ev):

   -34.8426 -34.8421   1.2079   2.0234   5.5666   5.9274   6.0418   6.7758
     7.1447   7.6327   9.9840  10.3466  11.6359  12.6223  13.4265

          k = 0.0000 0.4068-1.1422 (  6074 PWs)   bands (ev):

   -34.8330 -34.8325   2.8148   3.7603   4.0129   4.6231   7.2959   7.5333
     7.6358   8.1730   8.5412   9.2434  11.7900  11.8182  12.3989

          k = 0.2034 0.2034 0.0000 (  6049 PWs)   bands (ev):

   -34.9336 -34.9316  -2.9609  -1.1660   0.8253   2.3061   3.8950   6.2874
     6.6907   7.2619  10.0250  12.1940  14.3589  15.5713  16.4263

          k = 0.2034 0.2034 0.2284 (  6057 PWs)   bands (ev):

   -34.9241 -34.9222  -2.7154  -0.9120   1.0670   2.5537   4.1283   6.4664
     6.9171   7.4623  10.2417  12.4074  14.1172  15.5094  16.4815

          k = 0.2034 0.2034 0.4569 (  6074 PWs)   bands (ev):

   -34.8991 -34.8974  -1.9829  -0.1530   1.7862   3.2897   4.8212   6.9593
     7.6116   8.0339  10.8105  11.8759  12.9646  14.4720  15.4397

          k = 0.2034 0.2034 0.6853 (  6078 PWs)   bands (ev):

   -34.8681 -34.8667  -0.7764   1.1002   2.9618   4.4881   5.9341   7.6298
     8.4934   8.7604   8.9982  10.7945  12.5868  12.7266  13.7263

          k = 0.2034 0.2034 0.9138 (  6085 PWs)   bands (ev):

   -34.8429 -34.8417   0.8669   2.8264   4.5384   5.5943   6.2548   7.2175
     7.7689   7.9001   9.9164  10.1801  11.2470  11.6193  13.3402

          k = 0.2034 0.2034-1.1422 (  6096 PWs)   bands (ev):

   -34.8333 -34.8322   2.4248   3.7541   4.8146   5.1801   6.0459   6.8701
     7.6381   8.3485   9.1109   9.9948  11.6412  11.9881  12.4509

          k = 0.2034 0.4068 0.0000 (  6082 PWs)   bands (ev):

   -34.9330 -34.9322  -2.5274  -1.8614   1.0559   1.7633   4.5549   5.6355
     7.4826   8.4284  10.3523  11.4085  13.1346  14.5827  15.6928

          k = 0.2034 0.4068 0.2284 (  6051 PWs)   bands (ev):

   -34.9235 -34.9228  -2.2792  -1.6092   1.2930   2.0013   4.7848   5.8564
     7.6774   8.6610  10.5229  11.5841  13.3242  14.7406  15.3610

          k = 0.2034 0.4068 0.4569 (  6058 PWs)   bands (ev):

   -34.8986 -34.8979  -1.5382  -0.8563   1.9978   2.7083   5.4646   6.5038
     8.2309   9.3300  10.8401  11.8231  12.8957  13.7853  14.3448

          k = 0.2034 0.4068 0.6853 (  6083 PWs)   bands (ev):

   -34.8677 -34.8671  -0.3171   0.3859   3.1476   3.8583   6.5451   7.4850
     8.7713   9.0247  10.0360  11.0177  11.7939  12.6435  14.0824

          k = 0.2034 0.4068 0.9138 (  6075 PWs)   bands (ev):

   -34.8425 -34.8421   1.3511   2.0911   4.6719   5.2912   6.3476   6.8647
     7.7222   8.2273  10.0429  10.5235  11.5383  12.3362  13.7928

          k = 0.2034 0.4068-1.1422 (  6088 PWs)   bands (ev):

   -34.8329 -34.8325   3.0021   3.9113   4.0871   4.6018   6.1978   7.0807
     7.1109   7.5222   9.9303  10.8589  12.0224  12.2208  13.0621

          k = 0.4068 0.4068 0.0000 (  6070 PWs)   bands (ev):

   -34.9328 -34.9325  -2.2266  -1.9308   0.6041   0.9253   6.1314   7.3993
     7.5774   8.1271   9.5395   9.7769  12.7709  13.3888  16.3677

          k = 0.4068 0.4068 0.2284 (  6069 PWs)   bands (ev):

   -34.9233 -34.9230  -1.9741  -1.6752   0.8311   1.1541   6.3622   7.6188
     7.7985   8.3573   9.7653   9.9567  12.9207  13.5050  15.8737

          k = 0.4068 0.4068 0.4569 (  6054 PWs)   bands (ev):

   -34.8984 -34.8981  -1.2202  -0.9116   1.5057   1.8343   7.0375   8.2461
     8.4185   9.0458  10.3317  10.4112  13.1054  13.5439  13.6440

          k = 0.4068 0.4068 0.6853 (  6063 PWs)   bands (ev):

   -34.8675 -34.8673   0.0236   0.3504   2.6046   2.9431   8.0236   8.8649
     9.0829   9.3271  10.1890  10.7580  11.2250  11.6313  13.0403

          k = 0.4068 0.4068 0.9138 (  6075 PWs)   bands (ev):

   -34.8424 -34.8422   1.7308   2.0919   4.0575   4.3998   6.5971   6.8636
     8.2654   8.3808  10.6788  11.4610  11.7657  12.0762  13.8133

          k = 0.4068 0.4068-1.1422 (  6094 PWs)   bands (ev):

   -34.8328 -34.8326   3.5350   4.0986   4.2793   4.4917   5.2552   5.8184
     6.9674   7.1705  11.7392  12.4702  12.9487  13.4259  13.5229

     the Fermi energy is    10.4718 ev

!    total energy              =     -62.45979675 Ry
     estimated scf accuracy    <          2.8E-09 Ry
     smearing contrib. (-TS)   =       0.00044294 Ry
     internal energy E=F+TS    =     -62.46023969 Ry

     The total energy is F=E-TS. E is the sum of the following terms:
     one-electron contribution =       6.01776734 Ry
     hartree contribution      =       6.48968594 Ry
     xc contribution           =     -19.94058539 Ry
     ewald contribution        =     -55.02710757 Ry

     convergence has been achieved in   7 iterations

     Forces acting on atoms (cartesian axes, Ry/au):

     atom    1 type  1   force =     0.00000000    0.00000000   -0.00000000
     atom    2 type  1   force =     0.00000000    0.00000000    0.00000000
     atom    3 type  2   force =     0.04031957   -0.04031957   -0.02120615
     atom    4 type  2   force =    -0.04031957   -0.04031957    0.02120615
     atom    5 type  2   force =    -0.04031957    0.04031957   -0.02120615
     atom    6 type  2   force =     0.04031957    0.04031957    0.02120615
     The non-local contrib.  to forces
     atom    1 type  1   force =     0.00000000    0.00000000    0.00000000
     atom    2 type  1   force =     0.00000000    0.00000000   -0.00000000
     atom    3 type  2   force =     0.07210040   -0.07210040   -0.02530232
     atom    4 type  2   force =    -0.07210040   -0.07210040    0.02530232
     atom    5 type  2   force =    -0.07210040    0.07210040   -0.02530232
     atom    6 type  2   force =     0.07210040    0.07210040    0.02530232
     The ionic contribution  to forces
     atom    1 type  1   force =     0.00000000   -0.00000000    0.00000000
     atom    2 type  1   force =     0.00000000   -0.00000000    0.00000000
     atom    3 type  2   force =     0.05896851   -0.05896851   -0.01827456
     atom    4 type  2   force =    -0.05896851   -0.05896851    0.01827456
     atom    5 type  2   force =    -0.05896851    0.05896851   -0.01827456
     atom    6 type  2   force =     0.05896851    0.05896851    0.01827456
     The local contribution  to forces
     atom    1 type  1   force =     0.00000000    0.00000000    0.00000000
     atom    2 type  1   force =     0.00000000    0.00000000   -0.00000000
     atom    3 type  2   force =    -0.08488252    0.08488252    0.02102267
     atom    4 type  2   force =     0.08488252    0.08488252   -0.02102267
     atom    5 type  2   force =     0.08488252   -0.08488252    0.02102267
     atom    6 type  2   force =    -0.08488252   -0.08488252   -0.02102267
     The core correction contribution to forces
     atom    1 type  1   force =     0.00000000    0.00000000    0.00000000
     atom    2 type  1   force =     0.00000000    0.00000000    0.00000000
     atom    3 type  2   force =    -0.00585026    0.00585026    0.00134795
     atom    4 type  2   force =     0.00585026    0.00585026   -0.00134795
     atom    5 type  2   force =     0.00585026   -0.00585026    0.00134795
     atom    6 type  2   force =    -0.00585026   -0.00585026   -0.00134795
     The Hubbard contrib.    to forces
     atom    1 type  1   force =     0.00000000    0.00000000    0.00000000
     atom    2 type  1   force =     0.00000000    0.00000000    0.00000000
     atom    3 type  2   force =     0.00000000    0.00000000    0.00000000
     atom    4 type  2   force =     0.00000000    0.00000000    0.00000000
     atom    5 type  2   force =     0.00000000    0.00000000    0.00000000
     atom    6 type  2   force =     0.00000000    0.00000000    0.00000000
     The SCF correction term to forces
     atom    1 type  1   force =     0.00000000    0.00000000    0.00000000
     atom    2 type  1   force =    -0.00000000    0.00000000   -0.00000000
     atom    3 type  2   force =    -0.00001656    0.00001656    0.00000012
     atom    4 type  2   force =     0.00001656    0.00001656   -0.00000012
     atom    5 type  2   force =     0.00001656   -0.00001656    0.00000012
     atom    6 type  2   force =    -0.00001656   -0.00001656   -0.00000012

     Total force =     0.121672     Total SCF correction =     0.000047


     Computing stress (Cartesian axis) and pressure

          total   stress  (Ry/bohr**3)                   (kbar)     P=      339.63
   0.00225219   0.00000000   0.00000000          331.31        0.00        0.00
   0.00000000   0.00225219   0.00000000            0.00      331.31        0.00
   0.00000000   0.00000000   0.00242196            0.00        0.00      356.28

     Energy error            =      2.4E-01 Ry
     Gradient error          =      4.0E-02 Ry/Bohr
     Cell gradient error     =      1.7E+02 kbar

     number of scf cycles    =   2
     number of bfgs steps    =   1

     enthalpy           old  =     -60.6909401104 Ry
     enthalpy           new  =     -60.9278834319 Ry

     CASE: enthalpy          _new < enthalpy          _old

     new trust radius        =       0.1859842924 bohr
ibrav =      6
 celldm(1) =      9.64818227
 celldm(3) =      0.44305133
Input lattice vectors:
     0.94474992     0.00000000     0.00000000
     0.00000000     0.94474992     0.00000000
     0.00000000     0.00000000     0.41857271
New lattice vectors in INITIAL alat:
     0.94474992     0.00000000     0.00000000
     0.00000000     0.94474992     0.00000000
     0.00000000     0.00000000     0.41857271
New lattice vectors in NEW alat (for information only):
     1.00000000     0.00000000     0.00000000
     0.00000000     1.00000000     0.00000000
     0.00000000     0.00000000     0.44305133
Discrepancy in bohr =     0.000000    0.000000    0.000000
     new conv_thr            =       0.0000000040 Ry

     new unit-cell volume =    397.91522 a.u.^3 (    58.96495 Ang^3 )
     density =      3.55465 g/cm^3

CELL_PARAMETERS (alat= 10.21241928)
   0.944749917   0.000000000   0.000000000
   0.000000000   0.944749917   0.000000000
   0.000000000   0.000000000   0.418572711

ATOMIC_POSITIONS (crystal)
Li            0.0000000000        0.0000000000        0.5000000000
Li            0.5000000000        0.5000000000        0.5000000000
Si            0.1548984856        0.3451015144        0.0319705050
Si            0.3451015144        0.8451015144        0.9680294950
Si            0.8451015144        0.6548984856        0.0319705050
Si            0.6548984856        0.1548984856        0.9680294950



     Writing config-only to output data dir ./output/LiSi.save/
     NEW-OLD atomic charge density approx. for the potential
     extrapolated charge   19.08292, renormalised to   22.00000

     total cpu time spent up to now is       21.3 secs

     Self-consistent Calculation

     iteration #  1     ecut=    80.00 Ry     beta= 0.70
     Davidson diagonalization with overlap
     c_bands:  1 eigenvalues not converged
     ethr =  1.00E-06,  avg # of iterations = 12.2

     total cpu time spent up to now is       23.5 secs

     total energy              =     -62.27493765 Ry
     estimated scf accuracy    <       0.01646628 Ry

     iteration #  2     ecut=    80.00 Ry     beta= 0.70
     Davidson diagonalization with overlap
     ethr =  7.48E-05,  avg # of iterations =  3.2

     total cpu time spent up to now is       24.4 secs

     total energy              =     -62.31583995 Ry
     estimated scf accuracy    <       0.02818313 Ry

     iteration #  3     ecut=    80.00 Ry     beta= 0.70
     Davidson diagonalization with overlap
     ethr =  7.48E-05,  avg # of iterations =  1.6

     total cpu time spent up to now is       25.1 secs

     total energy              =     -62.31452760 Ry
     estimated scf accuracy    <       0.00633076 Ry

     iteration #  4     ecut=    80.00 Ry     beta= 0.70
     Davidson diagonalization with overlap
     ethr =  2.88E-05,  avg # of iterations =  2.0

     total cpu time spent up to now is       25.8 secs

     total energy              =     -62.31474292 Ry
     estimated scf accuracy    <       0.00074054 Ry

     iteration #  5     ecut=    80.00 Ry     beta= 0.70
     Davidson diagonalization with overlap
     ethr =  3.37E-06,  avg # of iterations =  3.0

     total cpu time spent up to now is       26.5 secs

     total energy              =     -62.31490448 Ry
     estimated scf accuracy    <       0.00000544 Ry

     iteration #  6     ecut=    80.00 Ry     beta= 0.70
     Davidson diagonalization with overlap
     ethr =  2.47E-08,  avg # of iterations =  4.7

     total cpu time spent up to now is       27.5 secs

     total energy              =     -62.31491108 Ry
     estimated scf accuracy    <       0.00000037 Ry

     iteration #  7     ecut=    80.00 Ry     beta= 0.70
     Davidson diagonalization with overlap
     ethr =  1.69E-09,  avg # of iterations =  2.3

     total cpu time spent up to now is       28.3 secs

     total energy              =     -62.31491119 Ry
     estimated scf accuracy    <       0.00000002 Ry

     iteration #  8     ecut=    80.00 Ry     beta= 0.70
     Davidson diagonalization with overlap
     ethr =  1.11E-10,  avg # of iterations =  2.9

     total cpu time spent up to now is       29.0 secs

     End of self-consistent calculation

          k = 0.0000 0.0000 0.0000 (  6053 PWs)   bands (ev):

   -33.4513 -33.4453  -2.3980   1.3907   1.9273   1.9273   6.8611   7.3724
     7.3724   7.4477   9.7616  17.1892  17.8559  17.8559  19.4315

          k = 0.0000 0.0000 0.2389 (  6041 PWs)   bands (ev):

   -33.4366 -33.4309  -2.1353   1.6633   2.2042   2.2042   7.0007   7.6373
     7.6373   7.6993   9.9380  17.1211  17.4305  17.9317  17.9317

          k = 0.0000 0.0000 0.4778 (  6074 PWs)   bands (ev):

   -33.3981 -33.3932  -1.3514   2.4765   3.0296   3.0296   7.4024   8.4240
     8.4240   8.4308  10.4091  13.6431  17.4611  17.4611  18.1521

          k = 0.0000 0.0000 0.7167 (  6110 PWs)   bands (ev):

   -33.3502 -33.3462  -0.0602   3.8150   4.3854   4.3854   8.0001   9.4519
     9.6812   9.6812   9.8203  11.6670  15.0284  15.0284  15.1295

          k = 0.0000 0.0000 0.9556 (  6094 PWs)   bands (ev):

   -33.3112 -33.3080   1.7020   5.6438   6.2221   6.2221   6.8442   8.6210
     9.8427  10.7150  10.7150  12.3853  12.8136  12.8136  13.3591

          k = 0.0000 0.0000-1.1945 (  6094 PWs)   bands (ev):

   -33.2963 -33.2934   3.4179   4.6964   7.8470   7.8827   7.9636   7.9636
     8.9139   9.2690   9.2690  12.8495  14.1460  14.1460  14.6735

          k = 0.0000 0.2117 0.0000 (  6049 PWs)   bands (ev):

   -33.4507 -33.4459  -2.2296   0.2470   2.1372   3.0931   5.5913   6.7547
     7.2722   9.6649  10.4178  14.8815  17.9160  17.9404  19.0729

          k = 0.0000 0.2117 0.2389 (  6073 PWs)   bands (ev):

   -33.4360 -33.4315  -1.9658   0.5214   2.4135   3.3578   5.8544   6.9918
     7.4291   9.9082  10.6421  15.0051  16.9800  17.9583  19.1879

          k = 0.0000 0.2117 0.4778 (  6070 PWs)   bands (ev):

   -33.3976 -33.3936  -1.1787   1.3400   3.2372   4.1426   6.6331   7.6841
     7.8835  10.5957  11.2911  13.5777  15.6909  16.9324  18.4227

          k = 0.0000 0.2117 0.7167 (  6085 PWs)   bands (ev):

   -33.3498 -33.3466   0.1177   2.6884   4.5891   5.4142   7.8582   8.5738
     8.6645  10.3419  11.3361  12.3797  14.3188  14.8369  16.0375

          k = 0.0000 0.2117 0.9556 (  6092 PWs)   bands (ev):

   -33.3109 -33.3083   1.8881   4.5358   6.4102   6.9720   7.0895   8.7920
     9.2627  10.2117  10.4734  12.0510  13.3499  13.8913  14.6593

          k = 0.0000 0.2117-1.1945 (  6078 PWs)   bands (ev):

   -33.2960 -33.2937   3.6361   4.8261   6.7824   6.8155   8.1446   8.6169
     8.8883   9.4630  11.0834  11.6782  12.8882  13.2644  14.4425

          k = 0.0000 0.4234 0.0000 (  6051 PWs)   bands (ev):

   -33.4492 -33.4473  -1.7252  -0.8904   2.7514   3.5946   4.8952   5.7580
     8.5398  10.2599  12.2557  14.0468  15.4034  16.1774  18.7853

          k = 0.0000 0.4234 0.2389 (  6045 PWs)   bands (ev):

   -33.4346 -33.4329  -1.4583  -0.6194   3.0260   3.8624   5.1342   5.9811
     8.7392  10.5081  12.4644  14.2028  15.3879  16.3153  18.5662

          k = 0.0000 0.4234 0.4778 (  6074 PWs)   bands (ev):

   -33.3964 -33.3948  -0.6623   0.1887   3.8436   4.6547   5.8414   6.6356
     9.3054  11.2028  12.9070  13.9642  14.6554  15.9164  17.0918

          k = 0.0000 0.4234 0.7167 (  6067 PWs)   bands (ev):

   -33.3488 -33.3476   0.6485   1.5194   5.1814   5.9289   6.9739   7.6372
     9.9339  10.6315  11.9918  12.8148  14.4110  14.9812  16.3124

          k = 0.0000 0.4234 0.9556 (  6083 PWs)   bands (ev):

   -33.3101 -33.3091   2.4411   3.3419   6.9332   7.3613   7.5207   8.1680
     8.7099   9.2737  11.6047  12.2597  13.8397  14.5608  15.0606

          k = 0.0000 0.4234-1.1945 (  6074 PWs)   bands (ev):

   -33.2953 -33.2944   4.2869   5.2165   5.3595   5.8876   8.5910   9.0678
     9.1538   9.7911  10.6020  11.2144  13.2473  13.8156  14.0423

          k = 0.2117 0.2117 0.0000 (  6049 PWs)   bands (ev):

   -33.4502 -33.4463  -2.0694  -0.0643   1.7775   3.7011   4.8949   7.5237
     7.8562   8.9019  11.7358  13.9719  16.3143  17.4623  18.2336

          k = 0.2117 0.2117 0.2389 (  6057 PWs)   bands (ev):

   -33.4356 -33.4319  -1.8042   0.2134   2.0381   3.9672   5.1515   7.7003
     8.1097   9.1137  11.9760  14.1965  15.9774  17.4682  18.7501

          k = 0.2117 0.2117 0.4778 (  6074 PWs)   bands (ev):

   -33.3972 -33.3940  -1.0132   1.0426   2.8122   4.7548   5.9152   8.1863
     8.8821   9.7091  12.6369  13.6850  14.7633  16.6332  17.8085

          k = 0.2117 0.2117 0.7167 (  6078 PWs)   bands (ev):

   -33.3495 -33.3469   0.2895   2.4106   4.0722   6.0211   7.1514   8.8458
    10.0578  10.1443  10.8565  12.8733  14.3936  14.7033  16.1834

          k = 0.2117 0.2117 0.9556 (  6085 PWs)   bands (ev):

   -33.3106 -33.3086   2.0693   4.2924   5.7488   6.9881   7.8909   8.7578
     9.1036   9.4988  11.4577  12.1080  13.0761  14.0387  15.1027

          k = 0.2117 0.2117-1.1945 (  6096 PWs)   bands (ev):

   -33.2958 -33.2939   3.8536   4.9448   6.5012   6.7822   7.3551   8.0877
     9.1236  10.0133  11.3820  11.5934  13.0819  14.3135  14.5359

          k = 0.2117 0.4234 0.0000 (  6082 PWs)   bands (ev):

   -33.4490 -33.4475  -1.5969  -0.8576   2.0680   2.9017   5.8455   6.9997
     8.7095   9.9031  12.0582  13.4325  14.7253  16.2762  17.5575

          k = 0.2117 0.4234 0.2389 (  6051 PWs)   bands (ev):

   -33.4344 -33.4330  -1.3279  -0.5832   2.3231   3.1571   6.0951   7.2382
     8.9170  10.1571  12.2309  13.6039  14.9390  16.4791  17.1685

          k = 0.2117 0.4234 0.4778 (  6058 PWs)   bands (ev):

   -33.3962 -33.3950  -0.5257   0.2355   3.0807   3.9146   6.8322   7.9352
     9.5070  10.8908  12.5312  13.7157  14.9096  15.9432  16.1067

          k = 0.2117 0.4234 0.7167 (  6083 PWs)   bands (ev):

   -33.3487 -33.3477   0.7951   1.5843   4.3125   5.1402   7.9959   8.9687
    10.1556  10.7579  11.7309  12.8262  13.6689  14.6281  16.3427

          k = 0.2117 0.4234 0.9556 (  6075 PWs)   bands (ev):

   -33.3100 -33.3092   2.6021   3.4340   5.9320   6.6186   7.9326   8.4971
     9.2077   9.7646  11.7839  12.3056  13.5174  14.2595  15.6621

          k = 0.2117 0.4234-1.1945 (  6088 PWs)   bands (ev):

   -33.2952 -33.2945   4.5011   5.2974   5.5596   5.8693   7.7307   8.3827
     8.7240   8.9131  12.0141  12.8986  13.7273  14.1411  14.7002

          k = 0.4234 0.4234 0.0000 (  6070 PWs)   bands (ev):

   -33.4485 -33.4479  -1.2602  -0.9246   1.5730   1.9453   7.6504   8.9439
     9.0807   9.3027  11.1033  11.6782  14.1885  14.8616  18.3955

          k = 0.4234 0.4234 0.2389 (  6069 PWs)   bands (ev):

   -33.4340 -33.4334  -0.9854  -0.6452   1.8146   2.1894   7.9023   9.1883
     9.3179   9.5506  11.3409  11.8628  14.3311  14.9591  17.9195

          k = 0.4234 0.4234 0.4778 (  6054 PWs)   bands (ev):

   -33.3958 -33.3953  -0.1654   0.1893   2.5312   2.9144   8.6375   9.8685
     9.9920  10.2971  12.0030  12.1935  14.6052  15.0486  15.7181

          k = 0.4234 0.4234 0.7167 (  6063 PWs)   bands (ev):

   -33.3484 -33.3480   1.1858   1.5675   3.6957   4.0939   9.7008  10.5511
    10.6541  11.0400  11.5601  12.7483  12.8787  13.7111  14.7703

          k = 0.4234 0.4234 0.9556 (  6075 PWs)   bands (ev):

   -33.3097 -33.3094   3.0387   3.4678   5.2316   5.6338   8.2625   8.6161
     9.6092   9.8613  12.6688  13.3088  13.6906  13.7756  15.8157

          k = 0.4234 0.4234-1.1945 (  6094 PWs)   bands (ev):

   -33.2949 -33.2947   5.1320   5.5084   5.7319   5.9875   6.5059   7.3271
     8.2349   8.4809  14.1569  14.7279  14.9163  15.2474  15.6176

     the Fermi energy is    12.2801 ev

!    total energy              =     -62.31491120 Ry
     estimated scf accuracy    <          3.3E-10 Ry
     smearing contrib. (-TS)   =      -0.00008520 Ry
     internal energy E=F+TS    =     -62.31482600 Ry

     The total energy is F=E-TS. E is the sum of the following terms:
     one-electron contribution =       9.00082904 Ry
     hartree contribution      =       6.37880468 Ry
     xc contribution           =     -20.34597847 Ry
     ewald contribution        =     -57.34848125 Ry

     convergence has been achieved in   8 iterations

     Forces acting on atoms (cartesian axes, Ry/au):

     atom    1 type  1   force =     0.00000000    0.00000000    0.00000000
     atom    2 type  1   force =     0.00000000    0.00000000    0.00000000
     atom    3 type  2   force =     0.02381004   -0.02381004   -0.02153125
     atom    4 type  2   force =    -0.02381004   -0.02381004    0.02153125
     atom    5 type  2   force =    -0.02381004    0.02381004   -0.02153125
     atom    6 type  2   force =     0.02381004    0.02381004    0.02153125
     The non-local contrib.  to forces
     atom    1 type  1   force =     0.00000000    0.00000000    0.00000000
     atom    2 type  1   force =     0.00000000    0.00000000    0.00000000
     atom    3 type  2   force =     0.04936839   -0.04936839   -0.02157058
     atom    4 type  2   force =    -0.04936839   -0.04936839    0.02157058
     atom    5 type  2   force =    -0.04936839    0.04936839   -0.02157058
     atom    6 type  2   force =     0.04936839    0.04936839    0.02157058
     The ionic contribution  to forces
     atom    1 type  1   force =     0.00000000   -0.00000000    0.00000000
     atom    2 type  1   force =    -0.00000000   -0.00000000   -0.00000000
     atom    3 type  2   force =    -0.07695503    0.07695503   -0.01691866
     atom    4 type  2   force =     0.07695503    0.07695503    0.01691866
     atom    5 type  2   force =     0.07695503   -0.07695503   -0.01691866
     atom    6 type  2   force =    -0.07695503   -0.07695503    0.01691866
     The local contribution  to forces
     atom    1 type  1   force =     0.00000000    0.00000000    0.00000000
     atom    2 type  1   force =     0.00000000    0.00000000    0.00000000
     atom    3 type  2   force =     0.05549903   -0.05549903    0.01591814
     atom    4 type  2   force =    -0.05549903   -0.05549903   -0.01591814
     atom    5 type  2   force =    -0.05549903    0.05549903    0.01591814
     atom    6 type  2   force =     0.05549903    0.05549903   -0.01591814
     The core correction contribution to forces
     atom    1 type  1   force =     0.00000000    0.00000000    0.00000000
     atom    2 type  1   force =     0.00000000    0.00000000    0.00000000
     atom    3 type  2   force =    -0.00409720    0.00409720    0.00103986
     atom    4 type  2   force =     0.00409720    0.00409720   -0.00103986
     atom    5 type  2   force =     0.00409720   -0.00409720    0.00103986
     atom    6 type  2   force =    -0.00409720   -0.00409720   -0.00103986
     The Hubbard contrib.    to forces
     atom    1 type  1   force =     0.00000000    0.00000000    0.00000000
     atom    2 type  1   force =     0.00000000    0.00000000    0.00000000
     atom    3 type  2   force =     0.00000000    0.00000000    0.00000000
     atom    4 type  2   force =     0.00000000    0.00000000    0.00000000
     atom    5 type  2   force =     0.00000000    0.00000000    0.00000000
     atom    6 type  2   force =     0.00000000    0.00000000    0.00000000
     The SCF correction term to forces
     atom    1 type  1   force =    -0.00000000   -0.00000000    0.00000000
     atom    2 type  1   force =     0.00000000   -0.00000000    0.00000000
     atom    3 type  2   force =    -0.00000515    0.00000515   -0.00000000
     atom    4 type  2   force =     0.00000515    0.00000515    0.00000000
     atom    5 type  2   force =     0.00000515   -0.00000515   -0.00000000
     atom    6 type  2   force =    -0.00000515   -0.00000515    0.00000000

     Total force =     0.079936     Total SCF correction =     0.000015


     Computing stress (Cartesian axis) and pressure

          total   stress  (Ry/bohr**3)                   (kbar)     P=      605.68
   0.00375583   0.00000000   0.00000000          552.50        0.00        0.00
   0.00000000   0.00375583   0.00000000            0.00      552.50        0.00
   0.00000000   0.00000000   0.00484039            0.00        0.00      712.05

     Energy error            =      3.5E-02 Ry
     Gradient error          =      2.4E-02 Ry/Bohr
     Cell gradient error     =      2.1E+02 kbar

     number of scf cycles    =   3
     number of bfgs steps    =   2

     enthalpy           old  =     -60.9278834319 Ry
     enthalpy           new  =     -60.9624248641 Ry

     CASE: enthalpy          _new < enthalpy          _old

     new trust radius        =       0.0973637167 bohr
ibrav =      6
 celldm(1) =      9.65658221
 celldm(3) =      0.45346903
Input lattice vectors:
     0.94557244     0.00000000     0.00000000
     0.00000000     0.94557244     0.00000000
     0.00000000     0.00000000     0.42878782
New lattice vectors in INITIAL alat:
     0.94557244     0.00000000     0.00000000
     0.00000000     0.94557244     0.00000000
     0.00000000     0.00000000     0.42878782
New lattice vectors in NEW alat (for information only):
     1.00000000     0.00000000     0.00000000
     0.00000000     1.00000000     0.00000000
     0.00000000     0.00000000     0.45346903
Discrepancy in bohr =     0.000000    0.000000    0.000000
     new conv_thr            =       0.0000000024 Ry

     new unit-cell volume =    408.33627 a.u.^3 (    60.50919 Ang^3 )
     density =      3.46393 g/cm^3

CELL_PARAMETERS (alat= 10.21241928)
   0.945572439   0.000000000   0.000000000
   0.000000000   0.945572439   0.000000000
   0.000000000   0.000000000   0.428787815

ATOMIC_POSITIONS (crystal)
Li            0.0000000000        0.0000000000        0.5000000000
Li            0.5000000000        0.5000000000        0.5000000000
Si            0.1572179433        0.3427820567        0.0280329706
Si            0.3427820567        0.8427820567        0.9719670294
Si            0.8427820567        0.6572179433        0.0280329706
Si            0.6572179433        0.1572179433        0.9719670294



     Writing config-only to output data dir ./output/LiSi.save/
     NEW-OLD atomic charge density approx. for the potential
     extrapolated charge   22.56116, renormalised to   22.00000

     total cpu time spent up to now is       31.9 secs

     Self-consistent Calculation

     iteration #  1     ecut=    80.00 Ry     beta= 0.70
     Davidson diagonalization with overlap
     ethr =  1.00E-06,  avg # of iterations =  8.8

     total cpu time spent up to now is       33.6 secs

     total energy              =     -62.36355415 Ry
     estimated scf accuracy    <       0.00062390 Ry

     iteration #  2     ecut=    80.00 Ry     beta= 0.70
     Davidson diagonalization with overlap
     ethr =  2.84E-06,  avg # of iterations =  2.7

     total cpu time spent up to now is       34.5 secs

     total energy              =     -62.36474167 Ry
     estimated scf accuracy    <       0.00050448 Ry

     iteration #  3     ecut=    80.00 Ry     beta= 0.70
     Davidson diagonalization with overlap
     ethr =  2.29E-06,  avg # of iterations =  1.1

     total cpu time spent up to now is       35.1 secs

     total energy              =     -62.36473935 Ry
     estimated scf accuracy    <       0.00008590 Ry

     iteration #  4     ecut=    80.00 Ry     beta= 0.70
     Davidson diagonalization with overlap
     ethr =  3.90E-07,  avg # of iterations =  1.7

     total cpu time spent up to now is       35.8 secs

     total energy              =     -62.36473526 Ry
     estimated scf accuracy    <       0.00001701 Ry

     iteration #  5     ecut=    80.00 Ry     beta= 0.70
     Davidson diagonalization with overlap
     ethr =  7.73E-08,  avg # of iterations =  2.4

     total cpu time spent up to now is       36.5 secs

     total energy              =     -62.36473940 Ry
     estimated scf accuracy    <       0.00000007 Ry

     iteration #  6     ecut=    80.00 Ry     beta= 0.70
     Davidson diagonalization with overlap
     ethr =  2.99E-10,  avg # of iterations =  4.9

     total cpu time spent up to now is       37.5 secs

     total energy              =     -62.36473952 Ry
     estimated scf accuracy    <          9.9E-09 Ry

     iteration #  7     ecut=    80.00 Ry     beta= 0.70
     Davidson diagonalization with overlap
     ethr =  4.52E-11,  avg # of iterations =  2.1

     total cpu time spent up to now is       38.3 secs

     End of self-consistent calculation

          k = 0.0000 0.0000 0.0000 (  6053 PWs)   bands (ev):

   -33.7750 -33.7693  -2.5073   1.4068   1.7836   1.7836   6.5378   7.2285
     7.2285   7.2765   9.6787  17.0512  17.6774  17.6774  18.9373

          k = 0.0000 0.0000 0.2332 (  6041 PWs)   bands (ev):

   -33.7629 -33.7575  -2.2581   1.6664   2.0481   2.0481   6.6658   7.4807
     7.4807   7.5161   9.8394  16.3797  17.2811  17.7087  17.7087

          k = 0.0000 0.0000 0.4664 (  6074 PWs)   bands (ev):

   -33.7311 -33.7264  -1.5150   2.4409   2.8371   2.8371   7.0329   8.2118
     8.2290   8.2290  10.2492  12.9469  16.9481  16.9481  17.9674

          k = 0.0000 0.0000 0.6996 (  6110 PWs)   bands (ev):

   -33.6916 -33.6878  -0.2928   3.7158   4.1358   4.1358   7.5741   9.1208
     9.3322   9.4193   9.4193  11.3890  14.3452  14.3452  14.5910

          k = 0.0000 0.0000 0.9329 (  6094 PWs)   bands (ev):

   -33.6595 -33.6564   1.3633   5.4565   5.9063   5.9063   6.3976   8.1272
     9.4991  10.2666  10.2666  12.0587  12.2879  12.2879  12.9410

          k = 0.0000 0.0000-1.1661 (  6094 PWs)   bands (ev):

   -33.6472 -33.6444   2.8663   4.4745   7.3704   7.6863   7.6863   7.8008
     8.3831   8.6544   8.6544  12.4593  13.5493  13.5493  14.3394

          k = 0.0000 0.2115 0.0000 (  6049 PWs)   bands (ev):

   -33.7744 -33.7698  -2.3359   0.1835   1.9939   3.0132   5.4319   6.6065
     6.9743   9.5065  10.3453  14.7075  17.6732  17.7364  18.9978

          k = 0.0000 0.2115 0.2332 (  6073 PWs)   bands (ev):

   -33.7623 -33.7580  -2.0857   0.4448   2.2579   3.2651   5.6819   6.8308
     7.1200   9.7371  10.5552  14.7784  16.4211  17.7209  19.0276

          k = 0.0000 0.2115 0.4664 (  6070 PWs)   bands (ev):

   -33.7306 -33.7268  -1.3393   1.2245   3.0454   4.0122   6.4208   7.4839
     7.5416  10.3839  11.1544  12.9085  15.3987  16.2957  17.9585

          k = 0.0000 0.2115 0.6996 (  6085 PWs)   bands (ev):

   -33.6912 -33.6882  -0.1117   2.5090   4.3407   5.2217   7.5731   8.1873
     8.3659   9.7906  11.0028  12.1585  13.7475  14.2360  15.4759

          k = 0.0000 0.2115 0.9329 (  6092 PWs)   bands (ev):

   -33.6592 -33.6567   1.5533   4.2679   6.0969   6.5413   6.7931   8.3509
     8.8984   9.8193  10.0285  11.4983  12.8016  13.5350  14.2706

          k = 0.0000 0.2115-1.1661 (  6078 PWs)   bands (ev):

   -33.6469 -33.6446   3.0847   4.6065   6.2490   6.6235   7.8638   8.1065
     8.6857   8.8718  10.5210  11.1921  12.2502  12.9601  14.1463

          k = 0.0000 0.4230 0.0000 (  6051 PWs)   bands (ev):

   -33.7730 -33.7712  -1.8228  -0.9741   2.6107   3.4740   4.7491   5.6084
     8.3134  10.1293  12.1006  13.9354  15.1785  16.0570  18.6082

          k = 0.0000 0.4230 0.2332 (  6045 PWs)   bands (ev):

   -33.7610 -33.7593  -1.5696  -0.7167   2.8732   3.7304   4.9732   5.8183
     8.5004  10.3624  12.2929  14.0686  15.0994  16.1661  18.0510

          k = 0.0000 0.4230 0.4664 (  6074 PWs)   bands (ev):

   -33.7294 -33.7280  -0.8142   0.0513   3.6555   4.4902   5.6347   6.4321
     9.0268  10.9937  12.6452  13.4073  14.4363  15.3857  16.7189

          k = 0.0000 0.4230 0.6996 (  6067 PWs)   bands (ev):

   -33.6903 -33.6891   0.4284   1.3152   4.9388   5.7159   6.6856   7.3575
     9.5506  10.0788  11.5168  12.5304  14.0042  14.5782  15.8402

          k = 0.0000 0.4230 0.9329 (  6083 PWs)   bands (ev):

   -33.6584 -33.6575   2.1185   3.0404   6.6266   6.9711   7.1740   7.7738
     8.2780   8.8765  11.1870  11.6926  13.2811  14.2079  14.6142

          k = 0.0000 0.4230-1.1661 (  6074 PWs)   bands (ev):

   -33.6462 -33.6454   3.7365   4.8078   5.0072   5.6835   8.3242   8.6547
     8.8360   9.2445  10.0345  10.6007  12.9814  13.3139  13.6953

          k = 0.2115 0.2115 0.0000 (  6049 PWs)   bands (ev):

   -33.7740 -33.7703  -2.1720  -0.1191   1.6092   3.6027   4.7569   7.2615
     7.6883   8.7826  11.6319  13.8286  16.0913  17.2708  17.9911

          k = 0.2115 0.2115 0.2332 (  6057 PWs)   bands (ev):

   -33.7619 -33.7584  -1.9205   0.1457   1.8569   3.8568   5.0004   7.4198
     7.9353   8.9806  11.8585  14.0373  15.5620  17.2599  18.2062

          k = 0.2115 0.2115 0.4664 (  6074 PWs)   bands (ev):

   -33.7303 -33.7272  -1.1702   0.9367   2.5925   4.6094   5.7245   7.8622
     8.6768   9.5299  12.4577  13.0409  14.5279  16.0204  17.4739

          k = 0.2115 0.2115 0.6996 (  6078 PWs)   bands (ev):

   -33.6909 -33.6884   0.0638   2.2426   3.7889   5.8213   6.8905   8.4615
     9.5870   9.8740  10.4558  12.4474  13.8321  14.3059  15.6478

          k = 0.2115 0.2115 0.9329 (  6085 PWs)   bands (ev):

   -33.6590 -33.6569   1.7391   4.0414   5.3741   6.5761   7.6104   8.3528
     8.6742   9.0773  11.0109  11.6669  12.5724  13.5622  14.6299

          k = 0.2115 0.2115-1.1661 (  6096 PWs)   bands (ev):

   -33.6467 -33.6449   3.3025   4.7281   6.2247   6.3455   6.7992   7.7935
     8.9146   9.4891  10.8099  11.0174  12.8004  13.7984  13.9406

          k = 0.2115 0.4230 0.0000 (  6082 PWs)   bands (ev):

   -33.7728 -33.7714  -1.6885  -0.9306   1.8997   2.7463   5.7383   6.8667
     8.4872   9.7873  11.8866  13.3408  14.5413  16.0697  17.2815

          k = 0.2115 0.4230 0.2332 (  6051 PWs)   bands (ev):

   -33.7608 -33.7595  -1.4332  -0.6696   2.1424   2.9896   5.9743   7.0920
     8.6818  10.0273  12.0396  13.4842  14.7355  16.2516  16.7645

          k = 0.2115 0.4230 0.4664 (  6058 PWs)   bands (ev):

   -33.7293 -33.7281  -0.6716   0.1092   2.8629   3.7112   6.6697   7.7487
     9.2309  10.7116  12.2243  13.3521  14.5494  15.3600  15.7564

          k = 0.2115 0.4230 0.6996 (  6083 PWs)   bands (ev):

   -33.6902 -33.6892   0.5812   1.3920   4.0339   4.8789   7.7601   8.7048
     9.7685  10.2129  11.3342  12.4808  13.2131  14.1670  15.8439

          k = 0.2115 0.4230 0.9329 (  6075 PWs)   bands (ev):

   -33.6583 -33.6576   2.2868   3.1474   5.5682   6.2695   7.4905   8.0408
     8.8427   9.4025  11.3640  11.8081  13.0193  13.9247  15.2231

          k = 0.2115 0.4230-1.1661 (  6088 PWs)   bands (ev):

   -33.6461 -33.6454   3.9514   5.0123   5.0909   5.6700   7.1868   8.0994
     8.1967   8.6467  11.4448  12.3478  13.4709  13.5799  14.4232

          k = 0.4230 0.4230 0.0000 (  6070 PWs)   bands (ev):

   -33.7723 -33.7718  -1.3340  -0.9826   1.3760   1.7611   7.5733   8.7850
     9.0152   9.1040  10.9677  11.5844  13.9043  14.5608  18.1701

          k = 0.4230 0.4230 0.2332 (  6069 PWs)   bands (ev):

   -33.7604 -33.7599  -1.0726  -0.7163   1.6047   1.9929   7.8119   9.0143
     9.2375   9.3405  11.1905  11.7461  14.0266  14.6353  17.5355

          k = 0.4230 0.4230 0.4664 (  6054 PWs)   bands (ev):

   -33.7289 -33.7285  -0.2928   0.0796   2.2830   2.6813   8.5051   9.6441
     9.8603  10.0551  11.7995  11.9503  14.2228  14.6367  15.1348

          k = 0.4230 0.4230 0.6996 (  6063 PWs)   bands (ev):

   -33.6899 -33.6895   0.9917   1.3947   3.3830   3.8000   9.4739  10.2107
    10.3295  10.5201  11.2640  12.3887  12.4000  13.2674  14.3566

          k = 0.4230 0.4230 0.9329 (  6075 PWs)   bands (ev):

   -33.6581 -33.6578   2.7488   3.2105   4.8197   5.2525   7.7943   8.1447
     9.1898   9.4702  12.3149  12.9090  13.3496  13.3803  15.4529

          k = 0.4230 0.4230-1.1661 (  6094 PWs)   bands (ev):

   -33.6459 -33.6456   4.5870   5.3105   5.4193   5.5701   5.9438   6.7775
     7.9401   8.1972  13.6390  14.1492  14.5234  14.9453  15.0181

     the Fermi energy is    11.9786 ev

!    total energy              =     -62.36473952 Ry
     estimated scf accuracy    <          3.8E-10 Ry
     smearing contrib. (-TS)   =      -0.00004595 Ry
     internal energy E=F+TS    =     -62.36469357 Ry

     The total energy is F=E-TS. E is the sum of the following terms:
     one-electron contribution =       8.33493549 Ry
     hartree contribution      =       6.42174966 Ry
     xc contribution           =     -20.24097990 Ry
     ewald contribution        =     -56.88039881 Ry

     convergence has been achieved in   7 iterations

     Forces acting on atoms (cartesian axes, Ry/au):

     atom    1 type  1   force =     0.00000000    0.00000000    0.00000000
     atom    2 type  1   force =     0.00000000    0.00000000    0.00000000
     atom    3 type  2   force =     0.01515005   -0.01515005   -0.01953031
     atom    4 type  2   force =    -0.01515005   -0.01515005    0.01953031
     atom    5 type  2   force =    -0.01515005    0.01515005   -0.01953031
     atom    6 type  2   force =     0.01515005    0.01515005    0.01953031
     The non-local contrib.  to forces
     atom    1 type  1   force =     0.00000000    0.00000000   -0.00000000
     atom    2 type  1   force =     0.00000000    0.00000000   -0.00000000
     atom    3 type  2   force =     0.03879010   -0.03879010   -0.02041227
     atom    4 type  2   force =    -0.03879010   -0.03879010    0.02041227
     atom    5 type  2   force =    -0.03879010    0.03879010   -0.02041227
     atom    6 type  2   force =     0.03879010    0.03879010    0.02041227
     The ionic contribution  to forces
     atom    1 type  1   force =     0.00000000   -0.00000000    0.00000000
     atom    2 type  1   force =    -0.00000000   -0.00000000   -0.00000000
     atom    3 type  2   force =    -0.10395296    0.10395296   -0.01543987
     atom    4 type  2   force =     0.10395296    0.10395296    0.01543987
     atom    5 type  2   force =     0.10395296   -0.10395296   -0.01543987
     atom    6 type  2   force =    -0.10395296   -0.10395296    0.01543987
     The local contribution  to forces
     atom    1 type  1   force =     0.00000000    0.00000000    0.00000000
     atom    2 type  1   force =     0.00000000    0.00000000    0.00000000
     atom    3 type  2   force =     0.08361854   -0.08361854    0.01530875
     atom    4 type  2   force =    -0.08361854   -0.08361854   -0.01530875
     atom    5 type  2   force =    -0.08361854    0.08361854    0.01530875
     atom    6 type  2   force =     0.08361854    0.08361854   -0.01530875
     The core correction contribution to forces
     atom    1 type  1   force =     0.00000000    0.00000000    0.00000000
     atom    2 type  1   force =     0.00000000    0.00000000    0.00000000
     atom    3 type  2   force =    -0.00330230    0.00330230    0.00101302
     atom    4 type  2   force =     0.00330230    0.00330230   -0.00101302
     atom    5 type  2   force =     0.00330230   -0.00330230    0.00101302
     atom    6 type  2   force =    -0.00330230   -0.00330230   -0.00101302
     The Hubbard contrib.    to forces
     atom    1 type  1   force =     0.00000000    0.00000000    0.00000000
     atom    2 type  1   force =     0.00000000    0.00000000    0.00000000
     atom    3 type  2   force =     0.00000000    0.00000000    0.00000000
     atom    4 type  2   force =     0.00000000    0.00000000    0.00000000
     atom    5 type  2   force =     0.00000000    0.00000000    0.00000000
     atom    6 type  2   force =     0.00000000    0.00000000    0.00000000
     The SCF correction term to forces
     atom    1 type  1   force =    -0.00000000   -0.00000000    0.00000000
     atom    2 type  1   force =     0.00000000    0.00000000    0.00000000
     atom    3 type  2   force =    -0.00000333    0.00000333    0.00000005
     atom    4 type  2   force =     0.00000333    0.00000333   -0.00000005
     atom    5 type  2   force =     0.00000333   -0.00000333    0.00000005
     atom    6 type  2   force =    -0.00000333   -0.00000333   -0.00000005

     Total force =     0.057982     Total SCF correction =     0.000009


     Computing stress (Cartesian axis) and pressure

          total   stress  (Ry/bohr**3)                   (kbar)     P=      519.31
   0.00334249   0.00000000   0.00000000          491.70        0.00        0.00
   0.00000000   0.00334249   0.00000000            0.00      491.70        0.00
   0.00000000   0.00000000   0.00390570            0.00        0.00      574.55

     Energy error            =      1.4E-02 Ry
     Gradient error          =      2.0E-02 Ry/Bohr
     Cell gradient error     =      7.5E+01 kbar

     number of scf cycles    =   4
     number of bfgs steps    =   3

     enthalpy           old  =     -60.9624248641 Ry
     enthalpy           new  =     -60.9768327502 Ry

     CASE: enthalpy          _new < enthalpy          _old

     new trust radius        =       0.0941011532 bohr
ibrav =      6
 celldm(1) =      9.55038012
 celldm(3) =      0.46918764
Input lattice vectors:
     0.93517313     0.00000000     0.00000000
     0.00000000     0.93517313     0.00000000
     0.00000000     0.00000000     0.43877167
New lattice vectors in INITIAL alat:
     0.93517313     0.00000000     0.00000000
     0.00000000     0.93517313     0.00000000
     0.00000000     0.00000000     0.43877167
New lattice vectors in NEW alat (for information only):
     1.00000000     0.00000000     0.00000000
     0.00000000     1.00000000     0.00000000
     0.00000000     0.00000000     0.46918764
Discrepancy in bohr =     0.000000    0.000000    0.000000
     new conv_thr            =       0.0000000020 Ry

     new unit-cell volume =    408.70367 a.u.^3 (    60.56363 Ang^3 )
     density =      3.46082 g/cm^3

CELL_PARAMETERS (alat= 10.21241928)
   0.935173131   0.000000000   0.000000000
   0.000000000   0.935173131   0.000000000
   0.000000000   0.000000000   0.438771674

ATOMIC_POSITIONS (crystal)
Li            0.0000000000        0.0000000000        0.5000000000
Li            0.5000000000        0.5000000000        0.5000000000
Si            0.1624119061        0.3375880939        0.0182323985
Si            0.3375880939        0.8375880939        0.9817676015
Si            0.8375880939        0.6624119061        0.0182323985
Si            0.6624119061        0.1624119061        0.9817676015



     Writing config-only to output data dir ./output/LiSi.save/
     NEW-OLD atomic charge density approx. for the potential
     extrapolated charge   22.01977, renormalised to   22.00000

     total cpu time spent up to now is       40.9 secs

     Self-consistent Calculation

     iteration #  1     ecut=    80.00 Ry     beta= 0.70
     Davidson diagonalization with overlap
     c_bands:  1 eigenvalues not converged
     ethr =  1.00E-06,  avg # of iterations = 10.5

     total cpu time spent up to now is       42.8 secs

     total energy              =     -62.37430471 Ry
     estimated scf accuracy    <       0.00178291 Ry

     iteration #  2     ecut=    80.00 Ry     beta= 0.70
     Davidson diagonalization with overlap
     ethr =  8.10E-06,  avg # of iterations =  2.2

     total cpu time spent up to now is       43.6 secs

     total energy              =     -62.37470136 Ry
     estimated scf accuracy    <       0.00027223 Ry

     iteration #  3     ecut=    80.00 Ry     beta= 0.70
     Davidson diagonalization with overlap
     ethr =  1.24E-06,  avg # of iterations =  2.0

     total cpu time spent up to now is       44.3 secs

     total energy              =     -62.37475694 Ry
     estimated scf accuracy    <       0.00000347 Ry

     iteration #  4     ecut=    80.00 Ry     beta= 0.70
     Davidson diagonalization with overlap
     ethr =  1.58E-08,  avg # of iterations =  3.1

     total cpu time spent up to now is       45.1 secs

     total energy              =     -62.37475758 Ry
     estimated scf accuracy    <       0.00000027 Ry

     iteration #  5     ecut=    80.00 Ry     beta= 0.70
     Davidson diagonalization with overlap
     ethr =  1.22E-09,  avg # of iterations =  2.4

     total cpu time spent up to now is       45.8 secs

     total energy              =     -62.37475766 Ry
     estimated scf accuracy    <          7.0E-09 Ry

     iteration #  6     ecut=    80.00 Ry     beta= 0.70
     Davidson diagonalization with overlap
     ethr =  3.17E-11,  avg # of iterations =  4.0

     total cpu time spent up to now is       46.7 secs

     End of self-consistent calculation

          k = 0.0000 0.0000 0.0000 (  6053 PWs)   bands (ev):

   -33.8123 -33.8060  -2.4248   1.8258   1.8805   1.8805   6.4357   7.3883
     7.3883   7.4650  10.1191  17.5601  17.9961  17.9961  18.7496

          k = 0.0000 0.0000 0.2279 (  6041 PWs)   bands (ev):

   -33.8021 -33.7960  -2.1902   2.0725   2.1335   2.1335   6.5450   7.6280
     7.6280   7.6928  10.2543  15.8434  17.7792  17.9397  17.9397

          k = 0.0000 0.0000 0.4558 (  6074 PWs)   bands (ev):

   -33.7751 -33.7699  -1.4913   2.8085   2.8885   2.8885   6.8563   8.3384
     8.3384   8.3529  10.5293  12.5259  16.7057  16.7057  18.4317

          k = 0.0000 0.0000 0.6837 (  6110 PWs)   bands (ev):

   -33.7417 -33.7374  -0.3455   4.0184   4.1333   4.1333   7.3073   8.8646
     9.3157   9.4594   9.4594  11.6240  13.9509  13.9509  14.5661

          k = 0.0000 0.0000 0.9116 (  6094 PWs)   bands (ev):

   -33.7146 -33.7110   1.1854   5.6591   5.8392   5.8392   6.1748   7.7545
     9.5611  10.0814  10.0814  12.0938  12.0938  12.2021  12.9754

          k = 0.0000 0.0000-1.1395 (  6094 PWs)   bands (ev):

   -33.7042 -33.7009   2.4541   4.4978   7.2637   7.6698   7.6698   7.9549
     8.1868   8.3056   8.3056  12.5154  13.2788  13.2788  14.3392

          k = 0.0000 0.2139 0.0000 (  6049 PWs)   bands (ev):

   -33.8117 -33.8066  -2.2461   0.3906   2.0986   3.3143   5.5417   6.7761
     6.9142   9.7382  10.7841  15.0160  17.8995  18.0797  19.5620

          k = 0.0000 0.2139 0.2279 (  6073 PWs)   bands (ev):

   -33.8015 -33.7966  -2.0104   0.6391   2.3511   3.5525   5.7797   6.9869
     7.0430   9.9550  10.9749  14.9221  16.1883  17.9181  19.3527

          k = 0.0000 0.2139 0.4558 (  6070 PWs)   bands (ev):

   -33.7746 -33.7703  -1.3079   1.3802   3.1047   4.2577   6.4819   7.4154
     7.5960  10.5549  11.4798  12.4816  15.5271  15.9458  18.0066

          k = 0.0000 0.2139 0.6837 (  6085 PWs)   bands (ev):

   -33.7413 -33.7378  -0.1562   2.5997   4.3465   5.3919   7.5556   8.0054
     8.3124   9.5147  11.0101  12.4191  13.5345  13.9260  15.4126

          k = 0.0000 0.2139 0.9116 (  6092 PWs)   bands (ev):

   -33.7142 -33.7113   1.3851   4.2609   6.0392   6.3218   6.8182   8.1249
     8.8748   9.7216   9.8520  11.2814  12.6742  13.6116  14.2947

          k = 0.0000 0.2139-1.1395 (  6078 PWs)   bands (ev):

   -33.7038 -33.7012   2.6785   4.6349   5.9574   6.7245   7.8167   7.8588
     8.4938   8.9593  10.2110  11.0608  12.0364  12.9263  14.1886

          k = 0.0000 0.4277 0.0000 (  6051 PWs)   bands (ev):

   -33.8101 -33.8081  -1.7106  -0.8239   2.7430   3.7049   4.8732   5.7749
     8.3908  10.4095  12.4008  14.3832  15.4171  16.5266  18.9015

          k = 0.0000 0.4277 0.2279 (  6045 PWs)   bands (ev):

   -33.7999 -33.7981  -1.4716  -0.5802   2.9942   3.9514   5.0788   5.9687
     8.5623  10.6248  12.5701  14.4571  15.2167  16.5703  17.7061

          k = 0.0000 0.4277 0.4558 (  6074 PWs)   bands (ev):

   -33.7733 -33.7717  -0.7594   0.1462   3.7433   4.6829   5.6819   6.5316
     9.0367  11.1539  12.7617  13.1057  14.7322  15.1604  16.9024

          k = 0.0000 0.4277 0.6837 (  6067 PWs)   bands (ev):

   -33.7402 -33.7389   0.4090   1.3392   4.9752   5.8661   6.6244   7.3495
     9.4108   9.7765  11.3752  12.6436  13.9761  14.5623  15.8884

          k = 0.0000 0.4277 0.9116 (  6083 PWs)   bands (ev):

   -33.7133 -33.7122   1.9796   2.9528   6.5878   6.7835   7.1180   7.6744
     8.1267   8.7812  11.0838  11.4489  13.1418  14.3020  14.5014

          k = 0.0000 0.4277-1.1395 (  6074 PWs)   bands (ev):

   -33.7030 -33.7020   3.3484   4.4525   5.0508   5.7528   8.3543   8.4001
     8.9205   8.9730   9.8264  10.3067  13.0439  13.1692  13.7618

          k = 0.2139 0.2139 0.0000 (  6049 PWs)   bands (ev):

   -33.8112 -33.8071  -2.0739   0.0988   1.6706   3.8998   4.8742   7.2469
     7.8328   9.1126  12.0258  14.1747  16.3232  17.5958  18.2365

          k = 0.2139 0.2139 0.2279 (  6057 PWs)   bands (ev):

   -33.8010 -33.7970  -1.8368   0.3516   1.9046   4.1408   5.1057   7.3841
     8.0711   9.2923  12.2382  14.3611  15.3902  17.5175  18.1417

          k = 0.2139 0.2139 0.4558 (  6074 PWs)   bands (ev):

   -33.7742 -33.7707  -1.1302   1.1066   2.5984   4.8545   5.7931   7.7688
     8.7798   9.7731  12.5174  12.8650  14.7082  15.7137  17.2339

          k = 0.2139 0.2139 0.6837 (  6078 PWs)   bands (ev):

[...]
        k(   14) = (   0.0000000   0.4307368   0.2259385), wk =   0.0640000
        k(   15) = (   0.0000000   0.4307368   0.4518771), wk =   0.0640000
        k(   16) = (   0.0000000   0.4307368   0.6778156), wk =   0.0640000
        k(   17) = (   0.0000000   0.4307368   0.9037542), wk =   0.0640000
        k(   18) = (   0.0000000   0.4307368  -1.1296927), wk =   0.0320000
        k(   19) = (   0.2153684   0.2153684   0.0000000), wk =   0.0320000
        k(   20) = (   0.2153684   0.2153684   0.2259385), wk =   0.0640000
        k(   21) = (   0.2153684   0.2153684   0.4518771), wk =   0.0640000
        k(   22) = (   0.2153684   0.2153684   0.6778156), wk =   0.0640000
        k(   23) = (   0.2153684   0.2153684   0.9037542), wk =   0.0640000
        k(   24) = (   0.2153684   0.2153684  -1.1296927), wk =   0.0320000
        k(   25) = (   0.2153684   0.4307368   0.0000000), wk =   0.0640000
        k(   26) = (   0.2153684   0.4307368   0.2259385), wk =   0.1280000
        k(   27) = (   0.2153684   0.4307368   0.4518771), wk =   0.1280000
        k(   28) = (   0.2153684   0.4307368   0.6778156), wk =   0.1280000
        k(   29) = (   0.2153684   0.4307368   0.9037542), wk =   0.1280000
        k(   30) = (   0.2153684   0.4307368  -1.1296927), wk =   0.0640000
        k(   31) = (   0.4307368   0.4307368   0.0000000), wk =   0.0320000
        k(   32) = (   0.4307368   0.4307368   0.2259385), wk =   0.0640000
        k(   33) = (   0.4307368   0.4307368   0.4518771), wk =   0.0640000
        k(   34) = (   0.4307368   0.4307368   0.6778156), wk =   0.0640000
        k(   35) = (   0.4307368   0.4307368   0.9037542), wk =   0.0640000
        k(   36) = (   0.4307368   0.4307368  -1.1296927), wk =   0.0320000

     Dense  grid:    39217 G-vectors     FFT dimensions: (  60,  60,  25)

     Estimated max dynamical RAM per process >      21.41 MB

     Estimated total dynamical RAM >     171.25 MB

     Initial potential from superposition of free atoms

     starting charge      21.9884, renormalised to      22.0000
     Starting wfcs are   20 randomized atomic wfcs

     total cpu time spent up to now is      110.2 secs

     Self-consistent Calculation

     iteration #  1     ecut=    80.00 Ry     beta= 0.70
     Davidson diagonalization with overlap
     c_bands:  1 eigenvalues not converged
     c_bands:  1 eigenvalues not converged
     c_bands:  1 eigenvalues not converged
     c_bands:  1 eigenvalues not converged
     c_bands:  2 eigenvalues not converged
     c_bands:  1 eigenvalues not converged
     c_bands:  1 eigenvalues not converged
     c_bands:  2 eigenvalues not converged
     c_bands:  1 eigenvalues not converged
     c_bands:  1 eigenvalues not converged
     c_bands:  1 eigenvalues not converged
     c_bands:  2 eigenvalues not converged
     c_bands:  1 eigenvalues not converged
     c_bands:  1 eigenvalues not converged
     c_bands:  1 eigenvalues not converged
     c_bands:  1 eigenvalues not converged
     c_bands:  1 eigenvalues not converged
     c_bands:  1 eigenvalues not converged
     c_bands:  1 eigenvalues not converged
     c_bands:  1 eigenvalues not converged
     c_bands:  1 eigenvalues not converged
     c_bands:  2 eigenvalues not converged
     c_bands:  1 eigenvalues not converged
     c_bands:  1 eigenvalues not converged
     c_bands:  1 eigenvalues not converged
     c_bands:  1 eigenvalues not converged
     c_bands:  1 eigenvalues not converged
     ethr =  1.00E-06,  avg # of iterations = 19.5

     total cpu time spent up to now is      112.7 secs

     total energy              =     -62.35032819 Ry
     estimated scf accuracy    <       0.08601136 Ry

     iteration #  2     ecut=    80.00 Ry     beta= 0.70
     Davidson diagonalization with overlap
     ethr =  3.91E-04,  avg # of iterations =  2.1

     total cpu time spent up to now is      113.4 secs

     total energy              =     -62.36740666 Ry
     estimated scf accuracy    <       0.01407740 Ry

     iteration #  3     ecut=    80.00 Ry     beta= 0.70
     Davidson diagonalization with overlap
     ethr =  6.40E-05,  avg # of iterations =  2.3

     total cpu time spent up to now is      114.0 secs

     total energy              =     -62.36989994 Ry
     estimated scf accuracy    <       0.00043026 Ry

     iteration #  4     ecut=    80.00 Ry     beta= 0.70
     Davidson diagonalization with overlap
     ethr =  1.96E-06,  avg # of iterations =  5.2

     total cpu time spent up to now is      114.8 secs

     total energy              =     -62.36993447 Ry
     estimated scf accuracy    <       0.00002349 Ry

     iteration #  5     ecut=    80.00 Ry     beta= 0.70
     Davidson diagonalization with overlap
     ethr =  1.07E-07,  avg # of iterations =  2.9

     total cpu time spent up to now is      115.5 secs

     total energy              =     -62.36994122 Ry
     estimated scf accuracy    <       0.00000033 Ry

     iteration #  6     ecut=    80.00 Ry     beta= 0.70
     Davidson diagonalization with overlap
     ethr =  1.49E-09,  avg # of iterations =  4.0

     total cpu time spent up to now is      116.2 secs

     total energy              =     -62.36994141 Ry
     estimated scf accuracy    <          3.3E-09 Ry

     iteration #  7     ecut=    80.00 Ry     beta= 0.70
     Davidson diagonalization with overlap
     ethr =  1.51E-11,  avg # of iterations =  4.3

     total cpu time spent up to now is      117.0 secs

     total energy              =     -62.36994141 Ry
     estimated scf accuracy    <          8.4E-10 Ry

     iteration #  8     ecut=    80.00 Ry     beta= 0.70
     Davidson diagonalization with overlap
     ethr =  3.82E-12,  avg # of iterations =  2.1

     total cpu time spent up to now is      117.6 secs

     End of self-consistent calculation

          k = 0.0000 0.0000 0.0000 (  4877 PWs)   bands (ev):

   -33.7597 -33.7529  -2.3612   1.9813   1.9813   2.0408   6.4558   7.5233
     7.5233   7.6400  10.3754  17.9029  18.2437  18.2437  18.7252

          k = 0.0000 0.0000 0.2259 (  4921 PWs)   bands (ev):

   -33.7500 -33.7435  -2.1326   2.2299   2.2299   2.2825   6.5563   7.7582
     7.7582   7.8631  10.4974  15.6689  18.1183  18.1304  18.1304

          k = 0.0000 0.0000 0.4519 (  4917 PWs)   bands (ev):

   -33.7246 -33.7189  -1.4515   2.9723   2.9723   3.0033   6.8411   8.4536
     8.4536   8.5090  10.6843  12.4373  16.6655  16.6655  17.7158

          k = 0.0000 0.0000 0.6778 (  4925 PWs)   bands (ev):

   -33.6931 -33.6884  -0.3373   4.1868   4.1967   4.1967   7.2499   8.7740
     9.4346   9.5459   9.5459  11.7988  13.8726  13.8726  14.6385

          k = 0.0000 0.0000 0.9038 (  4941 PWs)   bands (ev):

   -33.6675 -33.6636   1.1401   5.7838   5.8775   5.8775   6.1352   7.6491
     9.6687  10.0698  10.0698  12.1063  12.1063  12.3373  13.0808

          k = 0.0000 0.0000-1.1297 (  4916 PWs)   bands (ev):

   -33.6577 -33.6541   2.3175   4.5545   7.2657   7.7362   7.7362   7.8254
     8.2306   8.2306   8.4156  12.6097  13.2555  13.2555  14.1844

          k = 0.0000 0.2154 0.0000 (  4923 PWs)   bands (ev):

   -33.7590 -33.7535  -2.1789   0.5147   2.2037   3.5045   5.6571   6.9099
     6.9555   9.9278  11.0495  15.2391  18.0780  18.3402  20.1709

          k = 0.0000 0.2154 0.2259 (  4922 PWs)   bands (ev):

   -33.7494 -33.7441  -1.9490   0.7582   2.4519   3.7369   5.8909   7.0763
     7.1149  10.1388  11.2314  15.0055  16.1984  18.0694  19.6097

          k = 0.0000 0.2154 0.4519 (  4911 PWs)   bands (ev):

   -33.7241 -33.7194  -1.2642   1.4843   3.1929   4.4237   6.5803   7.4259
     7.7044  10.7171  11.6595  12.3948  15.6533  15.8671  18.1188

          k = 0.0000 0.2154 0.6778 (  4920 PWs)   bands (ev):

   -33.6926 -33.6888  -0.1438   2.6779   4.4144   5.5224   7.6202   7.9970
     8.3262   9.4790  11.0824  12.6054  13.5387  13.8795  15.4871

          k = 0.0000 0.2154 0.9038 (  4911 PWs)   bands (ev):

   -33.6671 -33.6639   1.3446   4.2979   6.0817   6.2841   6.8706   8.1032
     8.9482   9.7413   9.8410  11.2721  12.7207  13.7389  14.3767

          k = 0.0000 0.2154-1.1297 (  4900 PWs)   bands (ev):

   -33.6573 -33.6544   2.5453   4.6939   5.8807   6.8188   7.7542   7.9220
     8.4265   9.1440  10.1489  11.0724  12.0559  12.9860  14.2875

          k = 0.0000 0.4307 0.0000 (  4937 PWs)   bands (ev):

   -33.7573 -33.7552  -1.6323  -0.7267   2.8632   3.8736   4.9777   5.9017
     8.5011  10.6140  12.6275  14.6575  15.6350  16.8347  19.1128

          k = 0.0000 0.4307 0.2259 (  4934 PWs)   bands (ev):

   -33.7477 -33.7457  -1.3990  -0.4884   3.1101   4.1165   5.1752   6.0884
     8.6656  10.8211  12.7845  14.6835  15.3604  16.8282  17.6600

          k = 0.0000 0.4307 0.4519 (  4913 PWs)   bands (ev):

   -33.7226 -33.7209  -0.7040   0.2215   3.8467   4.8377   5.7524   6.6289
     9.1160  11.2881  12.8795  13.0507  14.9414  15.1472  17.0885

          k = 0.0000 0.4307 0.6778 (  4917 PWs)   bands (ev):

   -33.6914 -33.6900   0.4341   1.3858   5.0588   6.0056   6.6461   7.3962
     9.4155   9.7110  11.3910  12.7745  14.0401  14.6436  16.0294

          k = 0.0000 0.4307 0.9038 (  4901 PWs)   bands (ev):

   -33.6661 -33.6649   1.9537   2.9519   6.6187   6.7792   7.1267   7.7324
     8.1193   8.7994  11.1173  11.4291  13.1855  14.4871  14.4912

          k = 0.0000 0.4307-1.1297 (  4888 PWs)   bands (ev):

   -33.6564 -33.6553   3.2255   4.3472   5.1171   5.8318   8.3416   8.4437
     8.8548   9.1022   9.8174  10.2679  13.1466  13.2092  13.8694

          k = 0.2154 0.2154 0.0000 (  4947 PWs)   bands (ev):

   -33.7585 -33.7540  -2.0027   0.2270   1.7537   4.0997   4.9778   7.3061
     7.9669   9.3328  12.2881  14.4210  16.4995  17.8331  18.4645

          k = 0.2154 0.2154 0.2259 (  4931 PWs)   bands (ev):

   -33.7489 -33.7446  -1.7714   0.4752   1.9820   4.3352   5.2050   7.4346
     8.2009   9.5040  12.4944  14.5964  15.3452  17.6635  18.2785

          k = 0.2154 0.2154 0.4519 (  4920 PWs)   bands (ev):

   -33.7236 -33.7199  -1.0824   1.2166   2.6585   5.0317   5.8791   7.7943
     8.8955   9.9504  12.4181  13.0660  14.8577  15.6559  17.1972

          k = 0.2154 0.2154 0.6778 (  4910 PWs)   bands (ev):

   -33.6923 -33.6892   0.0454   2.4407   3.7518   6.1413   6.9589   8.2691
     9.2212   9.9942  10.5647  12.4318  13.5041  14.5217  15.7085

          k = 0.2154 0.2154 0.9038 (  4909 PWs)   bands (ev):

   -33.6668 -33.6642   1.5461   4.1238   5.1662   6.3513   7.8382   8.2039
     8.4147   9.0281  10.8110  11.6322  12.4351  13.7705  14.4999

          k = 0.2154 0.2154-1.1297 (  4894 PWs)   bands (ev):

   -33.6571 -33.6547   2.7726   4.8235   5.9731   6.2580   6.5286   7.8339
     9.1541   9.2716  10.6152  10.6881  12.9065  13.6606  13.8996

          k = 0.2154 0.4307 0.0000 (  4935 PWs)   bands (ev):

   -33.7571 -33.7554  -1.4816  -0.6579   2.0679   2.9893   6.1491   7.2426
     8.6758  10.3119  12.3632  14.1317  15.0070  16.5656  17.5791

          k = 0.2154 0.4307 0.2259 (  4926 PWs)   bands (ev):

   -33.7475 -33.7459  -1.2460  -0.4154   2.2917   3.2140   6.3640   7.4480
     8.8476  10.5302  12.4647  14.1681  15.1695  16.6463  16.6619

          k = 0.2154 0.4307 0.4519 (  4923 PWs)   bands (ev):

   -33.7224 -33.7210  -0.5442   0.3074   2.9551   3.8797   6.9931   8.0411
     9.3197  11.1163  12.2646  13.3244  14.7186  15.1611  16.0204

          k = 0.2154 0.4307 0.6778 (  4906 PWs)   bands (ev):

   -33.6913 -33.6901   0.6053   1.4943   4.0287   4.9513   7.9552   8.8386
     9.6132   9.8863  11.2790  12.6724  13.1172  14.1066  15.9085

          k = 0.2154 0.4307 0.9038 (  4898 PWs)   bands (ev):

   -33.6660 -33.6650   2.1431   3.0978   5.4113   6.1543   7.3181   7.8371
     8.7959   9.4277  11.3008  11.6296  12.9550  14.2096  15.2178

          k = 0.2154 0.4307-1.1297 (  4906 PWs)   bands (ev):

   -33.6563 -33.6554   3.4509   4.5681   5.2107   5.8311   6.7755   7.8324
     8.1861   8.8363  11.2226  12.1251  13.4633  13.7387  14.6491

          k = 0.4307 0.4307 0.0000 (  4907 PWs)   bands (ev):

   -33.7565 -33.7559  -1.0775  -0.6762   1.4623   1.8965   8.1615   9.1185
     9.3201   9.7142  11.4850  12.3094  14.0773  14.7332  18.6550

          k = 0.4307 0.4307 0.2259 (  4923 PWs)   bands (ev):

   -33.7470 -33.7464  -0.8348  -0.4266   1.6695   2.1085   8.3806   9.3233
     9.5425   9.9095  11.6817  12.4081  14.1367  14.7264  17.5094

          k = 0.4307 0.4307 0.4519 (  4928 PWs)   bands (ev):

   -33.7220 -33.7214  -0.1113   0.3191   2.2823   2.7369   9.0080   9.8612
    10.2211  10.4228  12.1716  12.1750  14.1487  14.4660  14.9502

          k = 0.4307 0.4307 0.6778 (  4899 PWs)   bands (ev):

   -33.6909 -33.6905   1.0764   1.5514   3.2672   3.7529   9.7582  10.1780
    10.1799  10.4107  11.3594  12.3583  12.4121  13.3770  14.3781

          k = 0.4307 0.4307 0.9038 (  4880 PWs)   bands (ev):

   -33.6657 -33.6653   2.6786   3.2495   4.5133   5.0479   7.5819   7.9533
     9.0191   9.3945  12.5192  12.8307  13.3103  13.8209  15.5895

          k = 0.4307 0.4307-1.1297 (  4870 PWs)   bands (ev):

   -33.6560 -33.6557   4.1225   5.1145   5.3718   5.4581   5.7257   6.3480
     7.9957   8.2953  13.6735  13.8242  14.7568  14.8338  15.2987

     the Fermi energy is    12.2684 ev

!    total energy              =     -62.36994141 Ry
     estimated scf accuracy    <          2.4E-12 Ry
     smearing contrib. (-TS)   =      -0.00229071 Ry
     internal energy E=F+TS    =     -62.36765070 Ry

     The total energy is F=E-TS. E is the sum of the following terms:
     one-electron contribution =       8.32805391 Ry
     hartree contribution      =       6.48188026 Ry
     xc contribution           =     -20.23332459 Ry
     ewald contribution        =     -56.94426028 Ry

     convergence has been achieved in   8 iterations

     Forces acting on atoms (cartesian axes, Ry/au):

     atom    1 type  1   force =     0.00000000    0.00000000    0.00000000
     atom    2 type  1   force =     0.00000000    0.00000000    0.00000000
     atom    3 type  2   force =     0.00025745   -0.00025745   -0.00021092
     atom    4 type  2   force =    -0.00025745   -0.00025745    0.00021092
     atom    5 type  2   force =    -0.00025745    0.00025745   -0.00021092
     atom    6 type  2   force =     0.00025745    0.00025745    0.00021092
     The non-local contrib.  to forces
     atom    1 type  1   force =     0.00000000    0.00000000   -0.00000000
     atom    2 type  1   force =     0.00000000    0.00000000    0.00000000
     atom    3 type  2   force =     0.01626858   -0.01626858   -0.00021858
     atom    4 type  2   force =    -0.01626858   -0.01626858    0.00021858
     atom    5 type  2   force =    -0.01626858    0.01626858   -0.00021858
     atom    6 type  2   force =     0.01626858    0.01626858    0.00021858
     The ionic contribution  to forces
     atom    1 type  1   force =     0.00000000    0.00000000   -0.00000000
     atom    2 type  1   force =     0.00000000   -0.00000000   -0.00000000
     atom    3 type  2   force =    -0.18386769    0.18386769   -0.00015953
     atom    4 type  2   force =     0.18386769    0.18386769    0.00015953
     atom    5 type  2   force =     0.18386769   -0.18386769   -0.00015953
     atom    6 type  2   force =    -0.18386769   -0.18386769    0.00015953
     The local contribution  to forces
     atom    1 type  1   force =     0.00000000    0.00000000    0.00000000
     atom    2 type  1   force =     0.00000000    0.00000000    0.00000000
     atom    3 type  2   force =     0.16938798   -0.16938798    0.00015636
     atom    4 type  2   force =    -0.16938798   -0.16938798   -0.00015636
     atom    5 type  2   force =    -0.16938798    0.16938798    0.00015636
     atom    6 type  2   force =     0.16938798    0.16938798   -0.00015636
     The core correction contribution to forces
     atom    1 type  1   force =     0.00000000    0.00000000    0.00000000
     atom    2 type  1   force =     0.00000000    0.00000000    0.00000000
     atom    3 type  2   force =    -0.00153172    0.00153172    0.00001083
     atom    4 type  2   force =     0.00153172    0.00153172   -0.00001083
     atom    5 type  2   force =     0.00153172   -0.00153172    0.00001083
     atom    6 type  2   force =    -0.00153172   -0.00153172   -0.00001083
     The Hubbard contrib.    to forces
     atom    1 type  1   force =     0.00000000    0.00000000    0.00000000
     atom    2 type  1   force =     0.00000000    0.00000000    0.00000000
     atom    3 type  2   force =     0.00000000    0.00000000    0.00000000
     atom    4 type  2   force =     0.00000000    0.00000000    0.00000000
     atom    5 type  2   force =     0.00000000    0.00000000    0.00000000
     atom    6 type  2   force =     0.00000000    0.00000000    0.00000000
     The SCF correction term to forces
     atom    1 type  1   force =     0.00000000   -0.00000000    0.00000000
     atom    2 type  1   force =     0.00000000   -0.00000000   -0.00000000
     atom    3 type  2   force =     0.00000029   -0.00000029   -0.00000000
     atom    4 type  2   force =    -0.00000029   -0.00000029    0.00000000
     atom    5 type  2   force =    -0.00000029    0.00000029   -0.00000000
     atom    6 type  2   force =     0.00000029    0.00000029    0.00000000

     Total force =     0.000842     Total SCF correction =     0.000001


     Computing stress (Cartesian axis) and pressure

          total   stress  (Ry/bohr**3)                   (kbar)     P=      500.26
   0.00340453   0.00000000   0.00000000          500.82        0.00        0.00
   0.00000000   0.00340453   0.00000000            0.00      500.82        0.00
   0.00000000   0.00000000   0.00339298            0.00        0.00      499.12


     Writing all to output data dir ./output/LiSi.save/

     init_run     :      1.50s CPU      1.83s WALL (       2 calls)
     electrons    :     77.10s CPU     81.51s WALL (      14 calls)
     update_pot   :      6.27s CPU      6.36s WALL (      12 calls)
     forces       :      5.03s CPU      5.19s WALL (      14 calls)
     stress       :     22.77s CPU     23.81s WALL (      14 calls)

     Called by init_run:
     wfcinit      :      0.58s CPU      0.59s WALL (       2 calls)
     potinit      :      0.42s CPU      0.57s WALL (       2 calls)
     hinit0       :      0.45s CPU      0.56s WALL (       2 calls)

     Called by electrons:
     c_bands      :     68.14s CPU     71.55s WALL (      94 calls)
     sum_band     :      7.95s CPU      8.36s WALL (      94 calls)
     v_of_rho     :      1.02s CPU      1.60s WALL (     101 calls)
     mix_rho      :      0.08s CPU      0.15s WALL (      94 calls)

     Called by c_bands:
     init_us_2    :      1.88s CPU      2.06s WALL (    7848 calls)
     init_us_2:cp :      1.86s CPU      2.05s WALL (    7848 calls)
     cegterg      :     62.41s CPU     64.23s WALL (    3384 calls)

     Called by *egterg:
     cdiaghg      :      3.78s CPU      3.90s WALL (   14776 calls)
     h_psi        :     51.33s CPU     52.83s WALL (   15532 calls)
     g_psi        :      0.29s CPU      0.29s WALL (   12076 calls)

     Called by h_psi:
     h_psi:calbec :      5.33s CPU      5.48s WALL (   15532 calls)
     vloc_psi     :     41.50s CPU     42.74s WALL (   15532 calls)
     add_vuspsi   :      4.29s CPU      4.38s WALL (   15532 calls)

     General routines
     calbec       :      6.89s CPU      7.09s WALL (   18052 calls)
     fft          :      1.08s CPU      1.93s WALL (    1365 calls)
     ffts         :      0.07s CPU      0.12s WALL (      94 calls)
     fftw         :     42.00s CPU     43.16s WALL (  367876 calls)

     Parallel routines

     PWSCF        :   1m52.99s CPU   1m59.54s WALL


   This run was terminated on:  15:31:40  27Dec2024            

=------------------------------------------------------------------------------=
   JOB DONE.
=------------------------------------------------------------------------------=
