
     Program PWSCF v.7.2 starts on 28Dec2024 at 19: 2: 0 

     This program is part of the open-source Quantum ESPRESSO suite
     for quantum simulation of materials; please cite
         "P. Giannozzi et al., J. Phys.:Condens. Matter 21 395502 (2009);
         "P. Giannozzi et al., J. Phys.:Condens. Matter 29 465901 (2017);
         "P. Giannozzi et al., J. Chem. Phys. 152 154105 (2020);
          URL http://www.quantum-espresso.org", 
     in publications or presentations arising from this work. More details at
     http://www.quantum-espresso.org/quote

     Parallel version (MPI & OpenMP), running on       8 processor cores
     Number of MPI processes:                 8
     Threads/MPI process:                     1

     MPI processes distributed on     1 nodes
     481487 MiB available memory on the printing compute node when the environment starts

     Waiting for input...
     Reading input from standard input

     Current dimensions of program PWSCF are:
     Max number of different atomic species (ntypx) = 10
     Max number of k-points (npk) =  40000
     Max angular momentum in pseudopotentials (lmaxx) =  4

     R & G space division:  proc/nbgrp/npool/nimage =       8
     Subspace diagonalization in iterative solution of the eigenvalue problem:
     a serial algorithm will be used


     Parallelization info
     --------------------
     sticks:   dense  smooth     PW     G-vecs:    dense   smooth      PW
     Min         382     382    112                13924    13924    2197
     Max         383     383    113                13926    13926    2198
     Sum        3057    3057    897               111395   111395   17581

     Using Slab Decomposition



     bravais-lattice index     =            7
     lattice parameter (alat)  =      11.8765  a.u.
     unit-cell volume          =    1151.6277 (a.u.)^3
     number of atoms/cell      =            6
     number of atomic types    =            2
     number of electrons       =        22.00
     number of Kohn-Sham states=           15
     kinetic-energy cutoff     =      80.0000  Ry
     charge density cutoff     =     320.0000  Ry
     scf convergence threshold =      1.0E-08
     mixing beta               =       0.7000
     number of iterations used =            8  plain     mixing
     energy convergence thresh.=      1.0E-04
     force convergence thresh. =      1.0E-03
     press convergence thresh. =      1.0E+00
     Exchange-correlation= PBE
                           (   1   4   3   4   0   0   0)
     nstep                     =           50


     celldm(1)=  11.876536  celldm(2)=   0.000000  celldm(3)=   1.374905
     celldm(4)=   0.000000  celldm(5)=   0.000000  celldm(6)=   0.000000

     crystal axes: (cart. coord. in units of alat)
               a(1) = (   0.500000  -0.500000   0.687453 )  
               a(2) = (   0.500000   0.500000   0.687453 )  
               a(3) = (  -0.500000  -0.500000   0.687453 )  

     reciprocal axes: (cart. coord. in units 2 pi/alat)
               b(1) = (  1.000000 -1.000000  0.000000 )  
               b(2) = (  0.000000  1.000000  0.727323 )  
               b(3) = ( -1.000000  0.000000  0.727323 )  


     PseudoPot. # 1 for Li read from file:
     ../pseudo/Li_ONCV_PBE_sr.upf
     MD5 check sum: 50ff420e78310ffa21704f3361e624a4
     Pseudo is Norm-conserving, Zval =  3.0
     Generated using ONCVPSP code by D. R. Hamann
     Using radial grid of 1944 points,  4 beta functions with: 
                l(1) =   0
                l(2) =   0
                l(3) =   1
                l(4) =   1

     PseudoPot. # 2 for Si read from file:
     ../pseudo/Si_ONCV_PBE_sr.upf
     MD5 check sum: e543d271109d17c80368dfa7c482276d
     Pseudo is Norm-conserving + core correction, Zval =  4.0
     Generated using ONCVPSP code by D. R. Hamann
     Using radial grid of 1510 points,  6 beta functions with: 
                l(1) =   0
                l(2) =   0
                l(3) =   1
                l(4) =   1
                l(5) =   2
                l(6) =   2

     atomic species   valence    mass     pseudopotential
        Li             3.00     6.94100     Li( 1.00)
        Si             4.00    28.08550     Si( 1.00)

      8 Sym. Ops. (no inversion) found



   Cartesian axes

     site n.     atom                  positions (alat units)
         1           Li  tau(   1) = (   0.0000000   0.0000000   0.2563621  )
         2           Li  tau(   2) = (   0.0000000   0.0000000   1.1185432  )
         3           Si  tau(   3) = (   0.2159585   0.2159585   0.4798880  )
         4           Si  tau(   4) = (   0.2159585   0.7840415   0.8950173  )
         5           Si  tau(   5) = (   0.7840415   0.7840415   0.4798880  )
         6           Si  tau(   6) = (   0.7840415   0.2159585   0.8950173  )

     number of k points=    54  Marzari-Vanderbilt smearing, width (Ry)=  0.0200
                       cart. coord. in units 2pi/alat
        k(    1) = (   0.0000000   0.0000000   0.0000000), wk =   0.0138889
        k(    2) = (  -0.2500000   0.0000000   0.1818307), wk =   0.0277778
        k(    3) = (   0.5000000   0.0000000  -0.3636614), wk =   0.0555556
        k(    4) = (   0.0000000   0.1666667   0.1212205), wk =   0.0555556
        k(    5) = (  -0.2500000   0.1666667   0.3030512), wk =   0.0277778
        k(    6) = (   0.5000000   0.1666667  -0.2424409), wk =   0.1111111
        k(    7) = (   0.2500000   0.1666667  -0.0606102), wk =   0.0277778
        k(    8) = (   0.0000000   0.3333333   0.2424409), wk =   0.0555556
        k(    9) = (  -0.2500000   0.3333333   0.4242716), wk =   0.0277778
        k(   10) = (   0.5000000   0.3333333  -0.1212205), wk =   0.1111111
        k(   11) = (   0.2500000   0.3333333   0.0606102), wk =   0.0277778
        k(   12) = (  -0.2500000  -0.5000000  -0.1818307), wk =   0.0555556
        k(   13) = (   0.5000000  -0.5000000  -0.7273228), wk =   0.0277778
        k(   14) = (   0.1666667  -0.1666667   0.0000000), wk =   0.0277778
        k(   15) = (  -0.0833333  -0.1666667   0.1818307), wk =   0.0277778
        k(   16) = (   0.6666667  -0.1666667  -0.3636614), wk =   0.1111111
        k(   17) = (   0.4166667  -0.1666667  -0.1818307), wk =   0.0277778
        k(   18) = (  -0.0833333   0.0000000   0.3030512), wk =   0.0277778
        k(   19) = (   0.6666667   0.0000000  -0.2424409), wk =   0.0555556
        k(   20) = (   0.4166667   0.0000000  -0.0606102), wk =   0.0277778
        k(   21) = (   0.1666667   0.1666667   0.2424409), wk =   0.0277778
        k(   22) = (  -0.0833333   0.1666667   0.4242716), wk =   0.0277778
        k(   23) = (   0.6666667   0.1666667  -0.1212205), wk =   0.0555556
        k(   24) = (   0.4166667   0.1666667   0.0606102), wk =   0.0277778
        k(   25) = (  -0.0833333  -0.6666667  -0.1818307), wk =   0.0277778
        k(   26) = (   0.6666667  -0.6666667  -0.7273228), wk =   0.0277778
        k(   27) = (   0.4166667  -0.6666667  -0.5454921), wk =   0.0277778
        k(   28) = (  -0.0833333  -0.5000000  -0.0606102), wk =   0.0555556
        k(   29) = (   0.4166667  -0.5000000  -0.4242716), wk =   0.0555556
        k(   30) = (   0.1666667  -0.3333333  -0.1212205), wk =   0.0555556
        k(   31) = (  -0.0833333  -0.3333333   0.0606102), wk =   0.0277778
        k(   32) = (   0.6666667  -0.3333333  -0.4848819), wk =   0.0277778
        k(   33) = (   0.4166667  -0.3333333  -0.3030512), wk =   0.0277778
        k(   34) = (   0.3333333  -0.3333333   0.0000000), wk =   0.0277778
        k(   35) = (   0.0833333  -0.3333333   0.1818307), wk =   0.0277778
        k(   36) = (   0.5833333  -0.3333333  -0.1818307), wk =   0.0277778
        k(   37) = (   0.0833333  -0.1666667   0.3030512), wk =   0.0277778
        k(   38) = (   0.8333333  -0.1666667  -0.2424409), wk =   0.0277778
        k(   39) = (   0.5833333  -0.1666667  -0.0606102), wk =   0.0277778
        k(   40) = (   0.0833333   0.0000000   0.4242716), wk =   0.0277778
        k(   41) = (   0.8333333   0.0000000  -0.1212205), wk =   0.0555556
        k(   42) = (   0.5833333   0.0000000   0.0606102), wk =   0.0277778
        k(   43) = (   0.0833333  -0.8333333  -0.1818307), wk =   0.0277778
        k(   44) = (   0.8333333  -0.8333333  -0.7273228), wk =   0.0277778
        k(   45) = (   0.5833333  -0.8333333  -0.5454921), wk =   0.0277778
        k(   46) = (   0.3333333  -0.6666667  -0.2424409), wk =   0.0277778
        k(   47) = (   0.0833333  -0.6666667  -0.0606102), wk =   0.0277778
        k(   48) = (   0.5833333  -0.6666667  -0.4242716), wk =   0.0277778
        k(   49) = (  -0.7500000   0.6666667   0.3030512), wk =   0.0277778
        k(   50) = (  -0.2500000   0.6666667  -0.0606102), wk =   0.0277778
        k(   51) = (  -0.7500000   0.8333333   0.4242716), wk =   0.0277778
        k(   52) = (  -0.2500000   0.8333333   0.0606102), wk =   0.0277778
        k(   53) = (  -0.7500000   0.0000000  -0.1818307), wk =   0.0277778
        k(   54) = (   0.0000000   0.0000000  -0.7273228), wk =   0.0138889

     Dense  grid:   111395 G-vectors     FFT dimensions: (  72,  72,  72)

     Estimated max dynamical RAM per process >      46.79 MB

     Estimated total dynamical RAM >     374.31 MB

     Initial potential from superposition of free atoms

     starting charge      21.9884, renormalised to      22.0000
     Starting wfcs are   20 randomized atomic wfcs

     total cpu time spent up to now is        5.3 secs

     Self-consistent Calculation

     iteration #  1     ecut=    80.00 Ry     beta= 0.70
     Davidson diagonalization with overlap
     ethr =  1.00E-02,  avg # of iterations =  2.0

     Threshold (ethr) on eigenvalues was too large:
     Diagonalizing with lowered threshold

     Davidson diagonalization with overlap
     ethr =  6.52E-04,  avg # of iterations =  2.1

     total cpu time spent up to now is       11.2 secs

     total energy              =     -62.00157894 Ry
     estimated scf accuracy    <       0.17026567 Ry

     iteration #  2     ecut=    80.00 Ry     beta= 0.70
     Davidson diagonalization with overlap
     ethr =  7.74E-04,  avg # of iterations =  2.0

     total cpu time spent up to now is       14.4 secs

     total energy              =     -62.03956478 Ry
     estimated scf accuracy    <       0.02837542 Ry

     iteration #  3     ecut=    80.00 Ry     beta= 0.70
     Davidson diagonalization with overlap
     ethr =  1.29E-04,  avg # of iterations =  2.0

     total cpu time spent up to now is       17.1 secs

     total energy              =     -62.04455795 Ry
     estimated scf accuracy    <       0.00033325 Ry

     iteration #  4     ecut=    80.00 Ry     beta= 0.70
     Davidson diagonalization with overlap
     c_bands:  1 eigenvalues not converged
     ethr =  1.51E-06,  avg # of iterations =  8.4

     total cpu time spent up to now is       22.4 secs

     total energy              =     -62.04489911 Ry
     estimated scf accuracy    <       0.00006721 Ry

     iteration #  5     ecut=    80.00 Ry     beta= 0.70
     Davidson diagonalization with overlap
     ethr =  3.06E-07,  avg # of iterations =  2.1

     total cpu time spent up to now is       25.4 secs

     total energy              =     -62.04491272 Ry
     estimated scf accuracy    <       0.00000211 Ry

     iteration #  6     ecut=    80.00 Ry     beta= 0.70
     Davidson diagonalization with overlap
     ethr =  9.60E-09,  avg # of iterations =  5.0

     total cpu time spent up to now is       29.1 secs

     total energy              =     -62.04491347 Ry
     estimated scf accuracy    <       0.00000024 Ry

     iteration #  7     ecut=    80.00 Ry     beta= 0.70
     Davidson diagonalization with overlap
     ethr =  1.08E-09,  avg # of iterations =  3.3

     total cpu time spent up to now is       32.4 secs

     total energy              =     -62.04491355 Ry
     estimated scf accuracy    <       0.00000002 Ry

     iteration #  8     ecut=    80.00 Ry     beta= 0.70
     Davidson diagonalization with overlap
     ethr =  8.36E-11,  avg # of iterations =  4.0

     total cpu time spent up to now is       35.7 secs

     End of self-consistent calculation

          k = 0.0000 0.0000 0.0000 ( 13923 PWs)   bands (ev):

   -43.6765 -43.6747  -6.4480  -4.3323  -4.3323  -3.4344   0.1637   0.7454
     0.7454   0.8107   0.9446   0.9446   0.9453   1.6769   2.3279

          k =-0.2500 0.0000 0.1818 ( 13923 PWs)   bands (ev):

   -43.6764 -43.6747  -6.2007  -4.6678  -4.3388  -3.7270  -0.0646   0.2349
     0.5261   0.7475   0.9800   1.7939   1.9419   2.1116   3.1438

          k = 0.5000 0.0000-0.3637 ( 13932 PWs)   bands (ev):

   -43.6764 -43.6748  -5.6531  -5.3430  -4.2016  -4.1080  -0.1390   0.1037
     0.5980   0.7191   1.3758   1.5386   2.7474   3.0405   3.5218

          k = 0.0000 0.1667 0.1212 ( 13908 PWs)   bands (ev):

   -43.6765 -43.6747  -6.3366  -4.4806  -4.3432  -3.5823   0.0025   0.3666
     0.5438   0.7990   1.0032   1.4356   1.6007   1.7694   2.8224

          k =-0.2500 0.1667 0.3031 ( 13924 PWs)   bands (ev):

   -43.6764 -43.6748  -5.9903  -4.7538  -4.5350  -3.9178  -0.1481   0.2193
     0.4751   1.0425   1.2014   1.6857   2.0588   2.6209   3.0915

          k = 0.5000 0.1667-0.2424 ( 13921 PWs)   bands (ev):

   -43.6764 -43.6748  -5.6417  -5.1919  -4.3556  -4.2260  -0.2744   0.1472
     0.7533   1.0057   1.2894   1.6301   2.7297   2.8375   3.3003

          k = 0.2500 0.1667-0.0606 ( 13922 PWs)   bands (ev):

   -43.6764 -43.6747  -6.1992  -4.5449  -4.4086  -3.8202  -0.1641   0.1743
     0.3620   0.9487   1.3213   1.7539   1.8812   2.3352   3.0901

          k = 0.0000 0.3333 0.2424 ( 13915 PWs)   bands (ev):

   -43.6764 -43.6748  -6.0182  -4.9111  -4.3119  -3.8809  -0.1038   0.1567
     0.5789   0.7734   0.8781   2.1729   2.3168   2.4232   2.9043

          k =-0.2500 0.3333 0.4243 ( 13907 PWs)   bands (ev):

   -43.6764 -43.6748  -5.6140  -4.9983  -4.7052  -4.1705  -0.2586   0.1941
     0.7591   1.2714   1.4178   1.5600   2.0894   2.7988   3.4983

          k = 0.5000 0.3333-0.1212 ( 13917 PWs)   bands (ev):

   -43.6764 -43.6748  -5.5081  -4.9115  -4.7259  -4.4360  -0.5398   0.0567
     0.7352   1.5603   1.8213   1.9543   2.6410   2.9553   3.1063

          k = 0.2500 0.3333 0.0606 ( 13936 PWs)   bands (ev):

   -43.6764 -43.6748  -5.9834  -4.6439  -4.4792  -4.1448  -0.3743   0.0005
     0.5205   1.1772   1.6015   2.0751   2.2630   2.7703   3.1098

          k =-0.2500-0.5000-0.1818 ( 13928 PWs)   bands (ev):

   -43.6764 -43.6748  -5.5955  -5.0500  -4.5290  -4.3326  -0.4227   0.3664
     0.4437   1.2687   1.6307   1.7258   2.6927   2.8816   3.1613

          k = 0.5000-0.5000-0.7273 ( 13912 PWs)   bands (ev):

   -43.6764 -43.6748  -5.2773  -5.1061  -4.6323  -4.6222  -0.6140  -0.3180
     1.3795   1.7090   1.8747   2.2436   2.7410   2.7688   3.0898

          k = 0.1667-0.1667 0.0000 ( 13930 PWs)   bands (ev):

   -43.6765 -43.6747  -6.2996  -4.4290  -4.4142  -3.6763  -0.0516   0.2775
     0.3372   0.9417   1.1625   1.5024   1.7617   2.0301   2.8514

          k =-0.0833-0.1667 0.1818 ( 13906 PWs)   bands (ev):

   -43.6765 -43.6747  -6.2722  -4.5175  -4.4003  -3.6549  -0.0897   0.4201
     0.4791   0.9333   0.9805   1.3787   1.7031   2.0342   3.0656

          k = 0.6667-0.1667-0.3637 ( 13919 PWs)   bands (ev):

   -43.6764 -43.6748  -5.7885  -5.0074  -4.4989  -4.0537  -0.1669   0.1196
     0.6809   1.0081   1.2356   1.8392   2.0817   2.7591   3.3641

          k = 0.4167-0.1667-0.1818 ( 13935 PWs)   bands (ev):

   -43.6764 -43.6748  -5.8541  -4.9567  -4.3661  -4.1385  -0.2878   0.2116
     0.4751   0.9402   1.3549   2.1063   2.4348   2.6583   3.1240

          k =-0.0833 0.0000 0.3031 ( 13897 PWs)   bands (ev):

   -43.6764 -43.6748  -6.1995  -4.5266  -4.4732  -3.7506  -0.3137   0.2916
     0.7869   0.8791   1.3145   1.4986   1.6323   2.0491   3.3514

          k = 0.6667 0.0000-0.2424 ( 13915 PWs)   bands (ev):

   -43.6764 -43.6748  -5.6549  -5.1971  -4.3967  -4.1304  -0.3403   0.1733
     0.6512   0.7833   1.5045   1.6828   2.7277   2.9600   3.2069

          k = 0.4167 0.0000-0.0606 ( 13915 PWs)   bands (ev):

   -43.6764 -43.6748  -5.9905  -4.8793  -4.3097  -3.9926  -0.2950   0.2327
     0.3134   0.7250   1.7287   2.1072   2.1922   2.4878   2.7607

          k = 0.1667 0.1667 0.2424 ( 13901 PWs)   bands (ev):

   -43.6764 -43.6747  -6.1551  -4.5509  -4.5288  -3.7774  -0.1414   0.3613
     0.4104   1.0630   1.0931   1.4156   1.8306   2.4801   3.2375

          k =-0.0833 0.1667 0.4243 ( 13909 PWs)   bands (ev):

   -43.6764 -43.6748  -5.9265  -4.7497  -4.5738  -4.0059  -0.3826   0.2360
     0.3629   1.0895   1.6081   1.9603   2.0701   2.5670   3.0492

          k = 0.6667 0.1667-0.1212 ( 13909 PWs)   bands (ev):

   -43.6764 -43.6748  -5.4029  -5.2098  -4.6492  -4.2759  -0.3263  -0.0363
     0.7991   0.9886   1.3792   2.1047   2.7494   3.0114   3.2539

          k = 0.4167 0.1667 0.0606 ( 13946 PWs)   bands (ev):

   -43.6764 -43.6748  -5.9176  -4.8356  -4.3827  -4.1446  -0.4040   0.2458
     0.3145   0.9711   1.7682   2.1542   2.3600   2.5332   2.9910

          k =-0.0833-0.6667-0.1818 ( 13914 PWs)   bands (ev):

   -43.6764 -43.6748  -5.5371  -5.2275  -4.4765  -4.2134  -0.3310   0.0211
     0.7576   0.9249   1.4252   1.8028   2.7742   3.0181   3.2041

          k = 0.6667-0.6667-0.7273 ( 13908 PWs)   bands (ev):

   -43.6764 -43.6748  -5.1956  -5.0564  -5.0182  -4.3538  -0.5827   0.3027
     0.4849   1.1296   1.9414   2.3319   2.7907   2.8171   3.3330

          k = 0.4167-0.6667-0.5455 ( 13920 PWs)   bands (ev):

   -43.6764 -43.6748  -5.6467  -4.8250  -4.6113  -4.4498  -0.3437   0.0783
     0.5664   1.4831   1.7153   1.8965   2.6442   2.6984   3.1512

          k =-0.0833-0.5000-0.0606 ( 13915 PWs)   bands (ev):

   -43.6764 -43.6748  -5.7886  -5.0231  -4.3444  -4.1872  -0.3640   0.0744
     0.5276   0.8846   1.7721   1.9556   2.3783   2.6047   3.2539

          k = 0.4167-0.5000-0.4243 ( 13925 PWs)   bands (ev):

   -43.6764 -43.6748  -5.2903  -4.9724  -4.8105  -4.6225  -0.0635   0.3860
     0.4616   0.9510   1.7804   1.9040   2.7517   2.8891   3.1639

          k = 0.1667-0.3333-0.1212 ( 13923 PWs)   bands (ev):

   -43.6764 -43.6747  -6.0481  -4.7272  -4.3940  -3.9846  -0.2503   0.2037
     0.3523   0.9336   1.3932   2.0367   2.1532   2.6359   2.9704

          k =-0.0833-0.3333 0.0606 ( 13934 PWs)   bands (ev):

   -43.6764 -43.6747  -6.1290  -4.7113  -4.3305  -3.8694  -0.2124   0.1796
     0.4076   0.6887   1.5197   1.9287   2.0935   2.3728   2.8938

          k = 0.6667-0.3333-0.4849 ( 13921 PWs)   bands (ev):

   -43.6764 -43.6748  -5.7417  -4.7447  -4.6943  -4.2882  -0.1184   0.2256
     0.2766   1.4656   1.4682   1.8740   2.2646   2.6377   3.3689

          k = 0.4167-0.3333-0.3031 ( 13928 PWs)   bands (ev):

   -43.6764 -43.6748  -5.5389  -4.9506  -4.6781  -4.4179  -0.0274   0.1726
     0.4619   1.3567   1.5462   1.6198   2.4956   2.8387   3.2076

          k = 0.3333-0.3333 0.0000 ( 13924 PWs)   bands (ev):

   -43.6764 -43.6748  -5.8675  -4.6092  -4.5636  -4.3304  -0.4628  -0.1591
     0.7438   1.3341   1.7647   2.1402   2.5286   2.8198   3.1991

          k = 0.0833-0.3333 0.1818 ( 13911 PWs)   bands (ev):

   -43.6764 -43.6748  -6.0596  -4.8227  -4.3314  -3.8898  -0.1237   0.1384
     0.5054   0.7481   1.1237   2.0523   2.2278   2.4842   2.9083

          k = 0.5833-0.3333-0.1818 ( 13922 PWs)   bands (ev):

   -43.6764 -43.6748  -5.3335  -5.0656  -4.8495  -4.3711  -0.4948   0.3860
     0.6078   1.2617   1.7023   1.9152   2.4982   2.9780   3.2861

          k = 0.0833-0.1667 0.3031 ( 13912 PWs)   bands (ev):

   -43.6764 -43.6748  -6.1290  -4.6302  -4.4815  -3.7950  -0.2470   0.3843
     0.4655   0.9287   1.2050   1.6084   1.8098   2.4202   3.1827

          k = 0.8333-0.1667-0.2424 ( 13894 PWs)   bands (ev):

   -43.6764 -43.6748  -5.7617  -4.7825  -4.7304  -4.1192  -0.3347   0.1344
     0.2777   1.3700   1.7436   1.9028   2.2179   2.4660   3.3904

          k = 0.5833-0.1667-0.0606 ( 13914 PWs)   bands (ev):

   -43.6764 -43.6748  -5.5332  -5.1248  -4.5478  -4.2979  -0.4199   0.0631
     0.6236   1.2020   1.3396   2.1842   2.6207   2.9388   3.4224

          k = 0.0833 0.0000 0.4243 ( 13886 PWs)   bands (ev):

   -43.6764 -43.6748  -5.9932  -4.6311  -4.5665  -4.0114  -0.4911   0.0680
     0.7429   1.0696   1.4452   1.9663   2.1168   2.5047   3.0821

          k = 0.8333 0.0000-0.1212 ( 13901 PWs)   bands (ev):

   -43.6764 -43.6748  -5.5886  -4.9160  -4.6205  -4.3823  -0.5751   0.0243
     0.4956   1.2274   1.9149   2.1663   2.6171   2.9414   3.2369

          k = 0.5833 0.0000 0.0606 ( 13906 PWs)   bands (ev):

   -43.6764 -43.6748  -5.6035  -5.1790  -4.3437  -4.3072  -0.3595   0.0028
     0.6738   1.0680   1.2308   2.1449   2.5476   2.7447   3.6278

          k = 0.0833-0.8333-0.1818 ( 13890 PWs)   bands (ev):

   -43.6764 -43.6748  -5.6885  -4.8559  -4.6538  -4.2499  -0.4862   0.1062
     0.3389   1.2829   1.9052   2.0492   2.4555   2.6604   3.3141

          k = 0.8333-0.8333-0.7273 ( 13914 PWs)   bands (ev):

   -43.6764 -43.6748  -5.4006  -4.9606  -4.8206  -4.4074  -0.4180   0.1427
     0.1576   1.4159   1.6026   2.3685   2.8466   2.9448   3.4801

          k = 0.5833-0.8333-0.5455 ( 13905 PWs)   bands (ev):

   -43.6764 -43.6748  -5.5178  -5.2316  -4.4921  -4.2337  -0.3690   0.1013
     0.8330   1.1132   1.2924   1.6753   2.7032   3.0623   3.2489

          k = 0.3333-0.6667-0.2424 ( 13916 PWs)   bands (ev):

   -43.6764 -43.6748  -5.4229  -4.9651  -4.9192  -4.2801  -0.3939   0.3961
     0.8534   0.9314   1.6140   1.7840   2.2329   2.8990   3.4504

          k = 0.0833-0.6667-0.0606 ( 13900 PWs)   bands (ev):

   -43.6764 -43.6748  -5.3902  -5.2696  -4.5242  -4.3402  -0.3500  -0.0375
     0.7436   0.9830   1.2574   2.3517   2.7613   2.9225   3.3755

          k = 0.5833-0.6667-0.4243 ( 13907 PWs)   bands (ev):

   -43.6764 -43.6748  -5.4095  -5.0555  -4.7688  -4.3821  -0.2236   0.3477
     0.8357   0.9097   1.5234   1.7451   2.4137   2.9549   3.2644

          k =-0.7500 0.6667 0.3031 ( 13920 PWs)   bands (ev):

   -43.6764 -43.6748  -5.7891  -4.8680  -4.6062  -4.1363  -0.0482   0.0992
     0.4919   1.2193   1.3653   1.8546   2.0144   2.6512   3.4344

          k =-0.2500 0.6667-0.0606 ( 13908 PWs)   bands (ev):

   -43.6764 -43.6748  -5.2701  -5.1486  -4.8583  -4.3225  -0.4629   0.1714
     0.6340   0.9198   1.7263   2.3323   2.7249   2.9355   3.3369

          k =-0.7500 0.8333 0.4243 ( 13905 PWs)   bands (ev):

   -43.6764 -43.6748  -5.7968  -4.8837  -4.6314  -4.0448  -0.2371   0.0918
     0.5095   1.2104   1.4958   1.8503   2.0157   2.5546   3.4049

          k =-0.2500 0.8333 0.0606 ( 13900 PWs)   bands (ev):

   -43.6764 -43.6748  -5.3680  -5.0893  -4.7777  -4.3466  -0.2785  -0.0743
     0.4220   1.1657   1.5629   2.4532   2.7695   2.8701   3.3851

          k =-0.7500 0.0000-0.1818 ( 13909 PWs)   bands (ev):

   -43.6764 -43.6748  -5.6316  -5.0596  -4.5201  -4.2366  -0.4429   0.2189
     0.3818   0.9626   1.7865   1.9903   2.6812   2.8256   3.1821

          k = 0.0000 0.0000-0.7273 ( 13920 PWs)   bands (ev):

   -43.6763 -43.6748  -5.5227  -4.7073  -4.7073  -4.6165  -0.7411  -0.2430
     1.1681   1.4720   1.4720   2.1726   2.9935   2.9935   3.3981

     the Fermi energy is     1.6777 ev

!    total energy              =     -62.04491356 Ry
     estimated scf accuracy    <          5.5E-10 Ry
     smearing contrib. (-TS)   =      -0.00098632 Ry
     internal energy E=F+TS    =     -62.04392724 Ry

     The total energy is F=E-TS. E is the sum of the following terms:
     one-electron contribution =     -17.42777982 Ry
     hartree contribution      =      11.10951919 Ry
     xc contribution           =     -17.92340698 Ry
     ewald contribution        =     -37.80225964 Ry

     convergence has been achieved in   8 iterations

     Forces acting on atoms (cartesian axes, Ry/au):

     atom    1 type  1   force =     0.00000000    0.00000000   -0.03937073
     atom    2 type  1   force =     0.00000000   -0.00000000    0.03937073
     atom    3 type  2   force =     0.00916149    0.00916149   -0.00155023
     atom    4 type  2   force =     0.00916149   -0.00916149    0.00155023
     atom    5 type  2   force =    -0.00916149   -0.00916149   -0.00155023
     atom    6 type  2   force =    -0.00916149    0.00916149    0.00155023
     The non-local contrib.  to forces
     atom    1 type  1   force =     0.00000000    0.00000000   -0.06068658
     atom    2 type  1   force =     0.00000000   -0.00000000    0.06068658
     atom    3 type  2   force =     0.01033819    0.01033819    0.01481594
     atom    4 type  2   force =     0.01033819   -0.01033819   -0.01481594
     atom    5 type  2   force =    -0.01033819   -0.01033819    0.01481594
     atom    6 type  2   force =    -0.01033819    0.01033819   -0.01481594
     The ionic contribution  to forces
     atom    1 type  1   force =    -0.00000000    0.00000000   -0.50986067
     atom    2 type  1   force =     0.00000000   -0.00000000    0.50986067
     atom    3 type  2   force =     0.07170407    0.07170407    0.57860966
     atom    4 type  2   force =     0.07170407   -0.07170407   -0.57860966
     atom    5 type  2   force =    -0.07170407   -0.07170407    0.57860966
     atom    6 type  2   force =    -0.07170407    0.07170407   -0.57860966
     The local contribution  to forces
     atom    1 type  1   force =    -0.00000000   -0.00000000    0.53118105
     atom    2 type  1   force =     0.00000000   -0.00000000   -0.53118105
     atom    3 type  2   force =    -0.07224068   -0.07224068   -0.59368708
     atom    4 type  2   force =    -0.07224068    0.07224068    0.59368708
     atom    5 type  2   force =     0.07224068    0.07224068   -0.59368708
     atom    6 type  2   force =     0.07224068   -0.07224068    0.59368708
     The core correction contribution to forces
     atom    1 type  1   force =     0.00000000    0.00000000    0.00000000
     atom    2 type  1   force =     0.00000000    0.00000000    0.00000000
     atom    3 type  2   force =    -0.00064230   -0.00064230   -0.00128197
     atom    4 type  2   force =    -0.00064230    0.00064230    0.00128197
     atom    5 type  2   force =     0.00064230    0.00064230   -0.00128197
     atom    6 type  2   force =     0.00064230   -0.00064230    0.00128197
     The Hubbard contrib.    to forces
     atom    1 type  1   force =     0.00000000    0.00000000    0.00000000
     atom    2 type  1   force =     0.00000000    0.00000000    0.00000000
     atom    3 type  2   force =     0.00000000    0.00000000    0.00000000
     atom    4 type  2   force =     0.00000000    0.00000000    0.00000000
     atom    5 type  2   force =     0.00000000    0.00000000    0.00000000
     atom    6 type  2   force =     0.00000000    0.00000000    0.00000000
     The SCF correction term to forces
     atom    1 type  1   force =    -0.00000000   -0.00000000   -0.00000453
     atom    2 type  1   force =    -0.00000000    0.00000000    0.00000453
     atom    3 type  2   force =     0.00000221    0.00000221   -0.00000679
     atom    4 type  2   force =     0.00000221   -0.00000221    0.00000679
     atom    5 type  2   force =    -0.00000221   -0.00000221   -0.00000679
     atom    6 type  2   force =    -0.00000221    0.00000221    0.00000679

     Total force =     0.061491     Total SCF correction =     0.000016


     Computing stress (Cartesian axis) and pressure

          total   stress  (Ry/bohr**3)                   (kbar)     P=      -52.04
  -0.00030469  -0.00000000   0.00000000          -44.82       -0.00        0.00
  -0.00000000  -0.00030469   0.00000000           -0.00      -44.82        0.00
   0.00000000   0.00000000  -0.00045182            0.00        0.00      -66.46


     BFGS Geometry Optimization
     Energy error            =      0.0E+00 Ry
     Gradient error          =      3.9E-02 Ry/Bohr
     Cell gradient error     =      5.7E+02 kbar

     number of scf cycles    =   1
     number of bfgs steps    =   0

     enthalpy           new  =     -58.1306104437 Ry

     new trust radius        =       0.5000000000 bohr
ibrav =      7
 celldm(1) =     11.03503338
 celldm(3) =      1.37074028
Input lattice vectors:
     0.46457291    -0.46457291     0.63680880
     0.46457291     0.46457291     0.63680880
    -0.46457291    -0.46457291     0.63680880
New lattice vectors in INITIAL alat:
     0.46457291    -0.46457291     0.63680880
     0.46457291     0.46457291     0.63680880
    -0.46457291    -0.46457291     0.63680880
New lattice vectors in NEW alat (for information only):
     0.50000000    -0.50000000     0.68537014
     0.50000000     0.50000000     0.68537014
    -0.50000000    -0.50000000     0.68537014
Discrepancy in bohr =     0.000000    0.000000    0.000000
     new conv_thr            =       0.0000000100 Ry

     new unit-cell volume =    920.97137 a.u.^3 (   136.47388 Ang^3 )
     density =      1.53582 g/cm^3

CELL_PARAMETERS (alat= 11.87653559)
   0.464572909  -0.464572909   0.636808798
   0.464572909   0.464572909   0.636808798
  -0.464572909  -0.464572909   0.636808798

ATOMIC_POSITIONS (crystal)
Li           -0.0000000000        0.1846129423        0.1846129423
Li           -0.0000000000        0.8153870577        0.8153870577
Si            0.0000000000        0.5655096536        0.1324120470
Si           -0.5669023934        1.4344903464        0.4344903464
Si            0.0000000000        1.1324120470       -0.4344903464
Si            0.5669023934        0.8675879530       -0.1324120470



     Writing config-only to output data dir ./output/LiSi.save/
     NEW-OLD atomic charge density approx. for the potential
     extrapolated charge   16.49302, renormalised to   22.00000

     total cpu time spent up to now is       43.2 secs

     Self-consistent Calculation

     iteration #  1     ecut=    80.00 Ry     beta= 0.70
     Davidson diagonalization with overlap
     c_bands:  1 eigenvalues not converged
     c_bands:  1 eigenvalues not converged
     c_bands:  1 eigenvalues not converged
     c_bands:  1 eigenvalues not converged
     c_bands:  1 eigenvalues not converged
     ethr =  1.00E-06,  avg # of iterations = 15.0

     total cpu time spent up to now is       55.0 secs

     total energy              =     -61.52774289 Ry
     estimated scf accuracy    <       0.42066280 Ry

     iteration #  2     ecut=    80.00 Ry     beta= 0.70
     Davidson diagonalization with overlap
     ethr =  1.91E-03,  avg # of iterations =  3.2

     total cpu time spent up to now is       58.8 secs

     total energy              =     -62.12277068 Ry
     estimated scf accuracy    <       0.73726253 Ry

     iteration #  3     ecut=    80.00 Ry     beta= 0.70
     Davidson diagonalization with overlap
     ethr =  1.91E-03,  avg # of iterations =  1.2

     total cpu time spent up to now is       61.3 secs

     total energy              =     -62.09650900 Ry
     estimated scf accuracy    <       0.15591754 Ry

     iteration #  4     ecut=    80.00 Ry     beta= 0.70
     Davidson diagonalization with overlap
     ethr =  7.09E-04,  avg # of iterations =  2.0

     total cpu time spent up to now is       64.0 secs

     total energy              =     -62.11246949 Ry
     estimated scf accuracy    <       0.01009689 Ry

     iteration #  5     ecut=    80.00 Ry     beta= 0.70
     Davidson diagonalization with overlap
     ethr =  4.59E-05,  avg # of iterations =  4.0

     total cpu time spent up to now is       67.4 secs

     total energy              =     -62.11601414 Ry
     estimated scf accuracy    <       0.00021084 Ry

     iteration #  6     ecut=    80.00 Ry     beta= 0.70
     Davidson diagonalization with overlap
     c_bands:  1 eigenvalues not converged
     ethr =  9.58E-07,  avg # of iterations =  7.6

     total cpu time spent up to now is       72.0 secs

     total energy              =     -62.11611908 Ry
     estimated scf accuracy    <       0.00015576 Ry

     iteration #  7     ecut=    80.00 Ry     beta= 0.70
     Davidson diagonalization with overlap
     ethr =  7.08E-07,  avg # of iterations =  1.9

     total cpu time spent up to now is       74.5 secs

     total energy              =     -62.11613600 Ry
     estimated scf accuracy    <       0.00000582 Ry

     iteration #  8     ecut=    80.00 Ry     beta= 0.70
     Davidson diagonalization with overlap
     ethr =  2.65E-08,  avg # of iterations =  4.2

     total cpu time spent up to now is       78.1 secs

     total energy              =     -62.11613969 Ry
     estimated scf accuracy    <       0.00000112 Ry

     iteration #  9     ecut=    80.00 Ry     beta= 0.70
     Davidson diagonalization with overlap
     ethr =  5.10E-09,  avg # of iterations =  2.2

     total cpu time spent up to now is       80.7 secs

     total energy              =     -62.11613981 Ry
     estimated scf accuracy    <       0.00000008 Ry

     iteration # 10     ecut=    80.00 Ry     beta= 0.70
     Davidson diagonalization with overlap
     ethr =  3.61E-10,  avg # of iterations =  3.9

     total cpu time spent up to now is       84.0 secs

     End of self-consistent calculation

          k = 0.0000 0.0000 0.0000 ( 13923 PWs)   bands (ev):

   -42.0900 -42.0849  -5.7956  -2.7778  -2.7778  -1.4422   1.4404   1.8365
     1.8487   1.8487   2.0199   2.0520   2.0520   3.0516   3.5748

          k =-0.2691 0.0000 0.1963 ( 13923 PWs)   bands (ev):

   -42.0899 -42.0850  -5.4791  -3.3348  -2.8129  -1.9379   0.9384   1.2511
     1.6555   1.8679   2.2051   3.0816   3.3955   3.5964   4.8651

          k = 0.5381-0.0000-0.3926 ( 13932 PWs)   bands (ev):

   -42.0897 -42.0852  -4.7618  -4.3302  -2.6284  -2.5219   0.7550   1.0822
     1.7493   1.8789   2.8756   3.1333   4.3692   4.7365   5.1858

          k =-0.0000 0.1794 0.1309 ( 13908 PWs)   bands (ev):

   -42.0899 -42.0850  -5.6535  -3.0294  -2.8080  -1.7019   1.0937   1.3844
     1.5868   1.9300   2.2440   2.6400   2.9074   3.1465   4.2702

          k =-0.2691 0.1794 0.3272 ( 13924 PWs)   bands (ev):

   -42.0898 -42.0851  -5.2019  -3.4880  -3.1563  -2.2418   0.8836   1.2938
     1.6223   2.2494   2.4585   2.9306   3.6883   4.3648   4.8695

          k = 0.5381 0.1794-0.2617 ( 13921 PWs)   bands (ev):

   -42.0898 -42.0852  -4.7524  -4.1114  -2.9135  -2.7048   0.6008   1.2684
     2.0165   2.2944   2.5887   3.2057   4.3659   4.4889   5.2327

          k = 0.2691 0.1794-0.0654 ( 13922 PWs)   bands (ev):

   -42.0899 -42.0850  -5.4816  -3.1231  -2.9186  -2.1366   0.7856   1.1550
     1.4970   2.1607   2.7519   3.0478   3.3431   3.7714   4.6968

          k =-0.0000 0.3588 0.2617 ( 13915 PWs)   bands (ev):

   -42.0898 -42.0851  -5.2427  -3.7098  -2.7839  -2.1772   0.8348   1.1577
     1.7618   1.9763   2.0681   3.5767   3.9099   4.0706   4.7285

          k =-0.2691 0.3588 0.4580 ( 13907 PWs)   bands (ev):

   -42.0897 -42.0852  -4.6977  -3.8652  -3.4510  -2.6189   0.6271   1.4453
     2.0604   2.5811   2.8820   2.9174   3.4574   4.5955   5.4011

          k = 0.5381 0.3588-0.1309 ( 13917 PWs)   bands (ev):

   -42.0898 -42.0852  -4.5817  -3.7121  -3.5007  -2.9929   0.2937   1.0572
     2.1648   3.0146   3.4197   3.5230   4.3032   4.7085   4.8691

          k = 0.2691 0.3588 0.0654 ( 13936 PWs)   bands (ev):

   -42.0898 -42.0851  -5.2065  -3.2758  -3.0431  -2.6640   0.5179   0.9213
     1.8297   2.4566   3.1198   3.6190   3.7143   4.4403   4.8951

          k =-0.2691-0.5381-0.1963 ( 13928 PWs)   bands (ev):

   -42.0898 -42.0852  -4.6953  -3.9027  -3.2101  -2.8532   0.4263   1.5634
     1.6745   2.6020   3.0485   3.3209   4.3533   4.5601   5.0137

          k = 0.5381-0.5381-0.7852 ( 13912 PWs)   bands (ev):

   -42.0898 -42.0852  -4.2322  -4.1132  -3.3069  -3.2091   0.2490   0.4852
     3.1243   3.1808   3.6711   3.8671   4.3603   4.4807   4.8141

          k = 0.1794-0.1794-0.0000 ( 13930 PWs)   bands (ev):

   -42.0899 -42.0850  -5.6091  -2.9310  -2.9253  -1.8907   0.9704   1.2131
     1.4428   2.1320   2.5899   2.6909   3.1762   3.3740   4.3107

          k =-0.0897-0.1794 0.1963 ( 13906 PWs)   bands (ev):

   -42.0899 -42.0850  -5.5697  -3.0987  -2.9097  -1.8250   1.0020   1.4419
     1.5390   2.1038   2.1899   2.5607   3.1318   3.4308   4.6025

          k = 0.7175-0.1794-0.3926 ( 13919 PWs)   bands (ev):

   -42.0898 -42.0852  -4.9347  -3.8691  -3.1170  -2.4445   0.7816   1.2160
     1.9696   2.2057   2.5080   3.3952   3.5247   4.5438   5.2085

          k = 0.4484-0.1794-0.1963 ( 13935 PWs)   bands (ev):

   -42.0898 -42.0851  -5.0349  -3.7647  -2.8885  -2.6136   0.5871   1.3562
     1.6527   2.1605   2.6863   3.7513   4.0235   4.3551   4.8551

          k =-0.0897 0.0000 0.3272 ( 13897 PWs)   bands (ev):

   -42.0898 -42.0851  -5.4688  -3.1245  -3.0365  -2.0085   0.7975   1.1921
     1.9377   2.0798   2.6571   2.8029   2.9453   3.4671   4.9561

          k = 0.7175 0.0000-0.2617 ( 13915 PWs)   bands (ev):

   -42.0897 -42.0852  -4.7454  -4.1384  -2.9577  -2.5874   0.5997   1.2019
     1.8326   2.0476   2.8587   3.2599   4.4123   4.7243   5.0549

          k = 0.4484 0.0000-0.0654 ( 13915 PWs)   bands (ev):

   -42.0898 -42.0851  -5.2150  -3.6200  -2.8110  -2.3788   0.5432   1.2725
     1.5328   1.8831   3.2212   3.4881   3.8525   4.1371   4.3443

          k = 0.1794 0.1794 0.2617 ( 13901 PWs)   bands (ev):

   -42.0898 -42.0851  -5.4175  -3.1487  -3.1453  -2.0246   0.9428   1.4308
     1.4583   2.3036   2.3128   2.5704   3.3347   4.0300   5.2162

          k =-0.0897 0.1794 0.4580 ( 13909 PWs)   bands (ev):

   -42.0897 -42.0852  -5.1046  -3.4894  -3.2188  -2.4184   0.6891   1.1947
     1.4420   2.3560   3.0190   3.4826   3.5642   4.3120   4.8359

          k = 0.7175 0.1794-0.1309 ( 13909 PWs)   bands (ev):

   -42.0897 -42.0853  -4.4068  -4.1350  -3.3867  -2.8185   0.5903   1.0926
     2.0519   2.3434   2.7352   3.6616   4.4584   4.8772   5.0641

          k = 0.4484 0.1794 0.0654 ( 13946 PWs)   bands (ev):

   -42.0898 -42.0851  -5.1215  -3.5575  -2.9286  -2.6310   0.4304   1.3385
     1.4735   2.2340   3.2782   3.7634   3.9270   4.1950   4.6171

          k =-0.0897-0.7175-0.1963 ( 13914 PWs)   bands (ev):

   -42.0897 -42.0852  -4.5839  -4.1756  -3.1017  -2.7241   0.6212   1.0619
     2.0126   2.1894   2.8955   3.2518   4.4641   4.8125   5.0650

          k = 0.7175-0.7175-0.7852 ( 13908 PWs)   bands (ev):

   -42.0897 -42.0852  -4.1256  -3.9726  -3.8718  -2.9079   0.2466   1.3706
     1.8640   2.4823   3.4567   4.0592   4.5626   4.5863   5.1706

          k = 0.4484-0.7175-0.5889 ( 13920 PWs)   bands (ev):

   -42.0898 -42.0851  -4.7638  -3.5838  -3.3074  -3.0630   0.5971   1.0807
     1.9112   2.8359   3.1809   3.6036   4.2231   4.4246   4.9029

          k =-0.0897-0.5381-0.0654 ( 13915 PWs)   bands (ev):

   -42.0898 -42.0852  -4.9539  -3.8242  -2.9083  -2.6750   0.5003   1.1310
     1.7781   2.0988   3.3211   3.4906   3.9164   4.2567   4.9982

          k = 0.4484-0.5381-0.4580 ( 13925 PWs)   bands (ev):

   -42.0897 -42.0852  -4.2586  -3.8548  -3.6291  -3.2916   1.0095   1.5722
     1.7281   2.3275   3.2224   3.3930   4.3869   4.7399   4.8879

          k = 0.1794-0.3588-0.1309 ( 13923 PWs)   bands (ev):

   -42.0898 -42.0851  -5.2876  -3.4128  -2.9111  -2.3928   0.6462   1.3072
     1.4614   2.1533   2.7751   3.4306   3.7519   4.2158   4.7727

          k =-0.0897-0.3588 0.0654 ( 13934 PWs)   bands (ev):

   -42.0899 -42.0850  -5.3922  -3.3747  -2.8130  -2.1959   0.6380   1.3336
     1.4752   1.8359   2.9684   3.3181   3.6114   3.8131   4.6569

          k = 0.7175-0.3588-0.5234 ( 13921 PWs)   bands (ev):

   -42.0898 -42.0851  -4.8847  -3.4440  -3.4369  -2.8483   0.9633   1.2654
     1.4479   2.8028   2.8604   3.5579   3.6820   4.3587   5.2078

          k = 0.4484-0.3588-0.3272 ( 13928 PWs)   bands (ev):

   -42.0898 -42.0852  -4.6104  -3.7900  -3.4071  -3.0234   1.0611   1.3165
     1.6436   2.8173   2.9526   3.0462   4.0052   4.6354   4.9800

          k = 0.3588-0.3588-0.0000 ( 13924 PWs)   bands (ev):

   -42.0898 -42.0851  -5.0579  -3.2123  -3.1925  -2.9390   0.4335   0.6785
     2.2029   2.6353   3.3618   3.7021   4.0504   4.6337   4.9702

          k = 0.0897-0.3588 0.1963 ( 13911 PWs)   bands (ev):

   -42.0898 -42.0851  -5.2995  -3.5683  -2.8122  -2.2106   0.7857   1.2013
     1.6799   1.9002   2.3891   3.4199   3.8452   4.0575   4.7297

          k = 0.6278-0.3588-0.1963 ( 13922 PWs)   bands (ev):

   -42.0897 -42.0852  -4.3268  -3.9595  -3.6742  -2.9048   0.3400   1.5274
     2.0118   2.7572   3.1241   3.4040   4.0233   4.8552   5.1103

          k = 0.0897-0.1794 0.3272 ( 13912 PWs)   bands (ev):

   -42.0898 -42.0851  -5.3792  -3.2940  -3.0579  -2.0568   0.8290   1.3911
     1.5459   2.1159   2.4549   2.8853   3.3104   3.9524   5.1384

          k = 0.8969-0.1794-0.2617 ( 13894 PWs)   bands (ev):

   -42.0897 -42.0852  -4.8800  -3.5309  -3.4901  -2.5921   0.7498   1.2020
     1.2581   2.7057   3.2422   3.5146   3.7055   4.1545   5.2700

          k = 0.6278-0.1794-0.0654 ( 13914 PWs)   bands (ev):

   -42.0897 -42.0852  -4.6171  -3.9669  -3.2525  -2.8353   0.4557   1.1865
     1.8521   2.5953   2.7098   3.7832   4.3385   4.6137   5.3793

          k = 0.0897 0.0000 0.4580 ( 13886 PWs)   bands (ev):

   -42.0897 -42.0852  -5.1901  -3.3004  -3.1962  -2.4591   0.5872   0.9117
     1.9554   2.3326   2.9018   3.3961   3.6014   4.1031   5.0703

          k = 0.8969 0.0000-0.1309 ( 13901 PWs)   bands (ev):

   -42.0896 -42.0853  -4.6178  -3.7506  -3.2962  -3.0652   0.4405   0.9354
     1.7407   2.5626   3.5465   3.8813   4.2907   4.7622   4.9703

          k = 0.6278 0.0000 0.0654 ( 13906 PWs)   bands (ev):

   -42.0897 -42.0852  -4.7104  -4.0402  -2.9413  -2.8558   0.5619   1.0396
     1.9559   2.3674   2.6156   3.7226   4.0799   4.4832   5.5375

          k = 0.0897-0.8969-0.1963 ( 13890 PWs)   bands (ev):

   -42.0896 -42.0853  -4.7692  -3.6562  -3.3550  -2.8324   0.5714   1.0298
     1.4873   2.6216   3.5319   3.6714   4.0963   4.3475   5.1513

          k = 0.8969-0.8969-0.7852 ( 13914 PWs)   bands (ev):

   -42.0896 -42.0853  -4.3303  -3.8336  -3.6352  -3.0851   0.6833   1.0961
     1.2981   2.8783   3.0294   4.1583   4.6573   4.7213   5.3374

          k = 0.6278-0.8969-0.5889 ( 13905 PWs)   bands (ev):

   -42.0897 -42.0852  -4.5863  -4.1569  -3.1466  -2.7135   0.4818   1.2408
     2.1518   2.4382   2.6927   3.0892   4.3592   4.8029   5.1910

          k = 0.3588-0.7175-0.2617 ( 13916 PWs)   bands (ev):

   -42.0897 -42.0852  -4.4336  -3.8164  -3.7860  -2.7776   0.4587   1.7458
     2.1686   2.2869   3.0101   3.2138   3.6425   4.7440   5.3391

          k = 0.0897-0.7175-0.0654 ( 13900 PWs)   bands (ev):

   -42.0896 -42.0853  -4.4141  -4.1746  -3.2025  -2.9460   0.6285   1.0288
     1.9736   2.3379   2.5984   3.9911   4.4525   4.6729   5.3340

          k = 0.6278-0.7175-0.4580 ( 13907 PWs)   bands (ev):

   -42.0897 -42.0852  -4.4236  -3.9560  -3.5547  -2.9442   0.7259   1.6363
     2.1495   2.2797   2.8902   3.1667   3.8836   4.8091   5.0694

          k =-0.8072 0.7175 0.3272 ( 13920 PWs)   bands (ev):

   -42.0898 -42.0851  -4.9416  -3.6623  -3.2796  -2.5949   1.0137   1.1812
     1.6824   2.5066   2.6711   3.3332   3.5166   4.3865   5.3065

          k =-0.2691 0.7175-0.0654 ( 13908 PWs)   bands (ev):

   -42.0897 -42.0852  -4.2399  -4.0207  -3.7102  -2.8822   0.4119   1.3895
     1.8648   2.2034   3.1871   4.0020   4.4610   4.7811   5.1653

          k =-0.8072 0.8969 0.4580 ( 13905 PWs)   bands (ev):

   -42.0897 -42.0852  -4.9370  -3.6938  -3.3255  -2.4406   0.7321   1.2091
     1.6445   2.4904   2.8415   3.3745   3.5068   4.2779   5.2778

          k =-0.2691 0.8969 0.0654 ( 13900 PWs)   bands (ev):

   -42.0896 -42.0853  -4.3066  -4.0001  -3.5796  -2.9699   0.7800   1.0259
     1.4948   2.5549   2.9788   4.1793   4.5733   4.6465   5.2073

          k =-0.8072 0.0000-0.1963 ( 13909 PWs)   bands (ev):

   -42.0896 -42.0853  -4.6971  -3.9501  -3.1471  -2.8030   0.5482   1.3359
     1.4415   2.2331   3.3784   3.5067   4.4745   4.5791   4.9020

          k = 0.0000-0.0000-0.7852 ( 13920 PWs)   bands (ev):

   -42.0895 -42.0854  -4.4920  -3.4807  -3.4222  -3.4222   0.2802   0.5088
     2.8238   2.8658   2.8658   3.9565   4.7620   4.7620   5.2888

     the Fermi energy is     3.1378 ev

!    total energy              =     -62.11613984 Ry
     estimated scf accuracy    <          8.2E-10 Ry
     smearing contrib. (-TS)   =      -0.00048033 Ry
     internal energy E=F+TS    =     -62.11565951 Ry

     The total energy is F=E-TS. E is the sum of the following terms:
     one-electron contribution =     -13.47025099 Ry
     hartree contribution      =      10.39061947 Ry
     xc contribution           =     -18.26781690 Ry
     ewald contribution        =     -40.76821109 Ry

     convergence has been achieved in  10 iterations

     Forces acting on atoms (cartesian axes, Ry/au):

     atom    1 type  1   force =     0.00000000   -0.00000000   -0.06831610
     atom    2 type  1   force =    -0.00000000    0.00000000    0.06831610
     atom    3 type  2   force =     0.01195097    0.01195097    0.01313033
     atom    4 type  2   force =     0.01195097   -0.01195097   -0.01313033
     atom    5 type  2   force =    -0.01195097   -0.01195097    0.01313033
     atom    6 type  2   force =    -0.01195097    0.01195097   -0.01313033
     The non-local contrib.  to forces
     atom    1 type  1   force =     0.00000000    0.00000000   -0.05707029
     atom    2 type  1   force =    -0.00000000   -0.00000000    0.05707029
     atom    3 type  2   force =     0.01093958    0.01093958    0.03852618
     atom    4 type  2   force =     0.01093958   -0.01093958   -0.03852618
     atom    5 type  2   force =    -0.01093958   -0.01093958    0.03852618
     atom    6 type  2   force =    -0.01093958    0.01093958   -0.03852618
     The ionic contribution  to forces
     atom    1 type  1   force =    -0.00000000    0.00000000   -0.56315547
     atom    2 type  1   force =    -0.00000000   -0.00000000    0.56315547
     atom    3 type  2   force =     0.06366315    0.06366315    0.65899275
     atom    4 type  2   force =     0.06366315   -0.06366315   -0.65899275
     atom    5 type  2   force =    -0.06366315   -0.06366315    0.65899275
     atom    6 type  2   force =    -0.06366315    0.06366315   -0.65899275
     The local contribution  to forces
     atom    1 type  1   force =     0.00000000    0.00000000    0.55190757
     atom    2 type  1   force =     0.00000000    0.00000000   -0.55190757
     atom    3 type  2   force =    -0.06199897   -0.06199897   -0.68148304
     atom    4 type  2   force =    -0.06199897    0.06199897    0.68148304
     atom    5 type  2   force =     0.06199897    0.06199897   -0.68148304
     atom    6 type  2   force =     0.06199897   -0.06199897    0.68148304
     The core correction contribution to forces
     atom    1 type  1   force =     0.00000000    0.00000000    0.00000000
     atom    2 type  1   force =     0.00000000    0.00000000    0.00000000
     atom    3 type  2   force =    -0.00065365   -0.00065365   -0.00290199
     atom    4 type  2   force =    -0.00065365    0.00065365    0.00290199
     atom    5 type  2   force =     0.00065365    0.00065365   -0.00290199
     atom    6 type  2   force =     0.00065365   -0.00065365    0.00290199
     The Hubbard contrib.    to forces
     atom    1 type  1   force =     0.00000000    0.00000000    0.00000000
     atom    2 type  1   force =     0.00000000    0.00000000    0.00000000
     atom    3 type  2   force =     0.00000000    0.00000000    0.00000000
     atom    4 type  2   force =     0.00000000    0.00000000    0.00000000
     atom    5 type  2   force =     0.00000000    0.00000000    0.00000000
     atom    6 type  2   force =     0.00000000    0.00000000    0.00000000
     The SCF correction term to forces
     atom    1 type  1   force =     0.00000000    0.00000000    0.00000209
     atom    2 type  1   force =    -0.00000000   -0.00000000   -0.00000209
     atom    3 type  2   force =     0.00000086    0.00000086   -0.00000357
     atom    4 type  2   force =     0.00000086   -0.00000086    0.00000357
     atom    5 type  2   force =    -0.00000086   -0.00000086   -0.00000357
     atom    6 type  2   force =    -0.00000086    0.00000086    0.00000357

     Total force =     0.105671     Total SCF correction =     0.000008


     Computing stress (Cartesian axis) and pressure

          total   stress  (Ry/bohr**3)                   (kbar)     P=      -27.57
  -0.00006657   0.00000000  -0.00000000           -9.79        0.00       -0.00
   0.00000000  -0.00006657  -0.00000000            0.00       -9.79       -0.00
  -0.00000000  -0.00000000  -0.00042910           -0.00       -0.00      -63.12

     Energy error            =      8.6E-01 Ry
     Gradient error          =      6.8E-02 Ry/Bohr
     Cell gradient error     =      5.6E+02 kbar

     number of scf cycles    =   2
     number of bfgs steps    =   1

     enthalpy           old  =     -58.1306104437 Ry
     enthalpy           new  =     -58.9858217587 Ry

     CASE: enthalpy          _new < enthalpy          _old

     new trust radius        =       0.7240390801 bohr
ibrav =      7
 celldm(1) =      9.87079014
 celldm(3) =      1.34961274
Input lattice vectors:
     0.41555848    -0.41555848     0.56084302
     0.41555848     0.41555848     0.56084302
    -0.41555848    -0.41555848     0.56084302
New lattice vectors in INITIAL alat:
     0.41555848    -0.41555848     0.56084302
     0.41555848     0.41555848     0.56084302
    -0.41555848    -0.41555848     0.56084302
New lattice vectors in NEW alat (for information only):
     0.50000000    -0.50000000     0.67480637
     0.50000000     0.50000000     0.67480637
    -0.50000000    -0.50000000     0.67480637
Discrepancy in bohr =     0.000000    0.000000    0.000000
     new conv_thr            =       0.0000000068 Ry

     new unit-cell volume =    648.98540 a.u.^3 (    96.16971 Ang^3 )
     density =      2.17948 g/cm^3

CELL_PARAMETERS (alat= 11.87653559)
   0.415558479  -0.415558479   0.560843018
   0.415558479   0.415558479   0.560843018
  -0.415558479  -0.415558479   0.560843018

ATOMIC_POSITIONS (crystal)
Li           -0.0000000000        0.1787997430        0.1787997430
Li           -0.0000000000        0.8212002570        0.8212002570
Si           -0.0000000000        0.5681396929        0.1323507310
Si           -0.5642110381        1.4318603071        0.4318603071
Si            0.0000000000        1.1323507310       -0.4318603071
Si            0.5642110381        0.8676492690       -0.1323507310



     Writing config-only to output data dir ./output/LiSi.save/
     NEW-OLD atomic charge density approx. for the potential
     extrapolated charge   12.78478, renormalised to   22.00000

     total cpu time spent up to now is       91.1 secs

     Self-consistent Calculation

     iteration #  1     ecut=    80.00 Ry     beta= 0.70
     Davidson diagonalization with overlap
     c_bands:  1 eigenvalues not converged
     c_bands:  1 eigenvalues not converged
     c_bands:  1 eigenvalues not converged
     c_bands:  1 eigenvalues not converged
     c_bands:  1 eigenvalues not converged
     c_bands:  1 eigenvalues not converged
     c_bands:  1 eigenvalues not converged
     c_bands:  1 eigenvalues not converged
     c_bands:  1 eigenvalues not converged
     c_bands:  1 eigenvalues not converged
     c_bands:  1 eigenvalues not converged
     c_bands:  1 eigenvalues not converged
     c_bands:  1 eigenvalues not converged
     c_bands:  1 eigenvalues not converged
     c_bands:  2 eigenvalues not converged
     c_bands:  1 eigenvalues not converged
     ethr =  1.00E-06,  avg # of iterations = 18.1

     total cpu time spent up to now is      103.5 secs

     total energy              =     -60.37376144 Ry
     estimated scf accuracy    <       1.37277930 Ry

     iteration #  2     ecut=    80.00 Ry     beta= 0.70
     Davidson diagonalization with overlap
     ethr =  6.24E-03,  avg # of iterations =  3.2

     total cpu time spent up to now is      106.9 secs

     total energy              =     -62.13913557 Ry
     estimated scf accuracy    <       2.09010365 Ry

     iteration #  3     ecut=    80.00 Ry     beta= 0.70
     Davidson diagonalization with overlap
     ethr =  6.24E-03,  avg # of iterations =  1.1

     total cpu time spent up to now is      109.3 secs

     total energy              =     -61.99844028 Ry
     estimated scf accuracy    <       0.45267607 Ry

     iteration #  4     ecut=    80.00 Ry     beta= 0.70
     Davidson diagonalization with overlap
     ethr =  2.06E-03,  avg # of iterations =  2.1

     total cpu time spent up to now is      112.2 secs

     total energy              =     -62.09768849 Ry
     estimated scf accuracy    <       0.00161748 Ry

     iteration #  5     ecut=    80.00 Ry     beta= 0.70
     Davidson diagonalization with overlap
     ethr =  7.35E-06,  avg # of iterations =  8.3

     total cpu time spent up to now is      117.3 secs

     total energy              =     -62.10090702 Ry
     estimated scf accuracy    <       0.00060545 Ry

     iteration #  6     ecut=    80.00 Ry     beta= 0.70
     Davidson diagonalization with overlap
     ethr =  2.75E-06,  avg # of iterations =  2.5

     total cpu time spent up to now is      120.1 secs

     total energy              =     -62.10107265 Ry
     estimated scf accuracy    <       0.00017481 Ry

     iteration #  7     ecut=    80.00 Ry     beta= 0.70
     Davidson diagonalization with overlap
     ethr =  7.95E-07,  avg # of iterations =  1.9

     total cpu time spent up to now is      122.4 secs

     total energy              =     -62.10109981 Ry
     estimated scf accuracy    <       0.00000123 Ry

     iteration #  8     ecut=    80.00 Ry     beta= 0.70
     Davidson diagonalization with overlap
     ethr =  5.61E-09,  avg # of iterations =  5.0

     total cpu time spent up to now is      126.2 secs

     total energy              =     -62.10110144 Ry
     estimated scf accuracy    <       0.00000109 Ry

     iteration #  9     ecut=    80.00 Ry     beta= 0.70
     Davidson diagonalization with overlap
     ethr =  4.95E-09,  avg # of iterations =  1.9

     total cpu time spent up to now is      128.6 secs

     total energy              =     -62.10110157 Ry
     estimated scf accuracy    <       0.00000003 Ry

     iteration # 10     ecut=    80.00 Ry     beta= 0.70
     Davidson diagonalization with overlap
     ethr =  1.51E-10,  avg # of iterations =  3.9

     total cpu time spent up to now is      131.6 secs

     End of self-consistent calculation

          k = 0.0000 0.0000 0.0000 ( 13923 PWs)   bands (ev):

   -39.3505 -39.3235  -4.4923   0.3995   0.3995   2.6568   3.9964   4.0115
     4.0115   4.1390   4.2643   4.3451   4.3451   5.9132   5.9314

          k =-0.3008 0.0000 0.2229 ( 13923 PWs)   bands (ev):

   -39.3498 -39.3241  -4.0640  -0.7785   0.2464   1.5710   2.8857   3.4068
     4.1459   4.1912   4.8033   5.6319   6.2009   6.9826   8.0770

          k = 0.6016-0.0000-0.4458 ( 13932 PWs)   bands (ev):

   -39.3491 -39.3248  -3.0849  -2.3875   0.4943   0.5614   2.6161   3.0995
     4.1305   4.3172   6.0648   6.6222   7.5348   8.0512   8.4901

          k =-0.0000 0.2005 0.1486 ( 13908 PWs)   bands (ev):

   -39.3502 -39.3238  -4.3007  -0.1723   0.2935   2.0330   3.1345   3.6221
     3.8569   4.2332   4.7637   5.1258   5.5978   6.1788   7.0271

          k =-0.3008 0.2005 0.3715 ( 13924 PWs)   bands (ev):

   -39.3494 -39.3246  -3.6726  -1.1205  -0.5295   1.0119   2.9861   3.6526
     4.1738   4.7964   5.0196   5.4505   7.0469   7.9058   8.5787

          k = 0.6016 0.2005-0.2972 ( 13921 PWs)   bands (ev):

   -39.3491 -39.3248  -3.0800  -2.0520  -0.2449   0.2846   2.4650   3.6994
     4.5656   5.0453   5.3526   6.5073   7.5852   7.8394   8.9760

          k = 0.3008 0.2005-0.0743 ( 13922 PWs)   bands (ev):

   -39.3499 -39.3240  -4.0786  -0.3195   0.0824   0.9087   2.6994   3.1992
     4.1651   4.6600   5.5436   5.9907   6.2963   6.7974   7.6984

          k =-0.0000 0.4011 0.2972 ( 13915 PWs)   bands (ev):

   -39.3495 -39.3245  -3.7408  -1.4341   0.2586   1.1472   2.7300   3.2408
     4.1382   4.4647   4.8640   6.3107   6.8517   7.8263   8.4813

          k =-0.3008 0.4011 0.5201 ( 13907 PWs)   bands (ev):

   -39.3490 -39.3249  -2.9558  -1.7804  -1.1058   0.4092   2.5178   4.1155
     4.8897   5.2567   5.6889   5.9684   6.2400   8.2935   9.2239

          k = 0.6016 0.4011-0.1486 ( 13917 PWs)   bands (ev):

   -39.3491 -39.3248  -2.8620  -1.5428  -1.1342  -0.1119   2.0531   3.1857
     5.1327   6.0807   6.5385   6.9398   7.7012   8.2732   8.5064

          k = 0.3008 0.4011 0.0743 ( 13936 PWs)   bands (ev):

   -39.3496 -39.3243  -3.7141  -0.6061  -0.2730   0.1002   2.3487   2.8712
     4.7412   5.1684   6.2824   6.6226   6.9712   7.6311   8.3681

          k =-0.3008-0.6016-0.2229 ( 13928 PWs)   bands (ev):

   -39.3491 -39.3248  -3.0098  -1.7260  -0.7985   0.0709   2.2315   3.9663
     4.4613   5.3778   5.9601   6.6601   7.6395   8.0053   8.8249

          k = 0.6016-0.6016-0.8915 ( 13912 PWs)   bands (ev):

   -39.3491 -39.3248  -2.3676  -2.2499  -0.7367  -0.2974   2.0646   2.1622
     5.9612   7.0768   7.1232   7.5465   7.7822   7.9263   8.3428

          k = 0.2005-0.2005-0.0000 ( 13930 PWs)   bands (ev):

   -39.3502 -39.3238  -4.2479   0.0194   0.1440   1.3818   3.0044   3.1436
     4.0734   4.5648   5.1476   5.6183   6.0908   6.2221   7.0390

          k =-0.1003-0.2005 0.2229 ( 13906 PWs)   bands (ev):

   -39.3499 -39.3240  -4.1835  -0.3490   0.0427   1.7642   3.2230   3.6191
     3.8377   4.5098   4.6280   5.0557   6.0252   6.4765   7.5342

          k = 0.8021-0.2005-0.4458 ( 13919 PWs)   bands (ev):

   -39.3491 -39.3248  -3.2986  -1.7431  -0.5145   0.6891   2.7632   3.6015
     4.5790   4.9075   5.1371   6.1602   6.8744   8.2415   8.9074

          k = 0.5013-0.2005-0.2229 ( 13935 PWs)   bands (ev):

   -39.3493 -39.3246  -3.4722  -1.4915  -0.0625   0.2812   2.4358   3.8152
     4.1951   4.7337   5.4776   6.8160   7.5078   7.7405   8.4735

          k =-0.1003 0.0000 0.3715 ( 13897 PWs)   bands (ev):

   -39.3495 -39.3244  -4.0266  -0.4326  -0.2508   1.2876   3.0374   3.2547
     4.3411   4.6088   5.3277   5.6216   5.7975   6.4077   8.0199

          k = 0.8021-0.0000-0.2972 ( 13915 PWs)   bands (ev):

   -39.3488 -39.3251  -3.0099  -2.1364  -0.2301   0.3242   2.6332   3.3424
     4.2894   4.8183   5.6778   6.5613   7.8414   8.1239   9.0207

          k = 0.5013-0.0000-0.0743 ( 13915 PWs)   bands (ev):

   -39.3495 -39.3245  -3.7237  -1.1385   0.0489   0.6439   2.4336   3.3981
     4.1417   4.3739   6.0741   6.3651   7.3160   7.5665   7.6687

          k = 0.2005 0.2005 0.2972 ( 13901 PWs)   bands (ev):

   -39.3497 -39.3243  -3.9726  -0.5331  -0.4209   1.3830   3.1770   3.7477
     3.7872   4.7872   4.8824   4.9433   6.4808   7.2435   8.3103

          k =-0.1003 0.2005 0.5201 ( 13909 PWs)   bands (ev):

   -39.3489 -39.3250  -3.5021  -1.1353  -0.6586   0.5544   2.8995   3.2832
     3.8234   5.0135   5.9295   6.5415   6.8833   7.7934   8.5659

          k = 0.8021 0.2005-0.1486 ( 13909 PWs)   bands (ev):

   -39.3487 -39.3252  -2.5629  -2.0424  -1.0765  -0.1144   2.6850   3.4372
     4.6353   5.1769   5.6301   6.9048   7.8931   8.5753   8.9399

          k = 0.5013 0.2005 0.0743 ( 13946 PWs)   bands (ev):

   -39.3494 -39.3245  -3.5994  -1.0478  -0.2334   0.2684   2.2274   3.5016
     4.0643   4.9655   6.4222   6.7636   7.4047   7.6458   7.8569

          k =-0.1003-0.8021-0.2229 ( 13914 PWs)   bands (ev):

   -39.3487 -39.3252  -2.7844  -2.1642  -0.5509   0.0569   2.7059   3.2781
     4.5844   4.9452   5.9671   6.2832   7.7836   8.4233   9.0397

          k = 0.8021-0.8021-0.8915 ( 13908 PWs)   bands (ev):

   -39.3488 -39.3251  -2.1298  -2.1297  -1.4941  -0.1849   2.1616   3.5314
     4.7310   5.2337   6.6167   7.7291   8.2160   8.2907   8.8751

          k = 0.5013-0.8021-0.6686 ( 13920 PWs)   bands (ev):

   -39.3493 -39.3247  -3.1052  -1.2780  -0.9258  -0.3194   2.5966   3.2612
     4.9081   5.5771   6.1720   7.1481   7.4331   7.9735   8.3945

          k =-0.1003-0.6016-0.0743 ( 13915 PWs)   bands (ev):

   -39.3492 -39.3248  -3.3723  -1.4535  -0.2923   0.1640   2.5043   3.3142
     4.4109   4.7184   6.3325   6.6746   6.9283   8.0108   8.4502

          k = 0.5013-0.6016-0.5201 ( 13925 PWs)   bands (ev):

   -39.3491 -39.3248  -2.3479  -1.8284  -1.4697  -0.6845   3.3115   4.0781
     4.5736   5.2797   6.1465   6.4368   7.6272   8.2865   8.4947

          k = 0.2005-0.4011-0.1486 ( 13923 PWs)   bands (ev):

   -39.3496 -39.3243  -3.8173  -0.8736   0.0245   0.5209   2.5063   3.5616
     4.0473   4.7020   5.6525   6.2812   6.9735   7.5128   8.3189

          k =-0.1003-0.4011 0.0743 ( 13934 PWs)   bands (ev):

   -39.3498 -39.3242  -3.9600  -0.7445   0.1899   0.9132   2.4459   3.6238
     3.8621   4.3126   5.8583   6.1606   6.6629   7.0954   8.0252

          k = 0.8021-0.4011-0.5943 ( 13921 PWs)   bands (ev):

   -39.3493 -39.3246  -3.2592  -1.1252  -0.9726  -0.1466   3.2528   3.5496
     4.1335   5.5099   5.7292   6.5136   7.0602   7.9374   8.8452

          k = 0.5013-0.4011-0.3715 ( 13928 PWs)   bands (ev):

   -39.3492 -39.3248  -2.8689  -1.6486  -1.0598  -0.3632   3.3588   3.9001
     4.2497   5.6455   5.7719   6.2612   7.0107   8.2510   8.5335

          k = 0.4011-0.4011-0.0000 ( 13924 PWs)   bands (ev):

   -39.3495 -39.3244  -3.5173  -0.6851  -0.5231  -0.1274   2.3010   2.4194
     5.2691   5.5266   6.7213   6.9690   7.1660   7.9809   8.4309

          k = 0.1003-0.4011 0.2229 ( 13911 PWs)   bands (ev):

   -39.3496 -39.3243  -3.8260  -1.1724   0.2207   0.9599   2.6745   3.4450
     4.1671   4.3917   5.0598   6.1744   6.8062   7.6727   8.3823

          k = 0.7019-0.4011-0.2229 ( 13922 PWs)   bands (ev):

   -39.3490 -39.3249  -2.4701  -1.9433  -1.4240  -0.0063   2.1220   3.9151
     4.9709   5.9067   6.1039   6.4793   7.0954   8.6665   8.8171

          k = 0.1003-0.2005 0.3715 ( 13912 PWs)   bands (ev):

   -39.3495 -39.3245  -3.9082  -0.7664  -0.3161   1.3267   3.0389   3.5315
     3.8756   4.6532   5.0141   5.5188   6.5091   7.0980   8.5301

          k = 1.0027-0.2005-0.2972 ( 13894 PWs)   bands (ev):

   -39.3487 -39.3252  -3.1710  -1.2345  -1.1551   0.2594   3.0043   3.3398
     3.6266   5.4747   6.3719   6.7891   6.8381   7.7192   9.0926

          k = 0.7019-0.2005-0.0743 ( 13914 PWs)   bands (ev):

   -39.3489 -39.3250  -2.9114  -1.6740  -0.9218  -0.1085   2.4957   3.4876
     4.4169   5.4351   5.6592   7.1084   7.6236   8.3028   9.3262

          k = 0.1003 0.0000 0.5201 ( 13886 PWs)   bands (ev):

   -39.3489 -39.3251  -3.6156  -0.7862  -0.5843   0.3834   2.6358   2.9580
     4.5771   4.9649   6.1267   6.3655   6.6945   7.3256   9.1648

          k = 1.0027-0.0000-0.1486 ( 13901 PWs)   bands (ev):

   -39.3482 -39.3257  -2.7137  -1.5873  -0.8049  -0.7348   2.4344   3.0367
     4.5475   5.3630   6.8839   7.5584   7.7911   8.2696   8.6190

          k = 0.7019-0.0000 0.0743 ( 13906 PWs)   bands (ev):

   -39.3488 -39.3251  -3.0390  -1.7710  -0.4587  -0.1415   2.6437   3.3079
     4.6563   5.1184   5.4330   6.9467   7.0280   8.3432   9.3240

          k = 0.1003-1.0027-0.2229 ( 13890 PWs)   bands (ev):

   -39.3484 -39.3255  -2.9797  -1.4240  -0.9372  -0.2583   2.6970   3.1128
     4.0753   5.4178   6.8740   7.0432   7.5911   7.8248   8.8541

          k = 1.0027-1.0027-0.8915 ( 13914 PWs)   bands (ev):

   -39.3482 -39.3257  -2.1416  -1.8243  -1.4975  -0.7169   3.0183   3.0814
     3.9773   5.8289   6.0152   8.0435   8.2686   8.4092   9.1242

          k = 0.7019-1.0027-0.6686 ( 13905 PWs)   bands (ev):

   -39.3489 -39.3250  -2.8515  -2.0875  -0.6743   0.2437   2.3325   3.6227
     4.9189   5.1431   5.7033   6.0447   7.6683   8.3789   9.1849

          k = 0.4011-0.8021-0.2972 ( 13916 PWs)   bands (ev):

   -39.3490 -39.3249  -2.5678  -1.8587  -1.5181   0.1701   2.2851   4.4905
     4.9983   5.2250   5.9679   6.1379   6.4488   8.5130   9.1426

          k = 0.1003-0.8021-0.0743 ( 13900 PWs)   bands (ev):

   -39.3485 -39.3254  -2.6183  -1.9745  -0.8538  -0.3947   2.7492   3.4237
     4.5398   5.1779   5.4301   7.4031   7.5528   8.5358   9.4551

          k = 0.7019-0.8021-0.5201 ( 13907 PWs)   bands (ev):

   -39.3491 -39.3248  -2.5787  -1.9457  -1.2897  -0.1763   2.8025   4.4307
     4.8695   5.2463   5.7666   6.0798   6.7693   8.5152   8.7250

          k =-0.9024 0.8021 0.3715 ( 13920 PWs)   bands (ev):

   -39.3492 -39.3247  -3.3232  -1.4244  -0.7743   0.3118   3.2590   3.6283
     4.3105   5.1753   5.3374   5.9781   6.9384   7.9899   9.0417

          k =-0.3008 0.8021-0.0743 ( 13908 PWs)   bands (ev):

   -39.3487 -39.3252  -2.3599  -1.8352  -1.5653  -0.2168   2.4539   3.7839
     4.4802   4.8977   6.2548   7.4865   8.0539   8.5681   8.8802

          k =-0.9024 1.0027 0.5201 ( 13905 PWs)   bands (ev):

   -39.3489 -39.3250  -3.2784  -1.4901  -0.8803   0.6729   2.7051   3.6135
     4.1221   5.1973   5.6163   6.2679   6.8265   7.8947   9.0630

          k =-0.3008 1.0027 0.0743 ( 13900 PWs)   bands (ev):

   -39.3484 -39.3255  -2.2612  -1.9281  -1.4181  -0.4952   3.0488   3.4586
     3.8256   5.3975   5.9536   7.7641   8.1503   8.4399   8.9303

          k =-0.9024 0.0000-0.2229 ( 13909 PWs)   bands (ev):

   -39.3485 -39.3254  -2.8930  -1.8706  -0.5597  -0.2146   2.6026   3.6625
     3.9145   4.9293   6.6310   6.6943   8.0054   8.2604   8.4875

          k = 0.0000-0.0000-0.8915 ( 13920 PWs)   bands (ev):

   -39.3478 -39.3260  -2.3652  -1.5928  -1.0051  -1.0051   2.0654   2.5022
     5.7905   5.7905   6.7155   7.6471   8.1989   8.1989   9.1179

     the Fermi energy is     6.1352 ev

!    total energy              =     -62.10110159 Ry
     estimated scf accuracy    <          1.1E-09 Ry
     smearing contrib. (-TS)   =      -0.00145348 Ry
     internal energy E=F+TS    =     -62.09964811 Ry

     The total energy is F=E-TS. E is the sum of the following terms:
     one-electron contribution =      -6.47362723 Ry
     hartree contribution      =       9.37027211 Ry
     xc contribution           =     -18.97581105 Ry
     ewald contribution        =     -46.02048194 Ry

     convergence has been achieved in  10 iterations

     Forces acting on atoms (cartesian axes, Ry/au):

     atom    1 type  1   force =    -0.00000000   -0.00000000   -0.12611332
     atom    2 type  1   force =    -0.00000000    0.00000000    0.12611332
     atom    3 type  2   force =     0.01131720    0.01131720    0.05036504
     atom    4 type  2   force =     0.01131720   -0.01131720   -0.05036504
     atom    5 type  2   force =    -0.01131720   -0.01131720    0.05036504
     atom    6 type  2   force =    -0.01131720    0.01131720   -0.05036504
     The non-local contrib.  to forces
     atom    1 type  1   force =     0.00000000   -0.00000000   -0.04455163
     atom    2 type  1   force =    -0.00000000   -0.00000000    0.04455163
     atom    3 type  2   force =     0.00553912    0.00553912    0.07546472
     atom    4 type  2   force =     0.00553912   -0.00553912   -0.07546472
     atom    5 type  2   force =    -0.00553912   -0.00553912    0.07546472
     atom    6 type  2   force =    -0.00553912    0.00553912   -0.07546472
     The ionic contribution  to forces
     atom    1 type  1   force =    -0.00000000    0.00000000   -0.58089159
     atom    2 type  1   force =     0.00000000   -0.00000000    0.58089159
     atom    3 type  2   force =     0.01751719    0.01751719    0.75802445
     atom    4 type  2   force =     0.01751719   -0.01751719   -0.75802445
     atom    5 type  2   force =    -0.01751719   -0.01751719    0.75802445
     atom    6 type  2   force =    -0.01751719    0.01751719   -0.75802445
     The local contribution  to forces
     atom    1 type  1   force =     0.00000000   -0.00000000    0.49933534
     atom    2 type  1   force =    -0.00000000   -0.00000000   -0.49933534
     atom    3 type  2   force =    -0.01149550   -0.01149550   -0.77755139
     atom    4 type  2   force =    -0.01149550    0.01149550    0.77755139
     atom    5 type  2   force =     0.01149550    0.01149550   -0.77755139
     atom    6 type  2   force =     0.01149550   -0.01149550    0.77755139
     The core correction contribution to forces
     atom    1 type  1   force =     0.00000000    0.00000000    0.00000000
     atom    2 type  1   force =     0.00000000    0.00000000    0.00000000
     atom    3 type  2   force =    -0.00024943   -0.00024943   -0.00556248
     atom    4 type  2   force =    -0.00024943    0.00024943    0.00556248
     atom    5 type  2   force =     0.00024943    0.00024943   -0.00556248
     atom    6 type  2   force =     0.00024943   -0.00024943    0.00556248
     The Hubbard contrib.    to forces
     atom    1 type  1   force =     0.00000000    0.00000000    0.00000000
     atom    2 type  1   force =     0.00000000    0.00000000    0.00000000
     atom    3 type  2   force =     0.00000000    0.00000000    0.00000000
     atom    4 type  2   force =     0.00000000    0.00000000    0.00000000
     atom    5 type  2   force =     0.00000000    0.00000000    0.00000000
     atom    6 type  2   force =     0.00000000    0.00000000    0.00000000
     The SCF correction term to forces
     atom    1 type  1   force =    -0.00000000    0.00000000   -0.00000544
     atom    2 type  1   force =    -0.00000000    0.00000000    0.00000544
     atom    3 type  2   force =     0.00000582    0.00000582   -0.00001026
     atom    4 type  2   force =     0.00000582   -0.00000582    0.00001026
     atom    5 type  2   force =    -0.00000582   -0.00000582   -0.00001026
     atom    6 type  2   force =    -0.00000582    0.00000582    0.00001026

     Total force =     0.207317     Total SCF correction =     0.000027


     Computing stress (Cartesian axis) and pressure

          total   stress  (Ry/bohr**3)                   (kbar)     P=      105.33
   0.00104773  -0.00000000   0.00000000          154.13       -0.00        0.00
  -0.00000000   0.00104773  -0.00000000           -0.00      154.13       -0.00
   0.00000000  -0.00000000   0.00005264            0.00       -0.00        7.74

     Energy error            =      9.1E-01 Ry
     Gradient error          =      1.3E-01 Ry/Bohr
     Cell gradient error     =      4.9E+02 kbar

     number of scf cycles    =   3
     number of bfgs steps    =   2

     enthalpy           old  =     -58.9858217587 Ry
     enthalpy           new  =     -59.8952450275 Ry

     CASE: enthalpy          _new < enthalpy          _old

     new trust radius        =       0.8000000000 bohr
ibrav =      7
 celldm(1) =      8.74906634
 celldm(3) =      1.28356826
Input lattice vectors:
     0.36833411    -0.36833411     0.47278197
     0.36833411     0.36833411     0.47278197
    -0.36833411    -0.36833411     0.47278197
New lattice vectors in INITIAL alat:
     0.36833411    -0.36833411     0.47278197
     0.36833411     0.36833411     0.47278197
    -0.36833411    -0.36833411     0.47278197
New lattice vectors in NEW alat (for information only):
     0.50000000    -0.50000000     0.64178413
     0.50000000     0.50000000     0.64178413
    -0.50000000    -0.50000000     0.64178413
Discrepancy in bohr =     0.000000    0.000000    0.000000
     new conv_thr            =       0.0000000100 Ry

     new unit-cell volume =    429.80761 a.u.^3 (    63.69092 Ang^3 )
     density =      3.29089 g/cm^3

CELL_PARAMETERS (alat= 11.87653559)
   0.368334110  -0.368334110   0.472781971
   0.368334110   0.368334110   0.472781971
  -0.368334110  -0.368334110   0.472781971

ATOMIC_POSITIONS (crystal)
Li           -0.0000000000        0.1665093604        0.1665093604
Li           -0.0000000000        0.8334906396        0.8334906396
Si           -0.0000000000        0.5744839864        0.1352012627
Si           -0.5607172763        1.4255160136        0.4255160136
Si            0.0000000000        1.1352012627       -0.4255160136
Si            0.5607172763        0.8647987373       -0.1352012627



     Writing config-only to output data dir ./output/LiSi.save/
     NEW-OLD atomic charge density approx. for the potential

     negative rho (up, down):  3.148E-02 0.000E+00
     extrapolated charge   10.78713, renormalised to   22.00000

     total cpu time spent up to now is      138.3 secs

     Self-consistent Calculation

     iteration #  1     ecut=    80.00 Ry     beta= 0.70
     Davidson diagonalization with overlap
     c_bands:  1 eigenvalues not converged
     c_bands:  1 eigenvalues not converged
     c_bands:  1 eigenvalues not converged
     c_bands:  1 eigenvalues not converged
     c_bands:  1 eigenvalues not converged
     c_bands:  1 eigenvalues not converged
     c_bands:  1 eigenvalues not converged
     c_bands:  1 eigenvalues not converged
     c_bands:  1 eigenvalues not converged
     c_bands:  1 eigenvalues not converged
     c_bands:  2 eigenvalues not converged
     c_bands:  1 eigenvalues not converged
     c_bands:  1 eigenvalues not converged
     c_bands:  1 eigenvalues not converged
     c_bands:  1 eigenvalues not converged
     c_bands:  1 eigenvalues not converged
     c_bands:  1 eigenvalues not converged
     c_bands:  1 eigenvalues not converged
     c_bands:  1 eigenvalues not converged
     c_bands:  1 eigenvalues not converged
     c_bands:  1 eigenvalues not converged
     c_bands:  1 eigenvalues not converged
     c_bands:  1 eigenvalues not converged
     c_bands:  1 eigenvalues not converged
     ethr =  1.00E-06,  avg # of iterations = 18.3

     total cpu time spent up to now is      150.0 secs

     total energy              =     -59.24178533 Ry
     estimated scf accuracy    <       2.24745245 Ry

     iteration #  2     ecut=    80.00 Ry     beta= 0.70
     Davidson diagonalization with overlap
     ethr =  1.00E-02,  avg # of iterations =  3.1

     total cpu time spent up to now is      153.2 secs

     total energy              =     -61.84043826 Ry
     estimated scf accuracy    <       3.10704153 Ry

     iteration #  3     ecut=    80.00 Ry     beta= 0.70
     Davidson diagonalization with overlap
     ethr =  1.00E-02,  avg # of iterations =  1.2

     total cpu time spent up to now is      155.4 secs

     total energy              =     -61.56354637 Ry
     estimated scf accuracy    <       0.70521367 Ry

     iteration #  4     ecut=    80.00 Ry     beta= 0.70
     Davidson diagonalization with overlap
     ethr =  3.21E-03,  avg # of iterations =  2.0

     total cpu time spent up to now is      158.1 secs

     total energy              =     -61.75316876 Ry
     estimated scf accuracy    <       0.01898844 Ry

     iteration #  5     ecut=    80.00 Ry     beta= 0.70
     Davidson diagonalization with overlap
     ethr =  8.63E-05,  avg # of iterations =  5.4

     total cpu time spent up to now is      161.2 secs

     total energy              =     -61.75502225 Ry
     estimated scf accuracy    <       0.00459735 Ry

     iteration #  6     ecut=    80.00 Ry     beta= 0.70
     Davidson diagonalization with overlap
     ethr =  2.09E-05,  avg # of iterations =  2.9

     total cpu time spent up to now is      164.1 secs

     total energy              =     -61.75634395 Ry
     estimated scf accuracy    <       0.00025617 Ry

     iteration #  7     ecut=    80.00 Ry     beta= 0.70
     Davidson diagonalization with overlap
     ethr =  1.16E-06,  avg # of iterations =  4.0

     total cpu time spent up to now is      167.0 secs

     total energy              =     -61.75640559 Ry
     estimated scf accuracy    <       0.00000083 Ry

     iteration #  8     ecut=    80.00 Ry     beta= 0.70
     Davidson diagonalization with overlap
     ethr =  3.76E-09,  avg # of iterations =  4.9

     total cpu time spent up to now is      170.6 secs

     total energy              =     -61.75640743 Ry
     estimated scf accuracy    <       0.00000028 Ry

     iteration #  9     ecut=    80.00 Ry     beta= 0.70
     Davidson diagonalization with overlap
     ethr =  1.29E-09,  avg # of iterations =  2.0

     total cpu time spent up to now is      173.0 secs

     End of self-consistent calculation

          k = 0.0000 0.0000 0.0000 ( 13923 PWs)   bands (ev):

   -35.7162 -35.5140  -2.3111   5.6236   5.6236   7.3787   7.3787   7.4808
     7.8302   8.1516   8.1516   8.3567   9.4648   9.8913  11.2012

          k =-0.3394-0.0000 0.2644 ( 13923 PWs)   bands (ev):

   -35.7129 -35.5169  -1.7572   3.0038   4.9813   6.1411   6.3556   7.1449
     8.0277   8.9167   9.2946   9.7221  11.0931  12.8478  13.0933

          k = 0.6787 0.0000-0.5288 ( 13932 PWs)   bands (ev):

   -35.7094 -35.5199  -0.5335   0.6661   4.9847   5.1133   5.8232   6.7918
     8.2187   8.7491  11.3625  12.2999  12.4914  13.3482  13.6933

          k = 0.0000 0.2262 0.1763 ( 13908 PWs)   bands (ev):

   -35.7146 -35.5154  -2.0635   4.1153   5.1990   6.4453   6.9921   7.3874
     7.9139   8.3434   8.7386   9.2790  10.7806  11.4222  11.6495

          k =-0.3394 0.2262 0.4407 ( 13924 PWs)   bands (ev):

   -35.7106 -35.5189  -1.2244   2.2893   3.3061   5.4578   6.9559   7.8347
     8.4331   9.1030   9.3413   9.9973  12.4529  13.6452  14.6771

          k = 0.6787 0.2262-0.3525 ( 13921 PWs)   bands (ev):

   -35.7095 -35.5197  -0.5307   1.1034   3.4299   4.8110   5.9411   7.7549
     8.9733   9.6011  10.4036  11.5848  12.6913  13.2949  14.5680

          k = 0.3394 0.2262-0.0881 ( 13922 PWs)   bands (ev):

   -35.7136 -35.5163  -1.8016   3.9608   4.5106   5.1651   5.9814   6.6996
     8.4665   9.2779  10.1736  10.5307  11.4913  12.1594  12.8786

          k = 0.0000 0.4525 0.3525 ( 13915 PWs)   bands (ev):

   -35.7112 -35.5184  -1.3395   1.9746   4.8719   5.7504   5.9971   6.9538
     8.1103   8.9660  10.0128  10.5536  11.7552  14.0466  14.2168

          k =-0.3394 0.4525 0.6169 ( 13907 PWs)   bands (ev):

   -35.7089 -35.5203  -0.2764   1.2210   2.3962   4.8523   6.1198   8.4911
     9.3767   9.9501  10.1704  10.9198  11.5269  14.0760  15.2447

          k = 0.6787 0.4525-0.1763 ( 13917 PWs)   bands (ev):

   -35.7096 -35.5195  -0.2969   1.4769   2.5823   4.5045   5.2511   6.9562
     9.5657  11.2797  11.8103  12.1139  13.3853  14.0859  14.4583

          k = 0.3394 0.4525 0.0881 ( 13936 PWs)   bands (ev):

   -35.7119 -35.5176  -1.3543   3.1368   3.6173   4.8323   5.5081   6.2947
     8.9537  10.3036  11.4999  11.7909  11.9938  13.3827  13.4879

          k =-0.3394-0.6787-0.2644 ( 13928 PWs)   bands (ev):

   -35.7096 -35.5196  -0.4573   1.4964   2.6867   4.6264   5.5659   8.0066
     8.9851  10.1750  11.0731  11.6599  12.9771  13.6417  14.5979

          k = 0.6787-0.6787-1.0576 ( 13912 PWs)   bands (ev):

   -35.7097 -35.5194   0.1286   0.7267   3.3693   4.6460   5.0287   5.2327
    10.2938  12.3397  12.4336  13.4952  14.0706  14.1832  15.5403

          k = 0.2262-0.2262-0.0000 ( 13930 PWs)   bands (ev):

   -35.7146 -35.5154  -2.0125   4.6767   5.1522   5.2798   6.3500   6.4275
     8.4422   9.2604   9.5267   9.6951  11.1197  11.4511  12.1860

          k =-0.1131-0.2262 0.2644 ( 13906 PWs)   bands (ev):

   -35.7135 -35.5164  -1.9034   3.6826   4.4785   6.2822   7.3422   7.5626
     7.9377   8.4121   8.6696   9.5740  10.9539  11.9735  12.2399

          k = 0.9050-0.2262-0.5288 ( 13919 PWs)   bands (ev):

   -35.7095 -35.5198  -0.7367   1.4057   3.2173   5.1329   6.5270   7.7495
     8.8280   9.3680   9.8041  10.9024  12.4351  14.0444  14.8955

          k = 0.5656-0.2262-0.2644 ( 13935 PWs)   bands (ev):

   -35.7106 -35.5188  -1.0299   1.9208   3.7041   4.8295   5.8163   7.7706
     8.6891   9.2158  10.4927  11.7397  12.5235  13.0312  14.8068

          k =-0.1131 0.0000 0.4407 ( 13897 PWs)   bands (ev):

   -35.7113 -35.5183  -1.6572   3.4750   3.8303   5.7706   6.2703   7.4686
     8.3282   8.7155  10.0724  10.4985  11.0510  11.6125  12.9430

[...]

     iteration #  3     ecut=    80.00 Ry     beta= 0.70
     Davidson diagonalization with overlap
     ethr =  5.90E-05,  avg # of iterations =  2.9

     total cpu time spent up to now is      909.7 secs

     total energy              =     -62.32440334 Ry
     estimated scf accuracy    <       0.00040313 Ry

     iteration #  4     ecut=    80.00 Ry     beta= 0.70
     Davidson diagonalization with overlap
     ethr =  1.83E-06,  avg # of iterations =  5.1

     total cpu time spent up to now is      910.8 secs

     total energy              =     -62.32444853 Ry
     estimated scf accuracy    <       0.00002971 Ry

     iteration #  5     ecut=    80.00 Ry     beta= 0.70
     Davidson diagonalization with overlap
     ethr =  1.35E-07,  avg # of iterations =  2.3

     total cpu time spent up to now is      911.6 secs

     total energy              =     -62.32445560 Ry
     estimated scf accuracy    <       0.00000027 Ry

     iteration #  6     ecut=    80.00 Ry     beta= 0.70
     Davidson diagonalization with overlap
     ethr =  1.24E-09,  avg # of iterations =  4.2

     total cpu time spent up to now is      912.7 secs

     total energy              =     -62.32445574 Ry
     estimated scf accuracy    <       0.00000005 Ry

     iteration #  7     ecut=    80.00 Ry     beta= 0.70
     Davidson diagonalization with overlap
     ethr =  2.45E-10,  avg # of iterations =  2.0

     total cpu time spent up to now is      913.5 secs

     total energy              =     -62.32445574 Ry
     estimated scf accuracy    <          3.2E-09 Ry

     iteration #  8     ecut=    80.00 Ry     beta= 0.70
     Davidson diagonalization with overlap
     ethr =  1.47E-11,  avg # of iterations =  3.2

     total cpu time spent up to now is      914.4 secs

     total energy              =     -62.32445575 Ry
     estimated scf accuracy    <          9.3E-10 Ry

     iteration #  9     ecut=    80.00 Ry     beta= 0.70
     Davidson diagonalization with overlap
     ethr =  4.24E-12,  avg # of iterations =  2.0

     total cpu time spent up to now is      915.3 secs

     End of self-consistent calculation

          k = 0.0000 0.0000 0.0000 (  5081 PWs)   bands (ev):

   -34.7253 -34.6431  -2.3696   5.6278   6.7020   6.7020   6.7643   6.7643
     7.1267   7.1937   7.1937   8.1252  12.0335  13.0298  14.3279

          k =-0.3142-0.0000 0.3154 (  5087 PWs)   bands (ev):

   -34.7128 -34.6547  -1.7617   3.0490   4.8470   4.8789   6.0970   6.4970
     7.9905  10.0440  10.2403  10.3372  12.9601  13.5380  14.5452

          k = 0.6285 0.0000-0.6308 (  5078 PWs)   bands (ev):

   -34.6834 -34.6831   0.0656   0.0663   4.1644   4.1654   6.2068   6.2078
     9.7067   9.7079  12.0597  12.0598  13.5797  13.5803  16.8675

          k =-0.0000 0.2095 0.2103 (  5091 PWs)   bands (ev):

   -34.7196 -34.6484  -2.0996   4.2213   5.3798   5.4224   6.0825   6.6000
     7.7965   9.0143   9.1012   9.2643  13.3352  13.4302  14.4526

          k =-0.3142 0.2095 0.5257 (  5076 PWs)   bands (ev):

   -34.6950 -34.6718  -1.0829   2.1174   2.8795   4.5828   6.5523   7.7573
     7.8588  10.2180  11.2563  11.6700  12.1848  14.2794  15.2822

          k = 0.6285 0.2095-0.4205 (  5074 PWs)   bands (ev):

   -34.7023 -34.6641  -0.4915   1.1310   2.6789   4.3581   6.6847   7.4732
     8.8313   9.8928  11.5918  12.2494  12.9020  13.9568  16.0768

          k = 0.3142 0.2095-0.1051 (  5098 PWs)   bands (ev):

   -34.7225 -34.6451  -1.9045   3.7158   4.1425   5.3295   6.7403   7.0158
     7.1554   9.2569   9.8899  10.3752  13.3309  13.7155  14.6905

          k =-0.0000 0.4190 0.4205 (  5075 PWs)   bands (ev):

   -34.7040 -34.6629  -1.2879   1.9416   4.4653   4.4865   6.1220   6.3864
     8.3681  10.7597  11.5536  11.6566  11.7368  13.2173  15.3833

          k =-0.3142 0.4190 0.7359 (  5064 PWs)   bands (ev):

   -34.6920 -34.6742   0.1278   0.8712   1.7742   4.2322   7.1206   8.2320
     8.6618   9.3375  11.1875  13.1906  13.8280  13.9145  15.4594

          k = 0.6285 0.4190-0.2103 (  5076 PWs)   bands (ev):

   -34.7163 -34.6500  -0.5492   1.2269   2.6021   4.3209   6.9142   7.9107
     8.1419   9.9758  11.4628  12.2598  13.4047  13.6963  15.7775

          k = 0.3142 0.4190 0.1051 (  5086 PWs)   bands (ev):

   -34.7214 -34.6455  -1.5107   2.5697   3.7144   4.9411   6.5720   7.1963
     7.4224  10.3772  10.6168  11.5967  12.1456  14.3091  14.6402

          k =-0.3142-0.6285-0.3154 (  5071 PWs)   bands (ev):

   -34.7102 -34.6561  -0.5794   1.8340   1.8973   4.3012   7.2738   7.4140
     8.8737   9.8958  10.8071  12.5880  12.7773  14.3656  15.9031

          k = 0.6285-0.6285-1.2616 (  5080 PWs)   bands (ev):

   -34.7213 -34.6448  -0.3402   0.4979   3.5311   4.8919   5.7140   7.0547
     8.6173  10.4252  11.9260  12.2488  13.1391  14.1156  15.3359

          k = 0.2095-0.2095-0.0000 (  5099 PWs)   bands (ev):

   -34.7243 -34.6436  -2.1043   4.3003   4.7014   6.0865   6.4320   6.8359
     6.9848   8.6876   9.2249   9.7872  12.9740  14.0092  14.4532

          k =-0.1047-0.2095 0.3154 (  5096 PWs)   bands (ev):

   -34.7132 -34.6544  -1.8954   3.6796   4.3793   5.2361   6.1639   7.0321
     7.6869   9.2306   9.8766  10.1799  12.8796  14.1471  14.4849

          k = 0.8380-0.2095-0.6308 (  5080 PWs)   bands (ev):

   -34.6845 -34.6820  -0.4751   1.1221   2.6733   4.3853   6.5963   7.8808
     8.2601   9.9381  11.5916  12.3415  13.2824  13.6507  16.1224

          k = 0.5237-0.2095-0.3154 (  5081 PWs)   bands (ev):

   -34.7110 -34.6557  -1.0983   2.1101   2.8915   4.5315   6.7877   7.1611
     8.4141  10.6370  10.9080  11.6443  11.9984  14.3921  15.2874

          k =-0.1047 0.0000 0.5257 (  5085 PWs)   bands (ev):

   -34.6961 -34.6709  -1.4912   3.0438   3.3167   5.3857   6.1221   6.9607
     7.5359   8.7850  10.3966  12.2452  12.3920  13.9259  16.1963

          k = 0.8380-0.0000-0.4205 (  5091 PWs)   bands (ev):

   -34.7007 -34.6652   0.2780   0.2917   2.5970   5.2797   6.3106   6.9496
     7.5804   8.5245  12.1533  14.3901  14.5899  15.2956  15.4597

          k = 0.5237-0.0000-0.1051 (  5083 PWs)   bands (ev):

   -34.7211 -34.6457  -1.5098   2.9675   3.2956   5.6669   5.7778   7.0025
     7.8209   8.8497  10.6361  12.2599  12.3125  13.6624  15.8796

          k = 0.2095 0.2095 0.4205 (  5100 PWs)   bands (ev):

   -34.7049 -34.6624  -1.5565   3.2155   3.2219   4.8853   6.3949   7.5797
     7.5848   9.6486  10.7999  11.1609  12.0102  14.4498  15.0113

          k =-0.1047 0.2095 0.7359 (  5078 PWs)   bands (ev):

   -34.6905 -34.6755  -0.5678   1.6868   2.2863   5.4160   6.0377   6.6618
     8.0722   8.7155  10.5275  14.3536  14.4490  14.7673  16.5747

          k = 0.8380 0.2095-0.2103 (  5080 PWs)   bands (ev):

   -34.7147 -34.6508  -0.0401   1.4610   1.5182   5.6130   5.8699   6.9168
     7.3796   9.4256  10.7797  14.7726  15.3172  15.4209  15.6640

          k = 0.5237 0.2095 0.1051 (  5084 PWs)   bands (ev):

   -34.7209 -34.6458  -1.3797   2.5993   3.0981   5.5569   6.3950   6.5449
     7.7182   9.8478  10.6961  11.9202  12.4557  14.1639  15.7930

          k =-0.1047-0.8380-0.3154 (  5086 PWs)   bands (ev):

   -34.7085 -34.6571   0.0558   0.8392   2.1287   5.3750   6.1760   6.9244
     7.4233   8.8319  11.4975  14.7656  15.1820  15.3978  15.5302

          k = 0.8380-0.8380-1.2616 (  5094 PWs)   bands (ev):

   -34.7204 -34.6453  -0.0649   0.6552   2.5218   5.1809   6.4755   7.2335
     7.8845   7.9909  12.1316  14.2325  14.7029  14.9290  15.6248

          k = 0.5237-0.8380-0.9462 (  5071 PWs)   bands (ev):

   -34.7107 -34.6558  -0.7100   1.8198   2.5309   3.3670   7.8670   8.2167
     8.5281  11.0525  11.1173  11.4966  11.9504  13.1372  16.3248

          k =-0.1047-0.6285-0.1051 (  5076 PWs)   bands (ev):

   -34.7201 -34.6462  -1.1197   2.5274   2.5846   5.5161   5.6499   7.0735
     8.2277   9.4342   9.5034  13.3406  13.5152  13.8879  16.9722

          k = 0.5237-0.6285-0.7359 (  5055 PWs)   bands (ev):

   -34.6931 -34.6733   0.4789   1.3509   1.4817   2.2333   9.2333   9.3943
    10.2687  10.7043  10.9309  11.2286  12.0979  12.3051  15.2363

          k = 0.2095-0.4190-0.2103 (  5089 PWs)   bands (ev):

   -34.7179 -34.6492  -1.5693   3.1623   3.2398   4.8331   6.8991   6.9147
     7.8711   9.8358  10.8292  11.0062  12.1414  14.5632  14.9377

          k =-0.1047-0.4190 0.1051 (  5088 PWs)   bands (ev):

   -34.7220 -34.6453  -1.7725   3.5328   3.6383   5.8924   6.2311   6.5508
     7.5405   8.8364  10.9739  11.2328  11.9757  13.6315  15.1746

          k = 0.8380-0.4190-0.8411 (  5049 PWs)   bands (ev):

   -34.7032 -34.6635  -0.7548   2.4600   2.5528   2.5541   8.0169   8.3921
     9.2127  10.8181  10.9662  11.0972  12.3857  12.4145  15.8807

          k = 0.5237-0.4190-0.5257 (  5069 PWs)   bands (ev):

   -34.6935 -34.6730  -0.1432   1.4834   2.3487   2.3646   8.4842   8.7605
     9.8132  10.9368  11.3155  11.4913  11.5984  12.4829  15.8427

          k = 0.4190-0.4190-0.0000 (  5069 PWs)   bands (ev):

   -34.7223 -34.6444  -1.3197   1.9968   3.8322   5.1947   5.9223   6.9811
     7.7964  10.7468  11.1828  11.8459  12.2579  13.6081  14.9808

          k = 0.1047-0.4190 0.3154 (  5086 PWs)   bands (ev):

   -34.7120 -34.6551  -1.4951   2.5183   3.9417   4.8116   6.4752   6.5695
     8.2003  10.4446  10.7076  11.2122  12.0540  13.9361  14.8033

          k = 0.7332-0.4190-0.3154 (  5066 PWs)   bands (ev):

   -34.7097 -34.6564   0.0090   1.0638   1.6949   4.1786   7.4538   7.8169
     9.0852   9.2688  10.9645  13.0467  13.8072  14.0923  15.4627

          k = 0.1047-0.2095 0.5257 (  5089 PWs)   bands (ev):

   -34.6957 -34.6712  -1.3549   2.5766   3.1974   5.7921   5.8261   6.7895
     7.5917   9.6828  10.7116  11.9708  12.3640  14.2323  15.9255

          k = 1.0475-0.2095-0.4205 (  5067 PWs)   bands (ev):

   -34.6998 -34.6658   0.0098   1.3259   1.6246   5.7736   5.9650   6.4207
     7.5218   9.3221  10.8475  14.9337  15.4086  15.5139  15.6833

          k = 0.7332-0.2095-0.1051 (  5077 PWs)   bands (ev):

   -34.7192 -34.6466  -0.6115   1.7333   2.2291   5.3196   6.0118   6.9251
     8.3668   8.5518  10.5376  14.1901  14.2487  14.8202  16.6714

          k = 0.1047 0.0000 0.7359 (  5079 PWs)   bands (ev):

   -34.6901 -34.6758  -0.7076   2.1204   2.3649   5.0845   5.3331   7.8486
     7.9725   8.5724   9.6080  14.0072  14.7281  14.8990  17.4320

          k = 1.0475-0.0000-0.2103 (  5070 PWs)   bands (ev):

   -34.7130 -34.6517   0.8623   0.8730   1.6443   4.6602   5.3804   5.4605
     8.9287   9.7445  11.2981  14.1482  14.5098  15.4032  16.9389

          k = 0.7332-0.0000 0.1051 (  5087 PWs)   bands (ev):

   -34.7191 -34.6466  -0.7352   2.0837   2.3544   5.1430   5.2709   7.8786
     8.2456   8.6030   9.6606  13.7547  14.7349  14.7749  17.4153

          k = 0.1047-1.0475-0.3154 (  5075 PWs)   bands (ev):

   -34.7072 -34.6579   0.4076   1.0773   1.6697   5.0520   5.6029   6.1812
     7.9386   9.5598  11.0839  14.5237  14.9633  15.9813  16.7915

          k = 1.0475-1.0475-1.2616 (  5062 PWs)   bands (ev):

   -34.7185 -34.6462   0.6882   1.0521   1.6230   4.6356   5.3778   5.5208
     9.0227   9.6839  11.3076  13.9391  14.7458  15.2501  17.0351

          k = 0.7332-1.0475-0.9462 (  5076 PWs)   bands (ev):

   -34.7094 -34.6566  -0.3216   1.2677   2.0263   5.3124   6.2253   7.0246
     8.5977   8.9334  11.0223  13.8223  14.0898  15.3190  15.4121

          k = 0.4190-0.8380-0.4205 (  5076 PWs)   bands (ev):

   -34.7015 -34.6646   0.5721   0.8559   1.1590   4.1558   7.5976   8.1001
     8.4428  10.1376  10.3809  13.3801  14.0269  14.3714  15.0266

          k = 0.1047-0.8380-0.1051 (  5086 PWs)   bands (ev):

   -34.7182 -34.6470  -0.2369   1.7832   1.8189   5.0832   5.1772   7.1974
     8.0277   9.2021  10.3189  13.9246  15.8324  16.0331  16.1400

          k = 0.7332-0.8380-0.7359 (  5067 PWs)   bands (ev):

   -34.6927 -34.6736   0.6117   0.6795   1.5820   3.1648   8.2031   9.0610
     9.5652   9.8050  10.9883  12.2377  12.8487  13.2073  15.2678

          k =-0.9427 0.8380 0.5257 (  5069 PWs)   bands (ev):

   -34.6942 -34.6724  -0.6770   1.7432   2.5720   3.4157   7.4854   8.2601
     8.8458  10.6015  11.4562  11.5942  11.8702  13.2241  16.0092

          k =-0.3142 0.8380-0.1051 (  5086 PWs)   bands (ev):

   -34.7187 -34.6468  -0.0369   0.9602   2.0788   5.2171   6.5753   6.8256
     7.4728   8.7045  11.4630  14.6862  14.8550  15.4868  15.9133

          k =-0.9427 1.0475 0.7359 (  5072 PWs)   bands (ev):

   -34.6912 -34.6749  -0.2889   1.2415   2.0330   5.4088   6.1567   7.0351
     8.3170   8.9679  11.0866  13.8621  14.3684  15.0456  15.5436

          k =-0.3142 1.0475 0.1051 (  5080 PWs)   bands (ev):

   -34.7177 -34.6473   0.3321   1.1671   1.6319   4.9856   5.6146   6.3121
     7.9755   9.5799  11.0724  14.2991  15.0353  16.0382  16.5769

          k =-0.9427 0.0000-0.3154 (  5082 PWs)   bands (ev):

   -34.7077 -34.6576   0.5362   0.5518   2.0423   4.9420   6.2590   6.4116
     7.5747   8.9223  11.6543  14.5235  14.9316  16.3601  16.4039

          k = 0.0000 0.0000-1.2616 (  5042 PWs)   bands (ev):

   -34.7175 -34.6466   1.3140   1.3248   1.3248   4.1475   4.4441   4.7805
    10.9976  11.0288  11.0288  13.6582  13.6582  14.0528  14.9084

     the Fermi energy is    11.5108 ev

!    total energy              =     -62.32445575 Ry
     estimated scf accuracy    <          2.8E-12 Ry
     smearing contrib. (-TS)   =      -0.00025139 Ry
     internal energy E=F+TS    =     -62.32420436 Ry

     The total energy is F=E-TS. E is the sum of the following terms:
     one-electron contribution =       5.14635482 Ry
     hartree contribution      =       7.59698522 Ry
     xc contribution           =     -20.19864546 Ry
     ewald contribution        =     -54.86889894 Ry

     convergence has been achieved in   9 iterations

     Forces acting on atoms (cartesian axes, Ry/au):

     atom    1 type  1   force =    -0.00000000   -0.00000000   -0.00028388
     atom    2 type  1   force =     0.00000000    0.00000000    0.00028388
     atom    3 type  2   force =     0.00016738    0.00016738    0.00002703
     atom    4 type  2   force =     0.00016738   -0.00016738   -0.00002703
     atom    5 type  2   force =    -0.00016738   -0.00016738    0.00002703
     atom    6 type  2   force =    -0.00016738    0.00016738   -0.00002703
     The non-local contrib.  to forces
     atom    1 type  1   force =     0.00000000    0.00000000   -0.00008074
     atom    2 type  1   force =    -0.00000000   -0.00000000    0.00008074
     atom    3 type  2   force =     0.00015241    0.00015241    0.00002300
     atom    4 type  2   force =     0.00015241   -0.00015241   -0.00002300
     atom    5 type  2   force =    -0.00015241   -0.00015241    0.00002300
     atom    6 type  2   force =    -0.00015241    0.00015241   -0.00002300
     The ionic contribution  to forces
     atom    1 type  1   force =     0.00000000   -0.00000000   -0.00219098
     atom    2 type  1   force =     0.00000000    0.00000000    0.00219098
     atom    3 type  2   force =     0.00117016    0.00117016    0.00001620
     atom    4 type  2   force =     0.00117016   -0.00117016   -0.00001620
     atom    5 type  2   force =    -0.00117016   -0.00117016    0.00001620
     atom    6 type  2   force =    -0.00117016    0.00117016   -0.00001620
     The local contribution  to forces
     atom    1 type  1   force =    -0.00000000   -0.00000000    0.00198792
     atom    2 type  1   force =     0.00000000    0.00000000   -0.00198792
     atom    3 type  2   force =    -0.00114498   -0.00114498   -0.00001113
     atom    4 type  2   force =    -0.00114498    0.00114498    0.00001113
     atom    5 type  2   force =     0.00114498    0.00114498   -0.00001113
     atom    6 type  2   force =     0.00114498   -0.00114498    0.00001113
     The core correction contribution to forces
     atom    1 type  1   force =     0.00000000    0.00000000    0.00000000
     atom    2 type  1   force =     0.00000000    0.00000000    0.00000000
     atom    3 type  2   force =    -0.00001024   -0.00001024   -0.00000103
     atom    4 type  2   force =    -0.00001024    0.00001024    0.00000103
     atom    5 type  2   force =     0.00001024    0.00001024   -0.00000103
     atom    6 type  2   force =     0.00001024   -0.00001024    0.00000103
     The Hubbard contrib.    to forces
     atom    1 type  1   force =     0.00000000    0.00000000    0.00000000
     atom    2 type  1   force =     0.00000000    0.00000000    0.00000000
     atom    3 type  2   force =     0.00000000    0.00000000    0.00000000
     atom    4 type  2   force =     0.00000000    0.00000000    0.00000000
     atom    5 type  2   force =     0.00000000    0.00000000    0.00000000
     atom    6 type  2   force =     0.00000000    0.00000000    0.00000000
     The SCF correction term to forces
     atom    1 type  1   force =    -0.00000000   -0.00000000   -0.00000008
     atom    2 type  1   force =    -0.00000000    0.00000000    0.00000008
     atom    3 type  2   force =     0.00000002    0.00000002    0.00000000
     atom    4 type  2   force =     0.00000002   -0.00000002   -0.00000000
     atom    5 type  2   force =    -0.00000002   -0.00000002    0.00000000
     atom    6 type  2   force =    -0.00000002    0.00000002   -0.00000000

     Total force =     0.000623     Total SCF correction =     0.000000


     Computing stress (Cartesian axis) and pressure

          total   stress  (Ry/bohr**3)                   (kbar)     P=      499.56
   0.00339740  -0.00000000  -0.00000000          499.78       -0.00       -0.00
  -0.00000000   0.00339740   0.00000000           -0.00      499.78        0.00
  -0.00000000   0.00000000   0.00339294           -0.00        0.00      499.12


     Writing all to output data dir ./output/LiSi.save/

     init_run     :      4.01s CPU      5.97s WALL (       2 calls)
     electrons    :    650.28s CPU    721.54s WALL (      30 calls)
     update_pot   :     29.96s CPU     30.27s WALL (      28 calls)
     forces       :     23.92s CPU     24.27s WALL (      30 calls)
     stress       :    129.41s CPU    133.88s WALL (      30 calls)

     Called by init_run:
     wfcinit      :      2.02s CPU      3.53s WALL (       2 calls)
     potinit      :      0.77s CPU      0.95s WALL (       2 calls)
     hinit0       :      0.99s CPU      1.17s WALL (       2 calls)

     Called by electrons:
     c_bands      :    578.54s CPU    639.85s WALL (     220 calls)
     sum_band     :     66.39s CPU     74.65s WALL (     220 calls)
     v_of_rho     :      5.54s CPU      6.42s WALL (     246 calls)
     mix_rho      :      0.35s CPU      0.50s WALL (     220 calls)

     Called by c_bands:
     init_us_2    :     13.72s CPU     15.66s WALL (   27108 calls)
     init_us_2:cp :     13.68s CPU     15.63s WALL (   27108 calls)
     cegterg      :    538.50s CPU    594.16s WALL (   11880 calls)

     Called by *egterg:
     cdiaghg      :     15.10s CPU     15.61s WALL (   57758 calls)
     h_psi        :    467.73s CPU    523.31s WALL (   59594 calls)
     g_psi        :      2.34s CPU      2.40s WALL (   47606 calls)

     Called by h_psi:
     h_psi:calbec :     38.10s CPU     40.78s WALL (   59594 calls)
     vloc_psi     :    394.00s CPU    446.10s WALL (   59594 calls)
     add_vuspsi   :     34.12s CPU     34.88s WALL (   59594 calls)

     General routines
     calbec       :     45.10s CPU     47.89s WALL (   67694 calls)
     fft          :      2.89s CPU      4.01s WALL (    3212 calls)
     ffts         :      0.14s CPU      0.20s WALL (     220 calls)
     fftw         :    393.52s CPU    445.87s WALL ( 1371200 calls)

     Parallel routines

     PWSCF        :  13m58.19s CPU  15m17.66s WALL


   This run was terminated on:  19:17:18  28Dec2024            

=------------------------------------------------------------------------------=
   JOB DONE.
=------------------------------------------------------------------------------=
