
     Program PWSCF v.7.3.1 starts on  3Mar2025 at 20:19:47 

     This program is part of the open-source Quantum ESPRESSO suite
     for quantum simulation of materials; please cite
         "P. Giannozzi et al., J. Phys.:Condens. Matter 21 395502 (2009);
         "P. Giannozzi et al., J. Phys.:Condens. Matter 29 465901 (2017);
         "P. Giannozzi et al., J. Chem. Phys. 152 154105 (2020);
          URL http://www.quantum-espresso.org", 
     in publications or presentations arising from this work. More details at
     http://www.quantum-espresso.org/quote

     Parallel version (MPI & OpenMP), running on      16 processor cores
     Number of MPI processes:                16
     Threads/MPI process:                     1

     MPI processes distributed on     1 nodes
     491710 MiB available memory on the printing compute node when the environment starts

     Waiting for input...
     Reading input from standard input

     Current dimensions of program PWSCF are:
     Max number of different atomic species (ntypx) = 10
     Max number of k-points (npk) =  40000
     Max angular momentum in pseudopotentials (lmaxx) =  4

     R & G space division:  proc/nbgrp/npool/nimage =      16
     Subspace diagonalization in iterative solution of the eigenvalue problem:
     a serial algorithm will be used


     Parallelization info
     --------------------
     sticks:   dense  smooth     PW     G-vecs:    dense   smooth      PW
     Min         180     180     49                11966    11966    1713
     Max         181     181     50                11973    11973    1718
     Sum        2885    2885    793               191503   191503   27443

     Using Slab Decomposition



     bravais-lattice index     =            6
     lattice parameter (alat)  =      10.6575  a.u.
     unit-cell volume          =    1981.7248 (a.u.)^3
     number of atoms/cell      =            6
     number of atomic types    =            2
     number of electrons       =        22.00
     number of Kohn-Sham states=           15
     kinetic-energy cutoff     =      80.0000  Ry
     charge density cutoff     =     320.0000  Ry
     scf convergence threshold =      1.0E-08
     mixing beta               =       0.8000
     number of iterations used =            8  plain     mixing
     energy convergence thresh.=      5.0E-04
     force convergence thresh. =      1.0E-03
     press convergence thresh. =      2.0E+00
     Exchange-correlation= PBE
                           (   1   4   3   4   0   0   0)
     nstep                     =           50


     celldm(1)=  10.657535  celldm(2)=   0.000000  celldm(3)=   1.637092
     celldm(4)=   0.000000  celldm(5)=   0.000000  celldm(6)=   0.000000

     crystal axes: (cart. coord. in units of alat)
               a(1) = (   1.000000   0.000000   0.000000 )  
               a(2) = (   0.000000   1.000000   0.000000 )  
               a(3) = (   0.000000   0.000000   1.637092 )  

     reciprocal axes: (cart. coord. in units 2 pi/alat)
               b(1) = (  1.000000  0.000000  0.000000 )  
               b(2) = (  0.000000  1.000000  0.000000 )  
               b(3) = (  0.000000  0.000000  0.610839 )  


     PseudoPot. # 1 for Li read from file:
     ../pseudo/Li_ONCV_PBE_sr.upf
     MD5 check sum: 50ff420e78310ffa21704f3361e624a4
     Pseudo is Norm-conserving, Zval =  3.0
     Generated using ONCVPSP code by D. R. Hamann
     Using radial grid of 1944 points,  4 beta functions with: 
                l(1) =   0
                l(2) =   0
                l(3) =   1
                l(4) =   1

     PseudoPot. # 2 for Si read from file:
     ../pseudo/Si_ONCV_PBE_sr.upf
     MD5 check sum: e543d271109d17c80368dfa7c482276d
     Pseudo is Norm-conserving + core correction, Zval =  4.0
     Generated using ONCVPSP code by D. R. Hamann
     Using radial grid of 1510 points,  6 beta functions with: 
                l(1) =   0
                l(2) =   0
                l(3) =   1
                l(4) =   1
                l(5) =   2
                l(6) =   2

     atomic species   valence    mass     pseudopotential
     Li                3.00     6.94100     Li( 1.00)
     Si                4.00    28.08550     Si( 1.00)

     16 Sym. Ops., with inversion, found ( 8 have fractional translation)



   Cartesian axes

     site n.     atom                  positions (alat units)
         1        Li     tau(   1) = (   0.0000000   0.5000000   1.2661496  )
         2        Li     tau(   2) = (   0.5000000   0.0000000   0.3709421  )
         3        Si     tau(   3) = (   0.0000000   0.0000000   0.8185458  )
         4        Si     tau(   4) = (   0.5000000   0.5000000   0.8185458  )
         5        Si     tau(   5) = (   0.0000000   0.5000000   0.0465556  )
         6        Si     tau(   6) = (   0.5000000   0.0000000   1.5905360  )

     number of k points=    60  Marzari-Vanderbilt smearing, width (Ry)=  0.0200
                       cart. coord. in units 2pi/alat
        k(    1) = (   0.0000000   0.0000000   0.0000000), wk =   0.0041152
        k(    2) = (   0.0000000   0.0000000   0.1018066), wk =   0.0082305
        k(    3) = (   0.0000000   0.0000000   0.2036131), wk =   0.0082305
        k(    4) = (   0.0000000   0.0000000  -0.3054197), wk =   0.0041152
        k(    5) = (   0.0000000   0.1111111   0.0000000), wk =   0.0164609
        k(    6) = (   0.0000000   0.1111111   0.1018066), wk =   0.0329218
        k(    7) = (   0.0000000   0.1111111   0.2036131), wk =   0.0329218
        k(    8) = (   0.0000000   0.1111111  -0.3054197), wk =   0.0164609
        k(    9) = (   0.0000000   0.2222222   0.0000000), wk =   0.0164609
        k(   10) = (   0.0000000   0.2222222   0.1018066), wk =   0.0329218
        k(   11) = (   0.0000000   0.2222222   0.2036131), wk =   0.0329218
        k(   12) = (   0.0000000   0.2222222  -0.3054197), wk =   0.0164609
        k(   13) = (   0.0000000   0.3333333   0.0000000), wk =   0.0164609
        k(   14) = (   0.0000000   0.3333333   0.1018066), wk =   0.0329218
        k(   15) = (   0.0000000   0.3333333   0.2036131), wk =   0.0329218
        k(   16) = (   0.0000000   0.3333333  -0.3054197), wk =   0.0164609
        k(   17) = (   0.0000000   0.4444444   0.0000000), wk =   0.0164609
        k(   18) = (   0.0000000   0.4444444   0.1018066), wk =   0.0329218
        k(   19) = (   0.0000000   0.4444444   0.2036131), wk =   0.0329218
        k(   20) = (   0.0000000   0.4444444  -0.3054197), wk =   0.0164609
        k(   21) = (   0.1111111   0.1111111   0.0000000), wk =   0.0164609
        k(   22) = (   0.1111111   0.1111111   0.1018066), wk =   0.0329218
        k(   23) = (   0.1111111   0.1111111   0.2036131), wk =   0.0329218
        k(   24) = (   0.1111111   0.1111111  -0.3054197), wk =   0.0164609
        k(   25) = (   0.1111111   0.2222222   0.0000000), wk =   0.0329218
        k(   26) = (   0.1111111   0.2222222   0.1018066), wk =   0.0658436
        k(   27) = (   0.1111111   0.2222222   0.2036131), wk =   0.0658436
        k(   28) = (   0.1111111   0.2222222  -0.3054197), wk =   0.0329218
        k(   29) = (   0.1111111   0.3333333   0.0000000), wk =   0.0329218
        k(   30) = (   0.1111111   0.3333333   0.1018066), wk =   0.0658436
        k(   31) = (   0.1111111   0.3333333   0.2036131), wk =   0.0658436
        k(   32) = (   0.1111111   0.3333333  -0.3054197), wk =   0.0329218
        k(   33) = (   0.1111111   0.4444444   0.0000000), wk =   0.0329218
        k(   34) = (   0.1111111   0.4444444   0.1018066), wk =   0.0658436
        k(   35) = (   0.1111111   0.4444444   0.2036131), wk =   0.0658436
        k(   36) = (   0.1111111   0.4444444  -0.3054197), wk =   0.0329218
        k(   37) = (   0.2222222   0.2222222   0.0000000), wk =   0.0164609
        k(   38) = (   0.2222222   0.2222222   0.1018066), wk =   0.0329218
        k(   39) = (   0.2222222   0.2222222   0.2036131), wk =   0.0329218
        k(   40) = (   0.2222222   0.2222222  -0.3054197), wk =   0.0164609
        k(   41) = (   0.2222222   0.3333333   0.0000000), wk =   0.0329218
        k(   42) = (   0.2222222   0.3333333   0.1018066), wk =   0.0658436
        k(   43) = (   0.2222222   0.3333333   0.2036131), wk =   0.0658436
        k(   44) = (   0.2222222   0.3333333  -0.3054197), wk =   0.0329218
        k(   45) = (   0.2222222   0.4444444   0.0000000), wk =   0.0329218
        k(   46) = (   0.2222222   0.4444444   0.1018066), wk =   0.0658436
        k(   47) = (   0.2222222   0.4444444   0.2036131), wk =   0.0658436
        k(   48) = (   0.2222222   0.4444444  -0.3054197), wk =   0.0329218
        k(   49) = (   0.3333333   0.3333333   0.0000000), wk =   0.0164609
        k(   50) = (   0.3333333   0.3333333   0.1018066), wk =   0.0329218
        k(   51) = (   0.3333333   0.3333333   0.2036131), wk =   0.0329218
        k(   52) = (   0.3333333   0.3333333  -0.3054197), wk =   0.0164609
        k(   53) = (   0.3333333   0.4444444   0.0000000), wk =   0.0329218
        k(   54) = (   0.3333333   0.4444444   0.1018066), wk =   0.0658436
        k(   55) = (   0.3333333   0.4444444   0.2036131), wk =   0.0658436
        k(   56) = (   0.3333333   0.4444444  -0.3054197), wk =   0.0329218
        k(   57) = (   0.4444444   0.4444444   0.0000000), wk =   0.0164609
        k(   58) = (   0.4444444   0.4444444   0.1018066), wk =   0.0329218
        k(   59) = (   0.4444444   0.4444444   0.2036131), wk =   0.0329218
        k(   60) = (   0.4444444   0.4444444  -0.3054197), wk =   0.0164609

     Dense  grid:   191503 G-vectors     FFT dimensions: (  64,  64, 100)

     Estimated max dynamical RAM per process >      43.13 MB

     Estimated total dynamical RAM >     690.02 MB

     Initial potential from superposition of free atoms

     starting charge      21.9884, renormalised to      22.0000
     Starting wfcs are   20 randomized atomic wfcs

     total cpu time spent up to now is        1.8 secs

     per-process dynamical memory:    58.5 Mb

     Self-consistent Calculation

     iteration #  1     ecut=    80.00 Ry     beta= 0.80
     Davidson diagonalization with overlap
     ethr =  1.00E-02,  avg # of iterations =  2.0

     total cpu time spent up to now is        3.7 secs

     total energy              =     -61.26766154 Ry
     estimated scf accuracy    <       0.54614283 Ry

     iteration #  2     ecut=    80.00 Ry     beta= 0.80
     Davidson diagonalization with overlap
     ethr =  2.48E-03,  avg # of iterations = 10.2

     total cpu time spent up to now is        7.6 secs

     total energy              =     -60.79140741 Ry
     estimated scf accuracy    <      16.79204948 Ry

     iteration #  3     ecut=    80.00 Ry     beta= 0.80
     Davidson diagonalization with overlap
     ethr =  2.48E-03,  avg # of iterations =  5.3

     total cpu time spent up to now is       10.5 secs

     total energy              =     -61.61362683 Ry
     estimated scf accuracy    <       0.89913488 Ry

     iteration #  4     ecut=    80.00 Ry     beta= 0.80
     Davidson diagonalization with overlap
     ethr =  2.48E-03,  avg # of iterations =  2.0

     total cpu time spent up to now is       12.5 secs

     total energy              =     -61.67742155 Ry
     estimated scf accuracy    <       0.00641588 Ry

     iteration #  5     ecut=    80.00 Ry     beta= 0.80
     Davidson diagonalization with overlap
     c_bands:  1 eigenvalues not converged
     c_bands:  2 eigenvalues not converged
     c_bands:  1 eigenvalues not converged
     c_bands:  1 eigenvalues not converged
     c_bands:  1 eigenvalues not converged
     c_bands:  1 eigenvalues not converged
     ethr =  2.92E-05,  avg # of iterations = 12.8

     total cpu time spent up to now is       17.1 secs

     total energy              =     -61.70285095 Ry
     estimated scf accuracy    <       0.21354720 Ry

     iteration #  6     ecut=    80.00 Ry     beta= 0.80
     Davidson diagonalization with overlap
     ethr =  2.92E-05,  avg # of iterations =  2.7

     total cpu time spent up to now is       19.2 secs

     total energy              =     -61.70773726 Ry
     estimated scf accuracy    <       0.01931463 Ry

     iteration #  7     ecut=    80.00 Ry     beta= 0.80
     Davidson diagonalization with overlap
     ethr =  2.92E-05,  avg # of iterations =  1.0

     total cpu time spent up to now is       21.0 secs

     total energy              =     -61.70578412 Ry
     estimated scf accuracy    <       0.01262835 Ry

     iteration #  8     ecut=    80.00 Ry     beta= 0.80
     Davidson diagonalization with overlap
     ethr =  2.92E-05,  avg # of iterations =  1.8

     total cpu time spent up to now is       22.9 secs

     total energy              =     -61.70666951 Ry
     estimated scf accuracy    <       0.00019516 Ry

     iteration #  9     ecut=    80.00 Ry     beta= 0.80
     Davidson diagonalization with overlap
     c_bands:  1 eigenvalues not converged
     c_bands:  1 eigenvalues not converged
     c_bands:  1 eigenvalues not converged
     c_bands:  1 eigenvalues not converged
     c_bands:  1 eigenvalues not converged
     c_bands:  1 eigenvalues not converged
     c_bands:  1 eigenvalues not converged
     c_bands:  1 eigenvalues not converged
     c_bands:  1 eigenvalues not converged
     c_bands:  1 eigenvalues not converged
     ethr =  8.87E-07,  avg # of iterations = 11.3

     total cpu time spent up to now is       26.3 secs

     total energy              =     -61.70676568 Ry
     estimated scf accuracy    <       0.00025496 Ry

     iteration # 10     ecut=    80.00 Ry     beta= 0.80
     Davidson diagonalization with overlap
     ethr =  8.87E-07,  avg # of iterations =  1.3

     total cpu time spent up to now is       28.1 secs

     total energy              =     -61.70675710 Ry
     estimated scf accuracy    <       0.00009899 Ry

     iteration # 11     ecut=    80.00 Ry     beta= 0.80
     Davidson diagonalization with overlap
     ethr =  4.50E-07,  avg # of iterations =  1.4

     total cpu time spent up to now is       30.0 secs

     total energy              =     -61.70676226 Ry
     estimated scf accuracy    <       0.00000192 Ry

     iteration # 12     ecut=    80.00 Ry     beta= 0.80
     Davidson diagonalization with overlap
     c_bands:  1 eigenvalues not converged
     c_bands:  1 eigenvalues not converged
     ethr =  8.74E-09,  avg # of iterations =  7.5

     total cpu time spent up to now is       33.1 secs

     total energy              =     -61.70676345 Ry
     estimated scf accuracy    <       0.00000018 Ry

     iteration # 13     ecut=    80.00 Ry     beta= 0.80
     Davidson diagonalization with overlap
     c_bands:  1 eigenvalues not converged
     ethr =  8.04E-10,  avg # of iterations =  4.6

     total cpu time spent up to now is       35.4 secs

     total energy              =     -61.70676349 Ry
     estimated scf accuracy    <       0.00000001 Ry

     iteration # 14     ecut=    80.00 Ry     beta= 0.80
     Davidson diagonalization with overlap
     ethr =  4.95E-11,  avg # of iterations =  6.6

     total cpu time spent up to now is       38.4 secs

     total energy              =     -61.70676350 Ry
     estimated scf accuracy    <       0.00000003 Ry

     iteration # 15     ecut=    80.00 Ry     beta= 0.80
     Davidson diagonalization with overlap
     ethr =  4.95E-11,  avg # of iterations =  1.1

     total cpu time spent up to now is       40.2 secs

     End of self-consistent calculation

          k = 0.0000 0.0000 0.0000 ( 23877 PWs)   bands (ev):

   -47.6301 -47.6301  -7.6855  -7.4801  -6.4482  -6.4230  -2.0408  -1.2922
    -1.2922  -0.8613  -0.8613  -0.5660  -0.1770   0.1849   1.0950

          k = 0.0000 0.0000 0.1018 ( 23906 PWs)   bands (ev):

   -47.6301 -47.6301  -7.6738  -7.4941  -6.4476  -6.4230  -1.9693  -1.2695
    -1.2695  -0.8944  -0.8944  -0.7247  -0.1640   0.1805   1.1087

          k = 0.0000 0.0000 0.2036 ( 24034 PWs)   bands (ev):

   -47.6301 -47.6301  -7.6424  -7.5302  -6.4465  -6.4229  -1.7640  -1.2070
    -1.2070  -1.0703  -0.9773  -0.9773  -0.1534   0.1719   1.1446

          k = 0.0000 0.0000-0.3054 ( 23962 PWs)   bands (ev):

   -47.6301 -47.6301  -7.6140  -7.5610  -6.4459  -6.4229  -1.4858  -1.4086
    -1.1467  -1.1467  -1.0476  -1.0476  -0.1509   0.1676   1.1761

          k = 0.0000 0.1111 0.0000 ( 23893 PWs)   bands (ev):

   -47.6301 -47.6301  -7.6540  -7.4521  -6.4881  -6.4639  -2.0011  -1.2618
    -1.2462  -0.8617  -0.8175  -0.5304  -0.2316   0.1229   0.9379

          k = 0.0000 0.1111 0.1018 ( 23930 PWs)   bands (ev):

   -47.6301 -47.6301  -7.6425  -7.4659  -6.4872  -6.4641  -1.9308  -1.2424
    -1.2236  -0.9002  -0.8504  -0.6880  -0.2100   0.1275   0.9513

          k = 0.0000 0.1111 0.2036 ( 23958 PWs)   bands (ev):

   -47.6301 -47.6301  -7.6115  -7.5014  -6.4855  -6.4646  -1.7293  -1.1908
    -1.1614  -1.0582  -0.9535  -0.9328  -0.1884   0.1357   0.9724

          k = 0.0000 0.1111-0.3054 ( 23958 PWs)   bands (ev):

   -47.6301 -47.6301  -7.5833  -7.5319  -6.4847  -6.4649  -1.4581  -1.3823
    -1.1304  -1.1014  -1.0344  -1.0026  -0.1815   0.1394   0.9884

          k = 0.0000 0.2222 0.0000 ( 23940 PWs)   bands (ev):

   -47.6301 -47.6301  -7.5615  -7.3705  -6.6101  -6.5697  -1.8821  -1.1654
    -1.1091  -0.8314  -0.6872  -0.4427  -0.4260   0.0015   0.5448

          k = 0.0000 0.2222 0.1018 ( 23947 PWs)   bands (ev):

   -47.6301 -47.6301  -7.5505  -7.3836  -6.6073  -6.5719  -1.8157  -1.1554
    -1.0868  -0.8814  -0.7196  -0.6171  -0.3584   0.0148   0.5584

          k = 0.0000 0.2222 0.2036 ( 23946 PWs)   bands (ev):

   -47.6301 -47.6301  -7.5209  -7.4174  -6.6002  -6.5780  -1.6262  -1.1333
    -1.0256  -1.0118  -0.8912  -0.8004  -0.2969   0.0394   0.5768

          k = 0.0000 0.2222-0.3054 ( 23952 PWs)   bands (ev):

   -47.6301 -47.6301  -7.4935  -7.4468  -6.5942  -6.5835  -1.3764  -1.3039
    -1.0735  -0.9893  -0.9667  -0.8689  -0.2730   0.0517   0.5849

          k = 0.0000 0.3333 0.0000 ( 23934 PWs)   bands (ev):

   -47.6301 -47.6301  -7.4147  -7.2420  -6.7955  -6.7204  -1.6853  -0.9939
    -0.8845  -0.7418  -0.7239  -0.4746  -0.3277  -0.1520   0.1218

          k = 0.0000 0.3333 0.1018 ( 23930 PWs)   bands (ev):

   -47.6301 -47.6301  -7.4046  -7.2540  -6.7903  -6.7253  -1.6264  -1.0020
    -0.8628  -0.8391  -0.6646  -0.5059  -0.4343  -0.1288   0.1546

          k = 0.0000 0.3333 0.2036 ( 23943 PWs)   bands (ev):

   -47.6301 -47.6301  -7.3773  -7.2849  -6.7762  -6.7388  -1.4592  -1.0298
    -0.9237  -0.8377  -0.8033  -0.5843  -0.4307  -0.0989   0.1723

          k = 0.0000 0.3333-0.3054 ( 23970 PWs)   bands (ev):

   -47.6301 -47.6301  -7.3515  -7.3125  -6.7582  -6.7564  -1.2463  -1.1759
    -0.9823  -0.9195  -0.7462  -0.6505  -0.3987  -0.0857   0.1759

          k = 0.0000 0.4444 0.0000 ( 23950 PWs)   bands (ev):

   -47.6301 -47.6301  -7.2252  -7.0788  -7.0106  -6.8978  -1.4169  -1.0920
    -0.7446  -0.5793  -0.5178  -0.4325  -0.2228  -0.2061  -0.1942

          k = 0.0000 0.4444 0.1018 ( 23930 PWs)   bands (ev):

   -47.6301 -47.6301  -7.2165  -7.0898  -7.0023  -6.9051  -1.3713  -1.0759
    -0.7657  -0.6120  -0.5586  -0.4072  -0.3270  -0.2242  -0.1787

          k = 0.0000 0.4444 0.2036 ( 23915 PWs)   bands (ev):

   -47.6301 -47.6301  -7.1931  -7.1171  -6.9818  -6.9248  -1.2432  -1.0317
    -0.8353  -0.7992  -0.5020  -0.4380  -0.2968  -0.2954  -0.1266

          k = 0.0000 0.4444-0.3054 ( 23938 PWs)   bands (ev):

   -47.6301 -47.6301  -7.1699  -7.1419  -6.9608  -6.9456  -1.0898  -1.0314
    -0.9377  -0.8930  -0.4481  -0.4390  -0.3569  -0.2780  -0.0762

          k = 0.1111 0.1111 0.0000 ( 23915 PWs)   bands (ev):

   -47.6301 -47.6301  -7.6233  -7.4252  -6.5215  -6.5026  -1.9612  -1.3264
    -1.2393  -0.7702  -0.7270  -0.4991  -0.2704   0.0586   0.5381

          k = 0.1111 0.1111 0.1018 ( 23930 PWs)   bands (ev):

   -47.6301 -47.6301  -7.6120  -7.4387  -6.5210  -6.5025  -1.8924  -1.3171
    -1.2262  -0.8000  -0.7638  -0.6480  -0.2452   0.0733   0.5501

          k = 0.1111 0.1111 0.2036 ( 23957 PWs)   bands (ev):

   -47.6301 -47.6301  -7.5815  -7.4736  -6.5199  -6.5024  -1.6953  -1.2988
    -1.1948  -1.0181  -0.8625  -0.7741  -0.2210   0.0997   0.5779

          k = 0.1111 0.1111-0.3054 ( 23964 PWs)   bands (ev):

   -47.6301 -47.6301  -7.5536  -7.5037  -6.5194  -6.5024  -1.4292  -1.3770
    -1.2490  -1.1749  -0.8969  -0.8014  -0.2128   0.1117   0.5948

          k = 0.1111 0.2222 0.0000 ( 23949 PWs)   bands (ev):

   -47.6301 -47.6301  -7.5335  -7.3467  -6.6300  -6.5998  -1.8427  -1.3604
    -1.2319  -0.5945  -0.4985  -0.4320  -0.3994  -0.0774   0.0736

          k = 0.1111 0.2222 0.1018 ( 23951 PWs)   bands (ev):

   -47.6301 -47.6301  -7.5227  -7.3595  -6.6279  -6.6014  -1.7786  -1.3603
    -1.2349  -0.6609  -0.5780  -0.4899  -0.3620  -0.0509   0.0845

          k = 0.1111 0.2222 0.2036 ( 23939 PWs)   bands (ev):

   -47.6301 -47.6301  -7.4936  -7.3926  -6.6226  -6.6056  -1.5970  -1.3598
    -1.2410  -0.9511  -0.6300  -0.5311  -0.3197  -0.0009   0.1074

          k = 0.1111 0.2222-0.3054 ( 23946 PWs)   bands (ev):

   -47.6301 -47.6301  -7.4667  -7.4215  -6.6184  -6.6093  -1.3955  -1.3525
    -1.2387  -1.2183  -0.6402  -0.5512  -0.3033   0.0237   0.1200

          k = 0.1111 0.3333 0.0000 ( 23925 PWs)   bands (ev):

   -47.6301 -47.6301  -7.3914  -7.2238  -6.8020  -6.7362  -1.6485  -1.2981
    -1.1438  -0.7269  -0.4469  -0.4231  -0.2525  -0.2426  -0.1628

          k = 0.1111 0.3333 0.1018 ( 23922 PWs)   bands (ev):

   -47.6301 -47.6301  -7.3816  -7.2354  -6.7974  -6.7405  -1.5942  -1.3069
    -1.1639  -0.6913  -0.5917  -0.4173  -0.2852  -0.1944  -0.1301

          k = 0.1111 0.3333 0.2036 ( 23951 PWs)   bands (ev):

   -47.6301 -47.6301  -7.3550  -7.2654  -6.7849  -6.7521  -1.4462  -1.3186
    -1.1972  -0.8811  -0.5868  -0.3980  -0.2813  -0.2462  -0.0736

          k = 0.1111 0.3333-0.3054 ( 23926 PWs)   bands (ev):

   -47.6301 -47.6301  -7.3298  -7.2923  -6.7694  -6.7673  -1.3538  -1.2682
    -1.1766  -1.1122  -0.5287  -0.3995  -0.2806  -0.2722  -0.0636

          k = 0.1111 0.4444 0.0000 ( 23936 PWs)   bands (ev):

   -47.6301 -47.6301  -7.2091  -7.0690  -7.0046  -6.8995  -1.3847  -1.1228
    -1.0661  -0.9470  -0.8346  -0.6446  -0.2941  -0.1919   0.0531

          k = 0.1111 0.4444 0.1018 ( 23933 PWs)   bands (ev):

   -47.6301 -47.6301  -7.2008  -7.0796  -6.9969  -6.9063  -1.3520  -1.1799
    -1.0352  -0.9035  -0.8260  -0.6987  -0.2825  -0.2053   0.0571

          k = 0.1111 0.4444 0.2036 ( 23944 PWs)   bands (ev):

   -47.6301 -47.6301  -7.1784  -7.1056  -6.9777  -6.9246  -1.2677  -1.2123
    -1.0734  -0.9175  -0.7644  -0.7035  -0.2929  -0.2563   0.0602

          k = 0.1111 0.4444-0.3054 ( 23934 PWs)   bands (ev):

   -47.6301 -47.6301  -7.1561  -7.1293  -6.9583  -6.9437  -1.2313  -1.1814
    -1.0712  -1.0380  -0.6847  -0.6733  -0.3142  -0.3007   0.0602

          k = 0.2222 0.2222 0.0000 ( 23937 PWs)   bands (ev):

   -47.6301 -47.6301  -7.4519  -7.2780  -6.6914  -6.6855  -1.7292  -1.5421
    -1.3905  -0.5479  -0.4212  -0.4116  -0.2949  -0.2087  -0.1799

          k = 0.2222 0.2222 0.1018 ( 23951 PWs)   bands (ev):

   -47.6301 -47.6301  -7.4418  -7.2899  -6.6909  -6.6855  -1.6763  -1.5429
    -1.4048  -0.6427  -0.5053  -0.4023  -0.2188  -0.1891  -0.1384

          k = 0.2222 0.2222 0.2036 ( 23937 PWs)   bands (ev):

   -47.6301 -47.6301  -7.4144  -7.3208  -6.6899  -6.6853  -1.5892  -1.4769
    -1.4319  -0.9337  -0.4607  -0.3923  -0.2231  -0.1374  -0.1068

          k = 0.2222 0.2222-0.3054 ( 23930 PWs)   bands (ev):

   -47.6301 -47.6301  -7.3888  -7.3481  -6.6895  -6.6852  -1.5831  -1.4447
    -1.2828  -1.1870  -0.4206  -0.4000  -0.2237  -0.1405  -0.1023

          k = 0.2222 0.3333 0.0000 ( 23942 PWs)   bands (ev):

   -47.6301 -47.6301  -7.3245  -7.1724  -6.8238  -6.7845  -1.6232  -1.5238
    -1.4300  -0.9558  -0.7741  -0.6464  -0.3645  -0.2764   0.2215

          k = 0.2222 0.3333 0.1018 ( 23946 PWs)   bands (ev):

   -47.6301 -47.6301  -7.3155  -7.1829  -6.8209  -6.7869  -1.6304  -1.4960
    -1.4452  -0.9423  -0.8198  -0.6335  -0.3496  -0.2440   0.2186

          k = 0.2222 0.3333 0.2036 ( 23926 PWs)   bands (ev):

   -47.6301 -47.6301  -7.2912  -7.2100  -6.8133  -6.7935  -1.6464  -1.5047
    -1.3738  -1.0364  -0.8093  -0.6016  -0.3327  -0.1891   0.2085

          k = 0.2222 0.3333-0.3054 ( 23946 PWs)   bands (ev):

   -47.6301 -47.6301  -7.2680  -7.2346  -6.8049  -6.8014  -1.6543  -1.5222
    -1.2464  -1.1849  -0.7564  -0.6082  -0.3228  -0.1652   0.1990

          k = 0.2222 0.4444 0.0000 ( 23940 PWs)   bands (ev):

   -47.6301 -47.6301  -7.1643  -7.0433  -6.9900  -6.9078  -1.5304  -1.3609
    -1.3046  -1.2540  -1.1252  -0.9592  -0.3185  -0.2915   0.6083

          k = 0.2222 0.4444 0.1018 ( 23934 PWs)   bands (ev):

   -47.6301 -47.6301  -7.1571  -7.0522  -6.9838  -6.9130  -1.5486  -1.4109
    -1.3477  -1.2166  -1.0729  -0.8949  -0.3274  -0.2822   0.6105

          k = 0.2222 0.4444 0.2036 ( 23941 PWs)   bands (ev):

   -47.6301 -47.6301  -7.1376  -7.0745  -6.9688  -6.9269  -1.5773  -1.4624
    -1.3843  -1.2688  -0.9110  -0.7653  -0.3644  -0.2870   0.6126

          k = 0.2222 0.4444-0.3054 ( 23950 PWs)   bands (ev):

   -47.6301 -47.6301  -7.1184  -7.0947  -6.9543  -6.9410  -1.5881  -1.4836
    -1.3834  -1.3129  -0.8020  -0.7098  -0.3946  -0.3087   0.6777

          k = 0.3333 0.3333 0.0000 ( 23978 PWs)   bands (ev):

   -47.6301 -47.6301  -7.2228  -7.0968  -6.8686  -6.8629  -1.7889  -1.6006
    -1.3713  -1.3482  -1.1730  -0.6492  -0.4558  -0.3663   0.7113

          k = 0.3333 0.3333 0.1018 ( 23958 PWs)   bands (ev):

   -47.6301 -47.6301  -7.2152  -7.1054  -6.8685  -6.8625  -1.8003  -1.6264
    -1.4495  -1.2815  -1.1353  -0.6340  -0.3951  -0.3669   0.7059

          k = 0.3333 0.3333 0.2036 ( 23941 PWs)   bands (ev):

   -47.6301 -47.6301  -7.1948  -7.1277  -6.8682  -6.8616  -1.8219  -1.6730
    -1.4778  -1.3390  -0.9653  -0.6242  -0.3825  -0.2722   0.6922

          k = 0.3333 0.3333-0.3054 ( 23962 PWs)   bands (ev):

   -47.6301 -47.6301  -7.1754  -7.1482  -6.8681  -6.8612  -1.8322  -1.6943
    -1.4679  -1.3885  -0.8420  -0.6591  -0.3939  -0.2088   0.7279

          k = 0.3333 0.4444 0.0000 ( 23972 PWs)   bands (ev):

   -47.6301 -47.6301  -7.1005  -7.0106  -6.9757  -6.9293  -1.8055  -1.6626
    -1.6119  -1.4650  -1.1151  -0.8526  -0.4499  -0.3965   1.1206

          k = 0.3333 0.4444 0.1018 ( 23954 PWs)   bands (ev):

   -47.6301 -47.6301  -7.0951  -7.0171  -6.9722  -6.9320  -1.8190  -1.6838
    -1.6407  -1.5072  -1.0285  -0.8006  -0.4134  -0.3834   1.1213

          k = 0.3333 0.4444 0.2036 ( 23971 PWs)   bands (ev):

   -47.6301 -47.6301  -7.0806  -7.0331  -6.9640  -6.9390  -1.8436  -1.7192
    -1.6882  -1.5743  -0.8597  -0.7065  -0.3787  -0.3363   1.1159

          k = 0.3333 0.4444-0.3054 ( 23964 PWs)   bands (ev):

   -47.6301 -47.6301  -7.0668  -7.0474  -6.9574  -6.9451  -1.8547  -1.7364
    -1.7053  -1.6053  -0.7573  -0.6732  -0.3873  -0.2996   1.1357

          k = 0.4444 0.4444 0.0000 ( 24010 PWs)   bands (ev):

   -47.6301 -47.6301  -7.0318  -6.9829  -6.9771  -6.9651  -1.9241  -1.8751
    -1.7271  -1.6764  -0.9209  -0.7659  -0.5957  -0.5123   1.4875

          k = 0.4444 0.4444 0.1018 ( 23978 PWs)   bands (ev):

   -47.6301 -47.6301  -7.0289  -6.9860  -6.9769  -6.9647  -1.9367  -1.8886
    -1.7575  -1.7095  -0.8626  -0.7375  -0.5257  -0.4719   1.4857

          k = 0.4444 0.4444 0.2036 ( 23968 PWs)   bands (ev):

   -47.6301 -47.6301  -7.0214  -6.9939  -6.9766  -6.9641  -1.9607  -1.9131
    -1.8114  -1.7673  -0.7500  -0.6822  -0.3910  -0.3852   1.4806

          k = 0.4444 0.4444-0.3054 ( 23954 PWs)   bands (ev):

   -47.6301 -47.6301  -7.0153  -7.0001  -6.9765  -6.9638  -1.9721  -1.9241
    -1.8356  -1.7934  -0.6919  -0.6575  -0.3502  -0.3132   1.4758

     the Fermi energy is    -0.6642 ev

!    total energy              =     -61.70676350 Ry
     estimated scf accuracy    <          3.1E-10 Ry
     smearing contrib. (-TS)   =      -0.00088954 Ry
     internal energy E=F+TS    =     -61.70587396 Ry

     The total energy is F=E-TS. E is the sum of the following terms:
     one-electron contribution =     -24.79633210 Ry
     hartree contribution      =      12.52149593 Ry
     xc contribution           =     -17.35983385 Ry
     ewald contribution        =     -32.07120393 Ry

     convergence has been achieved in  15 iterations

     Forces acting on atoms (cartesian axes, Ry/au):

     atom    1 type  1   force =     0.00000000    0.00000000   -0.04726269
     atom    2 type  1   force =     0.00000000    0.00000000    0.04726269
     atom    3 type  2   force =     0.00000000    0.00000000    0.00000000
     atom    4 type  2   force =     0.00000000    0.00000000    0.00000000
     atom    5 type  2   force =     0.00000000    0.00000000    0.04209997
     atom    6 type  2   force =     0.00000000    0.00000000   -0.04209997

     Total force =     0.089512     Total SCF correction =     0.000007


     Computing stress (Cartesian axis) and pressure

          total   stress  (Ry/bohr**3)                   (kbar)     P=      -44.27
  -0.00043155   0.00000000   0.00000000          -63.48        0.00        0.00
   0.00000000  -0.00043155   0.00000000            0.00      -63.48        0.00
   0.00000000   0.00000000  -0.00003979            0.00        0.00       -5.85


     BFGS Geometry Optimization
     Energy error            =      0.0E+00 Ry
     Gradient error          =      4.7E-02 Ry/Bohr
     Cell gradient error     =      5.6E+02 kbar

     number of scf cycles    =   1
     number of bfgs steps    =   0

     enthalpy           new  =     -54.9710177093 Ry

     new trust radius        =       0.5000000000 bohr
ibrav =      6
 celldm(1) =     10.05902031
 celldm(3) =      1.64705411
Input lattice vectors:
     0.94384113     0.00000000     0.00000000
     0.00000000     0.94384113     0.00000000
     0.00000000     0.00000000     1.55455742
New lattice vectors in INITIAL alat:
     0.94384113     0.00000000     0.00000000
     0.00000000     0.94384113     0.00000000
     0.00000000     0.00000000     1.55455742
New lattice vectors in NEW alat (for information only):
     1.00000000     0.00000000     0.00000000
     0.00000000     1.00000000     0.00000000
     0.00000000     0.00000000     1.64705411
Discrepancy in bohr =     0.000000    0.000000    0.000000
     new conv_thr            =       0.0000000100 Ry

     new unit-cell volume =   1676.38946 a.u.^3 (   248.41529 Ang^3 )
     density =      0.84375 g/cm^3

CELL_PARAMETERS (alat= 10.65753542)
   0.943841133   0.000000000   0.000000000
   0.000000000   0.943841133   0.000000000
   0.000000000   0.000000000   1.554557419

ATOMIC_POSITIONS (crystal)
Li               0.0000000000        0.5000000000        0.7718254050
Li               0.5000000000        0.0000000000        0.2281745950
Si               0.0000000000        0.0000000000        0.5000000000
Si               0.5000000000        0.5000000000        0.5000000000
Si               0.0000000000        0.5000000000        0.0298530653
Si               0.5000000000        0.0000000000        0.9701469347



     Writing config-only to output data dir ./output/LiSi.save/ :
     XML data file
     NEW-OLD atomic charge density approx. for the potential

     total cpu time spent up to now is       44.3 secs

     per-process dynamical memory:    67.6 Mb

     Self-consistent Calculation

     iteration #  1     ecut=    80.00 Ry     beta= 0.80
     Davidson diagonalization with overlap
     c_bands:  1 eigenvalues not converged
     c_bands:  2 eigenvalues not converged
     c_bands:  1 eigenvalues not converged
     c_bands:  1 eigenvalues not converged
     c_bands:  1 eigenvalues not converged
     c_bands:  1 eigenvalues not converged
     ethr =  1.00E-06,  avg # of iterations = 12.5

     total cpu time spent up to now is       50.9 secs

     total energy              =     -61.81466760 Ry
     estimated scf accuracy    <       0.00368115 Ry

     iteration #  2     ecut=    80.00 Ry     beta= 0.80
     Davidson diagonalization with overlap
     ethr =  1.67E-05,  avg # of iterations =  9.2

     total cpu time spent up to now is       54.0 secs

     total energy              =     -61.80097284 Ry
     estimated scf accuracy    <       0.21852010 Ry

     iteration #  3     ecut=    80.00 Ry     beta= 0.80
     Davidson diagonalization with overlap
     ethr =  1.67E-05,  avg # of iterations =  6.2

     total cpu time spent up to now is       56.7 secs

     total energy              =     -61.81615159 Ry
     estimated scf accuracy    <       0.00415728 Ry

     iteration #  4     ecut=    80.00 Ry     beta= 0.80
     Davidson diagonalization with overlap
     ethr =  1.67E-05,  avg # of iterations =  1.1

     total cpu time spent up to now is       58.5 secs

     total energy              =     -61.81641765 Ry
     estimated scf accuracy    <       0.00002788 Ry

     iteration #  5     ecut=    80.00 Ry     beta= 0.80
     Davidson diagonalization with overlap
     c_bands:  1 eigenvalues not converged
     c_bands:  1 eigenvalues not converged
     c_bands:  1 eigenvalues not converged
     ethr =  1.27E-07,  avg # of iterations =  8.7

     total cpu time spent up to now is       61.6 secs

     total energy              =     -61.81643353 Ry
     estimated scf accuracy    <       0.00000259 Ry

     iteration #  6     ecut=    80.00 Ry     beta= 0.80
     Davidson diagonalization with overlap
     c_bands:  1 eigenvalues not converged
     ethr =  1.18E-08,  avg # of iterations =  4.0

     total cpu time spent up to now is       63.9 secs

     total energy              =     -61.81643399 Ry
     estimated scf accuracy    <       0.00000016 Ry

     iteration #  7     ecut=    80.00 Ry     beta= 0.80
     Davidson diagonalization with overlap
     ethr =  7.32E-10,  avg # of iterations =  4.8

     total cpu time spent up to now is       66.4 secs

     total energy              =     -61.81643405 Ry
     estimated scf accuracy    <       0.00000001 Ry

     iteration #  8     ecut=    80.00 Ry     beta= 0.80
     Davidson diagonalization with overlap
     ethr =  4.58E-11,  avg # of iterations =  4.8

     total cpu time spent up to now is       69.0 secs

     End of self-consistent calculation

          k = 0.0000 0.0000 0.0000 ( 23877 PWs)   bands (ev):

   -46.7791 -46.7791  -7.3448  -7.0532  -5.6145  -5.5028  -1.7287  -0.8523
    -0.8523  -0.3238  -0.3238   0.0785   0.6254   1.0222   2.1235

          k = 0.0000 0.0000 0.1072 ( 23906 PWs)   bands (ev):

   -46.7791 -46.7791  -7.3275  -7.0752  -5.6130  -5.5028  -1.6412  -0.8241
    -0.8241  -0.3669  -0.3669  -0.1240   0.6554   1.0138   2.1415

          k = 0.0000 0.0000 0.2144 ( 24034 PWs)   bands (ev):

   -46.7791 -46.7791  -7.2792  -7.1330  -5.6100  -5.5026  -1.3899  -0.7449
    -0.7449  -0.5516  -0.4752  -0.4752   0.6830   0.9974   2.1909

          k = 0.0000 0.0000-0.3216 ( 23962 PWs)   bands (ev):

   -46.7791 -46.7791  -7.2195  -7.1973  -5.6086  -5.5026  -1.0202  -0.9950
    -0.6579  -0.6579  -0.5764  -0.5764   0.6904   0.9894   2.2533

          k = 0.0000 0.1177 0.0000 ( 23893 PWs)   bands (ev):

   -46.7791 -46.7791  -7.3031  -7.0154  -5.6748  -5.5687  -1.6830  -0.8026
    -0.7981  -0.3255  -0.2718   0.1257   0.5484   0.9340   1.9323

          k = 0.0000 0.1177 0.1072 ( 23930 PWs)   bands (ev):

   -46.7791 -46.7791  -7.2861  -7.0371  -5.6731  -5.5688  -1.5966  -0.7790
    -0.7700  -0.3734  -0.3148  -0.0786   0.5916   0.9402   1.9498

          k = 0.0000 0.1177 0.2144 ( 23958 PWs)   bands (ev):

   -46.7791 -46.7791  -7.2383  -7.0941  -5.6699  -5.5691  -1.3490  -0.7126
    -0.6911  -0.5469  -0.4361  -0.4226   0.6353   0.9502   1.9907

          k = 0.0000 0.1177-0.3216 ( 23958 PWs)   bands (ev):

   -46.7791 -46.7791  -7.1785  -7.1585  -5.6682  -5.5692  -0.9878  -0.9605
    -0.6327  -0.6043  -0.5552  -0.5234   0.6494   0.9544   2.0246

          k = 0.0000 0.2354 0.0000 ( 23940 PWs)   bands (ev):

   -46.7791 -46.7791  -7.1804  -6.9045  -5.8514  -5.7424  -1.5447  -0.6545
    -0.6364  -0.2873  -0.1172   0.2409   0.2683   0.7866   1.4969

          k = 0.0000 0.2354 0.1072 ( 23947 PWs)   bands (ev):

   -46.7791 -46.7791  -7.1639  -6.9253  -5.8476  -5.7450  -1.4620  -0.6430
    -0.6087  -0.3464  -0.1594   0.0070   0.3782   0.8038   1.5067

          k = 0.0000 0.2354 0.2144 ( 23946 PWs)   bands (ev):

   -46.7791 -46.7791  -7.1178  -6.9801  -5.8393  -5.7508  -1.2259  -0.6118
    -0.5306  -0.4972  -0.3490  -0.2657   0.4798   0.8294   1.5254

          k = 0.0000 0.2354-0.3216 ( 23952 PWs)   bands (ev):

   -46.7791 -46.7791  -7.0579  -7.0443  -5.8348  -5.7541  -0.8892  -0.8569
    -0.5489  -0.4875  -0.4447  -0.3653   0.5211   0.8410   1.5349

          k = 0.0000 0.3532 0.0000 ( 23934 PWs)   bands (ev):

   -46.7791 -46.7791  -6.9833  -6.7280  -6.1189  -5.9780  -1.3128  -0.4121
    -0.3704  -0.1545  -0.1484   0.1366   0.3911   0.6080   0.9986

          k = 0.0000 0.3532 0.1072 ( 23930 PWs)   bands (ev):

   -46.7791 -46.7791  -6.9680  -6.7474  -6.1106  -5.9855  -1.2374  -0.4205
    -0.3432  -0.2840  -0.0642   0.0954   0.2671   0.6347   1.0337

          k = 0.0000 0.3532 0.2144 ( 23943 PWs)   bands (ev):

   -46.7791 -46.7791  -6.9251  -6.7982  -6.0903  -6.0045  -1.0231  -0.4503
    -0.3833  -0.2779  -0.2667  -0.0082   0.2837   0.6610   1.0310

          k = 0.0000 0.3532-0.3216 ( 23970 PWs)   bands (ev):

   -46.7791 -46.7791  -6.8649  -6.8623  -6.0756  -6.0186  -0.7249  -0.6889
    -0.4156  -0.3908  -0.1824  -0.1057   0.3360   0.6681   1.0288

          k = 0.0000 0.4709 0.0000 ( 23950 PWs)   bands (ev):

   -46.7791 -46.7791  -6.7248  -6.4999  -6.4257  -6.2408  -0.9918  -0.5957
    -0.0874  -0.0062   0.1184   0.2881   0.4446   0.4822   0.5096

          k = 0.0000 0.4709 0.1072 ( 23930 PWs)   bands (ev):

   -46.7791 -46.7791  -6.7115  -6.5192  -6.4113  -6.2527  -0.9302  -0.5660
    -0.1220   0.0201   0.0241   0.3057   0.3858   0.4330   0.4805

          k = 0.0000 0.4709 0.2144 ( 23915 PWs)   bands (ev):

   -46.7791 -46.7791  -6.6746  -6.5646  -6.3783  -6.2843  -0.7566  -0.4830
    -0.2360  -0.2005   0.0937   0.2592   0.3391   0.4352   0.5474

          k = 0.0000 0.4709-0.3216 ( 23938 PWs)   bands (ev):

   -46.7791 -46.7791  -6.6276  -6.6150  -6.3477  -6.3149  -0.5157  -0.4896
    -0.3592  -0.3569   0.1750   0.2465   0.2609   0.4620   0.6252

          k = 0.1177 0.1177 0.0000 ( 23915 PWs)   bands (ev):

   -46.7791 -46.7791  -7.2624  -6.9787  -5.7260  -5.6277  -1.6366  -0.8859
    -0.8003  -0.1901  -0.1615   0.1649   0.4993   0.8384   1.4160

          k = 0.1177 0.1177 0.1072 ( 23930 PWs)   bands (ev):

   -46.7791 -46.7791  -7.2455  -7.0002  -5.7246  -5.6276  -1.5515  -0.8743
    -0.7879  -0.2256  -0.2019  -0.0350   0.5470   0.8609   1.4351

          k = 0.1177 0.1177 0.2144 ( 23957 PWs)   bands (ev):

   -46.7791 -46.7791  -7.1983  -7.0564  -5.7219  -5.6273  -1.3080  -0.8497
    -0.7592  -0.4899  -0.2966  -0.2247   0.5921   0.9009   1.4802

          k = 0.1177 0.1177-0.3216 ( 23964 PWs)   bands (ev):

   -46.7791 -46.7791  -7.1385  -7.1206  -5.7205  -5.6272  -0.9517  -0.9453
    -0.8023  -0.7421  -0.3333  -0.2605   0.6069   0.9188   1.5117

          k = 0.1177 0.2354 0.0000 ( 23949 PWs)   bands (ev):

   -46.7791 -46.7791  -7.1424  -6.8714  -5.8805  -5.7845  -1.4976  -0.9265
    -0.7976   0.0318   0.1453   0.2675   0.2822   0.6662   0.8509

          k = 0.1177 0.2354 0.1072 ( 23951 PWs)   bands (ev):

   -46.7791 -46.7791  -7.1262  -6.8918  -5.8777  -5.7860  -1.4170  -0.9257
    -0.8050  -0.0445   0.0617   0.1394   0.3740   0.7014   0.8709

          k = 0.1177 0.2354 0.2144 ( 23939 PWs)   bands (ev):

   -46.7791 -46.7791  -7.0808  -6.9456  -5.8719  -5.7891  -1.1887  -0.9229
    -0.8196  -0.4043  -0.0010   0.0824   0.4481   0.7697   0.9031

          k = 0.1177 0.2354-0.3216 ( 23946 PWs)   bands (ev):

   -46.7791 -46.7791  -7.0210  -7.0096  -5.8688  -5.7909  -0.9549  -0.8720
    -0.8053  -0.7744  -0.0070   0.0515   0.4767   0.8047   0.9199

          k = 0.1177 0.3532 0.0000 ( 23925 PWs)   bands (ev):

   -46.7791 -46.7791  -6.9506  -6.7016  -6.1250  -5.9983  -1.2675  -0.8457
    -0.6791  -0.1337   0.2128   0.2558   0.4410   0.4889   0.5422

          k = 0.1177 0.3532 0.1072 ( 23922 PWs)   bands (ev):

   -46.7791 -46.7791  -6.9356  -6.7204  -6.1178  -6.0046  -1.1967  -0.8543
    -0.7060  -0.0923   0.0680   0.2333   0.4265   0.5135   0.5966

          k = 0.1177 0.3532 0.2144 ( 23951 PWs)   bands (ev):

   -46.7791 -46.7791  -6.8937  -6.7699  -6.1003  -6.0204  -1.0015  -0.8646
    -0.7520  -0.3124   0.0646   0.2597   0.4365   0.4502   0.6507

          k = 0.1177 0.3532-0.3216 ( 23926 PWs)   bands (ev):

   -46.7791 -46.7791  -6.8339  -6.8334  -6.0883  -6.0316  -0.8869  -0.8123
    -0.6693  -0.6414   0.1517   0.2505   0.4138   0.4370   0.6607

          k = 0.1177 0.4709 0.0000 ( 23936 PWs)   bands (ev):

   -46.7791 -46.7791  -6.7004  -6.4841  -6.4140  -6.2405  -0.9514  -0.6236
    -0.5632  -0.4227  -0.2632  -0.0416   0.4304   0.5623   0.8294

          k = 0.1177 0.4709 0.1072 ( 23933 PWs)   bands (ev):

   -46.7791 -46.7791  -6.6876  -6.5025  -6.4005  -6.2515  -0.9037  -0.6905
    -0.5160  -0.3788  -0.2365  -0.1162   0.4281   0.5353   0.8389

          k = 0.1177 0.4709 0.2144 ( 23944 PWs)   bands (ev):

   -46.7791 -46.7791  -6.6520  -6.5460  -6.3696  -6.2806  -0.7771  -0.7185
    -0.5733  -0.3501  -0.1852  -0.1297   0.3848   0.4448   0.8524

          k = 0.1177 0.4709-0.3216 ( 23934 PWs)   bands (ev):

   -46.7791 -46.7791  -6.6078  -6.5934  -6.3420  -6.3080  -0.7107  -0.6812
    -0.5423  -0.5367  -0.0825  -0.0805   0.3446   0.3655   0.8570

          k = 0.2354 0.2354 0.0000 ( 23937 PWs)   bands (ev):

   -46.7791 -46.7791  -7.0313  -6.7754  -5.9745  -5.9016  -1.3592  -1.1602
    -1.0074   0.0865   0.2729   0.3183   0.3831   0.4727   0.5715

          k = 0.2354 0.2354 0.1072 ( 23951 PWs)   bands (ev):

   -46.7791 -46.7791  -7.0159  -6.7947  -5.9733  -5.9014  -1.2892  -1.1624
    -1.0276  -0.0070   0.1334   0.3251   0.4942   0.5213   0.5984

          k = 0.2354 0.2354 0.2144 ( 23937 PWs)   bands (ev):

   -46.7791 -46.7791  -6.9728  -6.8454  -5.9710  -5.9008  -1.1959  -1.0654
    -1.0569  -0.3719   0.1968   0.3193   0.5144   0.5755   0.6237

          k = 0.2354 0.2354-0.3216 ( 23930 PWs)   bands (ev):

   -46.7791 -46.7791  -6.9135  -6.9085  -5.9698  -5.9005  -1.1963  -1.0832
    -0.7620  -0.7300   0.2674   0.2826   0.5194   0.5695   0.6321

          k = 0.2354 0.3532 0.0000 ( 23942 PWs)   bands (ev):

   -46.7791 -46.7791  -6.8558  -6.6265  -6.1498  -6.0614  -1.2398  -1.1360
    -1.0479  -0.4272  -0.1852  -0.0284   0.3481   0.4241   1.0610

          k = 0.2354 0.3532 0.1072 ( 23946 PWs)   bands (ev):

   -46.7791 -46.7791  -6.8419  -6.6437  -6.1456  -6.0644  -1.2502  -1.1116
    -1.0497  -0.3958  -0.2577   0.0002   0.3452   0.4707   1.0614

          k = 0.2354 0.3532 0.2144 ( 23926 PWs)   bands (ev):

   -46.7791 -46.7791  -6.8031  -6.6890  -6.1362  -6.0713  -1.2689  -1.1491
    -0.9208  -0.4861  -0.2646   0.0286   0.3667   0.5330   1.0554

          k = 0.2354 0.3532-0.3216 ( 23946 PWs)   bands (ev):

   -46.7791 -46.7791  -6.7505  -6.7448  -6.1307  -6.0756  -1.2771  -1.1737
    -0.7216  -0.7046  -0.1840  -0.0089   0.4006   0.5516   1.0430

          k = 0.2354 0.4709 0.0000 ( 23940 PWs)   bands (ev):

   -46.7791 -46.7791  -6.6319  -6.4420  -6.3847  -6.2455  -1.1313  -0.9455
    -0.8538  -0.7996  -0.6370  -0.4306   0.4046   0.4289   1.5225

          k = 0.2354 0.4709 0.1072 ( 23934 PWs)   bands (ev):

   -46.7791 -46.7791  -6.6206  -6.4579  -6.3737  -6.2537  -1.1491  -0.9971
    -0.9164  -0.7365  -0.5866  -0.3467   0.3828   0.4393   1.5292

          k = 0.2354 0.4709 0.2144 ( 23941 PWs)   bands (ev):

   -46.7791 -46.7791  -6.5894  -6.4954  -6.3497  -6.2752  -1.1732  -1.0681
    -0.9429  -0.8076  -0.3781  -0.1791   0.3194   0.4178   1.5442

          k = 0.2354 0.4709-0.3216 ( 23950 PWs)   bands (ev):

   -46.7791 -46.7791  -6.5534  -6.5339  -6.3306  -6.2938  -1.1775  -1.1042
    -0.9082  -0.8878  -0.2226  -0.1188   0.2834   0.3675   1.5765

          k = 0.3532 0.3532 0.0000 ( 23978 PWs)   bands (ev):

   -46.7791 -46.7791  -6.7103  -6.5155  -6.2149  -6.1623  -1.4541  -1.2709
    -0.9357  -0.9081  -0.7006   0.0192   0.1517   0.3451   1.6883

          k = 0.3532 0.3532 0.1072 ( 23958 PWs)   bands (ev):

   -46.7791 -46.7791  -6.6985  -6.5298  -6.2137  -6.1620  -1.4662  -1.3040
    -1.0247  -0.8163  -0.6641   0.0308   0.2352   0.3425   1.6813

          k = 0.3532 0.3532 0.2144 ( 23941 PWs)   bands (ev):

   -46.7791 -46.7791  -6.6655  -6.5677  -6.2116  -6.1612  -1.4896  -1.3634
    -1.0444  -0.8919  -0.4449   0.0121   0.3283   0.4075   1.6619

          k = 0.3532 0.3532-0.3216 ( 23962 PWs)   bands (ev):

   -46.7791 -46.7791  -6.6255  -6.6100  -6.2106  -6.1609  -1.5009  -1.3903
    -1.0007  -0.9799  -0.2656  -0.0758   0.3239   0.4990   1.6388

          k = 0.3532 0.4709 0.0000 ( 23972 PWs)   bands (ev):

   -46.7791 -46.7791  -6.5337  -6.3886  -6.3545  -6.2687  -1.4732  -1.2952
    -1.2774  -1.0786  -0.6182  -0.2796   0.2086   0.2979   2.1633

          k = 0.3532 0.4709 0.1072 ( 23954 PWs)   bands (ev):

   -46.7791 -46.7791  -6.5252  -6.4004  -6.3479  -6.2725  -1.4867  -1.3259
    -1.3040  -1.1292  -0.5108  -0.2089   0.2496   0.3118   2.1614

          k = 0.3532 0.4709 0.2144 ( 23971 PWs)   bands (ev):

   -46.7791 -46.7791  -6.5019  -6.4275  -6.3353  -6.2820  -1.5106  -1.3911
    -1.3308  -1.2154  -0.2915  -0.0822   0.3038   0.3445   2.1499

          k = 0.3532 0.4709-0.3216 ( 23964 PWs)   bands (ev):

   -46.7791 -46.7791  -6.4788  -6.4521  -6.3277  -6.2886  -1.5206  -1.4225
    -1.3319  -1.2613  -0.1418  -0.0513   0.2929   0.3829   2.1406

          k = 0.4709 0.4709 0.0000 ( 24010 PWs)   bands (ev):

   -46.7791 -46.7791  -6.4290  -6.3543  -6.3436  -6.3121  -1.6190  -1.5578
    -1.4264  -1.3563  -0.3651  -0.1234  -0.0254   0.1323   2.6804

          k = 0.4709 0.4709 0.1072 ( 23978 PWs)   bands (ev):

   -46.7791 -46.7791  -6.4246  -6.3575  -6.3445  -6.3117  -1.6320  -1.5710
    -1.4645  -1.3975  -0.2861  -0.0907   0.0688   0.1790   2.6750

          k = 0.4709 0.4709 0.2144 ( 23968 PWs)   bands (ev):

   -46.7791 -46.7791  -6.4135  -6.3671  -6.3454  -6.3109  -1.6572  -1.5939
    -1.5317  -1.4704  -0.1298  -0.0278   0.2623   0.2746   2.5565

          k = 0.4709 0.4709-0.3216 ( 23954 PWs)   bands (ev):

   -46.7791 -46.7791  -6.4053  -6.3748  -6.3455  -6.3105  -1.6693  -1.6031
    -1.5619  -1.5043  -0.0437  -0.0041   0.3238   0.3649   2.5332

     the Fermi energy is    -0.0570 ev

!    total energy              =     -61.81643405 Ry
     estimated scf accuracy    <          8.1E-11 Ry
     smearing contrib. (-TS)   =      -0.00048658 Ry
     internal energy E=F+TS    =     -61.81594747 Ry

     The total energy is F=E-TS. E is the sum of the following terms:
     one-electron contribution =     -22.00793802 Ry
     hartree contribution      =      11.68321861 Ry
     xc contribution           =     -17.48011958 Ry
     ewald contribution        =     -34.01110848 Ry

     convergence has been achieved in   8 iterations

     Forces acting on atoms (cartesian axes, Ry/au):

     atom    1 type  1   force =     0.00000000    0.00000000   -0.06511362
     atom    2 type  1   force =     0.00000000    0.00000000    0.06511362
     atom    3 type  2   force =     0.00000000    0.00000000    0.00000000
     atom    4 type  2   force =     0.00000000    0.00000000   -0.00000000
     atom    5 type  2   force =     0.00000000    0.00000000    0.06179176
     atom    6 type  2   force =     0.00000000    0.00000000   -0.06179176

     Total force =     0.126949     Total SCF correction =     0.000002


     Computing stress (Cartesian axis) and pressure

          total   stress  (Ry/bohr**3)                   (kbar)     P=      -52.88
  -0.00055116   0.00000000   0.00000000          -81.08        0.00        0.00
   0.00000000  -0.00055116   0.00000000            0.00      -81.08        0.00
   0.00000000   0.00000000   0.00002399            0.00        0.00        3.53

     Energy error            =      1.1E+00 Ry
     Gradient error          =      6.5E-02 Ry/Bohr
     Cell gradient error     =      5.8E+02 kbar

     number of scf cycles    =   2
     number of bfgs steps    =   1

     enthalpy           old  =     -54.9710177093 Ry
     enthalpy           new  =     -56.1185020647 Ry

     CASE: enthalpy          _new < enthalpy          _old


     WARNING: bfgs curvature condition failed, Theta= 0.942
     new trust radius        =       0.3000000000 bohr
ibrav =      6
 celldm(1) =      9.69050165
 celldm(3) =      1.65845446
Input lattice vectors:
     0.90926291     0.00000000     0.00000000
     0.00000000     0.90926291     0.00000000
     0.00000000     0.00000000     1.50797112
New lattice vectors in INITIAL alat:
     0.90926291     0.00000000     0.00000000
     0.00000000     0.90926291     0.00000000
     0.00000000     0.00000000     1.50797112
New lattice vectors in NEW alat (for information only):
     1.00000000     0.00000000     0.00000000
     0.00000000     1.00000000     0.00000000
     0.00000000     0.00000000     1.65845446
Discrepancy in bohr =     0.000000    0.000000    0.000000
     new conv_thr            =       0.0000000065 Ry

     new unit-cell volume =   1509.18448 a.u.^3 (   223.63807 Ang^3 )
     density =      0.93723 g/cm^3

CELL_PARAMETERS (alat= 10.65753542)
   0.909262908   0.000000000   0.000000000
   0.000000000   0.909262908   0.000000000
   0.000000000   0.000000000   1.507971125

ATOMIC_POSITIONS (crystal)
Li               0.0000000000        0.5000000000        0.7702208337
Li               0.5000000000        0.0000000000        0.2297791663
Si               0.0000000000        0.0000000000        0.5000000000
Si               0.5000000000        0.5000000000        0.5000000000
Si               0.0000000000        0.5000000000        0.0314066119
Si               0.5000000000        0.0000000000        0.9685933881



     Writing config-only to output data dir ./output/LiSi.save/ :
     XML data file
     NEW-OLD atomic charge density approx. for the potential

     total cpu time spent up to now is       72.9 secs

     per-process dynamical memory:    67.6 Mb

     Self-consistent Calculation

     iteration #  1     ecut=    80.00 Ry     beta= 0.80
     Davidson diagonalization with overlap
     ethr =  1.00E-06,  avg # of iterations =  9.6

     total cpu time spent up to now is       78.5 secs

     total energy              =     -61.89017734 Ry
     estimated scf accuracy    <       0.00214990 Ry

     iteration #  2     ecut=    80.00 Ry     beta= 0.80
     Davidson diagonalization with overlap
     c_bands:  1 eigenvalues not converged
     ethr =  9.77E-06,  avg # of iterations =  8.8

     total cpu time spent up to now is       81.8 secs

     total energy              =     -61.88078632 Ry
     estimated scf accuracy    <       0.15502505 Ry

     iteration #  3     ecut=    80.00 Ry     beta= 0.80
     Davidson diagonalization with overlap
     ethr =  9.77E-06,  avg # of iterations =  7.0

     total cpu time spent up to now is       84.6 secs

     total energy              =     -61.89146691 Ry
     estimated scf accuracy    <       0.00051497 Ry

     iteration #  4     ecut=    80.00 Ry     beta= 0.80
     Davidson diagonalization with overlap
     ethr =  2.34E-06,  avg # of iterations =  2.0

     total cpu time spent up to now is       86.5 secs

     total energy              =     -61.89151180 Ry
     estimated scf accuracy    <       0.00000907 Ry

     iteration #  5     ecut=    80.00 Ry     beta= 0.80
     Davidson diagonalization with overlap
     ethr =  4.12E-08,  avg # of iterations =  5.9

     total cpu time spent up to now is       89.2 secs

     total energy              =     -61.89151722 Ry
     estimated scf accuracy    <       0.00000024 Ry

     iteration #  6     ecut=    80.00 Ry     beta= 0.80
     Davidson diagonalization with overlap
     ethr =  1.09E-09,  avg # of iterations =  5.0

     total cpu time spent up to now is       91.9 secs

     total energy              =     -61.89151737 Ry
     estimated scf accuracy    <       0.00000002 Ry

     iteration #  7     ecut=    80.00 Ry     beta= 0.80
     Davidson diagonalization with overlap
     c_bands:  1 eigenvalues not converged
     ethr =  8.47E-11,  avg # of iterations =  4.5

     total cpu time spent up to now is       94.4 secs

     End of self-consistent calculation

          k = 0.0000 0.0000 0.0000 ( 23877 PWs)   bands (ev):

   -46.1915 -46.1915  -7.1177  -6.7576  -4.9841  -4.8157  -1.4963  -0.5252
    -0.5252   0.0705   0.0705   0.5382   1.2139   1.6344   2.8836

          k = 0.0000 0.0000 0.1105 ( 23906 PWs)   bands (ev):

   -46.1915 -46.1915  -7.0967  -6.7856  -4.9812  -4.8156  -1.3984  -0.4937
    -0.4937   0.0206   0.0206   0.3047   1.2590   1.6220   2.9039

          k = 0.0000 0.0000 0.2210 ( 24034 PWs)   bands (ev):

   -46.1915 -46.1915  -7.0377  -6.8586  -4.9756  -4.8154  -1.1174  -0.4044
    -0.4044  -0.1794  -0.1042  -0.1042   1.3027   1.5978   2.9604

          k = 0.0000 0.0000-0.3316 ( 23962 PWs)   bands (ev):

   -46.1915 -46.1915  -6.9588  -6.9443  -4.9728  -4.8152  -0.6983  -0.6819
    -0.3015  -0.3015  -0.2242  -0.2242   1.3151   1.5861   3.0452

          k = 0.0000 0.1222 0.0000 ( 23893 PWs)   bands (ev):

   -46.1915 -46.1915  -7.0688  -6.7126  -5.0635  -4.9049  -1.4481  -0.4654
    -0.4556   0.0686   0.1281   0.5956   1.1167   1.5243   2.6615

          k = 0.0000 0.1222 0.1105 ( 23930 PWs)   bands (ev):

   -46.1915 -46.1915  -7.0481  -6.7403  -5.0605  -4.9050  -1.3510  -0.4339
    -0.4297   0.0142   0.0784   0.3584   1.1790   1.5318   2.6819

          k = 0.0000 0.1222 0.2210 ( 23958 PWs)   bands (ev):

   -46.1915 -46.1915  -6.9896  -6.8125  -5.0546  -4.9053  -1.0731  -0.3558
    -0.3449  -0.1789  -0.0517  -0.0458   1.2440   1.5427   2.7380

          k = 0.0000 0.1222-0.3316 ( 23958 PWs)   bands (ev):

   -46.1915 -46.1915  -6.9104  -6.8983  -5.0517  -4.9054  -0.6579  -0.6482
    -0.2653  -0.2422  -0.1928  -0.1656   1.2654   1.5468   2.7898

          k = 0.0000 0.2444 0.0000 ( 23940 PWs)   bands (ev):

   -46.1915 -46.1915  -6.9244  -6.5799  -5.2940  -5.1349  -1.2996  -0.2867
    -0.2582   0.1162   0.2998   0.7341   0.7628   1.3630   2.1690

          k = 0.0000 0.2444 0.1105 ( 23947 PWs)   bands (ev):

   -46.1915 -46.1915  -6.9043  -6.6067  -5.2882  -5.1385  -1.2057  -0.2555
    -0.2470   0.0511   0.2508   0.4570   0.9072   1.3836   2.1478

          k = 0.0000 0.2444 0.2210 ( 23946 PWs)   bands (ev):

   -46.1915 -46.1915  -6.8475  -6.6765  -5.2759  -5.1465  -0.9378  -0.2145
    -0.1673  -0.1193   0.0543   0.1282   1.0451   1.4069   2.2254

          k = 0.0000 0.2444-0.3316 ( 23952 PWs)   bands (ev):

   -46.1915 -46.1915  -6.7676  -6.7629  -5.2692  -5.1512  -0.5405  -0.5364
    -0.1511  -0.1005  -0.0654   0.0096   1.1049   1.4139   2.2422

          k = 0.0000 0.3666 0.0000 ( 23934 PWs)   bands (ev):

   -46.1915 -46.1915  -6.6910  -6.3676  -5.6354  -5.4388  -1.0461   0.0081
     0.0429   0.2598   0.2845   0.5823   0.9141   1.1703   1.6242

          k = 0.0000 0.3666 0.1105 ( 23930 PWs)   bands (ev):

   -46.1915 -46.1915  -6.6721  -6.3928  -5.6241  -5.4490  -0.9589   0.0319
     0.0387   0.1304   0.3664   0.5344   0.7794   1.1981   1.6880

          k = 0.0000 0.3666 0.2210 ( 23943 PWs)   bands (ev):

   -46.1915 -46.1915  -6.6188  -6.4583  -5.5965  -5.4747  -0.7114  -0.0147
     0.0337   0.1254   0.1343   0.4144   0.8009   1.2187   1.6719

          k = 0.0000 0.3666-0.3316 ( 23970 PWs)   bands (ev):

   -46.1915 -46.1915  -6.5456  -6.5375  -5.5771  -5.4932  -0.3520  -0.3411
     0.0191   0.0248   0.2260   0.2978   0.8690   1.2171   1.7013

          k = 0.0000 0.4888 0.0000 ( 23950 PWs)   bands (ev):

   -46.1915 -46.1915  -6.3813  -6.0900  -6.0173  -5.7698  -0.6905  -0.2457
     0.4133   0.4175   0.6053   0.8269   0.9184   0.9687   1.0702

          k = 0.0000 0.4888 0.1105 ( 23930 PWs)   bands (ev):

   -46.1915 -46.1915  -6.3647  -6.1168  -5.9970  -5.7856  -0.6168  -0.2039
     0.3759   0.4430   0.4997   0.8510   0.9116   0.9148   0.9590

          k = 0.0000 0.4888 0.2210 ( 23915 PWs)   bands (ev):

   -46.1915 -46.1915  -6.3184  -6.1763  -5.9539  -5.8271  -0.4093  -0.0897
     0.2189   0.2598   0.5270   0.7771   0.8030   0.9858   1.0348

          k = 0.0000 0.4888-0.3316 ( 23938 PWs)   bands (ev):

   -46.1915 -46.1915  -6.2628  -6.2372  -5.9163  -5.8652  -0.1111  -0.1027
     0.0482   0.1005   0.6249   0.6910   0.7760   1.0188   1.1298

          k = 0.1222 0.1222 0.0000 ( 23915 PWs)   bands (ev):

   -46.1915 -46.1915  -7.0209  -6.6687  -5.1295  -4.9830  -1.3980  -0.5611
    -0.4699   0.2373   0.2593   0.6424   1.0609   1.4000   2.0547

          k = 0.1222 0.1222 0.1105 ( 23930 PWs)   bands (ev):

   -46.1915 -46.1915  -7.0003  -6.6961  -5.1269  -4.9828  -1.3020  -0.5487
    -0.4589   0.1985   0.2133   0.4098   1.1279   1.4296   2.0797

          k = 0.1222 0.1222 0.2210 ( 23957 PWs)   bands (ev):

   -46.1915 -46.1915  -6.9424  -6.7674  -5.1219  -4.9822  -1.0277  -0.5222
    -0.4342  -0.1108   0.1232   0.1907   1.1921   1.4819   2.1385

          k = 0.1222 0.1222-0.3316 ( 23964 PWs)   bands (ev):

   -46.1915 -46.1915  -6.8631  -6.8534  -5.1195  -4.9819  -0.6347  -0.6072
    -0.4782  -0.4199   0.0857   0.1503   1.2132   1.5051   2.1833

          k = 0.1222 0.2444 0.0000 ( 23949 PWs)   bands (ev):

   -46.1915 -46.1915  -6.8792  -6.5398  -5.3284  -5.1878  -1.2473  -0.6095
    -0.4668   0.4935   0.6250   0.7672   0.7819   1.2069   1.4136

          k = 0.1222 0.2444 0.1105 ( 23951 PWs)   bands (ev):

   -46.1915 -46.1915  -6.8593  -6.5661  -5.3241  -5.1897  -1.1553  -0.6084
    -0.4787   0.4026   0.5335   0.6130   0.9055   1.2479   1.4451

          k = 0.1222 0.2444 0.2210 ( 23939 PWs)   bands (ev):

   -46.1915 -46.1915  -6.8033  -6.6349  -5.3152  -5.1939  -0.8948  -0.6048
    -0.5021  -0.0097   0.4678   0.5488   1.0070   1.3290   1.4866

          k = 0.1222 0.2444-0.3316 ( 23946 PWs)   bands (ev):

   -46.1915 -46.1915  -6.7233  -6.7211  -5.3105  -5.1963  -0.6331  -0.5460
    -0.4614  -0.4541   0.4671   0.5098   1.0474   1.3718   1.5054

          k = 0.1222 0.3666 0.0000 ( 23925 PWs)   bands (ev):

   -46.1915 -46.1915  -6.6510  -6.3345  -5.6396  -5.4617  -0.9954  -0.5163
    -0.3181   0.2846   0.6923   0.7494   0.9730   1.0275   1.0769

          k = 0.1222 0.3666 0.1105 ( 23922 PWs)   bands (ev):

   -46.1915 -46.1915  -6.6324  -6.3591  -5.6296  -5.4702  -0.9127  -0.5244
    -0.3512   0.3336   0.5490   0.7111   0.9572   1.0437   1.1382

          k = 0.1222 0.3666 0.2210 ( 23951 PWs)   bands (ev):

   -46.1915 -46.1915  -6.5802  -6.4231  -5.6059  -5.4914  -0.6835  -0.5323
    -0.4095   0.1032   0.5336   0.7435   0.9627   0.9747   1.1882

          k = 0.1222 0.3666-0.3316 ( 23926 PWs)   bands (ev):

   -46.1915 -46.1915  -6.5098  -6.4992  -5.5900  -5.5061  -0.5411  -0.4850
    -0.2974  -0.2858   0.6444   0.7302   0.9212   0.9649   1.2046

          k = 0.1222 0.4888 0.0000 ( 23936 PWs)   bands (ev):

   -46.1915 -46.1915  -6.3501  -6.0687  -6.0000  -5.7668  -0.6457  -0.2591
    -0.2097  -0.0133   0.1536   0.4267   0.9562   1.1124   1.4039

          k = 0.1222 0.4888 0.1105 ( 23933 PWs)   bands (ev):

   -46.1915 -46.1915  -6.3340  -6.0944  -5.9809  -5.7814  -0.5859  -0.3339
    -0.1258   0.0067   0.1903   0.3370   0.9433   1.0749   1.4163

          k = 0.1222 0.4888 0.2210 ( 23944 PWs)   bands (ev):

   -46.1915 -46.1915  -6.2893  -6.1515  -5.9405  -5.8196  -0.4263  -0.3544
    -0.1864   0.0741   0.2336   0.2877   0.8747   0.9555   1.4391

          k = 0.1222 0.4888-0.3316 ( 23934 PWs)   bands (ev):

   -46.1915 -46.1915  -6.2369  -6.2089  -5.9066  -5.8537  -0.3227  -0.3183
    -0.1690  -0.1254   0.3433   0.3462   0.8186   0.8545   1.5653

          k = 0.2444 0.2444 0.0000 ( 23937 PWs)   bands (ev):

   -46.1915 -46.1915  -6.7463  -6.4229  -5.4432  -5.3349  -1.0929  -0.8812
    -0.7209   0.5463   0.7736   0.8439   0.9073   0.9566   1.1759

          k = 0.2444 0.2444 0.1105 ( 23951 PWs)   bands (ev):

   -46.1915 -46.1915  -6.7273  -6.4479  -5.4411  -5.3344  -1.0102  -0.8851
    -0.7458   0.4587   0.5939   0.8579   1.0033   1.0540   1.1493

          k = 0.2444 0.2444 0.2210 ( 23937 PWs)   bands (ev):

   -46.1915 -46.1915  -6.6738  -6.5132  -5.4370  -5.3333  -0.9126  -0.7924
    -0.7523   0.0395   0.6704   0.8362   1.0634   1.1145   1.1793

          k = 0.2444 0.2444-0.3316 ( 23930 PWs)   bands (ev):

   -46.1915 -46.1915  -6.5990  -6.5937  -5.4351  -5.3328  -0.9161  -0.8142
    -0.3964  -0.3848   0.7579   0.7799   1.0776   1.1085   1.1927

          k = 0.2444 0.3666 0.0000 ( 23942 PWs)   bands (ev):

   -46.1915 -46.1915  -6.5349  -6.2403  -5.6624  -5.5355  -0.9663  -0.8542
    -0.7581  -0.0426   0.2613   0.4163   0.8647   0.9346   1.6813

          k = 0.2444 0.3666 0.1105 ( 23946 PWs)   bands (ev):

   -46.1915 -46.1915  -6.5175  -6.2629  -5.6564  -5.5393  -0.9768  -0.8323
    -0.7513  -0.0023   0.1763   0.4511   0.8443   0.9969   1.6873

          k = 0.2444 0.3666 0.2210 ( 23926 PWs)   bands (ev):

   -46.1915 -46.1915  -6.4689  -6.3219  -5.6434  -5.5482  -0.9948  -0.8820
    -0.5902  -0.0673   0.1299   0.4716   0.8773   1.0619   1.6848

          k = 0.2444 0.3666-0.3316 ( 23946 PWs)   bands (ev):

   -46.1915 -46.1915  -6.4069  -6.3888  -5.6360  -5.5537  -1.0013  -0.9128
    -0.3735  -0.3013   0.2270   0.4102   0.9418   1.0665   1.6756

          k = 0.2444 0.4888 0.0000 ( 23940 PWs)   bands (ev):

   -46.1915 -46.1915  -6.2620  -6.0118  -5.9563  -5.7663  -0.8450  -0.6284
    -0.5279  -0.4695  -0.2616  -0.0506   0.9315   0.9546   2.1957

          k = 0.2444 0.4888 0.1105 ( 23934 PWs)   bands (ev):

   -46.1915 -46.1915  -6.2477  -6.0342  -5.9405  -5.7772  -0.8610  -0.6858
    -0.5937  -0.3785  -0.2270   0.0442   0.8974   0.9669   2.2039

          k = 0.2444 0.4888 0.2210 ( 23941 PWs)   bands (ev):

   -46.1915 -46.1915  -6.2081  -6.0837  -5.9088  -5.8053  -0.8788  -0.7700
    -0.6136  -0.4497   0.0002   0.2354   0.8132   0.9312   2.2272

          k = 0.2444 0.4888-0.3316 ( 23950 PWs)   bands (ev):

   -46.1915 -46.1915  -6.1652  -6.1306  -5.8853  -5.8283  -0.8727  -0.8201
    -0.5623  -0.5472   0.1883   0.2934   0.7805   0.8524   2.2478

          k = 0.3666 0.3666 0.0000 ( 23978 PWs)   bands (ev):

   -46.1915 -46.1915  -6.3551  -6.1000  -5.7369  -5.6568  -1.2116  -1.0245
    -0.6193  -0.5932  -0.3346   0.5066   0.5812   0.8632   2.4162

          k = 0.3666 0.3666 0.1105 ( 23958 PWs)   bands (ev):

   -46.1915 -46.1915  -6.3400  -6.1192  -5.7350  -5.6561  -1.2241  -1.0631
    -0.7137  -0.4703  -0.3145   0.5119   0.6817   0.8611   2.4082

          k = 0.3666 0.3666 0.2210 ( 23941 PWs)   bands (ev):

   -46.1915 -46.1915  -6.2982  -6.1690  -5.7314  -5.6548  -1.2485  -1.1320
    -0.7260  -0.5449  -0.0753   0.4632   0.8538   0.8921   2.3844

          k = 0.3666 0.3666-0.3316 ( 23962 PWs)   bands (ev):

   -46.1915 -46.1915  -6.2506  -6.2204  -5.7298  -5.6541  -1.2603  -1.1632
    -0.6668  -0.6493   0.1452   0.3298   0.8564   1.0062   2.3180

          k = 0.3666 0.4888 0.0000 ( 23972 PWs)   bands (ev):

   -46.1915 -46.1915  -6.1345  -5.9392  -5.9094  -5.7883  -1.2330  -1.0295
    -1.0234  -0.7796  -0.2647   0.1259   0.6893   0.8044   2.9264

          k = 0.3666 0.4888 0.1105 ( 23954 PWs)   bands (ev):

   -46.1915 -46.1915  -6.1235  -5.9563  -5.8992  -5.7931  -1.2461  -1.0742
    -1.0408  -0.8367  -0.1428   0.2110   0.7314   0.8190   2.9209

          k = 0.3666 0.4888 0.2210 ( 23971 PWs)   bands (ev):

   -46.1915 -46.1915  -6.0938  -5.9923  -5.8826  -5.8049  -1.2682  -1.1542
    -1.0581  -0.9368   0.1115   0.3630   0.7941   0.8422   2.8905

          k = 0.3666 0.4888-0.3316 ( 23964 PWs)   bands (ev):

   -46.1915 -46.1915  -6.0661  -6.0223  -5.8732  -5.8127  -1.2757  -1.1930
    -1.0463  -0.9983   0.2993   0.3865   0.7909   0.8718   2.8735

          k = 0.4888 0.4888 0.0000 ( 24010 PWs)   bands (ev):

   -46.1914 -46.1914  -5.9982  -5.9042  -5.8785  -5.8378  -1.3973  -1.3281
    -1.2013  -1.1129   0.0279   0.3451   0.3774   0.6032   3.4115

          k = 0.4888 0.4888 0.1105 ( 23978 PWs)   bands (ev):

   -46.1914 -46.1914  -5.9925  -5.9069  -5.8809  -5.8371  -1.4106  -1.3408
    -1.2449  -1.1599   0.1225   0.3803   0.4892   0.6534   3.3878

          k = 0.4888 0.4888 0.2210 ( 23968 PWs)   bands (ev):

   -46.1914 -46.1914  -5.9786  -5.9161  -5.8847  -5.8356  -1.4364  -1.3610
    -1.3219  -1.2444   0.3135   0.4468   0.7226   0.7565   3.3103

          k = 0.4888 0.4888-0.3316 ( 23954 PWs)   bands (ev):

   -46.1914 -46.1914  -5.9688  -5.9241  -5.8860  -5.8349  -1.4489  -1.3668
    -1.3564  -1.2855   0.4255   0.4657   0.8098   0.8494   3.2476

     the Fermi energy is     0.3842 ev

!    total energy              =     -61.89151737 Ry
     estimated scf accuracy    <          1.4E-09 Ry
     smearing contrib. (-TS)   =      -0.00009004 Ry
     internal energy E=F+TS    =     -61.89142733 Ry

     The total energy is F=E-TS. E is the sum of the following terms:
     one-electron contribution =     -20.14392786 Ry
     hartree contribution      =      11.15174203 Ry
     xc contribution           =     -17.57064640 Ry
     ewald contribution        =     -35.32859509 Ry

     convergence has been achieved in   7 iterations

     Forces acting on atoms (cartesian axes, Ry/au):

     atom    1 type  1   force =     0.00000000    0.00000000   -0.07395451
     atom    2 type  1   force =     0.00000000    0.00000000    0.07395451
     atom    3 type  2   force =     0.00000000    0.00000000    0.00000000
     atom    4 type  2   force =     0.00000000    0.00000000    0.00000000
     atom    5 type  2   force =     0.00000000    0.00000000    0.07213524
     atom    6 type  2   force =     0.00000000    0.00000000   -0.07213524

     Total force =     0.146101     Total SCF correction =     0.000015


     Computing stress (Cartesian axis) and pressure

          total   stress  (Ry/bohr**3)                   (kbar)     P=      -58.71
  -0.00063385   0.00000000   0.00000000          -93.24        0.00        0.00
   0.00000000  -0.00063385   0.00000000            0.00      -93.24        0.00
   0.00000000   0.00000000   0.00007045            0.00        0.00       10.36

     Energy error            =      6.4E-01 Ry
     Gradient error          =      7.4E-02 Ry/Bohr
     Cell gradient error     =      5.9E+02 kbar

     number of scf cycles    =   3
     number of bfgs steps    =   2

     enthalpy           old  =     -56.1185020647 Ry
     enthalpy           new  =     -56.7619035789 Ry

     CASE: enthalpy          _new < enthalpy          _old

     new trust radius        =       0.3000000000 bohr
ibrav =      6
 celldm(1) =      9.31633390
 celldm(3) =      1.67637835
Input lattice vectors:
     0.87415463     0.00000000     0.00000000
     0.00000000     0.87415463     0.00000000
     0.00000000     0.00000000     1.46541389
New lattice vectors in INITIAL alat:
     0.87415463     0.00000000     0.00000000
     0.00000000     0.87415463     0.00000000
     0.00000000     0.00000000     1.46541389
New lattice vectors in NEW alat (for information only):
     1.00000000     0.00000000     0.00000000
     0.00000000     1.00000000     0.00000000
     0.00000000     0.00000000     1.67637835
Discrepancy in bohr =     0.000000    0.000000    0.000000
     new conv_thr            =       0.0000000074 Ry

     new unit-cell volume =   1355.52390 a.u.^3 (   200.86792 Ang^3 )
     density =      1.04347 g/cm^3

CELL_PARAMETERS (alat= 10.65753542)
   0.874154627   0.000000000   0.000000000
   0.000000000   0.874154627   0.000000000
   0.000000000   0.000000000   1.465413892

ATOMIC_POSITIONS (crystal)
Li               0.0000000000        0.5000000000        0.7680763069
Li               0.5000000000        0.0000000000        0.2319236931
Si               0.0000000000        0.0000000000        0.5000000000
Si               0.5000000000        0.5000000000        0.5000000000
Si               0.0000000000        0.5000000000        0.0335757277
Si               0.5000000000        0.0000000000        0.9664242723



     Writing config-only to output data dir ./output/LiSi.save/ :
     XML data file
     NEW-OLD atomic charge density approx. for the potential

     total cpu time spent up to now is       98.3 secs

     per-process dynamical memory:    67.6 Mb

     Self-consistent Calculation

     iteration #  1     ecut=    80.00 Ry     beta= 0.80
     Davidson diagonalization with overlap
     c_bands:  1 eigenvalues not converged
     c_bands:  1 eigenvalues not converged
     c_bands:  1 eigenvalues not converged
     c_bands:  1 eigenvalues not converged
     c_bands:  1 eigenvalues not converged
     ethr =  1.00E-06,  avg # of iterations = 10.9

     total cpu time spent up to now is      104.3 secs

     total energy              =     -61.97254161 Ry
     estimated scf accuracy    <       0.00286148 Ry

     iteration #  2     ecut=    80.00 Ry     beta= 0.80
     Davidson diagonalization with overlap
     ethr =  1.30E-05,  avg # of iterations =  8.8

     total cpu time spent up to now is      107.5 secs

     total energy              =     -61.96069134 Ry
     estimated scf accuracy    <       0.18709429 Ry

     iteration #  3     ecut=    80.00 Ry     beta= 0.80
     Davidson diagonalization with overlap
     ethr =  1.30E-05,  avg # of iterations =  6.7

     total cpu time spent up to now is      110.3 secs

     total energy              =     -61.97443907 Ry
     estimated scf accuracy    <       0.00026212 Ry

     iteration #  4     ecut=    80.00 Ry     beta= 0.80
     Davidson diagonalization with overlap
     c_bands:  1 eigenvalues not converged
     ethr =  1.19E-06,  avg # of iterations =  3.8

     total cpu time spent up to now is      112.5 secs

     total energy              =     -61.97446922 Ry
     estimated scf accuracy    <       0.00000782 Ry

     iteration #  5     ecut=    80.00 Ry     beta= 0.80
     Davidson diagonalization with overlap
     ethr =  3.56E-08,  avg # of iterations =  4.6

     total cpu time spent up to now is      115.1 secs

     total energy              =     -61.97447282 Ry
     estimated scf accuracy    <       0.00000039 Ry

     iteration #  6     ecut=    80.00 Ry     beta= 0.80
     Davidson diagonalization with overlap
     ethr =  1.76E-09,  avg # of iterations =  3.9

     total cpu time spent up to now is      117.6 secs

     total energy              =     -61.97447295 Ry
     estimated scf accuracy    <       0.00000001 Ry

     iteration #  7     ecut=    80.00 Ry     beta= 0.80
     Davidson diagonalization with overlap
     c_bands:  1 eigenvalues not converged
     ethr =  6.68E-11,  avg # of iterations =  4.8

     total cpu time spent up to now is      120.5 secs

     End of self-consistent calculation

          k = 0.0000 0.0000 0.0000 ( 23877 PWs)   bands (ev):

   -45.5394 -45.5394  -6.8771  -6.4404  -4.2433  -4.0134  -1.2232  -0.1433
    -0.1433   0.5221   0.5221   1.0454   1.8860   2.3372   3.7694

          k = 0.0000 0.0000 0.1137 ( 23906 PWs)   bands (ev):

   -45.5394 -45.5394  -6.8523  -6.4752  -4.2375  -4.0132  -1.1157  -0.1085
    -0.1085   0.4653   0.4653   0.7779   1.9512   2.3187   3.7918

          k = 0.0000 0.0000 0.2275 ( 24034 PWs)   bands (ev):

   -45.5394 -45.5394  -6.7820  -6.5652  -4.2264  -4.0128  -0.8070  -0.0098
    -0.0098   0.2340   0.3243   0.3243   2.0176   2.2832   3.8523

          k = 0.0000 0.0000-0.3412 ( 23962 PWs)   bands (ev):

   -45.5394 -45.5394  -6.6886  -6.6683  -4.2211  -4.0126  -0.3681  -0.3004
     0.1049   0.1049   0.1892   0.1892   2.0371   2.2661   3.9602

          k = 0.0000 0.1271 0.0000 ( 23893 PWs)   bands (ev):

   -45.5394 -45.5394  -6.8202  -6.3871  -4.3492  -4.1366  -1.1752  -0.0771
    -0.0423   0.5216   0.5859   1.1164   1.7615   2.1987   3.5060

          k = 0.0000 0.1271 0.1137 ( 23930 PWs)   bands (ev):

   -45.5394 -45.5394  -6.7956  -6.4216  -4.3435  -4.1368  -1.0680  -0.0425
    -0.0149   0.4602   0.5294   0.8436   1.8485   2.2084   3.5072

          k = 0.0000 0.1271 0.2275 ( 23958 PWs)   bands (ev):

   -45.5394 -45.5394  -6.7258  -6.5109  -4.3324  -4.1372  -0.7608   0.0560
     0.0643   0.2333   0.3889   0.3928   1.9439   2.2195   3.6045

          k = 0.0000 0.1271-0.3412 ( 23958 PWs)   bands (ev):

   -45.5394 -45.5394  -6.6320  -6.6143  -4.3270  -4.1375  -0.3208  -0.2686
     0.1602   0.1705   0.2388   0.2542   1.9766   2.2224   3.6769

          k = 0.0000 0.2542 0.0000 ( 23940 PWs)   bands (ev):

   -45.5394 -45.5394  -6.6514  -6.2295  -4.6543  -4.4425  -1.0207   0.1205
     0.2247   0.5864   0.7766   1.2855   1.3140   2.0263   2.9434

          k = 0.0000 0.2542 0.1137 ( 23947 PWs)   bands (ev):

   -45.5394 -45.5394  -6.6274  -6.2633  -4.6451  -4.4480  -0.9154   0.1549
     0.2344   0.5151   0.7208   0.9600   1.4995   2.0517   2.8635

          k = 0.0000 0.2542 0.2275 ( 23946 PWs)   bands (ev):

   -45.5394 -45.5394  -6.5592  -6.3503  -4.6250  -4.4608  -0.6152   0.2526
     0.2614   0.3142   0.5230   0.5819   1.6844   2.0696   2.9445

          k = 0.0000 0.2542-0.3412 ( 23952 PWs)   bands (ev):

   -45.5394 -45.5394  -6.4642  -6.4546  -4.6138  -4.4686  -0.1789  -0.1547
     0.3224   0.3665   0.3692   0.4482   1.7724   2.0655   3.0671

          k = 0.0000 0.3813 0.0000 ( 23934 PWs)   bands (ev):

   -45.5394 -45.5394  -6.3769  -5.9756  -5.0937  -4.8321  -0.7472   0.4473
     0.5945   0.7197   0.8001   1.0911   1.5042   1.8195   2.1244

          k = 0.0000 0.3813 0.1137 ( 23930 PWs)   bands (ev):

   -45.5394 -45.5394  -6.3540  -6.0079  -5.0777  -4.8466  -0.6473   0.4812
     0.5761   0.6199   0.8521   1.0364   1.3611   1.8475   2.1555

          k = 0.0000 0.3813 0.2275 ( 23943 PWs)   bands (ev):

   -45.5394 -45.5394  -6.2892  -6.0909  -5.0382  -4.8835  -0.3640   0.4751
     0.5511   0.5774   0.6142   0.9003   1.3854   1.8586   2.2435

          k = 0.0000 0.3813-0.3412 ( 23970 PWs)   bands (ev):

   -45.5394 -45.5394  -6.1967  -6.1922  -5.0088  -4.9118   0.0473   0.0609
     0.5167   0.5571   0.6902   0.7683   1.4704   1.8427   2.3512

          k = 0.0000 0.5084 0.0000 ( 23950 PWs)   bands (ev):

   -45.5394 -45.5394  -6.0086  -5.6399  -5.5681  -5.2467  -0.3551   0.1429
     0.8982   1.0088   1.2031   1.4492   1.4638   1.5231   1.7506

          k = 0.0000 0.5084 0.1137 ( 23930 PWs)   bands (ev):

   -45.5394 -45.5394  -5.9882  -5.6768  -5.5397  -5.2678  -0.2674   0.2005
     0.9312   0.9604   1.0688   1.4596   1.4922   1.5073   1.5371

          k = 0.0000 0.5084 0.2275 ( 23915 PWs)   bands (ev):

   -45.5394 -45.5394  -5.9308  -5.7538  -5.4830  -5.3232  -0.0212   0.3550
     0.7318   0.8229   1.0249   1.3350   1.3805   1.5925   1.6370

          k = 0.0000 0.5084-0.3412 ( 23938 PWs)   bands (ev):

   -45.5394 -45.5394  -5.8585  -5.8340  -5.4312  -5.3763   0.3150   0.3543
     0.5348   0.6396   1.1355   1.2073   1.3724   1.6773   1.7009

          k = 0.1271 0.1271 0.0000 ( 23915 PWs)   bands (ev):

   -45.5394 -45.5394  -6.7641  -6.3349  -4.4341  -4.2418  -1.1228  -0.1866
    -0.0793   0.7307   0.7516   1.1744   1.6996   2.0345   2.7911

          k = 0.1271 0.1271 0.1137 ( 23930 PWs)   bands (ev):

   -45.5394 -45.5394  -6.7397  -6.3692  -4.4292  -4.2412  -1.0162  -0.1745
    -0.0711   0.6897   0.6956   0.9107   1.7912   2.0737   2.8234

          k = 0.1271 0.1271 0.2275 ( 23957 PWs)   bands (ev):

   -45.5394 -45.5394  -6.6705  -6.4576  -4.4199  -4.2402  -0.7113  -0.1488
    -0.0531   0.3101   0.6124   0.6852   1.8817   2.1427   2.8966

          k = 0.1271 0.1271-0.3412 ( 23964 PWs)   bands (ev):

   -45.5394 -45.5394  -6.5763  -6.5612  -4.4154  -4.2397  -0.2878  -0.2224
    -0.1107  -0.0432   0.5753   0.6419   1.9117   2.1731   2.9549

          k = 0.1271 0.2542 0.0000 ( 23949 PWs)   bands (ev):

   -45.5394 -45.5394  -6.5980  -6.1811  -4.6930  -4.5092  -0.9630  -0.2486
    -0.0718   1.0283   1.1893   1.3253   1.3493   1.8250   2.0624

          k = 0.1271 0.2542 0.1137 ( 23951 PWs)   bands (ev):

   -45.5394 -45.5394  -6.5742  -6.2144  -4.6858  -4.5122  -0.8593  -0.2475
    -0.0899   0.9062   1.0800   1.1745   1.5035   1.8723   2.1075

          k = 0.1271 0.2542 0.2275 ( 23939 PWs)   bands (ev):

   -45.5394 -45.5394  -6.5067  -6.3003  -4.6710  -4.5189  -0.5654  -0.2427
    -0.1263   0.4302   1.0193   1.1054   1.6405   1.9660   2.1588

          k = 0.1271 0.2542-0.3412 ( 23946 PWs)   bands (ev):

   -45.5394 -45.5394  -6.4115  -6.4046  -4.6632  -4.5228  -0.2659  -0.1822
    -0.0946  -0.0602   1.0251   1.0591   1.6974   2.0167   2.1774

          k = 0.1271 0.3813 0.0000 ( 23925 PWs)   bands (ev):

   -45.5394 -45.5394  -6.3285  -5.9344  -5.0934  -4.8572  -0.6911  -0.1403
     0.1173   0.7489   1.2443   1.3109   1.6041   1.6493   1.7120

          k = 0.1271 0.3813 0.1137 ( 23922 PWs)   bands (ev):

   -45.5394 -45.5394  -6.3060  -5.9660  -5.0791  -4.8693  -0.5955  -0.1468
     0.0760   0.8079   1.0946   1.2654   1.5794   1.6699   1.7635

          k = 0.1271 0.3813 0.2275 ( 23951 PWs)   bands (ev):

   -45.5394 -45.5394  -6.2422  -6.0474  -5.0445  -4.9000  -0.3296  -0.1485
     0.0004   0.5707   1.0657   1.3039   1.5735   1.5899   1.8092

          k = 0.1271 0.3813-0.3412 ( 23926 PWs)   bands (ev):

   -45.5394 -45.5394  -6.1527  -6.1454  -5.0202  -4.9226  -0.1410  -0.1029
     0.0927   0.1486   1.2041   1.2882   1.5072   1.5790   1.8391

          k = 0.1271 0.5084 0.0000 ( 23936 PWs)   bands (ev):

   -45.5394 -45.5394  -5.9690  -5.6114  -5.5432  -5.2392  -0.3066   0.1606
     0.1822   0.4794   0.6341   0.9862   1.5509   1.7373   2.0758

          k = 0.1271 0.5084 0.1137 ( 23933 PWs)   bands (ev):

   -45.5394 -45.5394  -5.9491  -5.6469  -5.5161  -5.2588  -0.2319   0.0770
     0.3152   0.4636   0.6766   0.8821   1.5246   1.6876   2.0905

          k = 0.1271 0.5084 0.2275 ( 23944 PWs)   bands (ev):

   -45.5394 -45.5394  -5.8934  -5.7212  -5.4627  -5.3101  -0.0323   0.0710
     0.2736   0.5511   0.7195   0.7689   1.4267   1.5360   2.1224

          k = 0.1271 0.5084-0.3412 ( 23934 PWs)   bands (ev):

   -45.5394 -45.5394  -5.8246  -5.7974  -5.4154  -5.3581   0.1090   0.1288
     0.2671   0.3465   0.8204   0.8280   1.3523   1.4146   2.1386

          k = 0.2542 0.2542 0.0000 ( 23937 PWs)   bands (ev):

   -45.5394 -45.5394  -6.4403  -6.0395  -4.8294  -4.6951  -0.7925  -0.5639
    -0.3858   1.0738   1.3337   1.4424   1.4971   1.5255   1.8296

          k = 0.2542 0.2542 0.1137 ( 23951 PWs)   bands (ev):

   -45.5394 -45.5394  -6.4173  -6.0713  -4.8258  -4.6942  -0.6959  -0.5701
    -0.4167   0.9853   1.1239   1.4628   1.5702   1.6773   1.8253

          k = 0.2542 0.2542 0.2275 ( 23937 PWs)   bands (ev):

   -45.5394 -45.5394  -6.3522  -6.1538  -4.8189  -4.6923  -0.5934  -0.4739
    -0.4086   0.5038   1.2139   1.4222   1.6980   1.7558   1.8346

          k = 0.2542 0.2542-0.3412 ( 23930 PWs)   bands (ev):

   -45.5394 -45.5394  -6.2580  -6.2565  -4.8155  -4.6914  -0.5996  -0.5006
    -0.0185   0.0371   1.3235   1.3393   1.7366   1.7532   1.8527

          k = 0.2542 0.3813 0.0000 ( 23942 PWs)   bands (ev):

   -45.5394 -45.5394  -6.1872  -5.8164  -5.1074  -4.9427  -0.6617  -0.5321
    -0.4167   0.4007   0.7862   0.9167   1.4465   1.5163   2.4089

          k = 0.2542 0.3813 0.1137 ( 23946 PWs)   bands (ev):

   -45.5394 -45.5394  -6.1658  -5.8459  -5.0984  -4.9481  -0.6702  -0.5070
    -0.4077   0.4465   0.6948   0.9519   1.4009   1.6018   2.4107

          k = 0.2542 0.3813 0.2275 ( 23926 PWs)   bands (ev):

   -45.5394 -45.5394  -6.1057  -5.9218  -5.0785  -4.9614  -0.6845  -0.5670
    -0.2133   0.4251   0.5806   0.9609   1.4509   1.6706   2.4162

          k = 0.2542 0.3813-0.3412 ( 23946 PWs)   bands (ev):

[...]
     Davidson diagonalization with overlap
     c_bands:  1 eigenvalues not converged
     c_bands:  1 eigenvalues not converged
     c_bands:  1 eigenvalues not converged
     c_bands:  2 eigenvalues not converged
     c_bands:  2 eigenvalues not converged
     c_bands:  1 eigenvalues not converged
     c_bands:  2 eigenvalues not converged
     c_bands:  3 eigenvalues not converged
     c_bands:  3 eigenvalues not converged
     c_bands:  1 eigenvalues not converged
     c_bands:  1 eigenvalues not converged
     c_bands:  1 eigenvalues not converged
     c_bands:  1 eigenvalues not converged
     c_bands:  1 eigenvalues not converged
     c_bands:  2 eigenvalues not converged
     c_bands:  1 eigenvalues not converged
     c_bands:  1 eigenvalues not converged
     c_bands:  1 eigenvalues not converged
     c_bands:  1 eigenvalues not converged
     c_bands:  2 eigenvalues not converged
     c_bands:  2 eigenvalues not converged
     c_bands:  1 eigenvalues not converged
     c_bands:  1 eigenvalues not converged
     c_bands:  1 eigenvalues not converged
     c_bands:  3 eigenvalues not converged
     c_bands:  1 eigenvalues not converged
     c_bands:  1 eigenvalues not converged
     c_bands:  1 eigenvalues not converged
     c_bands:  2 eigenvalues not converged
     c_bands:  1 eigenvalues not converged
     c_bands:  1 eigenvalues not converged
     c_bands:  1 eigenvalues not converged
     c_bands:  1 eigenvalues not converged
     c_bands:  1 eigenvalues not converged
     c_bands:  1 eigenvalues not converged
     ethr =  1.00E-06,  avg # of iterations = 18.8

     total cpu time spent up to now is      727.0 secs

     total energy              =     -62.28385218 Ry
     estimated scf accuracy    <       0.05997760 Ry

     iteration #  2     ecut=    80.00 Ry     beta= 0.80
     Davidson diagonalization with overlap
     ethr =  2.73E-04,  avg # of iterations =  3.5

     total cpu time spent up to now is      727.7 secs

     total energy              =     -62.25532463 Ry
     estimated scf accuracy    <       0.28672927 Ry

     iteration #  3     ecut=    80.00 Ry     beta= 0.80
     Davidson diagonalization with overlap
     ethr =  2.73E-04,  avg # of iterations =  2.7

     total cpu time spent up to now is      728.3 secs

     total energy              =     -62.30611490 Ry
     estimated scf accuracy    <       0.00598876 Ry

     iteration #  4     ecut=    80.00 Ry     beta= 0.80
     Davidson diagonalization with overlap
     ethr =  2.72E-05,  avg # of iterations =  2.6

     total cpu time spent up to now is      728.9 secs

     total energy              =     -62.30710856 Ry
     estimated scf accuracy    <       0.00007698 Ry

     iteration #  5     ecut=    80.00 Ry     beta= 0.80
     Davidson diagonalization with overlap
     ethr =  3.50E-07,  avg # of iterations =  4.9

     total cpu time spent up to now is      729.7 secs

     total energy              =     -62.30715211 Ry
     estimated scf accuracy    <       0.00000119 Ry

     iteration #  6     ecut=    80.00 Ry     beta= 0.80
     Davidson diagonalization with overlap
     ethr =  5.40E-09,  avg # of iterations =  3.6

     total cpu time spent up to now is      730.5 secs

     total energy              =     -62.30715268 Ry
     estimated scf accuracy    <       0.00000003 Ry

     iteration #  7     ecut=    80.00 Ry     beta= 0.80
     Davidson diagonalization with overlap
     ethr =  1.45E-10,  avg # of iterations =  3.4

     total cpu time spent up to now is      731.2 secs

     total energy              =     -62.30715269 Ry
     estimated scf accuracy    <          2.3E-09 Ry

     iteration #  8     ecut=    80.00 Ry     beta= 0.80
     Davidson diagonalization with overlap
     ethr =  1.07E-11,  avg # of iterations =  2.8

     total cpu time spent up to now is      731.9 secs

     End of self-consistent calculation

          k = 0.0000 0.0000 0.0000 (  4919 PWs)   bands (ev):

   -33.7429 -33.7350  -2.9638   1.2648   2.5181   8.4663   8.4663  11.7424
    11.9826  12.9147  13.1093  13.1093  13.5986  13.5986  13.8786

          k = 0.0000 0.0000 0.1623 (  4895 PWs)   bands (ev):

   -33.7425 -33.7354  -2.9238   0.7224   3.3220   8.5234   8.5234  10.7706
    11.8312  12.2242  12.2242  12.2758  14.5659  14.7493  14.7493

          k = 0.0000 0.0000 0.3246 (  4943 PWs)   bands (ev):

   -33.7414 -33.7365  -2.8349   0.1142   4.7164   8.6551   8.6551   8.7213
    11.4663  11.4663  12.0611  12.2358  13.8900  15.3636  16.3309

          k = 0.0000 0.0000-0.4869 (  4960 PWs)   bands (ev):

   -33.7406 -33.7373  -2.7849  -0.1191   5.8519   7.3626   8.7331   8.7331
    11.1769  11.1769  12.2299  12.2305  13.5481  15.3634  17.7794

          k = 0.0000 0.1945 0.0000 (  4915 PWs)   bands (ev):

   -33.7418 -33.7344  -2.8084   1.4235   2.5937   7.1520   8.6216  11.1772
    11.7594  12.4250  13.2624  13.2817  13.3579  13.7582  14.4473

          k = 0.0000 0.1945 0.1623 (  4902 PWs)   bands (ev):

   -33.7414 -33.7348  -2.7680   0.8627   3.4138   7.2031   8.6785  10.3654
    11.1126  12.3575  12.3823  13.1110  13.7079  14.9014  15.8093

          k = 0.0000 0.1945 0.3246 (  4913 PWs)   bands (ev):

   -33.7404 -33.7358  -2.6782   0.2486   4.8097   7.3189   8.6620   8.8097
    10.2462  11.6263  12.2878  13.6941  14.1827  15.6446  16.3552

          k = 0.0000 0.1945-0.4869 (  4910 PWs)   bands (ev):

   -33.7397 -33.7366  -2.6277   0.0139   5.9614   7.3349   7.3891   8.8873
     9.9604  11.3376  12.2998  13.9134  14.2212  15.7915  17.0030

          k = 0.0000 0.3891 0.0000 (  4923 PWs)   bands (ev):

   -33.7391 -33.7331  -2.3437   1.8968   2.6893   5.3501   9.0876   9.1972
     9.8543  12.7125  13.7200  13.7436  14.2148  14.4050  16.1010

          k = 0.0000 0.3891 0.1623 (  4901 PWs)   bands (ev):

   -33.7388 -33.7334  -2.3026   1.2590   3.5382   5.4296   8.4815   9.1439
    10.5589  11.8593  12.8531  12.9541  15.3120  15.6741  16.2026

          k = 0.0000 0.3891 0.3246 (  4890 PWs)   bands (ev):

   -33.7380 -33.7342  -2.2108   0.6319   4.6817   5.7426   7.6387   9.2734
     9.7399  11.9966  12.1039  13.0104  15.6821  16.2029  16.9017

          k = 0.0000 0.3891-0.4869 (  4902 PWs)   bands (ev):

   -33.7374 -33.7348  -2.1588   0.3954   5.1390   6.6009   6.7304   8.9775
     9.3498  11.8179  12.4206  13.1864  15.6272  16.2950  16.3552

          k = 0.0000 0.5836 0.0000 (  4905 PWs)   bands (ev):

   -33.7357 -33.7318  -1.5764   2.1039   2.6718   4.5741   7.3345   8.1546
     9.8640  13.3166  13.9714  14.3431  14.4740  15.1265  15.1765

          k = 0.0000 0.5836 0.1623 (  4899 PWs)   bands (ev):

   -33.7355 -33.7320  -1.5352   1.6388   3.0121   4.8906   6.8164   8.9488
     9.9192  12.4004  13.4121  13.5698  14.1816  16.1030  16.1209

          k = 0.0000 0.5836 0.3246 (  4892 PWs)   bands (ev):

   -33.7350 -33.7325  -1.4426   1.1118   3.3187   5.3091   6.7527   9.8416
    10.0459  10.9291  12.8784  12.9597  14.2646  15.2601  16.3862

          k = 0.0000 0.5836-0.4869 (  4872 PWs)   bands (ev):

   -33.7346 -33.7329  -1.3898   0.9022   3.4381   5.2877   7.3038   9.2238
    10.1203  11.5550  12.1944  12.6027  14.3272  14.8567  16.1955

          k = 0.0000 0.7782 0.0000 (  4894 PWs)   bands (ev):

   -33.7329 -33.7316  -0.5222   0.7730   3.6968   4.5909   6.2012   6.7944
    10.9492  12.3373  14.0756  14.6624  15.4782  16.0141  16.0167

          k = 0.0000 0.7782 0.1623 (  4903 PWs)   bands (ev):

   -33.7329 -33.7316  -0.4857   0.7706   3.3946   4.4565   6.4570   7.4814
    11.0029  12.3866  13.2370  13.7444  14.7608  15.6518  15.9258

          k = 0.0000 0.7782 0.3246 (  4906 PWs)   bands (ev):

   -33.7327 -33.7318  -0.4043   0.7524   3.0348   4.0601   7.4672   8.6726
    11.1252  11.4710  12.4219  12.4954  14.0620  15.1557  15.4271

          k = 0.0000 0.7782-0.4869 (  4902 PWs)   bands (ev):

   -33.7325 -33.7319  -0.3579   0.7343   2.9143   3.8698   8.3234   9.3947
    10.6050  11.1966  11.3491  12.5553  13.7968  15.0572  15.1733

          k = 0.1945 0.1945 0.0000 (  4913 PWs)   bands (ev):

   -33.7408 -33.7339  -2.6527   1.5827   2.6792   7.0625   7.5249  11.3690
    11.6048  11.8792  12.1754  13.3576  13.8338  14.2767  14.9662

          k = 0.1945 0.1945 0.1623 (  4911 PWs)   bands (ev):

   -33.7404 -33.7342  -2.6120   1.0042   3.5156   7.1307   7.5552  10.4882
    10.6238  11.5655  13.0244  13.7161  13.9727  14.1774  16.4292

          k = 0.1945 0.1945 0.3246 (  4909 PWs)   bands (ev):

   -33.7395 -33.7352  -2.5214   0.3845   4.9149   7.2936   7.6196   8.7118
     9.8242  10.9680  13.8191  13.9402  14.8052  14.8481  16.5232

          k = 0.1945 0.1945-0.4869 (  4904 PWs)   bands (ev):

   -33.7388 -33.7359  -2.4702   0.1485   6.0834   7.3684   7.3954   7.6613
     9.5079  10.7589  13.9442  13.9832  15.3643  15.4966  16.9284

          k = 0.1945 0.3891 0.0000 (  4892 PWs)   bands (ev):

   -33.7382 -33.7325  -2.1874   2.0571   2.8118   5.4217   7.7057   9.5363
     9.9062  12.1868  12.4694  13.9227  13.9293  14.8784  15.6911

          k = 0.1945 0.3891 0.1623 (  4906 PWs)   bands (ev):

   -33.7378 -33.7328  -2.1460   1.4046   3.6794   5.5027   7.7284   8.7218
    10.7160  11.0935  12.4334  13.7822  14.4058  15.1224  16.4369

          k = 0.1945 0.3891 0.3246 (  4908 PWs)   bands (ev):

   -33.7371 -33.7335  -2.0534   0.7733   4.8398   5.8225   7.6514   8.0324
     9.5231  10.9414  12.7880  14.3436  14.7563  15.4970  16.3456

          k = 0.1945 0.3891-0.4869 (  4900 PWs)   bands (ev):

   -33.7365 -33.7341  -2.0008   0.5356   5.2883   6.6972   6.8933   7.9711
     8.7112  10.8019  13.8139  13.8982  14.9689  15.7294  16.5211

          k = 0.1945 0.5836 0.0000 (  4902 PWs)   bands (ev):

   -33.7349 -33.7312  -1.4190   2.2691   2.8340   4.6460   7.3167   8.2264
     8.7406  12.3635  12.9351  13.3218  14.6985  15.4738  15.6036

          k = 0.1945 0.5836 0.1623 (  4905 PWs)   bands (ev):

   -33.7347 -33.7314  -1.3774   1.7993   3.1650   4.9912   6.8583   8.4835
     9.2428  11.8335  12.1875  13.4568  14.6794  15.1760  16.1843

          k = 0.1945 0.5836 0.3246 (  4898 PWs)   bands (ev):

   -33.7342 -33.7319  -1.2840   1.2672   3.4581   5.4625   6.8027   8.6025
    10.0634  10.4794  11.8435  13.4151  14.0775  15.1271  16.1012

          k = 0.1945 0.5836-0.4869 (  4886 PWs)   bands (ev):

   -33.7338 -33.7322  -1.2305   1.0555   3.5733   5.4398   7.4252   8.6550
     9.1032  10.8800  12.1380  12.9946  13.5084  15.0181  16.3874

          k = 0.1945 0.7782 0.0000 (  4901 PWs)   bands (ev):

   -33.7322 -33.7309  -0.3628   0.9361   3.8620   4.7379   6.2422   6.8532
     9.6259  10.8845  13.9249  14.3401  15.0859  15.5766  15.9166

          k = 0.1945 0.7782 0.1623 (  4902 PWs)   bands (ev):

   -33.7321 -33.7309  -0.3258   0.9349   3.5394   4.6100   6.5032   7.5403
     9.6609  10.8803  12.9265  14.0489  14.3486  14.8058  16.2269

          k = 0.1945 0.7782 0.3246 (  4910 PWs)   bands (ev):

   -33.7319 -33.7311  -0.2430   0.9191   3.1651   4.2026   7.5438   8.7038
     9.7392  10.7244  11.5148  12.6932  13.5224  14.2911  16.6932

          k = 0.1945 0.7782-0.4869 (  4896 PWs)   bands (ev):

   -33.7318 -33.7312  -0.1958   0.9018   3.0406   4.0085   8.4656   9.5169
     9.5536  10.2262  11.1601  11.7072  13.3003  14.0885  16.7652

          k = 0.3891 0.3891 0.0000 (  4892 PWs)   bands (ev):

   -33.7357 -33.7310  -1.7203   2.5348   3.0911   5.2573   6.3277   9.6772
     9.7768  10.2827  11.0874  12.4290  14.7580  15.6678  17.0890

          k = 0.3891 0.3891 0.1623 (  4893 PWs)   bands (ev):

   -33.7354 -33.7313  -1.6781   1.8203   4.0219   5.3304   6.3607   8.7833
     9.3635  11.3685  11.4276  11.9280  14.3149  16.0903  17.0446

          k = 0.3891 0.3891 0.3246 (  4907 PWs)   bands (ev):

   -33.7348 -33.7319  -1.5835   1.1806   5.2448   5.5072   6.5155   7.9618
     8.4933  10.5327  12.4409  13.0334  14.2705  15.3444  16.4805

          k = 0.3891 0.3891-0.4869 (  4906 PWs)   bands (ev):

   -33.7343 -33.7324  -1.5294   0.9410   5.6203   5.8433   7.2859   7.2878
     7.6305  10.1214  12.8616  14.4292  14.6849  14.8158  14.9343

          k = 0.3891 0.5836 0.0000 (  4904 PWs)   bands (ev):

   -33.7326 -33.7296  -0.9485   2.7590   3.3171   4.6979   6.4447   8.2450
     8.3719  10.1322  10.7889  11.9742  14.6784  15.3945  15.8339

          k = 0.3891 0.5836 0.1623 (  4903 PWs)   bands (ev):

   -33.7325 -33.7298  -0.9060   2.2701   3.6141   5.1279   6.3938   7.5151
     9.2308   9.8884  10.8232  12.1258  13.9153  14.8991  16.4964

          k = 0.3891 0.5836 0.3246 (  4895 PWs)   bands (ev):

   -33.7321 -33.7302  -0.8102   1.7217   3.8635   5.8862   6.2785   7.3268
     9.0077  10.1182  10.6732  12.6534  13.1899  14.5442  15.8871

          k = 0.3891 0.5836-0.4869 (  4908 PWs)   bands (ev):

   -33.7318 -33.7305  -0.7551   1.5045   3.9685   5.8828   6.4888   7.9457
     8.2373   9.6866  11.3067  12.5597  13.3275  14.3024  15.4933

          k = 0.3891 0.7782 0.0000 (  4900 PWs)   bands (ev):

   -33.7302 -33.7291   0.1136   1.4235   4.3537   5.1364   6.1708   6.9345
     7.9507   8.8952  11.7694  12.5227  13.4750  14.1647  16.6233

          k = 0.3891 0.7782 0.1623 (  4907 PWs)   bands (ev):

   -33.7301 -33.7292   0.1520   1.4261   3.9551   5.0618   6.4183   7.4127
     8.1724   8.8850  11.2920  12.4184  13.3009  14.3750  15.9810

          k = 0.3891 0.7782 0.3246 (  4894 PWs)   bands (ev):

   -33.7300 -33.7293   0.2385   1.4172   3.5405   4.6186   7.2396   7.9464
     8.7795   9.1249  10.4025  11.6366  13.1042  13.9264  15.9944

          k = 0.3891 0.7782-0.4869 (  4890 PWs)   bands (ev):

   -33.7299 -33.7294   0.2881   1.4024   3.4067   4.4137   7.4904   8.6724
     8.8881   9.3380  10.1018  10.8515  12.9926  13.4975  16.4117

          k = 0.5836 0.5836 0.0000 (  4896 PWs)   bands (ev):

   -33.7300 -33.7280  -0.1707   3.4087   3.9672   4.1069   6.0077   8.0197
     8.3746   8.6236   9.0719  11.1515  13.0613  14.0281  16.3943

          k = 0.5836 0.5836 0.1623 (  4884 PWs)   bands (ev):

   -33.7299 -33.7281  -0.1276   2.9248   4.0416   4.5391   6.2104   7.5004
     7.8634   8.8515  10.2036  11.0538  12.5568  14.3075  15.7894

          k = 0.5836 0.5836 0.3246 (  4892 PWs)   bands (ev):

   -33.7296 -33.7284  -0.0297   2.3848   4.2222   4.8921   6.6722   6.6974
     7.8784   9.0058  10.8690  11.7594  11.8402  14.1215  15.7948

          k = 0.5836 0.5836-0.4869 (  4886 PWs)   bands (ev):

   -33.7294 -33.7286   0.0270   2.1707   4.3383   4.9856   6.3364   6.8903
     8.4107   8.5945  11.0309  11.1500  13.4678  13.9831  14.0262

          k = 0.5836 0.7782 0.0000 (  4888 PWs)   bands (ev):

   -33.7279 -33.7272   0.9010   2.2294   4.8127   5.1492   6.0637   6.2746
     7.6054   7.8534   9.7857  10.7475  12.1411  12.7577  17.3950

          k = 0.5836 0.7782 0.1623 (  4893 PWs)   bands (ev):

   -33.7279 -33.7273   0.9414   2.2384   4.4033   5.4176   5.7177   6.5781
     7.4971   8.2308   9.9743  10.6533  12.1587  13.1212  16.2511

          k = 0.5836 0.7782 0.3246 (  4887 PWs)   bands (ev):

   -33.7278 -33.7274   1.0328   2.2392   4.0296   5.2087   5.6436   6.7502
     7.7585   8.7039  10.1338  10.7176  12.4728  13.5429  15.2433

          k = 0.5836 0.7782-0.4869 (  4886 PWs)   bands (ev):

   -33.7277 -33.7274   1.0855   2.2267   3.9142   5.0181   5.6778   6.7461
     7.9904   8.9406  10.0934  10.8253  12.9910  13.4342  14.4941

          k = 0.7782 0.7782 0.0000 (  4910 PWs)   bands (ev):

   -33.7263 -33.7261   1.9866   3.3076   3.3732   4.7235   6.2466   6.7389
     7.7209   7.8571   8.4446   9.2497  11.5160  11.7846  18.4237

          k = 0.7782 0.7782 0.1623 (  4899 PWs)   bands (ev):

   -33.7263 -33.7261   2.0272   3.3367   3.3823   4.7315   5.8957   6.8511
     6.9295   7.8387   9.5739   9.6215  11.5432  11.9904  16.9292

          k = 0.7782 0.7782 0.3246 (  4884 PWs)   bands (ev):

   -33.7263 -33.7261   2.1185   3.2534   3.5637   4.7751   5.4254   6.0207
     7.0991   7.8076  10.4179  11.2193  11.5952  12.5622  15.1000

          k = 0.7782 0.7782-0.4869 (  4886 PWs)   bands (ev):

   -33.7262 -33.7261   2.1711   3.2049   3.6802   4.8358   5.1958   5.6837
     7.1572   7.7928  10.9051  11.5735  12.8403  13.4159  13.4542

     the Fermi energy is    12.2973 ev

!    total energy              =     -62.30715269 Ry
     estimated scf accuracy    <          6.4E-11 Ry
     smearing contrib. (-TS)   =      -0.00075371 Ry
     internal energy E=F+TS    =     -62.30639898 Ry

     The total energy is F=E-TS. E is the sum of the following terms:
     one-electron contribution =       8.30548083 Ry
     hartree contribution      =       6.52484250 Ry
     xc contribution           =     -20.24114572 Ry
     ewald contribution        =     -56.89557659 Ry

     convergence has been achieved in   8 iterations

     Forces acting on atoms (cartesian axes, Ry/au):

     atom    1 type  1   force =     0.00000000    0.00000000   -0.00009006
     atom    2 type  1   force =     0.00000000    0.00000000    0.00009006
     atom    3 type  2   force =     0.00000000    0.00000000    0.00000000
     atom    4 type  2   force =     0.00000000    0.00000000   -0.00000000
     atom    5 type  2   force =     0.00000000    0.00000000   -0.00012325
     atom    6 type  2   force =     0.00000000    0.00000000    0.00012325

     Total force =     0.000216     Total SCF correction =     0.000006


     Computing stress (Cartesian axis) and pressure

          total   stress  (Ry/bohr**3)                   (kbar)     P=      501.44
   0.00341109   0.00000000   0.00000000          501.79        0.00        0.00
   0.00000000   0.00341109   0.00000000            0.00      501.79        0.00
   0.00000000   0.00000000   0.00340394            0.00        0.00      500.74


     Writing all to output data dir ./output/LiSi.save/ :
     XML data file, charge density, pseudopotentials, collected wavefunctions

     init_run     :      1.92s CPU      2.09s WALL (       2 calls)
     electrons    :    593.31s CPU    613.86s WALL (      30 calls)
     update_pot   :      0.58s CPU      0.72s WALL (      28 calls)
     forces       :     12.06s CPU     12.40s WALL (      30 calls)
     stress       :    101.20s CPU    102.31s WALL (      30 calls)

     Called by init_run:
     wfcinit      :      1.21s CPU      1.26s WALL (       2 calls)
     potinit      :      0.04s CPU      0.04s WALL (       2 calls)
     hinit0       :      0.53s CPU      0.62s WALL (       2 calls)

     Called by electrons:
     c_bands      :    534.66s CPU    552.32s WALL (     217 calls)
     sum_band     :     54.96s CPU     56.32s WALL (     217 calls)
     v_of_rho     :      3.55s CPU      4.13s WALL (     243 calls)
     mix_rho      :      0.33s CPU      0.48s WALL (     217 calls)

     Called by c_bands:
     init_us_2    :     19.13s CPU     21.39s WALL (   29760 calls)
     cegterg      :    487.94s CPU    498.36s WALL (   13021 calls)

     Called by *egterg:
     cdiaghg      :     21.00s CPU     21.67s WALL (   71125 calls)
     h_psi        :    400.77s CPU    409.28s WALL (   73165 calls)
     g_psi        :      2.48s CPU      2.53s WALL (   60024 calls)

     Called by h_psi:
     h_psi:calbec :     52.84s CPU     53.87s WALL (   73165 calls)
     vloc_psi     :    301.34s CPU    308.02s WALL (   73165 calls)
     add_vuspsi   :     44.75s CPU     45.45s WALL (   73165 calls)

     General routines
     calbec       :     63.51s CPU     64.76s WALL (   82165 calls)
     fft          :      1.74s CPU      2.29s WALL (    3182 calls)
     ffts         :      0.09s CPU      0.15s WALL (     217 calls)
     fftw         :    300.94s CPU    307.15s WALL ( 1478882 calls)

     Parallel routines

     PWSCF        :    709.69s CPU    733.08s WALL


   This run was terminated on:  20:32: 0   3Mar2025            

=------------------------------------------------------------------------------=
   JOB DONE.
=------------------------------------------------------------------------------=
