
     Program PWSCF v.7.2 starts on 10Jan2025 at 22: 0:18 

     This program is part of the open-source Quantum ESPRESSO suite
     for quantum simulation of materials; please cite
         "P. Giannozzi et al., J. Phys.:Condens. Matter 21 395502 (2009);
         "P. Giannozzi et al., J. Phys.:Condens. Matter 29 465901 (2017);
         "P. Giannozzi et al., J. Chem. Phys. 152 154105 (2020);
          URL http://www.quantum-espresso.org", 
     in publications or presentations arising from this work. More details at
     http://www.quantum-espresso.org/quote

     Parallel version (MPI & OpenMP), running on       8 processor cores
     Number of MPI processes:                 8
     Threads/MPI process:                     1

     MPI processes distributed on     1 nodes
     481956 MiB available memory on the printing compute node when the environment starts

     Waiting for input...
     Reading input from standard input

     Current dimensions of program PWSCF are:
     Max number of different atomic species (ntypx) = 10
     Max number of k-points (npk) =  40000
     Max angular momentum in pseudopotentials (lmaxx) =  4

     R & G space division:  proc/nbgrp/npool/nimage =       8
     Subspace diagonalization in iterative solution of the eigenvalue problem:
     a serial algorithm will be used


     Parallelization info
     --------------------
     sticks:   dense  smooth     PW     G-vecs:    dense   smooth      PW
     Min         147     147     45                 2916     2916     512
     Max         148     148     46                 2918     2918     514
     Sum        1181    1181    367                23333    23333    4105

     Using Slab Decomposition



     bravais-lattice index     =            7
     lattice parameter (alat)  =       4.9249  a.u.
     unit-cell volume          =     172.7331 (a.u.)^3
     number of atoms/cell      =            3
     number of atomic types    =            2
     number of electrons       =        10.00
     number of Kohn-Sham states=            9
     kinetic-energy cutoff     =     100.0000  Ry
     charge density cutoff     =     400.0000  Ry
     scf convergence threshold =      1.0E-08
     mixing beta               =       0.7000
     number of iterations used =            8  plain     mixing
     energy convergence thresh.=      1.0E-04
     force convergence thresh. =      1.0E-03
     press convergence thresh. =      1.0E+00
     Exchange-correlation= PBE
                           (   1   4   3   4   0   0   0)
     nstep                     =           50


     celldm(1)=   4.924920  celldm(2)=   0.000000  celldm(3)=   2.892065
     celldm(4)=   0.000000  celldm(5)=   0.000000  celldm(6)=   0.000000

     crystal axes: (cart. coord. in units of alat)
               a(1) = (   0.500000  -0.500000   1.446032 )  
               a(2) = (   0.500000   0.500000   1.446032 )  
               a(3) = (  -0.500000  -0.500000   1.446032 )  

     reciprocal axes: (cart. coord. in units 2 pi/alat)
               b(1) = (  1.000000 -1.000000  0.000000 )  
               b(2) = (  0.000000  1.000000  0.345774 )  
               b(3) = ( -1.000000  0.000000  0.345774 )  


     PseudoPot. # 1 for Li read from file:
     ../pseudo/Li_ONCV_PBE_sr.upf
     MD5 check sum: 50ff420e78310ffa21704f3361e624a4
     Pseudo is Norm-conserving, Zval =  3.0
     Generated using ONCVPSP code by D. R. Hamann
     Using radial grid of 1944 points,  4 beta functions with: 
                l(1) =   0
                l(2) =   0
                l(3) =   1
                l(4) =   1

     PseudoPot. # 2 for Si read from file:
     ../pseudo/Si_ONCV_PBE_sr.upf
     MD5 check sum: e543d271109d17c80368dfa7c482276d
     Pseudo is Norm-conserving + core correction, Zval =  4.0
     Generated using ONCVPSP code by D. R. Hamann
     Using radial grid of 1510 points,  6 beta functions with: 
                l(1) =   0
                l(2) =   0
                l(3) =   1
                l(4) =   1
                l(5) =   2
                l(6) =   2

     atomic species   valence    mass     pseudopotential
        Li             3.00     6.94100     Li( 1.00)
        Si             4.00    28.08550     Si( 1.00)

     16 Sym. Ops., with inversion, found



   Cartesian axes

     site n.     atom                  positions (alat units)
         1           Li  tau(   1) = (   0.0000000   0.0000000   0.9946462  )
         2           Li  tau(   2) = (   0.0000000   0.0000000   1.8974188  )
         3           Si  tau(   3) = (   0.0000000   0.0000000   0.0000000  )

     number of k points=    84  Marzari-Vanderbilt smearing, width (Ry)=  0.0200
                       cart. coord. in units 2pi/alat
        k(    1) = (   0.0000000   0.0000000   0.0000000), wk =   0.0040000
        k(    2) = (  -0.2000000   0.0000000   0.0691547), wk =   0.0320000
        k(    3) = (  -0.4000000   0.0000000   0.1383095), wk =   0.0320000
        k(    4) = (   0.0000000   0.1000000   0.0345774), wk =   0.0160000
        k(    5) = (  -0.2000000   0.1000000   0.1037321), wk =   0.0320000
        k(    6) = (  -0.4000000   0.1000000   0.1728868), wk =   0.0320000
        k(    7) = (   0.4000000   0.1000000  -0.1037321), wk =   0.0320000
        k(    8) = (   0.2000000   0.1000000  -0.0345774), wk =   0.0320000
        k(    9) = (  -0.2000000   0.2000000   0.1383095), wk =   0.0320000
        k(   10) = (  -0.4000000   0.2000000   0.2074642), wk =   0.0640000
        k(   11) = (   0.4000000   0.2000000  -0.0691547), wk =   0.0640000
        k(   12) = (   0.2000000   0.2000000   0.0000000), wk =   0.0160000
        k(   13) = (   0.0000000   0.3000000   0.1037321), wk =   0.0160000
        k(   14) = (  -0.2000000   0.3000000   0.1728868), wk =   0.0320000
        k(   15) = (  -0.4000000   0.3000000   0.2420416), wk =   0.0320000
        k(   16) = (   0.4000000   0.3000000  -0.0345774), wk =   0.0320000
        k(   17) = (   0.2000000   0.3000000   0.0345774), wk =   0.0320000
        k(   18) = (  -0.4000000   0.4000000   0.2766190), wk =   0.0320000
        k(   19) = (   0.4000000   0.4000000   0.0000000), wk =   0.0160000
        k(   20) = (   0.0000000  -0.5000000  -0.1728868), wk =   0.0080000
        k(   21) = (  -0.2000000  -0.5000000  -0.1037321), wk =   0.0320000
        k(   22) = (  -0.4000000  -0.5000000  -0.0345774), wk =   0.0320000
        k(   23) = (   0.1000000  -0.1000000   0.0000000), wk =   0.0080000
        k(   24) = (  -0.1000000  -0.1000000   0.0691547), wk =   0.0160000
        k(   25) = (  -0.3000000  -0.1000000   0.1383095), wk =   0.0320000
        k(   26) = (   0.5000000  -0.1000000  -0.1383095), wk =   0.0320000
        k(   27) = (   0.3000000  -0.1000000  -0.0691547), wk =   0.0320000
        k(   28) = (  -0.1000000   0.0000000   0.1037321), wk =   0.0160000
        k(   29) = (  -0.3000000   0.0000000   0.1728868), wk =   0.0160000
        k(   30) = (   0.5000000   0.0000000  -0.1037321), wk =   0.0160000
        k(   31) = (   0.3000000   0.0000000  -0.0345774), wk =   0.0160000
        k(   32) = (  -0.1000000   0.1000000   0.1383095), wk =   0.0160000
        k(   33) = (  -0.3000000   0.1000000   0.2074642), wk =   0.0320000
        k(   34) = (   0.5000000   0.1000000  -0.0691547), wk =   0.0320000
        k(   35) = (   0.3000000   0.1000000   0.0000000), wk =   0.0160000
        k(   36) = (  -0.1000000   0.2000000   0.1728868), wk =   0.0320000
        k(   37) = (  -0.3000000   0.2000000   0.2420416), wk =   0.0320000
        k(   38) = (   0.5000000   0.2000000  -0.0345774), wk =   0.0320000
        k(   39) = (  -0.3000000   0.3000000   0.2766190), wk =   0.0160000
        k(   40) = (   0.5000000   0.3000000   0.0000000), wk =   0.0160000
        k(   41) = (   0.3000000   0.3000000   0.0691547), wk =   0.0160000
        k(   42) = (  -0.1000000  -0.6000000  -0.1037321), wk =   0.0320000
        k(   43) = (  -0.3000000  -0.6000000  -0.0345774), wk =   0.0320000
        k(   44) = (   0.3000000  -0.6000000  -0.2420416), wk =   0.0320000
        k(   45) = (   0.5000000  -0.5000000  -0.2766190), wk =   0.0080000
        k(   46) = (   0.3000000  -0.5000000  -0.2074642), wk =   0.0320000
        k(   47) = (  -0.1000000  -0.4000000  -0.0345774), wk =   0.0320000
        k(   48) = (   0.5000000  -0.4000000  -0.2420416), wk =   0.0320000
        k(   49) = (   0.3000000  -0.4000000  -0.1728868), wk =   0.0320000
        k(   50) = (   0.3000000  -0.3000000  -0.1383095), wk =   0.0160000
        k(   51) = (  -0.3000000  -0.2000000   0.1037321), wk =   0.0320000
        k(   52) = (   0.5000000  -0.2000000  -0.1728868), wk =   0.0160000
        k(   53) = (   0.0000000   0.0000000   0.1383095), wk =   0.0080000
        k(   54) = (  -0.2000000   0.0000000   0.2074642), wk =   0.0320000
        k(   55) = (   0.6000000   0.0000000  -0.0691547), wk =   0.0320000
        k(   56) = (   0.4000000   0.0000000   0.0000000), wk =   0.0160000
        k(   57) = (   0.0000000   0.1000000   0.1728868), wk =   0.0160000
        k(   58) = (  -0.2000000   0.1000000   0.2420416), wk =   0.0320000
        k(   59) = (   0.6000000   0.1000000  -0.0345774), wk =   0.0320000
        k(   60) = (  -0.2000000   0.2000000   0.2766190), wk =   0.0320000
        k(   61) = (   0.6000000   0.2000000   0.0000000), wk =   0.0320000
        k(   62) = (   0.0000000  -0.7000000  -0.1037321), wk =   0.0160000
        k(   63) = (  -0.2000000  -0.7000000  -0.0345774), wk =   0.0320000
        k(   64) = (   0.4000000  -0.6000000  -0.2074642), wk =   0.0320000
        k(   65) = (   0.0000000  -0.5000000  -0.0345774), wk =   0.0160000
        k(   66) = (   0.4000000  -0.5000000  -0.1728868), wk =   0.0160000
        k(   67) = (   0.3000000  -0.3000000   0.0000000), wk =   0.0080000
        k(   68) = (   0.7000000  -0.3000000  -0.1383095), wk =   0.0160000
        k(   69) = (   0.5000000  -0.3000000  -0.0691547), wk =   0.0320000
        k(   70) = (  -0.1000000  -0.1000000   0.2074642), wk =   0.0160000
        k(   71) = (   0.7000000  -0.1000000  -0.0691547), wk =   0.0320000
        k(   72) = (   0.5000000  -0.1000000   0.0000000), wk =   0.0160000
        k(   73) = (  -0.1000000   0.0000000   0.2420416), wk =   0.0160000
        k(   74) = (   0.7000000   0.0000000  -0.0345774), wk =   0.0160000
        k(   75) = (  -0.1000000   0.1000000   0.2766190), wk =   0.0160000
        k(   76) = (   0.7000000   0.1000000   0.0000000), wk =   0.0160000
        k(   77) = (  -0.1000000  -0.8000000  -0.0345774), wk =   0.0320000
        k(   78) = (   0.5000000  -0.5000000  -0.1383095), wk =   0.0080000
        k(   79) = (   0.0000000   0.0000000   0.2766190), wk =   0.0080000
        k(   80) = (   0.8000000   0.0000000   0.0000000), wk =   0.0160000
        k(   81) = (   0.0000000  -0.9000000  -0.0345774), wk =   0.0160000
        k(   82) = (  -0.5000000   0.5000000   0.0000000), wk =   0.0040000
        k(   83) = (  -0.3000000   0.7000000   0.0000000), wk =   0.0080000
        k(   84) = (  -0.1000000   0.9000000   0.0000000), wk =   0.0080000

     Dense  grid:    23333 G-vectors     FFT dimensions: (  54,  54,  54)

     Estimated max dynamical RAM per process >      20.20 MB

     Estimated total dynamical RAM >     161.63 MB

     Initial potential from superposition of free atoms

     starting charge       9.9903, renormalised to      10.0000
     Starting wfcs are    8 randomized atomic wfcs +    1 random wfcs

     total cpu time spent up to now is        1.3 secs

     Self-consistent Calculation

     iteration #  1     ecut=   100.00 Ry     beta= 0.70
     Davidson diagonalization with overlap
     ethr =  1.00E-02,  avg # of iterations =  6.3

     Threshold (ethr) on eigenvalues was too large:
     Diagonalizing with lowered threshold

     Davidson diagonalization with overlap
     ethr =  1.22E-04,  avg # of iterations =  3.7

     total cpu time spent up to now is        4.2 secs

     total energy              =     -37.15716856 Ry
     estimated scf accuracy    <       0.01208621 Ry

     iteration #  2     ecut=   100.00 Ry     beta= 0.70
     Davidson diagonalization with overlap
     ethr =  1.21E-04,  avg # of iterations =  1.2

     total cpu time spent up to now is        5.0 secs

     total energy              =     -37.15752657 Ry
     estimated scf accuracy    <       0.00104454 Ry

     iteration #  3     ecut=   100.00 Ry     beta= 0.70
     Davidson diagonalization with overlap
     ethr =  1.04E-05,  avg # of iterations =  2.8

     total cpu time spent up to now is        6.1 secs

     total energy              =     -37.15762861 Ry
     estimated scf accuracy    <       0.00015553 Ry

     iteration #  4     ecut=   100.00 Ry     beta= 0.70
     Davidson diagonalization with overlap
     ethr =  1.56E-06,  avg # of iterations =  2.2

     total cpu time spent up to now is        7.1 secs

     total energy              =     -37.15765326 Ry
     estimated scf accuracy    <       0.00000069 Ry

     iteration #  5     ecut=   100.00 Ry     beta= 0.70
     Davidson diagonalization with overlap
     ethr =  6.87E-09,  avg # of iterations =  2.5

     total cpu time spent up to now is        8.2 secs

     total energy              =     -37.15765347 Ry
     estimated scf accuracy    <       0.00000001 Ry

     iteration #  6     ecut=   100.00 Ry     beta= 0.70
     Davidson diagonalization with overlap
     ethr =  1.46E-10,  avg # of iterations =  2.5

     total cpu time spent up to now is        9.2 secs

     End of self-consistent calculation

          k = 0.0000 0.0000 0.0000 (  2903 PWs)   bands (ev):

   -36.2667 -35.9871  -2.2252   7.4141   8.2693  15.5583  15.5583  16.3621
    19.2072

          k =-0.2000 0.0000 0.0692 (  2916 PWs)   bands (ev):

   -36.2245 -35.9970  -1.5570   6.7586   8.7796  11.4324  15.9299  16.1578
    20.6616

          k =-0.4000 0.0000 0.1383 (  2925 PWs)   bands (ev):

   -36.1354 -36.0336   0.3015   4.7802   6.5176  12.6121  15.3493  18.1059
    20.9220

          k = 0.0000 0.1000 0.0346 (  2917 PWs)   bands (ev):

   -36.2555 -35.9894  -2.0573   7.1192   8.7175  13.1502  15.7043  17.8016
    18.6795

          k =-0.2000 0.1000 0.1037 (  2912 PWs)   bands (ev):

   -36.2104 -36.0025  -1.3684   6.4089   9.2187  11.3171  15.1433  15.8820
    20.3174

          k =-0.4000 0.1000 0.1729 (  2923 PWs)   bands (ev):

   -36.1236 -36.0372   0.5252   4.8741   6.4705  12.9467  14.9644  17.4796
    19.0403

          k = 0.4000 0.1000-0.1037 (  2920 PWs)   bands (ev):

   -36.1348 -36.0260   0.4586   4.9582   6.9277  12.2999  14.2757  17.0545
    19.5024

          k = 0.2000 0.1000-0.0346 (  2914 PWs)   bands (ev):

   -36.2191 -35.9938  -1.4015   7.3651   8.6010  10.8231  15.1503  15.3493
    19.9362

          k =-0.2000 0.2000 0.1383 (  2915 PWs)   bands (ev):

   -36.1798 -36.0104  -0.8350   6.3121   9.1677  10.5706  15.0894  15.1478
    20.1455

          k =-0.4000 0.2000 0.2075 (  2923 PWs)   bands (ev):

   -36.1026 -36.0368   1.1366   5.1741   6.7637  12.7120  13.3271  16.7197
    17.8651

          k = 0.4000 0.2000-0.0692 (  2932 PWs)   bands (ev):

   -36.1228 -36.0166   0.9796   5.4188   7.7135  11.7056  12.8120  15.1081
    17.4634

          k = 0.2000 0.2000 0.0000 (  2909 PWs)   bands (ev):

   -36.1959 -35.9943  -0.9085   7.9597   8.8129   9.5777  13.9816  14.3786
    19.7440

          k = 0.0000 0.3000 0.1037 (  2919 PWs)   bands (ev):

   -36.1809 -36.0116  -0.7418   6.3774   7.0577  12.1009  14.7743  16.9507
    21.8611

          k =-0.2000 0.3000 0.1729 (  2919 PWs)   bands (ev):

   -36.1401 -36.0221   0.0286   6.4191   7.2030  11.4149  14.1954  16.2073
    19.2865

          k =-0.4000 0.3000 0.2420 (  2919 PWs)   bands (ev):

   -36.0796 -36.0333   2.1266   5.5132   7.3600  10.4650  13.7427  14.5739
    16.7843

          k = 0.4000 0.3000-0.0346 (  2922 PWs)   bands (ev):

   -36.1037 -36.0092   1.8366   6.0801   8.8639  10.1256  11.7220  13.3685
    16.1963

          k = 0.2000 0.3000 0.0346 (  2927 PWs)   bands (ev):

   -36.1609 -36.0013  -0.0937   7.3574   8.0611  10.1957  12.9816  14.4852
    19.3996

          k =-0.4000 0.4000 0.2766 (  2927 PWs)   bands (ev):

   -36.0661 -36.0252   3.4363   5.4409   8.2012   9.0374  12.7153  14.3070
    14.4351

          k = 0.4000 0.4000 0.0000 (  2909 PWs)   bands (ev):

   -36.0838 -36.0076   2.9717   6.3914   8.6656  10.3014  10.5511  12.1059
    16.2118

          k = 0.0000-0.5000-0.1729 (  2918 PWs)   bands (ev):

   -36.1094 -36.0506   1.0072   3.7488   6.4597  12.5464  16.9475  18.6179
    19.3748

          k =-0.2000-0.5000-0.1037 (  2927 PWs)   bands (ev):

   -36.0941 -36.0366   1.8339   4.2065   7.2147  12.6163  13.7209  15.0038
    17.6127

          k =-0.4000-0.5000-0.0346 (  2920 PWs)   bands (ev):

   -36.0692 -36.0139   4.1419   5.3230   8.6209   9.2558  11.6933  12.2184
    15.3371

          k = 0.1000-0.1000 0.0000 (  2915 PWs)   bands (ev):

   -36.2470 -35.9890  -1.8960   7.5281   8.4161  12.3598  15.1407  16.8506
    19.4479

          k =-0.1000-0.1000 0.0692 (  2916 PWs)   bands (ev):

   -36.2423 -35.9937  -1.8809   6.6722   9.4601  12.2402  15.0921  17.1517
    19.6875

          k =-0.3000-0.1000 0.1383 (  2911 PWs)   bands (ev):

   -36.1671 -36.0170  -0.5366   6.2733   7.0519  12.5160  14.4374  16.2614
    21.3123

          k = 0.5000-0.1000-0.1383 (  2925 PWs)   bands (ev):

   -36.1052 -36.0467   1.2151   3.8664   6.6509  12.5729  16.0614  17.2029
    18.3865

          k = 0.3000-0.1000-0.0692 (  2918 PWs)   bands (ev):

   -36.1784 -36.0057  -0.5907   6.7501   7.3887  11.3418  14.0767  15.9937
    20.8616

          k =-0.1000 0.0000 0.1037 (  2914 PWs)   bands (ev):

   -36.2461 -35.9988  -2.0299   6.0721  10.1434  13.0411  15.4517  18.2579
    18.6280

          k =-0.3000 0.0000 0.1729 (  2909 PWs)   bands (ev):

   -36.1662 -36.0263  -0.6806   5.8208   6.8337  13.5590  15.5531  16.6469
    21.6118

          k = 0.5000 0.0000-0.1037 (  2913 PWs)   bands (ev):

   -36.1094 -36.0506   1.0066   3.7544   6.4391  12.7729  15.9946  19.3080
    19.7237

          k = 0.3000 0.0000-0.0346 (  2929 PWs)   bands (ev):

   -36.1888 -36.0037  -0.7779   6.6706   7.4176  11.1147  14.3734  17.1828
    21.9384

          k =-0.1000 0.1000 0.1383 (  2918 PWs)   bands (ev):

   -36.2290 -36.0070  -1.8404   5.7065  10.9481  11.9706  15.0434  17.9546
    20.0770

          k =-0.3000 0.1000 0.2075 (  2909 PWs)   bands (ev):

   -36.1502 -36.0339  -0.4658   5.6966   6.8698  13.6687  15.0131  16.9541
    21.0601

          k = 0.5000 0.1000-0.0692 (  2924 PWs)   bands (ev):

   -36.1052 -36.0467   1.2137   3.8779   6.6118  13.0130  15.1219  17.0067
    18.8876

          k = 0.3000 0.1000 0.0000 (  2920 PWs)   bands (ev):

   -36.1823 -36.0018  -0.6107   6.8837   7.6755  10.7946  13.9334  15.9387
    20.6974

          k =-0.1000 0.2000 0.1729 (  2912 PWs)   bands (ev):

   -36.1945 -36.0183  -1.3124   5.5867   9.3128  12.2994  15.3767  16.7966
    21.0015

          k =-0.3000 0.2000 0.2420 (  2909 PWs)   bands (ev):

   -36.1222 -36.0399   0.1115   5.8756   7.0046  11.6789  15.4427  17.6816
    19.1159

          k = 0.5000 0.2000-0.0346 (  2925 PWs)   bands (ev):

   -36.0941 -36.0366   1.8306   4.2266   7.1540  13.1427  13.7517  14.3371
    17.2894

          k =-0.3000 0.3000 0.2766 (  2919 PWs)   bands (ev):

   -36.0892 -36.0457   1.0332   6.3382   6.6582  10.3313  15.7021  16.7417
    17.8538

          k = 0.5000 0.3000 0.0000 (  2923 PWs)   bands (ev):

   -36.0804 -36.0241   2.8353   4.7479   8.0445  11.0651  12.7779  13.0819
    16.6110

          k = 0.3000 0.3000 0.0692 (  2923 PWs)   bands (ev):

   -36.1304 -36.0046   0.7604   7.4524   8.2424   9.6299  12.1716  14.1839
    17.2000

          k =-0.1000-0.6000-0.1037 (  2920 PWs)   bands (ev):

   -36.1082 -36.0526   0.5959   4.7949   6.0697  13.8634  15.3692  17.5449
    18.9234

          k =-0.3000-0.6000-0.0346 (  2924 PWs)   bands (ev):

   -36.0680 -36.0449   2.2057   5.4082   7.0745  10.5061  14.3661  14.9070
    17.1191

          k = 0.3000-0.6000-0.2420 (  2917 PWs)   bands (ev):

   -36.0993 -36.0136   1.8996   5.9239   8.4199  10.3272  11.9178  13.9762
    16.2254

          k = 0.5000-0.5000-0.2766 (  2920 PWs)   bands (ev):

   -36.0650 -36.0101   5.0350   5.8532   7.0351  10.4498  11.0397  11.6147
    14.0106

          k = 0.3000-0.5000-0.2075 (  2922 PWs)   bands (ev):

   -36.0803 -36.0241   2.8526   4.6828   8.2260  11.0070  12.2331  13.3843
    16.4576

          k =-0.1000-0.4000-0.0346 (  2922 PWs)   bands (ev):

   -36.1407 -36.0201   0.4193   5.0128   7.2536  11.9640  13.7334  16.9223
    19.6521

          k = 0.5000-0.4000-0.2420 (  2915 PWs)   bands (ev):

   -36.0692 -36.0140   4.1887   5.2257   8.5813   9.4891  11.7370  12.2504
    14.2906

          k = 0.3000-0.4000-0.1729 (  2919 PWs)   bands (ev):

   -36.0909 -36.0220   2.0082   5.7033   7.8534  10.4106  12.6851  14.4437
    16.4613

          k = 0.3000-0.3000-0.1383 (  2924 PWs)   bands (ev):

   -36.1211 -36.0138   0.8383   7.1567   7.4570   9.9894  13.0379  15.2082
    17.0979

          k =-0.3000-0.2000 0.1037 (  2919 PWs)   bands (ev):

   -36.1537 -36.0085  -0.0485   7.0474   7.5192  10.8741  13.3474  15.0873
    19.3666

          k = 0.5000-0.2000-0.1729 (  2926 PWs)   bands (ev):

   -36.0941 -36.0366   1.8360   4.1943   7.2530  12.3934  13.7214  15.2754
    18.0089

          k = 0.0000 0.0000 0.1383 (  2907 PWs)   bands (ev):

   -36.2480 -36.0058  -2.1752   5.5228  11.0918  15.0991  15.0991  16.1182
    20.3623

          k =-0.2000 0.0000 0.2075 (  2914 PWs)   bands (ev):

   -36.1931 -36.0284  -1.4561   5.1441   9.2085  14.0408  15.5580  17.5787
    20.1375

          k = 0.6000 0.0000-0.0692 (  2917 PWs)   bands (ev):

   -36.1041 -36.0648   0.4251   4.6522   5.7671  14.4106  16.9781  17.6471
    18.9204

          k = 0.4000 0.0000 0.0000 (  2920 PWs)   bands (ev):

   -36.1474 -36.0216   0.2315   4.8658   7.0958  11.9796  13.9550  18.4912
    21.4702

          k = 0.0000 0.1000 0.1729 (  2902 PWs)   bands (ev):

   -36.2291 -36.0158  -1.9837   5.2095  11.5192  13.1801  15.1284  18.2823
    19.3529

          k =-0.2000 0.1000 0.2420 (  2903 PWs)   bands (ev):

   -36.1750 -36.0378  -1.2532   5.0005   9.2195  13.0629  16.2362  17.9761
    21.4005

          k = 0.6000 0.1000-0.0346 (  2917 PWs)   bands (ev):

   -36.0901 -36.0707   0.6421   4.7481   5.8414  15.0010  15.5009  16.3053
    20.1357

          k =-0.2000 0.2000 0.2766 (  2895 PWs)   bands (ev):

   -36.1437 -36.0465  -0.7040   5.1473   8.6845  11.5642  17.6435  17.7791
    20.9685

          k = 0.6000 0.2000 0.0000 (  2918 PWs)   bands (ev):

   -36.0719 -36.0674   1.2450   5.0430   6.2805  12.8008  15.3803  15.5555
    18.4476

          k = 0.0000-0.7000-0.1037 (  2920 PWs)   bands (ev):

   -36.1475 -36.0450  -0.6155   5.3242   6.7063  15.1970  16.3978  16.6729
    20.5152

          k =-0.2000-0.7000-0.0346 (  2911 PWs)   bands (ev):

   -36.1054 -36.0567   0.1660   5.5783   6.8985  11.7806  16.8127  18.3960
    19.3677

          k = 0.4000-0.6000-0.2075 (  2908 PWs)   bands (ev):

   -36.0782 -36.0132   3.1316   5.9490   8.7933   9.3022  11.7572  12.6715
    14.8475

          k = 0.0000-0.5000-0.0346 (  2932 PWs)   bands (ev):

   -36.1094 -36.0506   1.0056   3.7636   6.4063  13.3495  14.8168  19.2259
    20.2807

          k = 0.4000-0.5000-0.1729 (  2906 PWs)   bands (ev):

   -36.0692 -36.0140   4.2215   5.1630   8.5688   9.6190  11.9963  12.0411
    13.8511

          k = 0.3000-0.3000 0.0000 (  2923 PWs)   bands (ev):

   -36.1335 -36.0014   0.7319   7.5862   8.8745   9.1798  11.8465  13.7937
    17.2420

          k = 0.7000-0.3000-0.1383 (  2916 PWs)   bands (ev):

   -36.1068 -36.0281   0.9420   6.7871   6.8611  10.2073  14.2678  16.4618
    17.0762

          k = 0.5000-0.3000-0.0692 (  2918 PWs)   bands (ev):

   -36.0804 -36.0241   2.8418   4.7228   8.1119  11.0493  12.4876  13.2785
    16.5140

          k =-0.1000-0.1000 0.2075 (  2913 PWs)   bands (ev):

   -36.2099 -36.0261  -1.7878   4.9730  11.6959  12.3260  15.2988  19.0290
    19.9707

          k = 0.7000-0.1000-0.0692 (  2913 PWs)   bands (ev):

   -36.1315 -36.0526  -0.4047   5.2902   6.7608  14.1530  16.1986  17.9972
    19.6419

          k = 0.5000-0.1000 0.0000 (  2925 PWs)   bands (ev):

   -36.1052 -36.0467   1.2129   3.8850   6.5880  13.5514  14.3442  16.9736
    19.0215

          k =-0.1000 0.0000 0.2420 (  2899 PWs)   bands (ev):

   -36.2088 -36.0360  -1.9351   4.6088  11.9799  14.4454  14.8672  18.0899
    20.5553

          k = 0.7000 0.0000-0.0346 (  2909 PWs)   bands (ev):

   -36.1312 -36.0612  -0.5731   5.0491   6.6411  16.2623  16.8480  17.8699
    18.9505

          k =-0.1000 0.1000 0.2766 (  2904 PWs)   bands (ev):

   -36.1909 -36.0451  -1.7429   4.5157  11.5051  13.0912  16.3376  19.5349
    20.6609

          k = 0.7000 0.1000 0.0000 (  2908 PWs)   bands (ev):

   -36.1214 -36.0627  -0.3804   5.1463   6.7229  14.2363  17.5148  17.8781
    19.1499

          k =-0.1000-0.8000-0.0346 (  2893 PWs)   bands (ev):

   -36.1595 -36.0533  -1.2147   4.6952   9.1432  13.3338  17.6941  19.1723
    20.0897

          k = 0.5000-0.5000-0.1383 (  2912 PWs)   bands (ev):

   -36.0650 -36.0101   5.2425   5.5464   7.0430  10.8821  11.3288  11.7835
    12.5696

          k = 0.0000 0.0000 0.2766 (  2914 PWs)   bands (ev):

   -36.2091 -36.0447  -2.0879   4.3225  14.5877  14.5877  15.0862  15.7851
    19.6261

          k = 0.8000 0.0000 0.0000 (  2892 PWs)   bands (ev):

   -36.1653 -36.0562  -1.3881   4.5441   9.1298  15.2853  17.6665  17.9488
    19.7984

          k = 0.0000-0.9000-0.0346 (  2911 PWs)   bands (ev):

   -36.1935 -36.0514  -1.9038   4.3001  11.9824  14.7263  16.3107  17.7493
    19.5209

          k =-0.5000 0.5000 0.0000 (  2916 PWs)   bands (ev):

   -36.0650 -36.0101   4.9624   5.9933   7.0302  10.1177  11.2298  11.4177
    15.0172

          k =-0.3000 0.7000 0.0000 (  2912 PWs)   bands (ev):

   -36.0754 -36.0594   1.0700   6.1797   6.5871  10.3728  16.7111  16.7208
    18.1748

          k =-0.1000 0.9000 0.0000 (  2898 PWs)   bands (ev):

   -36.1821 -36.0539  -1.7252   4.3600  11.4379  13.2644  17.5478  19.1910
    19.5348

     the Fermi energy is     9.5228 ev

!    total energy              =     -37.15765347 Ry
     estimated scf accuracy    <          8.8E-11 Ry
     smearing contrib. (-TS)   =       0.00053023 Ry
     internal energy E=F+TS    =     -37.15818370 Ry

     The total energy is F=E-TS. E is the sum of the following terms:
     one-electron contribution =      -7.54192179 Ry
     hartree contribution      =       5.77701157 Ry
     xc contribution           =     -10.36588155 Ry
     ewald contribution        =     -25.02739192 Ry

     convergence has been achieved in   6 iterations

     Forces acting on atoms (cartesian axes, Ry/au):

     atom    1 type  1   force =     0.00000000   -0.00000000   -0.07798751
     atom    2 type  1   force =     0.00000000    0.00000000    0.07798751
     atom    3 type  2   force =    -0.00000000    0.00000000    0.00000000
     The non-local contrib.  to forces
     atom    1 type  1   force =     0.00000000    0.00000000   -0.00760554
     atom    2 type  1   force =     0.00000000    0.00000000    0.00760554
     atom    3 type  2   force =     0.00000000    0.00000000    0.00000000
     The ionic contribution  to forces
     atom    1 type  1   force =    -0.00000000   -0.00000000   -0.65464426
     atom    2 type  1   force =     0.00000000    0.00000000    0.65464426
     atom    3 type  2   force =    -0.00000000   -0.00000000    0.00000000
     The local contribution  to forces
     atom    1 type  1   force =     0.00000000    0.00000000    0.58425135
     atom    2 type  1   force =     0.00000000   -0.00000000   -0.58425135
     atom    3 type  2   force =    -0.00000000    0.00000000    0.00000000
     The core correction contribution to forces
     atom    1 type  1   force =     0.00000000    0.00000000    0.00000000
     atom    2 type  1   force =     0.00000000    0.00000000    0.00000000
     atom    3 type  2   force =    -0.00000000    0.00000000    0.00000000
     The Hubbard contrib.    to forces
     atom    1 type  1   force =     0.00000000    0.00000000    0.00000000
     atom    2 type  1   force =     0.00000000    0.00000000    0.00000000
     atom    3 type  2   force =     0.00000000    0.00000000    0.00000000
     The SCF correction term to forces
     atom    1 type  1   force =    -0.00000000   -0.00000000    0.00001094
     atom    2 type  1   force =     0.00000000    0.00000000   -0.00001094
     atom    3 type  2   force =    -0.00000000    0.00000000    0.00000000

     Total force =     0.110291     Total SCF correction =     0.000015


     Computing stress (Cartesian axis) and pressure

          total   stress  (Ry/bohr**3)                   (kbar)     P=      579.32
   0.00399155  -0.00000000   0.00000000          587.18       -0.00        0.00
   0.00000000   0.00399155  -0.00000000            0.00      587.18       -0.00
   0.00000000  -0.00000000   0.00383129            0.00       -0.00      563.60


     BFGS Geometry Optimization
     Energy error            =      0.0E+00 Ry
     Gradient error          =      7.8E-02 Ry/Bohr
     Cell gradient error     =      8.7E+01 kbar

     number of scf cycles    =   1
     number of bfgs steps    =   0

     enthalpy           new  =     -36.5705456507 Ry

     new trust radius        =       0.0779875073 bohr
ibrav =      7
 celldm(1) =      4.99788441
 celldm(3) =      2.88064731
Input lattice vectors:
     0.50740770    -0.50740770     1.46166262
     0.50740770     0.50740770     1.46166262
    -0.50740770    -0.50740770     1.46166262
New lattice vectors in INITIAL alat:
     0.50740770    -0.50740770     1.46166262
     0.50740770     0.50740770     1.46166262
    -0.50740770    -0.50740770     1.46166262
New lattice vectors in NEW alat (for information only):
     0.50000000    -0.50000000     1.44032365
     0.50000000     0.50000000     1.44032365
    -0.50000000    -0.50000000     1.44032365
Discrepancy in bohr =     0.000000    0.000000    0.000000
     new conv_thr            =       0.0000000100 Ry

     new unit-cell volume =    179.81202 a.u.^3 (    26.64539 Ang^3 )
     density =      2.61541 g/cm^3

CELL_PARAMETERS (alat=  4.92491976)
   0.507407700  -0.507407700   1.461662625
   0.507407700   0.507407700   1.461662625
  -0.507407700  -0.507407700   1.461662625

ATOMIC_POSITIONS (crystal)
Li            0.0000000000        0.3384470750        0.3384470750
Li            0.0000000000        0.6615529250        0.6615529250
Si           -0.0000000000        0.0000000000        0.0000000000



     Writing config-only to output data dir ./output/LiSi.save/
     NEW-OLD atomic charge density approx. for the potential
     extrapolated charge   10.39330, renormalised to   10.00000

     total cpu time spent up to now is       10.5 secs

     Self-consistent Calculation

     iteration #  1     ecut=   100.00 Ry     beta= 0.70
     Davidson diagonalization with overlap
     ethr =  1.00E-06,  avg # of iterations =  6.7

     total cpu time spent up to now is       12.5 secs

     total energy              =     -37.19042361 Ry
     estimated scf accuracy    <       0.00240229 Ry

     iteration #  2     ecut=   100.00 Ry     beta= 0.70
     Davidson diagonalization with overlap
     ethr =  2.40E-05,  avg # of iterations =  2.0

     total cpu time spent up to now is       13.8 secs

     total energy              =     -37.19288404 Ry
     estimated scf accuracy    <       0.00062817 Ry

     iteration #  3     ecut=   100.00 Ry     beta= 0.70
     Davidson diagonalization with overlap
     ethr =  6.28E-06,  avg # of iterations =  1.1

     total cpu time spent up to now is       14.7 secs

     total energy              =     -37.19291481 Ry
     estimated scf accuracy    <       0.00006788 Ry

     iteration #  4     ecut=   100.00 Ry     beta= 0.70
     Davidson diagonalization with overlap
     ethr =  6.79E-07,  avg # of iterations =  1.2

     total cpu time spent up to now is       15.6 secs

     total energy              =     -37.19290298 Ry
     estimated scf accuracy    <       0.00002117 Ry

     iteration #  5     ecut=   100.00 Ry     beta= 0.70
     Davidson diagonalization with overlap
     ethr =  2.12E-07,  avg # of iterations =  2.0

     total cpu time spent up to now is       16.6 secs

     total energy              =     -37.19290543 Ry
     estimated scf accuracy    <       0.00000074 Ry

     iteration #  6     ecut=   100.00 Ry     beta= 0.70
     Davidson diagonalization with overlap
     ethr =  7.38E-09,  avg # of iterations =  2.0

     total cpu time spent up to now is       17.6 secs

     total energy              =     -37.19290553 Ry
     estimated scf accuracy    <       0.00000011 Ry

     iteration #  7     ecut=   100.00 Ry     beta= 0.70
     Davidson diagonalization with overlap
     ethr =  1.08E-09,  avg # of iterations =  1.0

     total cpu time spent up to now is       18.5 secs

     End of self-consistent calculation

          k = 0.0000 0.0000 0.0000 (  2903 PWs)   bands (ev):

   -36.6577 -36.3858  -2.4764   6.8402   8.1332  15.0221  15.0221  15.9860
    18.4318

          k =-0.1971 0.0000 0.0684 (  2916 PWs)   bands (ev):

   -36.6182 -36.3981  -1.8088   6.3548   8.4555  11.0643  15.2304  15.5921
    19.9554

          k =-0.3942 0.0000 0.1368 (  2925 PWs)   bands (ev):

   -36.5314 -36.4405   0.0519   4.4777   6.1475  12.1051  14.7163  17.4460
    20.2928

          k =-0.0000 0.0985 0.0342 (  2917 PWs)   bands (ev):

   -36.6472 -36.3887  -2.3087   6.6418   8.4834  12.7309  15.1604  17.0681
    18.1352

          k =-0.1971 0.0985 0.1026 (  2912 PWs)   bands (ev):

   -36.6059 -36.4030  -1.6211   6.0264   8.8729  10.9666  14.5082  15.2316
    19.4874

          k =-0.3942 0.0985 0.1710 (  2923 PWs)   bands (ev):

   -36.5214 -36.4436   0.2726   4.5703   6.1039  12.4143  14.3952  16.7380
    18.4686

          k = 0.3942 0.0985-0.1026 (  2920 PWs)   bands (ev):

   -36.5303 -36.4347   0.2051   4.6618   6.5430  11.8373  13.6756  16.3159
    18.9458

          k = 0.1971 0.0985-0.0342 (  2914 PWs)   bands (ev):

   -36.6123 -36.3966  -1.6542   6.9101   8.3230  10.4953  14.5017  14.7086
    19.1080

          k =-0.1971 0.1971 0.1368 (  2915 PWs)   bands (ev):

   -36.5782 -36.4115  -1.0902   5.9392   8.8591  10.1566  14.4265  14.5551
    19.2936

          k =-0.3942 0.1971 0.2052 (  2923 PWs)   bands (ev):

   -36.5024 -36.4443   0.8743   4.8786   6.3881  12.1637  12.7795  16.1990
    17.1640

          k = 0.3942 0.1971-0.0684 (  2932 PWs)   bands (ev):

   -36.5190 -36.4278   0.7166   5.1337   7.3028  11.3355  12.1964  14.3680
    16.9583

          k = 0.1971 0.1971 0.0000 (  2909 PWs)   bands (ev):

   -36.5900 -36.3998  -1.1638   7.4482   8.5814   9.2908  13.3729  13.6855
    18.9034

          k =-0.0000 0.2956 0.1026 (  2919 PWs)   bands (ev):

   -36.5767 -36.4151  -0.9938   6.0605   6.6687  11.7220  14.0826  16.3497
    21.0470

          k =-0.1971 0.2956 0.1710 (  2919 PWs)   bands (ev):

   -36.5408 -36.4252  -0.2304   6.0571   6.8880  10.9528  13.6203  15.5267
    18.7280

          k =-0.3942 0.2956 0.2395 (  2919 PWs)   bands (ev):

   -36.4801 -36.4440   1.8501   5.2451   6.9616   9.9071  13.2301  14.1140
    16.0759

          k = 0.3942 0.2956-0.0342 (  2922 PWs)   bands (ev):

   -36.5012 -36.4230   1.5614   5.8216   8.4157   9.6909  11.1723  12.7576
    15.6203

          k = 0.1971 0.2956 0.0342 (  2927 PWs)   bands (ev):

   -36.5564 -36.4096  -0.3527   7.0762   7.6028   9.8958  12.3860  13.7632
    18.8266

          k =-0.3942 0.3942 0.2737 (  2927 PWs)   bands (ev):

   -36.4644 -36.4414   3.1455   5.2047   7.7675   8.4793  12.3036  13.6388
    13.9780

          k = 0.3942 0.3942-0.0000 (  2909 PWs)   bands (ev):

   -36.4823 -36.4236   2.6870   6.1901   8.1336   9.8005  10.0438  11.6240
    15.5294

          k = 0.0000-0.4927-0.1710 (  2918 PWs)   bands (ev):

   -36.5017 -36.4627   0.7654   3.4373   6.1051  11.9897  16.2241  18.1453
    18.5215

          k =-0.1971-0.4927-0.1026 (  2927 PWs)   bands (ev):

   -36.4887 -36.4507   1.5713   3.9148   6.8314  12.0742  13.1086  14.5267
    16.9418

          k =-0.3942-0.4927-0.0342 (  2920 PWs)   bands (ev):

   -36.4677 -36.4311   3.8510   5.0800   8.0941   8.7896  11.2646  11.6564
    14.8594

          k = 0.0985-0.0985 0.0000 (  2915 PWs)   bands (ev):

   -36.6389 -36.3896  -2.1477   6.9742   8.2578  11.9930  14.5424  16.1550
    18.6383

          k =-0.0985-0.0985 0.0684 (  2916 PWs)   bands (ev):

   -36.6354 -36.3931  -2.1326   6.2560   9.1592  11.8653  14.4923  16.4634
    18.8783

          k =-0.2956-0.0985 0.1368 (  2911 PWs)   bands (ev):

   -36.5650 -36.4197  -0.7904   5.9328   6.6965  12.1354  13.7840  15.5910
    20.4490

          k = 0.4927-0.0985-0.1368 (  2925 PWs)   bands (ev):

   -36.4981 -36.4594   0.9679   3.5597   6.2893  12.0182  15.4249  16.6257
    17.6802

          k = 0.2956-0.0985-0.0684 (  2918 PWs)   bands (ev):

   -36.5734 -36.4113  -0.8446   6.4544   6.9630  11.0083  13.4172  15.3299
    20.0164

          k =-0.0985 0.0000 0.1026 (  2914 PWs)   bands (ev):

   -36.6404 -36.3955  -2.2812   5.6854   9.8091  12.6119  14.8961  17.5693
    18.0412

          k =-0.2956 0.0000 0.1710 (  2909 PWs)   bands (ev):

   -36.5660 -36.4258  -0.9322   5.4799   6.4858  13.1213  14.8723  16.0387
    20.8389

          k = 0.4927-0.0000-0.1026 (  2913 PWs)   bands (ev):

   -36.5017 -36.4627   0.7647   3.4439   6.0813  12.2243  15.3415  18.4798
    19.1586

          k = 0.2956-0.0000-0.0342 (  2929 PWs)   bands (ev):

   -36.5826 -36.4092  -1.0301   6.3933   6.9626  10.7824  13.6763  16.5907
    20.4009

          k =-0.0985 0.0985 0.1368 (  2918 PWs)   bands (ev):

   -36.6258 -36.4026  -2.0920   5.3378  10.5825  11.5821  14.4443  17.2798
    19.4917

          k =-0.2956 0.0985 0.2052 (  2909 PWs)   bands (ev):

   -36.5530 -36.4316  -0.7192   5.3496   6.5335  13.2207  14.3781  16.2819
    20.4004

          k = 0.4927 0.0985-0.0684 (  2924 PWs)   bands (ev):

   -36.4981 -36.4594   0.9664   3.5729   6.2446  12.4775  14.5218  16.2926
    18.3354

          k = 0.2956 0.0985 0.0000 (  2920 PWs)   bands (ev):

   -36.5764 -36.4083  -0.8647   6.6074   7.2073  10.4920  13.2705  15.2780
    19.8572

          k =-0.0985 0.1971 0.1710 (  2912 PWs)   bands (ev):

   -36.5946 -36.4142  -1.5650   5.2297   8.9540  11.8969  14.7581  16.1434
    20.1703

          k =-0.2956 0.1971 0.2395 (  2909 PWs)   bands (ev):

   -36.5285 -36.4374  -0.1474   5.5168   6.6952  11.1662  14.8748  17.0116
    18.5627

          k = 0.4927 0.1971-0.0342 (  2925 PWs)   bands (ev):

   -36.4887 -36.4506   1.5679   3.9368   6.7642  12.6698  13.1276  13.7470
    16.6961

          k =-0.2956 0.2956 0.2737 (  2919 PWs)   bands (ev):

   -36.4979 -36.4449   0.7661   5.9626   6.3905   9.7786  15.2064  16.2671
    17.0460

          k = 0.4927 0.2956-0.0000 (  2923 PWs)   bands (ev):

   -36.4771 -36.4399   2.5514   4.4825   7.6200  10.5078  12.3598  12.5102
    15.9206

          k = 0.2956 0.2956 0.0684 (  2923 PWs)   bands (ev):

   -36.5277 -36.4152   0.4939   7.2109   7.8294   9.1720  11.6329  13.4754
    16.6798

          k =-0.0985-0.5912-0.1026 (  2920 PWs)   bands (ev):

   -36.5096 -36.4553   0.3444   4.4851   5.7129  13.2888  14.7862  16.8609
    18.3078

          k =-0.2956-0.5912-0.0342 (  2924 PWs)   bands (ev):

   -36.4685 -36.4555   1.9291   5.1400   6.6770   9.9436  13.9358  14.3612
    16.4484

          k = 0.2956-0.5912-0.2395 (  2917 PWs)   bands (ev):

   -36.4973 -36.4268   1.6240   5.6612   8.0019   9.8264  11.3887  13.4053
    15.6207

          k = 0.4927-0.4927-0.2737 (  2920 PWs)   bands (ev):

   -36.4641 -36.4278   4.8093   5.6534   6.4216   9.9623  10.5670  11.0740
    13.5664

          k = 0.2956-0.4927-0.2052 (  2922 PWs)   bands (ev):

   -36.4771 -36.4399   2.5682   4.4148   7.8144  10.4194  11.7332  12.9536
    15.7779

          k =-0.0985-0.3942-0.0342 (  2922 PWs)   bands (ev):

   -36.5351 -36.4299   0.1654   4.7219   6.8496  11.5844  13.0717  16.1881
    19.1156

          k = 0.4927-0.3942-0.2395 (  2915 PWs)   bands (ev):

   -36.4677 -36.4311   3.8940   4.9863   8.0422   9.0325  11.2942  11.7294
    13.7381

          k = 0.2956-0.3942-0.1710 (  2919 PWs)   bands (ev):

   -36.4901 -36.4340   1.7321   5.4368   7.4503   9.8668  12.1706  13.9435
    15.7876

          k = 0.2956-0.2956-0.1368 (  2924 PWs)   bands (ev):

   -36.5204 -36.4224   0.5715   6.9016   7.0663   9.4810  12.5087  14.5051
    16.5893

          k =-0.2956-0.1971 0.1026 (  2919 PWs)   bands (ev):

   -36.5509 -36.4151  -0.3076   6.7110   7.1589  10.4939  12.7541  14.3870
    18.7960

          k = 0.4927-0.1971-0.1710 (  2926 PWs)   bands (ev):

   -36.4887 -36.4507   1.5734   3.9014   6.8739  11.8358  13.1102  14.8547
    17.2696

          k = 0.0000 0.0000 0.1368 (  2907 PWs)   bands (ev):

   -36.6442 -36.3992  -2.4262   5.1541  10.7315  14.5433  14.5433  15.7280
    19.6086

          k =-0.1971 0.0000 0.2052 (  2914 PWs)   bands (ev):

   -36.5961 -36.4200  -1.7076   4.7969   8.8376  13.6108  14.9755  16.8769
    19.4817

          k = 0.5912-0.0000-0.0684 (  2917 PWs)   bands (ev):

   -36.5085 -36.4634   0.1779   4.3365   5.4183  13.8197  16.2811  16.9873
    18.3966

          k = 0.3942-0.0000 0.0000 (  2920 PWs)   bands (ev):

   -36.5410 -36.4310  -0.0191   4.5738   6.6945  11.6018  13.2505  17.8333
    20.8280

          k = 0.0000 0.0985 0.1710 (  2902 PWs)   bands (ev):

   -36.6284 -36.4074  -2.2349   4.8534  11.1298  12.7475  14.5637  17.7308
    18.6302

          k =-0.1971 0.0985 0.2395 (  2903 PWs)   bands (ev):

   -36.5817 -36.4271  -1.5056   4.6561   8.8562  12.5869  15.6567  17.3193
    20.7625

          k = 0.5912 0.0985-0.0342 (  2917 PWs)   bands (ev):

   -36.4986 -36.4664   0.3913   4.4354   5.4881  14.3979  14.9053  15.6757
    19.4831

          k =-0.1971 0.1971 0.2737 (  2895 PWs)   bands (ev):

   -36.5542 -36.4354  -0.9591   4.7998   8.3627  11.0481  17.0334  17.2208
    20.1288

          k = 0.5912 0.1971-0.0000 (  2918 PWs)   bands (ev):

   -36.4827 -36.4640   0.9836   4.7447   5.9102  12.2276  14.7980  15.0338
    17.7741

          k = 0.0000-0.6898-0.1026 (  2920 PWs)   bands (ev):

   -36.5533 -36.4383  -0.8666   4.9828   6.3667  14.6844  15.7861  16.0079
    19.8409

          k =-0.1971-0.6898-0.0342 (  2911 PWs)   bands (ev):

   -36.5189 -36.4469  -0.0927   5.2223   6.5898  11.2475  16.2639  17.7717
    18.7368

          k = 0.3942-0.5912-0.2052 (  2908 PWs)   bands (ev):

   -36.4770 -36.4288   2.8445   5.7252   8.2607   8.8294  11.2666  12.1985
    14.2350

          k =-0.0000-0.4927-0.0342 (  2932 PWs)   bands (ev):

   -36.5017 -36.4627   0.7637   3.4548   6.0433  12.8399  14.1573  18.4220
    19.7853

          k = 0.3942-0.4927-0.1710 (  2906 PWs)   bands (ev):

   -36.4677 -36.4311   3.9237   4.9265   8.0235   9.1676  11.5122  11.5940
    13.2610

          k = 0.2956-0.2956 0.0000 (  2923 PWs)   bands (ev):

   -36.5302 -36.4127   0.4655   7.3532   8.3925   8.8074  11.3010  13.0764
    16.7162

          k = 0.6898-0.2956-0.1368 (  2916 PWs)   bands (ev):

   -36.5096 -36.4332   0.6750   6.4066   6.5974   9.6694  13.7458  15.7848
    16.5255

          k = 0.4927-0.2956-0.0684 (  2918 PWs)   bands (ev):

   -36.4771 -36.4399   2.5578   4.4563   7.6919  10.4813  11.9970  12.8025
    15.8355

          k =-0.0985-0.0985 0.2052 (  2913 PWs)   bands (ev):

   -36.6127 -36.4156  -2.0392   4.6249  11.2981  11.8976  14.7195  18.3796
    19.3651

          k = 0.6898-0.0985-0.0684 (  2913 PWs)   bands (ev):

   -36.5412 -36.4433  -0.6577   4.9454   6.4276  13.6215  15.5892  17.3095
    19.0327

          k = 0.4927-0.0985 0.0000 (  2925 PWs)   bands (ev):

   -36.4981 -36.4594   0.9655   3.5812   6.2174  13.0896  13.6779  16.2424
    18.5067

          k =-0.0985 0.0000 0.2395 (  2899 PWs)   bands (ev):

   -36.6150 -36.4208  -2.1861   4.2675  11.5507  14.0064  14.2982  17.5417
    19.8381

          k = 0.6898-0.0000-0.0342 (  2909 PWs)   bands (ev):

   -36.5439 -36.4477  -0.8238   4.7094   6.3025  15.6495  16.2448  17.1846
    18.3676

          k =-0.0985 0.0985 0.2737 (  2904 PWs)   bands (ev):

   -36.6007 -36.4276  -1.9943   4.1774  11.1027  12.5904  15.7954  18.9431
    20.0310

          k = 0.6898 0.0985-0.0000 (  2908 PWs)   bands (ev):

   -36.5358 -36.4487  -0.6332   4.8027   6.3901  13.6853  16.9096  17.1616
    18.5601

          k =-0.0985-0.7883-0.0342 (  2893 PWs)   bands (ev):

   -36.5724 -36.4363  -1.4669   4.3563   8.7779  12.8147  17.1329  18.5212
    19.5054

          k = 0.4927-0.4927-0.1368 (  2912 PWs)   bands (ev):

   -36.4641 -36.4278   5.0205   5.3329   6.4278  10.4166  10.8510  11.2354
    12.0989

          k = 0.0000 0.0000 0.2737 (  2914 PWs)   bands (ev):

   -36.6185 -36.4247  -2.3387   3.9855  14.0226  14.0226  14.6365  15.3810
    19.0788

          k = 0.7883-0.0000-0.0000 (  2892 PWs)   bands (ev):

   -36.5790 -36.4370  -1.6393   4.2082   8.7519  14.6995  17.1717  17.3952
    19.1867

          k = 0.0000-0.8869-0.0342 (  2911 PWs)   bands (ev):

   -36.6057 -36.4300  -2.1546   3.9650  11.5441  14.1558  15.8414  17.2187
    18.9552

          k =-0.4927 0.4927-0.0000 (  2916 PWs)   bands (ev):

   -36.4641 -36.4278   4.7356   5.8024   6.4177   9.6231  10.7884  10.8459
    14.6778

          k =-0.2956 0.6898 0.0000 (  2912 PWs)   bands (ev):

   -36.4916 -36.4511   0.8030   5.8055   6.3183   9.8155  16.2584  16.3217
    17.3394

          k =-0.0985 0.8869-0.0000 (  2898 PWs)   bands (ev):

   -36.5956 -36.4327  -1.9765   4.0247  11.0341  12.7388  17.0114  18.6215
    18.9445

     the Fermi energy is     9.1298 ev

!    total energy              =     -37.19290554 Ry
     estimated scf accuracy    <          1.1E-09 Ry
     smearing contrib. (-TS)   =       0.00047636 Ry
     internal energy E=F+TS    =     -37.19338190 Ry

     The total energy is F=E-TS. E is the sum of the following terms:
     one-electron contribution =      -7.88438639 Ry
     hartree contribution      =       5.78220493 Ry
     xc contribution           =     -10.30988165 Ry
     ewald contribution        =     -24.78131879 Ry

     convergence has been achieved in   7 iterations

     Forces acting on atoms (cartesian axes, Ry/au):

     atom    1 type  1   force =     0.00000000    0.00000000   -0.04999894
     atom    2 type  1   force =    -0.00000000   -0.00000000    0.04999894
     atom    3 type  2   force =     0.00000000   -0.00000000   -0.00000000
     The non-local contrib.  to forces
     atom    1 type  1   force =     0.00000000   -0.00000000   -0.00865777
     atom    2 type  1   force =    -0.00000000   -0.00000000    0.00865777
     atom    3 type  2   force =     0.00000000    0.00000000    0.00000000
     The ionic contribution  to forces
     atom    1 type  1   force =    -0.00000000    0.00000000   -0.44427533
     atom    2 type  1   force =    -0.00000000    0.00000000    0.44427533
     atom    3 type  2   force =     0.00000000   -0.00000000    0.00000000
     The local contribution  to forces
     atom    1 type  1   force =     0.00000000   -0.00000000    0.40292559
     atom    2 type  1   force =    -0.00000000    0.00000000   -0.40292559
     atom    3 type  2   force =    -0.00000000   -0.00000000    0.00000000
     The core correction contribution to forces
     atom    1 type  1   force =     0.00000000    0.00000000    0.00000000
     atom    2 type  1   force =     0.00000000    0.00000000    0.00000000
     atom    3 type  2   force =     0.00000000    0.00000000   -0.00000000
     The Hubbard contrib.    to forces
     atom    1 type  1   force =     0.00000000    0.00000000    0.00000000
     atom    2 type  1   force =     0.00000000    0.00000000    0.00000000
     atom    3 type  2   force =     0.00000000    0.00000000    0.00000000
     The SCF correction term to forces
     atom    1 type  1   force =     0.00000000   -0.00000000    0.00000857
     atom    2 type  1   force =    -0.00000000    0.00000000   -0.00000857
     atom    3 type  2   force =     0.00000000   -0.00000000    0.00000000

     Total force =     0.070709     Total SCF correction =     0.000012


     Computing stress (Cartesian axis) and pressure

          total   stress  (Ry/bohr**3)                   (kbar)     P=      473.27
   0.00320824   0.00000000  -0.00000000          471.95        0.00       -0.00
   0.00000000   0.00320824   0.00000000            0.00      471.95        0.00
   0.00000000  -0.00000000   0.00323522            0.00       -0.00      475.92

     Energy error            =      1.1E-02 Ry
     Gradient error          =      5.0E-02 Ry/Bohr
     Cell gradient error     =      2.8E+01 kbar

     number of scf cycles    =   2
     number of bfgs steps    =   1

     enthalpy           old  =     -36.5705456507 Ry
     enthalpy           new  =     -36.5817369053 Ry

     CASE: enthalpy          _new < enthalpy          _old

     new trust radius        =       0.1272455143 bohr
ibrav =      7
 celldm(1) =      4.99463371
 celldm(3) =      2.87801890
Input lattice vectors:
     0.50707767    -0.50707767     1.45937913
     0.50707767     0.50707767     1.45937913
    -0.50707767    -0.50707767     1.45937913
New lattice vectors in INITIAL alat:
     0.50707767    -0.50707767     1.45937913
     0.50707767     0.50707767     1.45937913
    -0.50707767    -0.50707767     1.45937913
New lattice vectors in NEW alat (for information only):
     0.50000000    -0.50000000     1.43900945
     0.50000000     0.50000000     1.43900945
    -0.50000000    -0.50000000     1.43900945
Discrepancy in bohr =     0.000000    0.000000    0.000000
     new conv_thr            =       0.0000000050 Ry

     new unit-cell volume =    179.29764 a.u.^3 (    26.56917 Ang^3 )
     density =      2.62292 g/cm^3

CELL_PARAMETERS (alat=  4.92491976)
   0.507077673  -0.507077673   1.459379129
   0.507077673   0.507077673   1.459379129
  -0.507077673  -0.507077673   1.459379129

ATOMIC_POSITIONS (crystal)
Li            0.0000000000        0.3296088270        0.3296088270
Li            0.0000000000        0.6703911730        0.6703911730
Si            0.0000000000       -0.0000000000       -0.0000000000



     Writing config-only to output data dir ./output/LiSi.save/
     NEW-OLD atomic charge density approx. for the potential
     extrapolated charge    9.97134, renormalised to   10.00000

     total cpu time spent up to now is       19.7 secs

     Self-consistent Calculation

     iteration #  1     ecut=   100.00 Ry     beta= 0.70
     Davidson diagonalization with overlap
     ethr =  1.00E-06,  avg # of iterations =  7.2

     total cpu time spent up to now is       21.9 secs

     total energy              =     -37.19909741 Ry
     estimated scf accuracy    <       0.00236486 Ry

     iteration #  2     ecut=   100.00 Ry     beta= 0.70
     Davidson diagonalization with overlap
     ethr =  2.36E-05,  avg # of iterations =  2.0

     total cpu time spent up to now is       23.0 secs

     total energy              =     -37.19980218 Ry
     estimated scf accuracy    <       0.00056660 Ry

     iteration #  3     ecut=   100.00 Ry     beta= 0.70
     Davidson diagonalization with overlap
     ethr =  5.67E-06,  avg # of iterations =  1.8

     total cpu time spent up to now is       24.0 secs

     total energy              =     -37.19990709 Ry
     estimated scf accuracy    <       0.00000166 Ry

     iteration #  4     ecut=   100.00 Ry     beta= 0.70
     Davidson diagonalization with overlap
     ethr =  1.66E-08,  avg # of iterations =  2.6

     total cpu time spent up to now is       25.1 secs

     total energy              =     -37.19990779 Ry
     estimated scf accuracy    <       0.00000021 Ry

     iteration #  5     ecut=   100.00 Ry     beta= 0.70
     Davidson diagonalization with overlap
     ethr =  2.08E-09,  avg # of iterations =  2.0

     total cpu time spent up to now is       26.0 secs

     End of self-consistent calculation

          k = 0.0000 0.0000 0.0000 (  2903 PWs)   bands (ev):

   -36.6551 -36.3220  -2.4276   6.5846   8.5462  15.3500  15.3500  16.2106
    18.2747

          k =-0.1972-0.0000 0.0685 (  2916 PWs)   bands (ev):

   -36.6098 -36.3406  -1.7457   6.2970   8.6305  11.3298  15.0503  15.8843
    19.4732

          k =-0.3944-0.0000 0.1370 (  2925 PWs)   bands (ev):

   -36.5059 -36.4010   0.1714   4.5703   6.1584  12.1444  14.5853  17.6788
    20.4112

          k = 0.0000 0.0986 0.0343 (  2917 PWs)   bands (ev):

   -36.6432 -36.3266  -2.2565   6.4788   8.7966  13.0030  15.4774  16.9072
    18.3652

          k =-0.1972 0.0986 0.1028 (  2912 PWs)   bands (ev):

   -36.5973 -36.3458  -1.5576   6.0094   9.0384  11.1919  14.6273  15.1807
    19.3320

          k =-0.3944 0.0986 0.1713 (  2923 PWs)   bands (ev):

   -36.4966 -36.4034   0.3915   4.6666   6.1234  12.4081  14.4318  16.7595
    18.6236

          k = 0.3944 0.0986-0.1028 (  2920 PWs)   bands (ev):

   -36.5031 -36.3969   0.3263   4.7661   6.5411  11.9053  13.5915  16.4518
    19.1407

          k = 0.1972 0.0986-0.0343 (  2914 PWs)   bands (ev):

   -36.6018 -36.3414  -1.5860   6.7888   8.5496  10.7835  14.3897  14.8768
    18.9345

          k =-0.1972 0.1972 0.1370 (  2915 PWs)   bands (ev):

   -36.5668 -36.3574  -1.0192   5.9470   9.0769  10.2754  14.4698  14.5642
    19.0998

          k =-0.3944 0.1972 0.2056 (  2923 PWs)   bands (ev):

   -36.4773 -36.4045   0.9960   4.9926   6.4064  12.2378  12.7850  16.3846
    17.1126

          k = 0.3944 0.1972-0.0685 (  2932 PWs)   bands (ev):

   -36.4894 -36.3924   0.8397   5.2686   7.2884  11.4982  12.0756  14.4102
    17.1692

          k = 0.1972 0.1972 0.0000 (  2909 PWs)   bands (ev):

   -36.5751 -36.3492  -1.0851   7.2951   8.8374   9.5734  13.2099  13.8392
    18.7270

          k = 0.0000 0.2958 0.1028 (  2919 PWs)   bands (ev):

   -36.5611 -36.3653  -0.9105   6.1116   6.7389  11.9473  13.8628  16.6140
    20.8802

          k =-0.1972 0.2958 0.1713 (  2919 PWs)   bands (ev):

   -36.5242 -36.3766  -0.1422   6.0818   7.0439  11.0821  13.5722  15.5823
    18.8565

          k =-0.3944 0.2958 0.2398 (  2919 PWs)   bands (ev):

   -36.4526 -36.4066   1.9812   5.3893   6.9639  10.0039  13.2104  14.2828
    15.9845

          k = 0.3944 0.2958-0.0343 (  2922 PWs)   bands (ev):

   -36.4688 -36.3905   1.6873   6.0167   8.3925   9.8419  11.0225  12.7964
    15.7365

          k = 0.1972 0.2958 0.0343 (  2927 PWs)   bands (ev):

   -36.5351 -36.3658  -0.2573   7.2547   7.5464  10.1314  12.2155  13.8656
    18.8771

          k =-0.3944 0.3944 0.2741 (  2927 PWs)   bands (ev):

   -36.4291 -36.4118   3.2984   5.3686   7.7359   8.5915  12.4373  13.5287
    14.0194

          k = 0.3944 0.3944 0.0000 (  2909 PWs)   bands (ev):

   -36.4466 -36.3944   2.8198   6.4715   8.2109   9.8095   9.8759  11.6720
    15.4866

          k =-0.0000-0.4930-0.1713 (  2918 PWs)   bands (ev):

   -36.4619 -36.4376   0.9304   3.4756   6.1308  11.9628  15.9685  18.4519
    18.6807

          k =-0.1972-0.4930-0.1028 (  2927 PWs)   bands (ev):

   -36.4491 -36.4254   1.7349   3.9886   6.8431  11.9988  13.2535  14.6330
    16.9811

          k =-0.3944-0.4930-0.0343 (  2920 PWs)   bands (ev):

   -36.4283 -36.4057   4.0071   5.2674   8.2361   8.7297  11.3021  11.6078
    14.9305

          k = 0.0986-0.0986 0.0000 (  2915 PWs)   bands (ev):

   -36.6330 -36.3295  -2.0908   6.7477   8.6284  12.2777  14.8036  15.9959
    18.4634

          k =-0.0986-0.0986 0.0685 (  2916 PWs)   bands (ev):

   -36.6305 -36.3319  -2.0785   6.1823   9.3814  12.1275  14.7372  16.3296
    18.7203

          k =-0.2958-0.0986 0.1370 (  2911 PWs)   bands (ev):

   -36.5498 -36.3694  -0.7076   5.9655   6.8112  12.3416  13.6533  15.7050
    20.2893

          k = 0.4930-0.0986-0.1370 (  2925 PWs)   bands (ev):

   -36.4584 -36.4342   1.1326   3.6067   6.3119  11.9781  15.3734  16.7836
    17.7742

          k = 0.2958-0.0986-0.0685 (  2918 PWs)   bands (ev):

   -36.5557 -36.3636  -0.7569   6.5511   6.9733  11.2600  13.2221  15.5172
    19.8539

          k =-0.0986-0.0000 0.1028 (  2914 PWs)   bands (ev):

   -36.6385 -36.3312  -2.2345   5.6585   9.9958  12.8513  15.1624  17.4564
    18.2470

          k =-0.2958-0.0000 0.1713 (  2909 PWs)   bands (ev):

   -36.5539 -36.3724  -0.8554   5.5168   6.6031  13.2886  14.6799  16.2638
    20.9447

          k = 0.4930-0.0000-0.1028 (  2913 PWs)   bands (ev):

   -36.4620 -36.4376   0.9297   3.4826   6.1054  12.2061  15.1918  18.6393
    19.3432

          k = 0.2958-0.0000-0.0343 (  2929 PWs)   bands (ev):

   -36.5654 -36.3611  -0.9431   6.5453   6.8842  11.0652  13.4433  16.8983
    20.2549

          k =-0.0986 0.0986 0.1370 (  2918 PWs)   bands (ev):

   -36.6240 -36.3383  -2.0454   5.3441  10.7392  11.8056  14.6563  17.1941
    19.7262

          k =-0.2958 0.0986 0.2056 (  2909 PWs)   bands (ev):

   -36.5420 -36.3772  -0.6430   5.3888   6.6624  13.3966  14.3361  16.2906
    20.4263

          k = 0.4930 0.0986-0.0685 (  2924 PWs)   bands (ev):

   -36.4584 -36.4342   1.1310   3.6209   6.2639  12.4575  14.4465  16.4266
    18.5849

          k = 0.2958 0.0986 0.0000 (  2920 PWs)   bands (ev):

   -36.5579 -36.3615  -0.7751   6.7849   7.1010  10.7826  13.0557  15.4872
    19.6919

          k =-0.0986 0.1972 0.1713 (  2912 PWs)   bands (ev):

   -36.5897 -36.3533  -1.5096   5.2570   9.1203  12.0649  14.9201  16.0587
    20.0421

          k =-0.2958 0.1972 0.2398 (  2909 PWs)   bands (ev):

   -36.5165 -36.3841  -0.0643   5.5511   6.8450  11.2869  14.8611  17.0540
    18.6951

          k = 0.4930 0.1972-0.0343 (  2925 PWs)   bands (ev):

   -36.4491 -36.4254   1.7311   4.0129   6.7697  12.6594  13.2115  13.7659
    16.8533

          k =-0.2958 0.2958 0.2741 (  2919 PWs)   bands (ev):

   -36.4826 -36.3951   0.8665   5.9828   6.5578   9.8664  15.2465  16.4999
    16.9146

          k = 0.4930 0.2958 0.0000 (  2923 PWs)   bands (ev):

   -36.4376 -36.4145   2.7120   4.6069   7.5985  10.6637  12.3979  12.4560
    15.8939

          k = 0.2958 0.2958 0.0685 (  2923 PWs)   bands (ev):

   -36.5020 -36.3759   0.6002   7.4666   7.8219   9.2433  11.4960  13.5234
    16.8838

          k =-0.0986-0.5916-0.1028 (  2920 PWs)   bands (ev):

   -36.4890 -36.4109   0.4608   4.5747   5.7457  13.2457  14.9141  16.7194
    18.5295

          k =-0.2958-0.5916-0.0343 (  2924 PWs)   bands (ev):

   -36.4467 -36.4125   2.0623   5.2777   6.6760  10.0484  14.0693  14.3693
    16.3816

          k = 0.2958-0.5916-0.2398 (  2917 PWs)   bands (ev):

   -36.4656 -36.3937   1.7508   5.8390   8.0015   9.9392  11.2868  13.4704
    15.6915

          k = 0.4930-0.4930-0.2741 (  2920 PWs)   bands (ev):

   -36.4247 -36.4023   4.9719   5.9068   6.5163   9.8248  10.5809  11.1034
    13.6084

          k = 0.2958-0.4930-0.2056 (  2922 PWs)   bands (ev):

   -36.4376 -36.4145   2.7310   4.5298   7.8161  10.5075  11.7146  13.0814
    15.7025

          k =-0.0986-0.3944-0.0343 (  2922 PWs)   bands (ev):

   -36.5068 -36.3933   0.2880   4.8319   6.8263  11.7702  12.8636  16.3561
    19.3754

          k = 0.4930-0.3944-0.2398 (  2915 PWs)   bands (ev):

   -36.4283 -36.4057   4.0550   5.1596   8.1625   9.0119  11.2936  11.7341
    13.7183

          k = 0.2958-0.3944-0.1713 (  2919 PWs)   bands (ev):

   -36.4598 -36.3994   1.8607   5.5948   7.4555   9.9583  12.1192  14.0791
    15.7628

          k = 0.2958-0.2958-0.1370 (  2924 PWs)   bands (ev):

   -36.4967 -36.3812   0.6760   7.0747   7.1149   9.5516  12.4242  14.5445
    16.7919

          k =-0.2958-0.1972 0.1028 (  2919 PWs)   bands (ev):

   -36.5311 -36.3697  -0.2148   6.7510   7.2849  10.6623  12.6441  14.4622
    18.8867

          k = 0.4930-0.1972-0.1713 (  2926 PWs)   bands (ev):

   -36.4491 -36.4254   1.7373   3.9739   6.8897  11.7477  13.2599  15.0501
    17.1742

          k =-0.0000-0.0000 0.1370 (  2907 PWs)   bands (ev):

   -36.6459 -36.3311  -2.3885   5.1594  10.9001  14.7854  14.7854  15.9267
    19.5572

          k =-0.1972-0.0000 0.2056 (  2914 PWs)   bands (ev):

   -36.5951 -36.3550  -1.6608   4.8407   8.9926  13.7654  15.1860  16.7577
    19.6482

          k = 0.5916-0.0000-0.0685 (  2917 PWs)   bands (ev):

   -36.4914 -36.4155   0.2915   4.4174   5.4594  13.7782  16.0860  17.1789
    18.6427

          k = 0.3944-0.0000 0.0000 (  2920 PWs)   bands (ev):

   -36.5132 -36.3939   0.1036   4.6757   6.6678  11.8208  12.9914  18.1207
    21.1030

          k =-0.0000 0.0986 0.1713 (  2902 PWs)   bands (ev):

   -36.6305 -36.3391  -2.1977   4.8827  11.2902  12.9394  14.7872  17.8813
    18.6024

          k =-0.1972 0.0986 0.2398 (  2903 PWs)   bands (ev):

   -36.5816 -36.3612  -1.4589   4.7085   9.0165  12.7437  15.8035  17.2499
    20.8964

          k = 0.5916 0.0986-0.0343 (  2917 PWs)   bands (ev):

   -36.4834 -36.4164   0.5062   4.5215   5.5269  14.3351  15.0644  15.5870
    19.6483

          k =-0.1972 0.1972 0.2741 (  2895 PWs)   bands (ev):

   -36.5519 -36.3721  -0.9023   4.8510   8.5352  11.1700  17.1499  17.2593
    19.8940

          k = 0.5916 0.1972-0.0000 (  2918 PWs)   bands (ev):

   -36.4671 -36.4146   1.1046   4.8500   5.9343  12.3501  14.7264  15.0803
    17.9135

          k =-0.0000-0.6902-0.1028 (  2920 PWs)   bands (ev):

   -36.5460 -36.3802  -0.7969   5.0321   6.4890  14.7743  15.8598  15.9877
    19.9053

          k =-0.1972-0.6902-0.0343 (  2911 PWs)   bands (ev):

   -36.5113 -36.3892  -0.0130   5.2630   6.7344  11.3694  16.2875  17.7225
    18.9070

          k = 0.3944-0.5916-0.2056 (  2908 PWs)   bands (ev):

   -36.4416 -36.3993   2.9831   5.9355   8.3495   8.8197  11.1829  12.2891
    14.2053

          k =-0.0000-0.4930-0.0343 (  2932 PWs)   bands (ev):

   -36.4620 -36.4375   0.9286   3.4942   6.0650  12.8734  14.0041  18.5811
    20.1665

          k = 0.3944-0.4930-0.1713 (  2906 PWs)   bands (ev):

   -36.4283 -36.4057   4.0886   5.0908   8.1405   9.1601  11.4592  11.6707
    13.2059

          k = 0.2958-0.2958 0.0000 (  2923 PWs)   bands (ev):

   -36.5039 -36.3740   0.5724   7.6351   8.3288   8.9280  11.1349  13.1285
    16.9196

          k = 0.6902-0.2958-0.1370 (  2916 PWs)   bands (ev):

   -36.4894 -36.3884   0.7773   6.4225   6.7807   9.7488  13.7132  15.8263
    16.6937

          k = 0.4930-0.2958-0.0685 (  2918 PWs)   bands (ev):

   -36.4376 -36.4145   2.7191   4.5770   7.6787  10.6159  11.9641  12.8652
    15.7886

          k =-0.0986-0.0986 0.2056 (  2913 PWs)   bands (ev):

   -36.6154 -36.3467  -2.0027   4.6702  11.4929  12.0435  14.8965  18.3492
    19.5775

          k = 0.6902-0.0986-0.0685 (  2913 PWs)   bands (ev):

   -36.5350 -36.3840  -0.5874   4.9958   6.5552  13.7782  15.5751  17.2104
    19.2019

          k = 0.4930-0.0986 0.0000 (  2925 PWs)   bands (ev):

   -36.4584 -36.4342   1.1300   3.6298   6.2347  13.2049  13.4702  16.3706
    18.8174

          k =-0.0986 0.0000 0.2398 (  2899 PWs)   bands (ev):

   -36.6220 -36.3474  -2.1592   4.3275  11.7229  14.1544  14.4970  17.7140
    19.8249

          k = 0.6902-0.0000-0.0343 (  2909 PWs)   bands (ev):

   -36.5407 -36.3854  -0.7589   4.7676   6.4239  15.8404  16.2219  17.0062
    18.5971

          k =-0.0986 0.0986 0.2741 (  2904 PWs)   bands (ev):

   -36.6081 -36.3539  -1.9664   4.2444  11.2817  12.7468  15.9530  19.0714
    20.1495

          k = 0.6902 0.0986-0.0000 (  2908 PWs)   bands (ev):

   -36.5322 -36.3868  -0.5654   4.8575   6.5165  13.8434  16.8459  17.0406
    18.7908

          k =-0.0986-0.7888-0.0343 (  2893 PWs)   bands (ev):

   -36.5763 -36.3665  -1.4261   4.4213   8.9333  12.9725  17.2751  18.4666
    19.6628

          k = 0.4930-0.4930-0.1370 (  2912 PWs)   bands (ev):

   -36.4247 -36.4023   5.1994   5.5421   6.5231  10.4260  10.7676  11.2697
    12.0680

          k =-0.0000-0.0000 0.2741 (  2914 PWs)   bands (ev):

   -36.6296 -36.3470  -2.3209   4.0570  14.2138  14.2138  14.7813  15.5525
    19.2563

          k = 0.7888-0.0000 0.0000 (  2892 PWs)   bands (ev):

   -36.5850 -36.3649  -1.6039   4.2783   8.9007  14.8875  17.2442  17.5434
    19.3253

          k =-0.0000-0.8874-0.0343 (  2911 PWs)   bands (ev):

   -36.6165 -36.3528  -2.1344   4.0400  11.7134  14.3436  15.9898  17.4037
    19.0668

          k =-0.4930 0.4930-0.0000 (  2916 PWs)   bands (ev):

   -36.4247 -36.4023   4.8933   6.0837   6.5121   9.4547  10.8070  10.8703
    14.9199

          k =-0.2958 0.6902 0.0000 (  2912 PWs)   bands (ev):

   -36.4797 -36.3979   0.9026   5.8271   6.4805   9.9066  16.4969  16.5676
    17.1361

          k =-0.0986 0.8874 0.0000 (  2898 PWs)   bands (ev):

   -36.6052 -36.3567  -1.9521   4.0990  11.2082  12.8982  17.2188  18.6524
    19.1017

     the Fermi energy is     9.2487 ev

!    total energy              =     -37.19990783 Ry
     estimated scf accuracy    <          1.9E-09 Ry
     smearing contrib. (-TS)   =       0.00046821 Ry
     internal energy E=F+TS    =     -37.20037603 Ry

     The total energy is F=E-TS. E is the sum of the following terms:
     one-electron contribution =      -7.74955502 Ry
     hartree contribution      =       5.73348883 Ry
     xc contribution           =     -10.30258972 Ry
     ewald contribution        =     -24.88172013 Ry

     convergence has been achieved in   5 iterations

     Forces acting on atoms (cartesian axes, Ry/au):

     atom    1 type  1   force =     0.00000000   -0.00000000   -0.01785679
     atom    2 type  1   force =    -0.00000000    0.00000000    0.01785679
     atom    3 type  2   force =    -0.00000000   -0.00000000    0.00000000
     The non-local contrib.  to forces
     atom    1 type  1   force =     0.00000000    0.00000000   -0.00605437
     atom    2 type  1   force =    -0.00000000   -0.00000000    0.00605437
     atom    3 type  2   force =     0.00000000    0.00000000   -0.00000000
     The ionic contribution  to forces
     atom    1 type  1   force =    -0.00000000   -0.00000000   -0.16278240
     atom    2 type  1   force =    -0.00000000   -0.00000000    0.16278240
     atom    3 type  2   force =    -0.00000000   -0.00000000    0.00000000
     The local contribution  to forces
     atom    1 type  1   force =    -0.00000000    0.00000000    0.15101137
     atom    2 type  1   force =     0.00000000    0.00000000   -0.15101137
     atom    3 type  2   force =    -0.00000000    0.00000000   -0.00000000
     The core correction contribution to forces
     atom    1 type  1   force =     0.00000000    0.00000000    0.00000000
     atom    2 type  1   force =     0.00000000    0.00000000    0.00000000
     atom    3 type  2   force =    -0.00000000    0.00000000    0.00000000
     The Hubbard contrib.    to forces
     atom    1 type  1   force =     0.00000000    0.00000000    0.00000000
     atom    2 type  1   force =     0.00000000    0.00000000    0.00000000
     atom    3 type  2   force =     0.00000000    0.00000000    0.00000000
     The SCF correction term to forces
     atom    1 type  1   force =    -0.00000000   -0.00000000   -0.00003139
     atom    2 type  1   force =     0.00000000   -0.00000000    0.00003139
     atom    3 type  2   force =     0.00000000    0.00000000   -0.00000000

     Total force =     0.025253     Total SCF correction =     0.000044


     Computing stress (Cartesian axis) and pressure

          total   stress  (Ry/bohr**3)                   (kbar)     P=      454.71
   0.00304184   0.00000000   0.00000000          447.47        0.00        0.00
   0.00000000   0.00304184   0.00000000            0.00      447.47        0.00
  -0.00000000  -0.00000000   0.00318954           -0.00       -0.00      469.20

     Energy error            =      8.8E-03 Ry
     Gradient error          =      1.8E-02 Ry/Bohr
     Cell gradient error     =      5.3E+01 kbar

     number of scf cycles    =   3
     number of bfgs steps    =   2

     enthalpy           old  =     -36.5817369053 Ry
     enthalpy           new  =     -36.5904875268 Ry

     CASE: enthalpy          _new < enthalpy          _old

     new trust radius        =       0.0810336328 bohr
ibrav =      7
 celldm(1) =      4.95213233
 celldm(3) =      2.88989339
Input lattice vectors:
     0.50276274    -0.50276274     1.45293072
     0.50276274     0.50276274     1.45293072
    -0.50276274    -0.50276274     1.45293072
New lattice vectors in INITIAL alat:
     0.50276274    -0.50276274     1.45293072
     0.50276274     0.50276274     1.45293072
    -0.50276274    -0.50276274     1.45293072
New lattice vectors in NEW alat (for information only):
     0.50000000    -0.50000000     1.44494669
     0.50000000     0.50000000     1.44494669
    -0.50000000    -0.50000000     1.44494669
Discrepancy in bohr =     0.000000    0.000000    0.000000
     new conv_thr            =       0.0000000018 Ry

     new unit-cell volume =    175.48037 a.u.^3 (    26.00351 Ang^3 )
     density =      2.67997 g/cm^3

CELL_PARAMETERS (alat=  4.92491976)
   0.502762742  -0.502762742   1.452930724
   0.502762742   0.502762742   1.452930724
  -0.502762742  -0.502762742   1.452930724

ATOMIC_POSITIONS (crystal)
Li            0.0000000000        0.3239715675        0.3239715675
Li            0.0000000000        0.6760284325        0.6760284325
Si            0.0000000000       -0.0000000000       -0.0000000000



     Writing config-only to output data dir ./output/LiSi.save/
     NEW-OLD atomic charge density approx. for the potential
     extrapolated charge    9.78268, renormalised to   10.00000

     total cpu time spent up to now is       27.2 secs

     Self-consistent Calculation

     iteration #  1     ecut=   100.00 Ry     beta= 0.70
     Davidson diagonalization with overlap
     ethr =  1.00E-06,  avg # of iterations =  6.6

     total cpu time spent up to now is       29.3 secs

     total energy              =     -37.18804080 Ry
     estimated scf accuracy    <       0.00114073 Ry

     iteration #  2     ecut=   100.00 Ry     beta= 0.70
     Davidson diagonalization with overlap
     ethr =  1.14E-05,  avg # of iterations =  2.0

     total cpu time spent up to now is       30.4 secs

     total energy              =     -37.18908794 Ry
     estimated scf accuracy    <       0.00075905 Ry

     iteration #  3     ecut=   100.00 Ry     beta= 0.70
     Davidson diagonalization with overlap
     ethr =  7.59E-06,  avg # of iterations =  1.4

     total cpu time spent up to now is       31.3 secs

     total energy              =     -37.18914973 Ry
     estimated scf accuracy    <       0.00005022 Ry

     iteration #  4     ecut=   100.00 Ry     beta= 0.70
     Davidson diagonalization with overlap
     ethr =  5.02E-07,  avg # of iterations =  1.8

     total cpu time spent up to now is       32.3 secs

     total energy              =     -37.18915257 Ry
     estimated scf accuracy    <       0.00000395 Ry

     iteration #  5     ecut=   100.00 Ry     beta= 0.70
     Davidson diagonalization with overlap
     ethr =  3.95E-08,  avg # of iterations =  2.0

     total cpu time spent up to now is       33.3 secs

     total energy              =     -37.18915323 Ry
     estimated scf accuracy    <       0.00000001 Ry

     iteration #  6     ecut=   100.00 Ry     beta= 0.70
     Davidson diagonalization with overlap
     ethr =  1.20E-10,  avg # of iterations =  3.9

     total cpu time spent up to now is       34.5 secs

     total energy              =     -37.18915325 Ry
     estimated scf accuracy    <          3.4E-09 Ry

     iteration #  7     ecut=   100.00 Ry     beta= 0.70
     Davidson diagonalization with overlap
     ethr =  3.41E-11,  avg # of iterations =  2.0

     total cpu time spent up to now is       35.4 secs

     End of self-consistent calculation

          k = 0.0000 0.0000 0.0000 (  2903 PWs)   bands (ev):

   -36.4870 -36.0802  -2.2778   6.5721   9.0154  15.9421  15.9421  16.6103
    18.5187

          k =-0.1989 0.0000 0.0688 (  2916 PWs)   bands (ev):

   -36.4337 -36.1048  -1.5795   6.4082   8.9563  11.7549  15.2171  16.4552
    19.7652

          k =-0.3978 0.0000 0.1377 (  2925 PWs)   bands (ev):

   -36.3093 -36.1827   0.3991   4.7970   6.3441  12.4033  14.7338  18.2489
    20.7814

          k =-0.0000 0.0995 0.0344 (  2917 PWs)   bands (ev):

   -36.4731 -36.0862  -2.1026   6.5143   9.2128  13.4714  16.0619  17.1204
    18.8606

          k =-0.1989 0.0995 0.1032 (  2912 PWs)   bands (ev):

   -36.4199 -36.1108  -1.3905   6.1568   9.3634  11.5697  14.9741  15.5266
    19.5929

          k =-0.3978 0.0995 0.1721 (  2923 PWs)   bands (ev):

   -36.2997 -36.1847   0.6197   4.8988   6.3176  12.6357  14.7182  17.1362
    19.0363

          k = 0.3978 0.0995-0.1032 (  2920 PWs)   bands (ev):

   -36.3051 -36.1794   0.5589   5.0009   6.7202  12.1689  13.7824  16.9476
    19.5909

          k = 0.1989 0.0995-0.0344 (  2914 PWs)   bands (ev):

   -36.4236 -36.1073  -1.4132   6.8609   8.9032  11.2162  14.5612  15.3942
    19.1783

          k =-0.1989 0.1989 0.1377 (  2915 PWs)   bands (ev):

   -36.3848 -36.1255  -0.8426   6.1219   9.4375  10.5857  14.6767  14.9954
    19.3198

          k =-0.3978 0.1989 0.2065 (  2923 PWs)   bands (ev):

   -36.2786 -36.1860   1.2320   5.2406   6.6055  12.5428  13.0752  16.8073
    17.3593

          k = 0.3978 0.1989-0.0688 (  2932 PWs)   bands (ev):

   -36.2885 -36.1763   1.0806   5.5284   7.4678  11.7928  12.2759  14.8012
    17.6182

          k = 0.1989 0.1989 0.0000 (  2909 PWs)   bands (ev):

   -36.3915 -36.1190  -0.8988   7.3632   9.1992   9.9836  13.3562  14.3147
    18.9601

          k =-0.0000 0.2984 0.1032 (  2919 PWs)   bands (ev):

   -36.3759 -36.1369  -0.7216   6.2957   6.9951  12.3330  13.9672  17.1785
    21.2132

          k =-0.1989 0.2984 0.1721 (  2919 PWs)   bands (ev):

   -36.3348 -36.1502   0.0551   6.2754   7.3460  11.4297  13.7923  15.9349
    19.1521

          k =-0.3978 0.2984 0.2409 (  2919 PWs)   bands (ev):

   -36.2507 -36.1894   2.2345   5.6568   7.1597  10.3689  13.4273  14.6691
    16.2355

          k = 0.3978 0.2984-0.0344 (  2922 PWs)   bands (ev):

   -36.2639 -36.1763   1.9391   6.3238   8.5816  10.2031  11.1393  13.1184
    16.1083

          k = 0.1989 0.2984 0.0344 (  2927 PWs)   bands (ev):

   -36.3436 -36.1416  -0.0498   7.5217   7.7313  10.5022  12.3388  14.3016
    19.1320

          k =-0.3978 0.3978 0.2753 (  2927 PWs)   bands (ev):

   -36.2226 -36.1977   3.5828   5.6420   7.9172   8.9689  12.7651  13.7540
    14.2578

          k = 0.3978 0.3978 0.0000 (  2909 PWs)   bands (ev):

   -36.2375 -36.1829   3.0862   6.8346   8.5476   9.9629  10.0577  11.9447
    15.7377

          k = 0.0000-0.4973-0.1721 (  2918 PWs)   bands (ev):

   -36.2515 -36.2326   1.2067   3.6452   6.3278  12.1802  16.0457  18.9184
    19.2708

          k =-0.1989-0.4973-0.1032 (  2927 PWs)   bands (ev):

   -36.2376 -36.2193   2.0211   4.1858   7.0410  12.1712  13.6910  14.9576
    17.3223

          k =-0.3978-0.4973-0.0344 (  2920 PWs)   bands (ev):

   -36.2151 -36.1977   4.3024   5.5619   8.6181   8.9088  11.5368  11.8427
    15.2001

          k = 0.0995-0.0995 0.0000 (  2915 PWs)   bands (ev):

   -36.4606 -36.0908  -1.9314   6.7567   9.0663  12.7324  15.3536  16.1932
    18.7002

          k =-0.0995-0.0995 0.0688 (  2916 PWs)   bands (ev):

   -36.4586 -36.0928  -1.9224   6.2794   9.7384  12.5648  15.2702  16.5463
    18.9734

          k =-0.2984-0.0995 0.1377 (  2911 PWs)   bands (ev):

   -36.3638 -36.1413  -0.5186   6.1520   7.0909  12.7086  13.8231  16.1455
    20.5560

          k = 0.4973-0.0995-0.1377 (  2925 PWs)   bands (ev):

   -36.2476 -36.2289   1.4115   3.7832   6.5094  12.1825  15.5918  17.2407
    18.1870

          k = 0.2984-0.0995-0.0688 (  2918 PWs)   bands (ev):

   -36.3686 -36.1366  -0.5614   6.7516   7.2035  11.6538  13.3416  16.0250
    20.1144

          k =-0.0995-0.0000 0.1032 (  2914 PWs)   bands (ev):

   -36.4692 -36.0900  -2.0873   5.7919  10.3287  13.2917  15.7010  17.6967
    18.7357

          k =-0.2984 0.0000 0.1721 (  2909 PWs)   bands (ev):

   -36.3701 -36.1426  -0.6749   5.7112   6.8819  13.6405  14.7967  16.7953
    21.4206

          k = 0.4973 0.0000-0.1032 (  2913 PWs)   bands (ev):

   -36.2515 -36.2326   1.2060   3.6519   6.3031  12.4252  15.3293  19.2222
    19.7486

          k = 0.2984 0.0000-0.0344 (  2929 PWs)   bands (ev):

   -36.3794 -36.1336  -0.7493   6.7948   7.0359  11.4881  13.5421  17.5025
    20.5405

          k =-0.0995 0.0995 0.1377 (  2918 PWs)   bands (ev):

   -36.4533 -36.0979  -1.8983   5.5092  11.0528  12.2146  15.1521  17.4449
    19.6932

          k =-0.2984 0.0995 0.2065 (  2909 PWs)   bands (ev):

   -36.3576 -36.1474  -0.4628   5.5916   6.9484  13.7718  14.5776  16.6116
    20.7413

          k = 0.4973 0.0995-0.0688 (  2924 PWs)   bands (ev):

   -36.2477 -36.2289   1.4099   3.7969   6.4621  12.6661  14.6386  16.9186
    19.0862

          k = 0.2984 0.0995 0.0000 (  2920 PWs)   bands (ev):

   -36.3704 -36.1349  -0.5773   7.0880   7.2021  11.2012  13.1609  16.0144
    19.9481

          k =-0.0995 0.1989 0.1721 (  2912 PWs)   bands (ev):

   -36.4138 -36.1167  -1.3524   5.4455   9.4558  12.4086  15.3617  16.2935
    20.3247

          k =-0.2984 0.1989 0.2409 (  2909 PWs)   bands (ev):

   -36.3289 -36.1560   0.1258   5.7576   7.1410  11.6554  15.1049  17.3661
    19.0293

          k = 0.4973 0.1989-0.0344 (  2925 PWs)   bands (ev):

   -36.2376 -36.2192   2.0170   4.2106   6.9660  12.8395  13.5831  14.0931
    17.2776

          k =-0.2984 0.2984 0.2753 (  2919 PWs)   bands (ev):

   -36.2895 -36.1706   1.0793   6.1859   6.8516  10.2216  15.5037  16.9524
    17.1661

          k = 0.4973 0.2984-0.0000 (  2923 PWs)   bands (ev):

   -36.2252 -36.2073   3.0070   4.8436   7.7849  11.0943  12.5582  12.7415
    16.1687

          k = 0.2984 0.2984 0.0688 (  2923 PWs)   bands (ev):

   -36.3047 -36.1557   0.8243   7.8260   8.0017   9.5350  11.6292  13.8871
    17.3354

          k =-0.0995-0.5967-0.1032 (  2920 PWs)   bands (ev):

   -36.2939 -36.1905   0.6843   4.8046   5.9515  13.4562  15.3111  16.9091
    18.9971

          k =-0.2984-0.5967-0.0344 (  2924 PWs)   bands (ev):

   -36.2467 -36.1934   2.3162   5.5398   6.8703  10.4244  14.3652  14.6702
    16.6234

          k = 0.2984-0.5967-0.2409 (  2917 PWs)   bands (ev):

   -36.2612 -36.1790   2.0028   6.1327   8.1992  10.2911  11.4415  13.8034
    16.0353

          k = 0.4973-0.4973-0.2753 (  2920 PWs)   bands (ev):

   -36.2112 -36.1940   5.2385   6.2410   6.9161   9.9302  10.8219  11.3938
    13.8406

          k = 0.2984-0.4973-0.2065 (  2922 PWs)   bands (ev):

   -36.2251 -36.2073   3.0283   4.7597   8.0167  10.8628  11.9481  13.4109
    15.9561

          k =-0.0995-0.3978-0.0344 (  2922 PWs)   bands (ev):

   -36.3082 -36.1764   0.5230   5.0686   6.9928  12.1106  12.9652  16.8827
    19.8932

          k = 0.4973-0.3978-0.2409 (  2915 PWs)   bands (ev):

   -36.2151 -36.1977   4.3573   5.4376   8.5356   9.2180  11.4975  11.9966
    13.9559

          k = 0.2984-0.3978-0.1721 (  2919 PWs)   bands (ev):

   -36.2563 -36.1838   2.1132   5.8732   7.6534  10.3095  12.3123  14.4522
    16.0537

          k = 0.2984-0.2984-0.1377 (  2924 PWs)   bands (ev):

   -36.3003 -36.1600   0.8971   7.2650   7.4420   9.8670  12.5981  14.8934
    17.2362

          k =-0.2984-0.1989 0.1032 (  2919 PWs)   bands (ev):

   -36.3404 -36.1448  -0.0110   6.9368   7.5810  11.0044  12.8187  14.8584
    19.1492

          k = 0.4973-0.1989-0.1721 (  2926 PWs)   bands (ev):

   -36.2376 -36.2193   2.0237   4.1708   7.0885  11.9167  13.7032  15.4385
    17.4015

          k = 0.0000-0.0000 0.1377 (  2907 PWs)   bands (ev):

   -36.4795 -36.0875  -2.2517   5.3210  11.2178  15.3009  15.3009  16.3128
    19.8916

[...]

     iteration #  2     ecut=   100.00 Ry     beta= 0.70
     Davidson diagonalization with overlap
     ethr =  1.72E-04,  avg # of iterations =  1.6

     total cpu time spent up to now is       72.1 secs

     total energy              =     -37.18479080 Ry
     estimated scf accuracy    <       0.00213641 Ry

     iteration #  3     ecut=   100.00 Ry     beta= 0.70
     Davidson diagonalization with overlap
     ethr =  2.14E-05,  avg # of iterations =  1.9

     total cpu time spent up to now is       73.1 secs

     total energy              =     -37.18516639 Ry
     estimated scf accuracy    <       0.00023997 Ry

     iteration #  4     ecut=   100.00 Ry     beta= 0.70
     Davidson diagonalization with overlap
     ethr =  2.40E-06,  avg # of iterations =  1.9

     total cpu time spent up to now is       74.0 secs

     total energy              =     -37.18519883 Ry
     estimated scf accuracy    <       0.00000096 Ry

     iteration #  5     ecut=   100.00 Ry     beta= 0.70
     Davidson diagonalization with overlap
     ethr =  9.58E-09,  avg # of iterations =  3.6

     total cpu time spent up to now is       75.0 secs

     total energy              =     -37.18519973 Ry
     estimated scf accuracy    <       0.00000014 Ry

     iteration #  6     ecut=   100.00 Ry     beta= 0.70
     Davidson diagonalization with overlap
     ethr =  1.43E-09,  avg # of iterations =  2.0

     total cpu time spent up to now is       76.0 secs

     total energy              =     -37.18519977 Ry
     estimated scf accuracy    <       0.00000001 Ry

     iteration #  7     ecut=   100.00 Ry     beta= 0.70
     Davidson diagonalization with overlap
     ethr =  1.13E-10,  avg # of iterations =  2.0

     total cpu time spent up to now is       76.9 secs

     total energy              =     -37.18519977 Ry
     estimated scf accuracy    <          3.1E-10 Ry

     iteration #  8     ecut=   100.00 Ry     beta= 0.70
     Davidson diagonalization with overlap
     ethr =  3.13E-12,  avg # of iterations =  2.0

     total cpu time spent up to now is       77.8 secs

     End of self-consistent calculation

          k = 0.0000 0.0000 0.0000 (  2919 PWs)   bands (ev):

   -36.4274 -36.0128  -2.2719   6.5534   8.9962  16.1891  16.1891  16.7418
    18.7667

          k =-0.2002-0.0000 0.0684 (  2931 PWs)   bands (ev):

   -36.3724 -36.0373  -1.5624   6.4155   8.9961  11.8122  15.3718  16.7174
    20.0158

          k =-0.4004-0.0000 0.1368 (  2955 PWs)   bands (ev):

   -36.2445 -36.1157   0.4528   4.8487   6.3892  12.4696  14.7039  18.5528
    20.7712

          k = 0.0000 0.1001 0.0342 (  2929 PWs)   bands (ev):

   -36.4130 -36.0188  -2.0940   6.5041   9.1933  13.6320  16.3129  17.3265
    19.0881

          k =-0.2002 0.1001 0.1026 (  2934 PWs)   bands (ev):

   -36.3583 -36.0431  -1.3722   6.1756   9.4326  11.6175  15.1487  15.6962
    19.8108

          k =-0.4004 0.1001 0.1710 (  2949 PWs)   bands (ev):

   -36.2348 -36.1174   0.6734   4.9590   6.3678  12.7086  14.7759  17.2705
    19.1726

          k = 0.4004 0.1001-0.1026 (  2950 PWs)   bands (ev):

   -36.2399 -36.1123   0.6170   5.0526   6.7653  12.2310  13.8088  17.1770
    19.7933

          k = 0.2002 0.1001-0.0342 (  2938 PWs)   bands (ev):

   -36.3618 -36.0397  -1.3921   6.8614   8.9287  11.3044  14.7253  15.6044
    19.4041

          k =-0.2002 0.2002 0.1368 (  2933 PWs)   bands (ev):

   -36.3221 -36.0576  -0.8177   6.1542   9.5739  10.6381  14.8035  15.0845
    19.4933

          k =-0.4004 0.2002 0.2052 (  2949 PWs)   bands (ev):

   -36.2129 -36.1182   1.2904   5.3175   6.6650  12.7092  13.1599  16.9831
    17.3240

          k = 0.4004 0.2002-0.0684 (  2958 PWs)   bands (ev):

   -36.2225 -36.1088   1.1477   5.5882   7.5200  11.8538  12.3813  14.9718
    17.7797

          k = 0.2002 0.2002 0.0000 (  2933 PWs)   bands (ev):

   -36.3286 -36.0513  -0.8683   7.3673   9.2132  10.0998  13.5133  14.4832
    19.1503

          k = 0.0000 0.3003 0.1026 (  2941 PWs)   bands (ev):

   -36.3129 -36.0695  -0.6903   6.3210   7.0728  12.3318  14.0583  17.4576
    21.4720

          k =-0.2002 0.3003 0.1710 (  2944 PWs)   bands (ev):

   -36.2707 -36.0822   0.0924   6.3208   7.4563  11.5522  13.8856  15.9679
    19.3363

          k =-0.4004 0.3003 0.2394 (  2946 PWs)   bands (ev):

   -36.1842 -36.1209   2.3019   5.7556   7.2327  10.5447  13.4909  14.8233
    16.3912

          k = 0.4004 0.3003-0.0342 (  2945 PWs)   bands (ev):

   -36.1968 -36.1084   2.0192   6.3979   8.6505  10.3298  11.2385  13.2549
    16.1950

          k = 0.2002 0.3003 0.0342 (  2947 PWs)   bands (ev):

   -36.2792 -36.0739  -0.0044   7.5625   7.7920  10.5527  12.4675  14.4595
    19.3089

          k =-0.4004 0.4004 0.2736 (  2954 PWs)   bands (ev):

   -36.1551 -36.1290   3.6642   5.7544   8.0073   9.1372  12.8711  13.9206
    14.2924

          k = 0.4004 0.4004-0.0000 (  2941 PWs)   bands (ev):

   -36.1693 -36.1148   3.1829   6.9128   8.7119  10.0727  10.1468  12.0490
    15.7655

          k =-0.0000-0.5005-0.1710 (  2962 PWs)   bands (ev):

   -36.1849 -36.1668   1.2874   3.6701   6.3773  12.2476  15.9818  18.9211
    19.6206

          k =-0.2002-0.5005-0.1026 (  2952 PWs)   bands (ev):

   -36.1702 -36.1527   2.1122   4.2247   7.1039  12.2445  13.8883  15.0679
    17.3849

          k =-0.4004-0.5005-0.0342 (  2946 PWs)   bands (ev):

   -36.1463 -36.1297   4.4176   5.6417   8.7963   9.0191  11.6136  11.9629
    15.2456

          k = 0.1001-0.1001 0.0000 (  2927 PWs)   bands (ev):

   -36.4001 -36.0234  -1.9193   6.7437   9.0539  12.8838  15.5739  16.3934
    18.9313

          k =-0.1001-0.1001 0.0684 (  2939 PWs)   bands (ev):

   -36.3982 -36.0253  -1.9117   6.2823   9.7136  12.7238  15.4873  16.7362
    19.1989

          k =-0.3003-0.1001 0.1368 (  2938 PWs)   bands (ev):

   -36.3006 -36.0736  -0.4869   6.1848   7.1824  12.7183  13.9475  16.3119
    20.7806

          k = 0.5005-0.1001-0.1368 (  2952 PWs)   bands (ev):

   -36.1808 -36.1629   1.4948   3.8116   6.5621  12.2501  15.6095  17.4444
    18.3157

          k = 0.3003-0.1001-0.0684 (  2942 PWs)   bands (ev):

   -36.3052 -36.0691  -0.5256   6.7773   7.2722  11.6669  13.4605  16.2400
    20.3452

          k =-0.1001-0.0000 0.1026 (  2938 PWs)   bands (ev):

   -36.4092 -36.0225  -2.0813   5.8048  10.2948  13.4509  15.9613  17.8850
    18.9494

          k =-0.3003-0.0000 0.1710 (  2944 PWs)   bands (ev):

   -36.3073 -36.0749  -0.6486   5.7498   6.9762  13.6408  14.8407  17.0828
    21.6041

          k = 0.5005 0.0000-0.1026 (  2948 PWs)   bands (ev):

   -36.1849 -36.1668   1.2868   3.6756   6.3558  12.4834  15.2980  19.5708
    19.7308

          k = 0.3003 0.0000-0.0342 (  2947 PWs)   bands (ev):

   -36.3163 -36.0662  -0.7151   6.8281   7.0796  11.5005  13.6532  17.7732
    20.8111

          k =-0.1001 0.1001 0.1368 (  2934 PWs)   bands (ev):

   -36.3930 -36.0302  -1.8914   5.5343  11.0238  12.3868  15.3484  17.6141
    19.9036

          k =-0.3003 0.1001 0.2052 (  2945 PWs)   bands (ev):

   -36.2946 -36.0794  -0.4366   5.6394   7.0521  13.8499  14.6885  16.6648
    20.8588

          k = 0.5005 0.1001-0.0684 (  2950 PWs)   bands (ev):

   -36.1809 -36.1629   1.4934   3.8231   6.5205  12.7178  14.6449  17.1937
    19.2551

          k = 0.3003 0.1001 0.0000 (  2940 PWs)   bands (ev):

   -36.3069 -36.0674  -0.5399   7.1495   7.2190  11.2229  13.2806  16.2410
    20.1805

          k =-0.1001 0.2002 0.1710 (  2934 PWs)   bands (ev):

   -36.3524 -36.0488  -1.3390   5.4828   9.5763  12.4485  15.5048  16.4115
    20.5282

          k =-0.3003 0.2002 0.2394 (  2939 PWs)   bands (ev):

   -36.2651 -36.0877   0.1573   5.8165   7.2597  11.8148  15.1783  17.3136
    19.2115

          k = 0.5005 0.2002-0.0342 (  2951 PWs)   bands (ev):

   -36.1702 -36.1527   2.1085   4.2466   7.0360  12.8985  13.6873  14.2804
    17.4016

          k =-0.3003 0.3003 0.2736 (  2941 PWs)   bands (ev):

   -36.2244 -36.1019   1.1219   6.2563   6.9786  10.3746  15.5558  17.1465
    17.3332

          k = 0.5005 0.3003-0.0000 (  2949 PWs)   bands (ev):

   -36.1570 -36.1400   3.1106   4.8970   7.8707  11.3069  12.6510  12.8181
    16.2138

          k = 0.3003 0.3003 0.0684 (  2950 PWs)   bands (ev):

   -36.2390 -36.0877   0.8827   7.9259   8.0394   9.6264  11.7464  13.9998
    17.5066

          k =-0.1001-0.6006-0.1026 (  2946 PWs)   bands (ev):

   -36.2292 -36.1229   0.7332   4.8719   6.0099  13.5217  15.4639  16.9357
    19.0508

          k =-0.3003-0.6006-0.0342 (  2951 PWs)   bands (ev):

   -36.1804 -36.1247   2.3797   5.6412   6.9508  10.6014  14.4552  14.8021
    16.7296

          k = 0.3003-0.6006-0.2394 (  2947 PWs)   bands (ev):

   -36.1942 -36.1110   2.0803   6.2154   8.2598  10.4472  11.5286  13.9441
    16.1289

          k = 0.5005-0.5005-0.2736 (  2936 PWs)   bands (ev):

   -36.1422 -36.1258   5.3461   6.3222   7.1261  10.0238  10.9085  11.5176
    13.8693

          k = 0.3003-0.5005-0.2052 (  2944 PWs)   bands (ev):

   -36.1570 -36.1400   3.1309   4.8192   8.0878  11.0693  12.0236  13.5226
    16.0997

          k =-0.1001-0.4004-0.0342 (  2942 PWs)   bands (ev):

   -36.2429 -36.1094   0.5837   5.1141   7.0377  12.1335  13.0244  17.1407
    20.1337

          k = 0.5005-0.4004-0.2394 (  2939 PWs)   bands (ev):

   -36.1463 -36.1297   4.4717   5.5204   8.7268   9.3109  11.5726  12.0961
    14.0470

          k = 0.3003-0.4004-0.1710 (  2948 PWs)   bands (ev):

   -36.1895 -36.1157   2.1861   5.9656   7.7168  10.4811  12.3846  14.6109
    16.1758

          k = 0.3003-0.3003-0.1368 (  2955 PWs)   bands (ev):

   -36.2348 -36.0918   0.9512   7.3119   7.5543   9.9885  12.6953  14.9840
    17.4035

          k =-0.3003-0.2002 0.1026 (  2950 PWs)   bands (ev):

   -36.2760 -36.0769   0.0315   6.9692   7.6763  11.0772  12.9373  14.9674
    19.3275

          k = 0.5005-0.2002-0.1710 (  2950 PWs)   bands (ev):

   -36.1702 -36.1527   2.1146   4.2114   7.1469  11.9973  13.9101  15.5737
    17.3716

          k =-0.0000-0.0000 0.1368 (  2935 PWs)   bands (ev):

   -36.4201 -36.0199  -2.2509   5.3440  11.1515  15.5635  15.5635  16.4612
    20.1138

          k =-0.2002-0.0000 0.2052 (  2946 PWs)   bands (ev):

   -36.3610 -36.0484  -1.5063   5.0885   9.4513  14.0223  15.9679  17.0909
    20.2880

          k = 0.6006 0.0000-0.0684 (  2938 PWs)   bands (ev):

   -36.2338 -36.1263   0.5538   4.7068   5.7307  14.0433  16.1697  18.0244
    19.0791

          k = 0.4004 0.0000 0.0000 (  2946 PWs)   bands (ev):

   -36.2503 -36.1100   0.3954   4.9454   6.8715  12.2003  13.1206  19.0410
    22.0164

          k = 0.0000 0.1001 0.1710 (  2932 PWs)   bands (ev):

   -36.4030 -36.0285  -2.0602   5.1029  11.6336  13.4222  15.5598  18.4580
    19.1617

          k =-0.2002 0.1001 0.2394 (  2931 PWs)   bands (ev):

   -36.3463 -36.0548  -1.3043   4.9748   9.4946  13.2502  16.1930  17.5775
    21.4020

          k = 0.6006 0.1001-0.0342 (  2941 PWs)   bands (ev):

   -36.2254 -36.1267   0.7721   4.8209   5.8036  14.5823  15.7005  15.8410
    19.9683

          k =-0.2002 0.2002 0.2736 (  2933 PWs)   bands (ev):

   -36.3109 -36.0685  -0.7293   5.1288   9.0150  11.6936  17.3885  17.6293
    20.1619

          k = 0.6006 0.2002-0.0000 (  2940 PWs)   bands (ev):

   -36.2060 -36.1251   1.3889   5.1753   6.2125  12.9606  14.9732  15.3979
    18.5350

          k =-0.0000-0.7007-0.1026 (  2944 PWs)   bands (ev):

   -36.3015 -36.0807  -0.6048   5.2970   6.8746  15.1120  15.9671  16.7933
    20.3247

          k =-0.2002-0.7007-0.0342 (  2933 PWs)   bands (ev):

   -36.2614 -36.0913   0.1996   5.5445   7.1490  11.9275  16.6084  17.9532
    19.2394

          k = 0.4004-0.6006-0.2052 (  2942 PWs)   bands (ev):

   -36.1650 -36.1191   3.3465   6.3407   8.8584   9.1241  11.4167  12.7218
    14.5787

          k =-0.0000-0.5005-0.0342 (  2948 PWs)   bands (ev):

   -36.1849 -36.1668   1.2859   3.6845   6.3217  13.1426  14.1656  19.5032
    21.1500

          k = 0.4004-0.5005-0.1710 (  2930 PWs)   bands (ev):

   -36.1463 -36.1297   4.5106   5.4425   8.7175   9.4540  11.6996  12.0392
    13.5660

          k = 0.3003-0.3003 0.0000 (  2945 PWs)   bands (ev):

   -36.2405 -36.0862   0.8576   8.1079   8.5167   9.3031  11.3716  13.6318
    17.5463

          k = 0.7007-0.3003-0.1368 (  2943 PWs)   bands (ev):

   -36.2293 -36.0972   1.0422   6.6798   7.2077  10.2304  14.0002  16.2859
    17.2804

          k = 0.5005-0.3003-0.0684 (  2947 PWs)   bands (ev):

   -36.1570 -36.1400   3.1182   4.8669   7.9506  11.2362  12.2366  13.2529
    16.1436

          k =-0.1001-0.1001 0.2052 (  2938 PWs)   bands (ev):

   -36.3864 -36.0366  -1.8656   4.9171  12.0640  12.4001  15.4476  18.7847
    20.3503

          k = 0.7007-0.1001-0.0684 (  2941 PWs)   bands (ev):

   -36.2896 -36.0844  -0.3938   5.2722   6.9508  14.3836  15.8897  17.3461
    19.6287

          k = 0.5005-0.1001 0.0000 (  2947 PWs)   bands (ev):

   -36.1809 -36.1629   1.4925   3.8304   6.4951  13.5270  13.6052  17.1511
    19.5817

          k =-0.1001 0.0000 0.2394 (  2937 PWs)   bands (ev):

   -36.3965 -36.0347  -2.0385   4.5948  12.2575  14.4109  15.2561  18.3271
    20.3180

          k = 0.7007-0.0000-0.0342 (  2945 PWs)   bands (ev):

   -36.2977 -36.0844  -0.5766   5.0519   6.8136  16.4953  16.6403  17.0778
    19.0607

          k =-0.1001 0.1001 0.2736 (  2933 PWs)   bands (ev):

   -36.3809 -36.0419  -1.8439   4.5262  11.8477  13.2888  16.2625  19.6887
    20.4058

          k = 0.7007 0.1001 0.0000 (  2938 PWs)   bands (ev):

   -36.2876 -36.0863  -0.3769   5.1436   6.9134  14.4937  17.0613  17.2640
    19.0776

          k =-0.1001-0.8008-0.0342 (  2931 PWs)   bands (ev):

   -36.3424 -36.0586  -1.2820   4.7093   9.4170  13.5770  17.4645  18.7523
    20.1075

          k = 0.5005-0.5005-0.1368 (  2954 PWs)   bands (ev):

   -36.1422 -36.1258   5.5800   5.9359   7.1347  10.7517  10.9891  11.6869
    12.3063

          k =-0.0000-0.0000 0.2736 (  2967 PWs)   bands (ev):

   -36.4076 -36.0319  -2.2154   4.3402  14.9636  14.9636  14.9704  16.0906
    19.5078

          k = 0.8008 0.0000-0.0000 (  2938 PWs)   bands (ev):

   -36.3536 -36.0556  -1.4694   4.5702   9.3804  15.6577  17.5528  17.6453
    19.8470

          k =-0.0000-0.9009-0.0342 (  2944 PWs)   bands (ev):

   -36.3924 -36.0387  -2.0247   4.3318  12.2876  15.0971  16.2262  17.8358
    19.4694

          k =-0.5005 0.5005-0.0000 (  2944 PWs)   bands (ev):

   -36.1422 -36.1258   5.2656   6.5145   7.1208   9.6382  11.0840  11.3344
    16.1590

          k =-0.3003 0.7007 0.0000 (  2942 PWs)   bands (ev):

   -36.2225 -36.1039   1.1540   6.1070   6.8995  10.4238  17.0017  17.1273
    17.5397

          k =-0.1001 0.9009 0.0000 (  2940 PWs)   bands (ev):

   -36.3788 -36.0440  -1.8354   4.3929  11.7727  13.5111  17.3763  18.9413
    19.7936

     the Fermi energy is     9.6770 ev

!    total energy              =     -37.18519977 Ry
     estimated scf accuracy    <          1.0E-12 Ry
     smearing contrib. (-TS)   =       0.00033581 Ry
     internal energy E=F+TS    =     -37.18553558 Ry

     The total energy is F=E-TS. E is the sum of the following terms:
     one-electron contribution =      -7.40639539 Ry
     hartree contribution      =       5.68604184 Ry
     xc contribution           =     -10.33185735 Ry
     ewald contribution        =     -25.13332468 Ry

     convergence has been achieved in   8 iterations

     Forces acting on atoms (cartesian axes, Ry/au):

     atom    1 type  1   force =    -0.00000000    0.00000000   -0.00002858
     atom    2 type  1   force =     0.00000000   -0.00000000    0.00002858
     atom    3 type  2   force =     0.00000000   -0.00000000    0.00000000
     The non-local contrib.  to forces
     atom    1 type  1   force =     0.00000000   -0.00000000   -0.00659602
     atom    2 type  1   force =     0.00000000    0.00000000    0.00659602
     atom    3 type  2   force =     0.00000000    0.00000000    0.00000000
     The ionic contribution  to forces
     atom    1 type  1   force =    -0.00000000   -0.00000000   -0.00935160
     atom    2 type  1   force =     0.00000000    0.00000000    0.00935160
     atom    3 type  2   force =     0.00000000    0.00000000    0.00000000
     The local contribution  to forces
     atom    1 type  1   force =    -0.00000000   -0.00000000    0.01591934
     atom    2 type  1   force =    -0.00000000   -0.00000000   -0.01591934
     atom    3 type  2   force =    -0.00000000    0.00000000   -0.00000000
     The core correction contribution to forces
     atom    1 type  1   force =     0.00000000    0.00000000    0.00000000
     atom    2 type  1   force =     0.00000000    0.00000000    0.00000000
     atom    3 type  2   force =    -0.00000000   -0.00000000   -0.00000000
     The Hubbard contrib.    to forces
     atom    1 type  1   force =     0.00000000    0.00000000    0.00000000
     atom    2 type  1   force =     0.00000000    0.00000000    0.00000000
     atom    3 type  2   force =     0.00000000    0.00000000    0.00000000
     The SCF correction term to forces
     atom    1 type  1   force =     0.00000000   -0.00000000   -0.00000030
     atom    2 type  1   force =    -0.00000000    0.00000000    0.00000030
     atom    3 type  2   force =    -0.00000000   -0.00000000    0.00000000

     Total force =     0.000040     Total SCF correction =     0.000000


     Computing stress (Cartesian axis) and pressure

          total   stress  (Ry/bohr**3)                   (kbar)     P=      500.29
   0.00340091  -0.00000000   0.00000000          500.29       -0.00        0.00
  -0.00000000   0.00340091  -0.00000000           -0.00      500.29       -0.00
   0.00000000  -0.00000000   0.00340085            0.00       -0.00      500.28


     Writing all to output data dir ./output/LiSi.save/

     init_run     :      1.20s CPU      1.70s WALL (       2 calls)
     electrons    :     61.92s CPU     66.66s WALL (       9 calls)
     update_pot   :      1.89s CPU      1.95s WALL (       7 calls)
     forces       :      1.64s CPU      1.71s WALL (       9 calls)
     stress       :      6.10s CPU      6.42s WALL (       9 calls)

     Called by init_run:
     wfcinit      :      0.60s CPU      0.61s WALL (       2 calls)
     potinit      :      0.26s CPU      0.62s WALL (       2 calls)
     hinit0       :      0.31s CPU      0.37s WALL (       2 calls)

     Called by electrons:
     c_bands      :     51.95s CPU     55.88s WALL (      61 calls)
     sum_band     :      9.06s CPU      9.43s WALL (      61 calls)
     v_of_rho     :      0.99s CPU      1.69s WALL (      66 calls)
     mix_rho      :      0.05s CPU      0.08s WALL (      61 calls)

     Called by c_bands:
     init_us_2    :      1.16s CPU      1.31s WALL (   11928 calls)
     init_us_2:cp :      1.14s CPU      1.29s WALL (   11928 calls)
     cegterg      :     49.86s CPU     51.92s WALL (    5124 calls)

     Called by *egterg:
     cdiaghg      :      1.89s CPU      2.07s WALL (   17548 calls)
     h_psi        :     45.99s CPU     47.70s WALL (   18640 calls)
     g_psi        :      0.11s CPU      0.12s WALL (   13348 calls)

     Called by h_psi:
     h_psi:calbec :      1.36s CPU      1.43s WALL (   18640 calls)
     vloc_psi     :     43.67s CPU     45.22s WALL (   18640 calls)
     add_vuspsi   :      0.83s CPU      0.87s WALL (   18640 calls)

     General routines
     calbec       :      1.67s CPU      1.75s WALL (   22420 calls)
     fft          :      0.80s CPU      1.65s WALL (     887 calls)
     ffts         :      0.04s CPU      0.06s WALL (      61 calls)
     fftw         :     45.40s CPU     46.90s WALL (  293218 calls)

     Parallel routines

     PWSCF        :   1m13.04s CPU   1m19.07s WALL


   This run was terminated on:  22: 1:38  10Jan2025            

=------------------------------------------------------------------------------=
   JOB DONE.
=------------------------------------------------------------------------------=
