
     Program PWSCF v.7.2 starts on 27Dec2024 at 13:18:48 

     This program is part of the open-source Quantum ESPRESSO suite
     for quantum simulation of materials; please cite
         "P. Giannozzi et al., J. Phys.:Condens. Matter 21 395502 (2009);
         "P. Giannozzi et al., J. Phys.:Condens. Matter 29 465901 (2017);
         "P. Giannozzi et al., J. Chem. Phys. 152 154105 (2020);
          URL http://www.quantum-espresso.org", 
     in publications or presentations arising from this work. More details at
     http://www.quantum-espresso.org/quote

     Parallel version (MPI & OpenMP), running on       8 processor cores
     Number of MPI processes:                 8
     Threads/MPI process:                     1

     MPI processes distributed on     1 nodes
     482239 MiB available memory on the printing compute node when the environment starts

     Waiting for input...
     Reading input from standard input

     Current dimensions of program PWSCF are:
     Max number of different atomic species (ntypx) = 10
     Max number of k-points (npk) =  40000
     Max angular momentum in pseudopotentials (lmaxx) =  4

     R & G space division:  proc/nbgrp/npool/nimage =       8
     Subspace diagonalization in iterative solution of the eigenvalue problem:
     a serial algorithm will be used


     Parallelization info
     --------------------
     sticks:   dense  smooth     PW     G-vecs:    dense   smooth      PW
     Min         256     256     75                 5951     5951     960
     Max         257     257     76                 5952     5952     962
     Sum        2055    2055    605                47613    47613    7689

     Using Slab Decomposition



     bravais-lattice index     =            5
     lattice parameter (alat)  =      11.7027  a.u.
     unit-cell volume          =     492.3786 (a.u.)^3
     number of atoms/cell      =            3
     number of atomic types    =            2
     number of electrons       =        11.00
     number of Kohn-Sham states=           10
     kinetic-energy cutoff     =      80.0000  Ry
     charge density cutoff     =     320.0000  Ry
     scf convergence threshold =      1.0E-08
     mixing beta               =       0.7000
     number of iterations used =            8  plain     mixing
     energy convergence thresh.=      1.0E-04
     force convergence thresh. =      1.0E-03
     press convergence thresh. =      1.0E+00
     Exchange-correlation= PBE
                           (   1   4   3   4   0   0   0)
     nstep                     =           50


     celldm(1)=  11.702655  celldm(2)=   0.000000  celldm(3)=   0.000000
     celldm(4)=   0.810216  celldm(5)=   0.000000  celldm(6)=   0.000000

     crystal axes: (cart. coord. in units of alat)
               a(1) = (   0.308045  -0.177850   0.934600 )  
               a(2) = (   0.000000   0.355700   0.934600 )  
               a(3) = (  -0.308045  -0.177850   0.934600 )  

     reciprocal axes: (cart. coord. in units 2 pi/alat)
               b(1) = (  1.623137 -0.937119  0.356659 )  
               b(2) = ( -0.000000  1.874237  0.356659 )  
               b(3) = ( -1.623137 -0.937119  0.356659 )  


     PseudoPot. # 1 for Li read from file:
     ../pseudo/Li_ONCV_PBE_sr.upf
     MD5 check sum: 50ff420e78310ffa21704f3361e624a4
     Pseudo is Norm-conserving, Zval =  3.0
     Generated using ONCVPSP code by D. R. Hamann
     Using radial grid of 1944 points,  4 beta functions with: 
                l(1) =   0
                l(2) =   0
                l(3) =   1
                l(4) =   1

     PseudoPot. # 2 for Si read from file:
     ../pseudo/Si_ONCV_PBE_sr.upf
     MD5 check sum: e543d271109d17c80368dfa7c482276d
     Pseudo is Norm-conserving + core correction, Zval =  4.0
     Generated using ONCVPSP code by D. R. Hamann
     Using radial grid of 1510 points,  6 beta functions with: 
                l(1) =   0
                l(2) =   0
                l(3) =   1
                l(4) =   1
                l(5) =   2
                l(6) =   2

     atomic species   valence    mass     pseudopotential
        Li             3.00     6.94100     Li( 1.00)
        Si             4.00    28.08550     Si( 1.00)

     12 Sym. Ops., with inversion, found



   Cartesian axes

     site n.     atom                  positions (alat units)
         1           Li  tau(   1) = (   0.0000000   0.0000000   0.0000000  )
         2           Si  tau(   2) = (   0.0000000  -0.0000000   2.1240507  )
         3           Si  tau(   3) = (  -0.0000000  -0.0000000   0.6797496  )

     number of k points=    19  Marzari-Vanderbilt smearing, width (Ry)=  0.0200
                       cart. coord. in units 2pi/alat
        k(    1) = (   0.0000000   0.0000000   0.0000000), wk =   0.0160000
        k(    2) = (  -0.3246275  -0.1874237   0.0713318), wk =   0.0960000
        k(    3) = (  -0.6492549  -0.3748475   0.1426635), wk =   0.0960000
        k(    4) = (  -0.3246275   0.1874237   0.1426635), wk =   0.0960000
        k(    5) = (  -0.6492549   0.0000000   0.2139953), wk =   0.1920000
        k(    6) = (   0.6492549   0.7496950  -0.0713318), wk =   0.1920000
        k(    7) = (   0.3246275   0.5622712   0.0000000), wk =   0.0960000
        k(    8) = (  -0.6492549   0.3748475   0.2853270), wk =   0.0960000
        k(    9) = (   0.6492549   1.1245425   0.0000000), wk =   0.0960000
        k(   10) = (   0.0000000   0.0000000   0.2139953), wk =   0.0320000
        k(   11) = (  -0.3246275  -0.1874237   0.2853270), wk =   0.0960000
        k(   12) = (   0.9738824   0.5622712   0.0000000), wk =   0.0960000
        k(   13) = (   0.6492549   0.3748475   0.0713318), wk =   0.0960000
        k(   14) = (  -0.3246275   0.1874237   0.3566588), wk =   0.0960000
        k(   15) = (   0.9738824   0.9371187   0.0713318), wk =   0.1920000
        k(   16) = (   0.6492549   0.7496950   0.1426635), wk =   0.1920000
        k(   17) = (   0.9738824  -0.5622712  -0.2139953), wk =   0.0960000
        k(   18) = (   0.0000000   0.0000000   0.4279905), wk =   0.0320000
        k(   19) = (   1.2985098   0.7496950   0.1426635), wk =   0.0960000

     Dense  grid:    47613 G-vectors     FFT dimensions: (  72,  72,  72)

     Estimated max dynamical RAM per process >      20.59 MB

     Estimated total dynamical RAM >     164.75 MB

     Initial potential from superposition of free atoms

     starting charge      10.9942, renormalised to      11.0000
     Starting wfcs are   10 randomized atomic wfcs

     total cpu time spent up to now is        1.7 secs

     Self-consistent Calculation

     iteration #  1     ecut=    80.00 Ry     beta= 0.70
     Davidson diagonalization with overlap
     ethr =  1.00E-02,  avg # of iterations =  5.4

     Threshold (ethr) on eigenvalues was too large:
     Diagonalizing with lowered threshold

     Davidson diagonalization with overlap
     ethr =  3.54E-04,  avg # of iterations =  4.0

     total cpu time spent up to now is        3.2 secs

     total energy              =     -31.08365035 Ry
     estimated scf accuracy    <       0.04710088 Ry

     iteration #  2     ecut=    80.00 Ry     beta= 0.70
     Davidson diagonalization with overlap
     ethr =  4.28E-04,  avg # of iterations =  2.7

     total cpu time spent up to now is        3.9 secs

     total energy              =     -31.09259024 Ry
     estimated scf accuracy    <       0.06177360 Ry

     iteration #  3     ecut=    80.00 Ry     beta= 0.70
     Davidson diagonalization with overlap
     ethr =  4.28E-04,  avg # of iterations =  2.0

     total cpu time spent up to now is        4.4 secs

     total energy              =     -31.10406412 Ry
     estimated scf accuracy    <       0.00008578 Ry

     iteration #  4     ecut=    80.00 Ry     beta= 0.70
     Davidson diagonalization with overlap
     ethr =  7.80E-07,  avg # of iterations =  6.6

     total cpu time spent up to now is        5.3 secs

     total energy              =     -31.10414675 Ry
     estimated scf accuracy    <       0.00006087 Ry

     iteration #  5     ecut=    80.00 Ry     beta= 0.70
     Davidson diagonalization with overlap
     ethr =  5.53E-07,  avg # of iterations =  2.0

     total cpu time spent up to now is        5.8 secs

     total energy              =     -31.10416109 Ry
     estimated scf accuracy    <       0.00000235 Ry

     iteration #  6     ecut=    80.00 Ry     beta= 0.70
     Davidson diagonalization with overlap
     ethr =  2.14E-08,  avg # of iterations =  1.9

     total cpu time spent up to now is        6.3 secs

     total energy              =     -31.10416150 Ry
     estimated scf accuracy    <       0.00000004 Ry

     iteration #  7     ecut=    80.00 Ry     beta= 0.70
     Davidson diagonalization with overlap
     ethr =  3.55E-10,  avg # of iterations =  3.6

     total cpu time spent up to now is        6.9 secs

     End of self-consistent calculation

          k = 0.0000 0.0000 0.0000 (  5953 PWs)   bands (ev):

   -43.0146  -5.8711  -3.3411   0.0949   5.1473   5.1473   5.9812   5.9812
     6.6783   8.5389

          k =-0.3246-0.1874 0.0713 (  5956 PWs)   bands (ev):

   -43.0142  -5.4322  -3.0992   0.5712   2.8453   4.2772   4.5984   5.2418
     5.9604   8.5128

          k =-0.6493-0.3748 0.1427 (  5952 PWs)   bands (ev):

   -43.0137  -4.2240  -3.0010   0.8881   1.8162   2.0935   4.0221   4.0737
     4.3465   7.8056

          k =-0.3246 0.1874 0.1427 (  5953 PWs)   bands (ev):

   -43.0142  -5.3916  -3.2244   0.7224   3.2131   3.6394   4.2440   5.8270
     6.3747   8.2341

          k =-0.6493 0.0000 0.2140 (  5948 PWs)   bands (ev):

   -43.0138  -4.5352  -2.9771   1.0936   1.9691   2.1866   3.5270   3.9841
     5.5423   9.6013

          k = 0.6493 0.7497-0.0713 (  5952 PWs)   bands (ev):

   -43.0135  -3.4315  -3.2030   0.9879   1.3227   2.0531   2.2493   3.6226
     4.6325   9.3909

          k = 0.3246 0.5623 0.0000 (  5956 PWs)   bands (ev):

   -43.0138  -4.6607  -2.6825   1.0757   1.6523   2.6117   3.1916   3.3308
     6.1296   9.8580

          k =-0.6493 0.3748 0.2853 (  5956 PWs)   bands (ev):

   -43.0137  -4.2165  -2.8433   0.4676   0.5201   3.3561   3.4866   5.6661
     5.9824   7.3506

          k = 0.6493 1.1245 0.0000 (  5950 PWs)   bands (ev):

   -43.0135  -3.6069  -2.8229   0.2341   0.5632   2.0174   3.8335   4.3985
     4.9680   7.9605

          k = 0.0000 0.0000 0.2140 (  5944 PWs)   bands (ev):

   -43.0146  -5.7321  -3.7862   0.8079   5.1715   5.1715   5.8880   5.8880
     5.9597   8.5974

          k =-0.3246-0.1874 0.2853 (  5964 PWs)   bands (ev):

   -43.0142  -5.2017  -3.7089   1.5506   2.7847   4.3927   4.6683   5.1415
     5.3438   9.0446

          k = 0.9739 0.5623 0.0000 (  5951 PWs)   bands (ev):

   -43.0137  -3.9002  -3.4511   0.4394   1.9531   3.3413   3.7095   3.7350
     4.8084   7.7637

          k = 0.6493 0.3748 0.0713 (  5952 PWs)   bands (ev):

   -43.0137  -4.3314  -2.6966   0.6143   1.0514   2.3589   3.5897   5.0738
     5.2483   7.5089

          k =-0.3246 0.1874 0.3567 (  5930 PWs)   bands (ev):

   -43.0142  -5.0872  -3.9210   1.8553   2.9195   4.0022   4.1323   5.4140
     6.0624   8.3718

          k = 0.9739 0.9371 0.0713 (  5942 PWs)   bands (ev):

   -43.0138  -4.1838  -3.5602   1.2085   1.5253   3.0307   4.0502   4.3227
     5.0402   8.6584

          k = 0.6493 0.7497 0.1427 (  5947 PWs)   bands (ev):

   -43.0135  -3.5652  -2.9473   0.4419   0.7858   2.1965   3.1724   3.7591
     5.2843   8.5437

          k = 0.9739-0.5623-0.2140 (  5961 PWs)   bands (ev):

   -43.0137  -3.9176  -3.3537   0.2878   1.0773   3.4059   4.1495   4.9920
     5.5145   7.4421

          k = 0.0000 0.0000 0.4280 (  5941 PWs)   bands (ev):

   -43.0146  -5.3484  -4.5357   2.3231   4.3485   5.2304   5.2304   5.7232
     5.7232   8.9994

          k = 1.2985 0.7497 0.1427 (  5953 PWs)   bands (ev):

   -43.0142  -4.7946  -4.3529   2.4297   3.1832   3.7552   4.2786   4.9182
     5.7325   8.8126

     the Fermi energy is     3.0370 ev

!    total energy              =     -31.10416152 Ry
     estimated scf accuracy    <          8.4E-09 Ry
     smearing contrib. (-TS)   =      -0.00132179 Ry
     internal energy E=F+TS    =     -31.10283973 Ry

     The total energy is F=E-TS. E is the sum of the following terms:
     one-electron contribution =      -5.76527349 Ry
     hartree contribution      =       4.47096586 Ry
     xc contribution           =      -8.98865776 Ry
     ewald contribution        =     -20.81987434 Ry

     convergence has been achieved in   7 iterations

     Forces acting on atoms (cartesian axes, Ry/au):

     atom    1 type  1   force =    -0.00000000    0.00000000   -0.00000000
     atom    2 type  2   force =     0.00000000   -0.00000000    0.04408407
     atom    3 type  2   force =     0.00000000    0.00000000   -0.04408407
     The non-local contrib.  to forces
     atom    1 type  1   force =     0.00000000   -0.00000000    0.00000000
     atom    2 type  2   force =    -0.00000000   -0.00000000    0.08652031
     atom    3 type  2   force =     0.00000000    0.00000000   -0.08652031
     The ionic contribution  to forces
     atom    1 type  1   force =    -0.00000000   -0.00000000    0.00000000
     atom    2 type  2   force =    -0.00000000    0.00000000    0.74641253
     atom    3 type  2   force =    -0.00000000   -0.00000000   -0.74641253
     The local contribution  to forces
     atom    1 type  1   force =    -0.00000000   -0.00000000    0.00000000
     atom    2 type  2   force =     0.00000000   -0.00000000   -0.78337247
     atom    3 type  2   force =    -0.00000000    0.00000000    0.78337247
     The core correction contribution to forces
     atom    1 type  1   force =     0.00000000    0.00000000    0.00000000
     atom    2 type  2   force =     0.00000000   -0.00000000   -0.00556923
     atom    3 type  2   force =    -0.00000000    0.00000000    0.00556923
     The Hubbard contrib.    to forces
     atom    1 type  1   force =     0.00000000    0.00000000    0.00000000
     atom    2 type  2   force =     0.00000000    0.00000000    0.00000000
     atom    3 type  2   force =     0.00000000    0.00000000    0.00000000
     The SCF correction term to forces
     atom    1 type  1   force =     0.00000000   -0.00000000   -0.00000000
     atom    2 type  2   force =     0.00000000    0.00000000    0.00009293
     atom    3 type  2   force =    -0.00000000   -0.00000000   -0.00009293

     Total force =     0.062344     Total SCF correction =     0.000131


     Computing stress (Cartesian axis) and pressure

          total   stress  (Ry/bohr**3)                   (kbar)     P=      -84.10
  -0.00051558  -0.00000000   0.00000000          -75.85       -0.00        0.00
   0.00000000  -0.00051558  -0.00000000            0.00      -75.85       -0.00
  -0.00000000  -0.00000000  -0.00068385           -0.00       -0.00     -100.60


     BFGS Geometry Optimization
     Energy error            =      0.0E+00 Ry
     Gradient error          =      4.4E-02 Ry/Bohr
     Cell gradient error     =      6.0E+02 kbar

     number of scf cycles    =   1
     number of bfgs steps    =   0

     enthalpy           new  =     -29.4306005252 Ry

     new trust radius        =       0.4529761924 bohr
ibrav =      5
 celldm(1) =     10.51441302
 celldm(4) =      0.80866105
Input lattice vectors:
     0.27789921    -0.16044518     0.83920599
     0.00000000     0.32089036     0.83920599
    -0.27789921    -0.16044518     0.83920599
New lattice vectors in INITIAL alat:
     0.27789921    -0.16044518     0.83920599
     0.00000000     0.32089036     0.83920599
    -0.27789921    -0.16044518     0.83920599
New lattice vectors in NEW alat (for information only):
     0.30930482    -0.17857722     0.93404534
     0.00000000     0.35715444     0.93404534
    -0.30930482    -0.17857722     0.93404534
Discrepancy in bohr =     0.000000    0.000000    0.000000
     new conv_thr            =       0.0000000100 Ry

     new unit-cell volume =    359.82146 a.u.^3 (    53.32004 Ang^3 )
     density =      1.96549 g/cm^3

CELL_PARAMETERS (alat= 11.70265543)
   0.277899206  -0.160445181   0.839205988
   0.000000000   0.320890362   0.839205988
  -0.277899206  -0.160445181   0.839205988

ATOMIC_POSITIONS (crystal)
Li           -0.0000000000        0.0000000000        0.0000000000
Si            0.7589048687        0.7589048687        0.7589048687
Si            0.2410951313        0.2410951313        0.2410951313



     Writing config-only to output data dir ./output/LiSi.save/
     NEW-OLD atomic charge density approx. for the potential
     extrapolated charge    6.94976, renormalised to   11.00000

     total cpu time spent up to now is        8.7 secs

     Self-consistent Calculation

     iteration #  1     ecut=    80.00 Ry     beta= 0.70
     Davidson diagonalization with overlap
     c_bands:  1 eigenvalues not converged
     ethr =  1.00E-06,  avg # of iterations = 13.4

     total cpu time spent up to now is       10.5 secs

     total energy              =     -30.59110108 Ry
     estimated scf accuracy    <       0.55287896 Ry

     iteration #  2     ecut=    80.00 Ry     beta= 0.70
     Davidson diagonalization with overlap
     ethr =  5.03E-03,  avg # of iterations =  3.3

     total cpu time spent up to now is       11.2 secs

     total energy              =     -31.04649136 Ry
     estimated scf accuracy    <       1.68436335 Ry

     iteration #  3     ecut=    80.00 Ry     beta= 0.70
     Davidson diagonalization with overlap
     ethr =  5.03E-03,  avg # of iterations =  2.0

     total cpu time spent up to now is       11.7 secs

     total energy              =     -31.14545103 Ry
     estimated scf accuracy    <       0.16031554 Ry

     iteration #  4     ecut=    80.00 Ry     beta= 0.70
     Davidson diagonalization with overlap
     ethr =  1.46E-03,  avg # of iterations =  1.9

     total cpu time spent up to now is       12.2 secs

     total energy              =     -31.17032808 Ry
     estimated scf accuracy    <       0.00416219 Ry

     iteration #  5     ecut=    80.00 Ry     beta= 0.70
     Davidson diagonalization with overlap
     ethr =  3.78E-05,  avg # of iterations =  4.6

     total cpu time spent up to now is       12.9 secs

     total energy              =     -31.17188740 Ry
     estimated scf accuracy    <       0.00015739 Ry

     iteration #  6     ecut=    80.00 Ry     beta= 0.70
     Davidson diagonalization with overlap
     ethr =  1.43E-06,  avg # of iterations =  5.4

     total cpu time spent up to now is       13.7 secs

     total energy              =     -31.17195081 Ry
     estimated scf accuracy    <       0.00000102 Ry

     iteration #  7     ecut=    80.00 Ry     beta= 0.70
     Davidson diagonalization with overlap
     ethr =  9.30E-09,  avg # of iterations =  3.1

     total cpu time spent up to now is       14.3 secs

     total energy              =     -31.17195118 Ry
     estimated scf accuracy    <       0.00000045 Ry

     iteration #  8     ecut=    80.00 Ry     beta= 0.70
     Davidson diagonalization with overlap
     ethr =  4.13E-09,  avg # of iterations =  2.0

     total cpu time spent up to now is       14.8 secs

     total energy              =     -31.17195132 Ry
     estimated scf accuracy    <       0.00000011 Ry

     iteration #  9     ecut=    80.00 Ry     beta= 0.70
     Davidson diagonalization with overlap
     ethr =  1.04E-09,  avg # of iterations =  1.9

     total cpu time spent up to now is       15.3 secs

     End of self-consistent calculation

          k = 0.0000 0.0000 0.0000 (  5953 PWs)   bands (ev):

   -40.3917  -4.8736  -1.0411   1.6161   8.6074   8.6074   9.8236   9.8236
    11.1263  12.3223

          k =-0.3598-0.2078 0.0794 (  5956 PWs)   bands (ev):

   -40.3902  -4.2837  -0.6610   2.2422   5.2839   7.5421   7.6742   8.5719
     9.8046  11.5014

          k =-0.7197-0.4155 0.1589 (  5952 PWs)   bands (ev):

   -40.3878  -2.5758  -0.4663   2.4831   3.9945   4.5975   6.9197   7.0561
     7.2582  10.3770

          k =-0.3598 0.2078 0.1589 (  5953 PWs)   bands (ev):

   -40.3902  -4.2300  -0.9324   2.5779   5.7728   6.5895   7.1591   9.5558
    10.4637  11.0924

          k =-0.7197-0.0000 0.2383 (  5948 PWs)   bands (ev):

   -40.3883  -3.0307  -0.4703   3.0963   3.9892   4.5132   6.1382   6.8698
     9.1036  13.0446

          k = 0.7197 0.8310-0.0794 (  5952 PWs)   bands (ev):

   -40.3871  -1.2593  -0.8993   2.7172   3.4154   4.2143   4.4609   6.2441
     7.6955  12.8523

          k = 0.3598 0.6233 0.0000 (  5956 PWs)   bands (ev):

   -40.3883  -3.2036   0.2250   2.7494   3.4822   5.1919   5.7001   5.9071
    10.0870  13.4227

          k =-0.7197 0.4155 0.3178 (  5956 PWs)   bands (ev):

   -40.3878  -2.5032  -0.2216   2.1178   2.2893   5.9312   6.0913   9.3886
     9.7691  10.0599

          k = 0.7197 1.2465 0.0000 (  5950 PWs)   bands (ev):

   -40.3871  -1.4732  -0.0504   1.6789   2.0493   4.0274   6.8463   7.4239
     8.1181  10.8936

          k =-0.0000-0.0000 0.2383 (  5944 PWs)   bands (ev):

   -40.3917  -4.7010  -1.8535   2.7887   8.6029   8.6029   9.6735   9.6735
    10.1811  12.2554

          k =-0.3598-0.2078 0.3178 (  5964 PWs)   bands (ev):

   -40.3902  -3.9926  -1.7485   3.9174   5.0897   7.7241   8.1524   8.4881
     8.8262  11.9175

          k = 1.0795 0.6233 0.0000 (  5951 PWs)   bands (ev):

   -40.3878  -2.1311  -1.2315   1.9686   4.7019   6.1078   6.3783   6.4379
     7.9484  10.2984

          k = 0.7197 0.4155 0.0794 (  5952 PWs)   bands (ev):

   -40.3878  -2.7008   0.1922   2.1458   2.8870   4.6286   6.2461   8.3454
     8.8317  10.1672

          k =-0.3598 0.2078 0.3972 (  5930 PWs)   bands (ev):

   -40.3902  -3.8456  -2.0795   4.3948   5.6201   6.8564   6.9905   9.0611
    10.0552  11.1932

          k = 1.0795 1.0388 0.0794 (  5942 PWs)   bands (ev):

   -40.3883  -2.5540  -1.4881   3.3127   3.7287   5.5620   7.0513   7.2878
     8.3381  11.7407

          k = 0.7197 0.8310 0.1589 (  5947 PWs)   bands (ev):

   -40.3871  -1.4307  -0.3838   1.9705   2.5269   4.2409   5.8604   6.4887
     8.7170  11.6157

          k = 1.0795-0.6233-0.2383 (  5961 PWs)   bands (ev):

   -40.3878  -2.0454  -1.2160   1.8643   3.3474   5.9959   7.0936   8.4491
     9.0993   9.8348

          k =-0.0000-0.0000 0.4766 (  5941 PWs)   bands (ev):

   -40.3917  -4.2500  -2.9223   4.8810   7.9759   8.6157   8.6157   9.4269
     9.4269  12.5897

          k = 1.4394 0.8310 0.1589 (  5953 PWs)   bands (ev):

   -40.3902  -3.5248  -2.6309   5.0750   5.9709   7.0521   7.1817   8.1596
     9.4530  11.5191

     the Fermi energy is     5.6206 ev

!    total energy              =     -31.17195134 Ry
     estimated scf accuracy    <          2.3E-10 Ry
     smearing contrib. (-TS)   =      -0.00074518 Ry
     internal energy E=F+TS    =     -31.17120616 Ry

     The total energy is F=E-TS. E is the sum of the following terms:
     one-electron contribution =      -2.69321036 Ry
     hartree contribution      =       3.99091801 Ry
     xc contribution           =      -9.28477662 Ry
     ewald contribution        =     -23.18413720 Ry

     convergence has been achieved in   9 iterations

     Forces acting on atoms (cartesian axes, Ry/au):

     atom    1 type  1   force =    -0.00000000   -0.00000000   -0.00000000
     atom    2 type  2   force =    -0.00000000    0.00000000    0.08994032
     atom    3 type  2   force =     0.00000000   -0.00000000   -0.08994032
     The non-local contrib.  to forces
     atom    1 type  1   force =    -0.00000000    0.00000000   -0.00000000
     atom    2 type  2   force =     0.00000000    0.00000000    0.14813272
     atom    3 type  2   force =     0.00000000   -0.00000000   -0.14813272
     The ionic contribution  to forces
     atom    1 type  1   force =    -0.00000000   -0.00000000    0.00000000
     atom    2 type  2   force =     0.00000000    0.00000000    0.82259712
     atom    3 type  2   force =    -0.00000000   -0.00000000   -0.82259712
     The local contribution  to forces
     atom    1 type  1   force =     0.00000000    0.00000000    0.00000000
     atom    2 type  2   force =     0.00000000   -0.00000000   -0.87151901
     atom    3 type  2   force =    -0.00000000    0.00000000    0.87151901
     The core correction contribution to forces
     atom    1 type  1   force =     0.00000000    0.00000000    0.00000000
     atom    2 type  2   force =     0.00000000    0.00000000   -0.00928207
     atom    3 type  2   force =     0.00000000    0.00000000    0.00928207
     The Hubbard contrib.    to forces
     atom    1 type  1   force =     0.00000000    0.00000000    0.00000000
     atom    2 type  2   force =     0.00000000    0.00000000    0.00000000
     atom    3 type  2   force =     0.00000000    0.00000000    0.00000000
     The SCF correction term to forces
     atom    1 type  1   force =    -0.00000000   -0.00000000    0.00000000
     atom    2 type  2   force =     0.00000000   -0.00000000    0.00001157
     atom    3 type  2   force =    -0.00000000    0.00000000   -0.00001157

     Total force =     0.127195     Total SCF correction =     0.000016


     Computing stress (Cartesian axis) and pressure

          total   stress  (Ry/bohr**3)                   (kbar)     P=      -36.58
  -0.00016809   0.00000000   0.00000000          -24.73        0.00        0.00
  -0.00000000  -0.00016809  -0.00000000           -0.00      -24.73       -0.00
   0.00000000  -0.00000000  -0.00040977            0.00       -0.00      -60.28

     Energy error            =      5.2E-01 Ry
     Gradient error          =      9.0E-02 Ry/Bohr
     Cell gradient error     =      5.6E+02 kbar

     number of scf cycles    =   2
     number of bfgs steps    =   1

     enthalpy           old  =     -29.4306005252 Ry
     enthalpy           new  =     -29.9489430506 Ry

     CASE: enthalpy          _new < enthalpy          _old

     new trust radius        =       0.6468712009 bohr
ibrav =      5
 celldm(1) =      8.73798692
 celldm(4) =      0.80376422
Input lattice vectors:
     0.23388430    -0.13503316     0.69611481
     0.00000000     0.27006633     0.69611481
    -0.23388430    -0.13503316     0.69611481
New lattice vectors in INITIAL alat:
     0.23388430    -0.13503316     0.69611481
     0.00000000     0.27006633     0.69611481
    -0.23388430    -0.13503316     0.69611481
New lattice vectors in NEW alat (for information only):
     0.31323775    -0.18084790     0.93229617
     0.00000000     0.36169580     0.93229617
    -0.31323775    -0.18084790     0.93229617
Discrepancy in bohr =     0.000000    0.000000    0.000000
     new conv_thr            =       0.0000000090 Ry

     new unit-cell volume =    211.41066 a.u.^3 (    31.32783 Ang^3 )
     density =      3.34527 g/cm^3

CELL_PARAMETERS (alat= 11.70265543)
   0.233884299  -0.135033163   0.696114809
   0.000000000   0.270066326   0.696114809
  -0.233884299  -0.135033163   0.696114809

ATOMIC_POSITIONS (crystal)
Li           -0.0000000000        0.0000000000        0.0000000000
Si            0.7636530905        0.7636530905        0.7636530905
Si            0.2363469095        0.2363469095        0.2363469095



     Writing config-only to output data dir ./output/LiSi.save/
     NEW-OLD atomic charge density approx. for the potential

     negative rho (up, down):  3.272E-01 0.000E+00
     extrapolated charge    3.28204, renormalised to   11.00000

     total cpu time spent up to now is       17.0 secs

     Self-consistent Calculation

     iteration #  1     ecut=    80.00 Ry     beta= 0.70
     Davidson diagonalization with overlap
     ethr =  1.00E-06,  avg # of iterations = 15.8

     negative rho (up, down):  4.940E-02 0.000E+00

     total cpu time spent up to now is       18.9 secs

     total energy              =     -28.71099013 Ry
     estimated scf accuracy    <       4.54693835 Ry

     iteration #  2     ecut=    80.00 Ry     beta= 0.70
     Davidson diagonalization with overlap
     ethr =  1.00E-02,  avg # of iterations =  4.1

     negative rho (up, down):  7.078E-04 0.000E+00

     total cpu time spent up to now is       19.7 secs

     total energy              =     -30.33162447 Ry
     estimated scf accuracy    <       5.24890525 Ry

     iteration #  3     ecut=    80.00 Ry     beta= 0.70
     Davidson diagonalization with overlap
     ethr =  1.00E-02,  avg # of iterations =  2.1

     total cpu time spent up to now is       20.2 secs

     total energy              =     -31.03108787 Ry
     estimated scf accuracy    <       0.24414340 Ry

     iteration #  4     ecut=    80.00 Ry     beta= 0.70
     Davidson diagonalization with overlap
     ethr =  2.22E-03,  avg # of iterations =  2.0

     total cpu time spent up to now is       20.7 secs

     total energy              =     -31.06775582 Ry
     estimated scf accuracy    <       0.00755293 Ry

     iteration #  5     ecut=    80.00 Ry     beta= 0.70
     Davidson diagonalization with overlap
     ethr =  6.87E-05,  avg # of iterations =  5.2

     total cpu time spent up to now is       21.4 secs

     total energy              =     -31.06962657 Ry
     estimated scf accuracy    <       0.00073795 Ry

     iteration #  6     ecut=    80.00 Ry     beta= 0.70
     Davidson diagonalization with overlap
     ethr =  6.71E-06,  avg # of iterations =  4.1

     total cpu time spent up to now is       22.0 secs

     total energy              =     -31.06981317 Ry
     estimated scf accuracy    <       0.00001664 Ry

     iteration #  7     ecut=    80.00 Ry     beta= 0.70
     Davidson diagonalization with overlap
     ethr =  1.51E-07,  avg # of iterations =  2.8

     total cpu time spent up to now is       22.5 secs

     total energy              =     -31.06981852 Ry
     estimated scf accuracy    <       0.00000013 Ry

     iteration #  8     ecut=    80.00 Ry     beta= 0.70
     Davidson diagonalization with overlap
     ethr =  1.21E-09,  avg # of iterations =  3.6

     total cpu time spent up to now is       23.1 secs

     End of self-consistent calculation

          k = 0.0000 0.0000 0.0000 (  5953 PWs)   bands (ev):

   -34.8785  -2.5545   4.0410   5.9173  16.8923  16.8923  18.4884  18.4884
    19.8496  19.8496

          k =-0.4276-0.2469 0.0958 (  5956 PWs)   bands (ev):

   -34.8654  -1.6959   4.5574   6.7947  11.4656  14.7983  14.9339  16.2520
    18.1519  19.3822

          k =-0.8551-0.4937 0.1915 (  5952 PWs)   bands (ev):

   -34.8441   0.8624   4.7956   6.4910   9.8652  10.7964  13.5553  14.1480
    14.8483  16.5233

          k =-0.4276 0.2469 0.1915 (  5953 PWs)   bands (ev):

   -34.8654  -1.6358   3.9362   7.6067  12.0131  13.6479  13.9801  17.7492
    18.1428  20.2206

          k =-0.8551 0.0000 0.2873 (  5948 PWs)   bands (ev):

   -34.8482   0.1444   4.6802   8.2167   9.4814   9.8549  12.2953  14.3306
    17.5465  21.2580

          k = 0.8551 0.9874-0.0958 (  5952 PWs)   bands (ev):

   -34.8376   3.1569   3.6284   7.0744   8.3510   9.9032  10.5105  13.0500
    15.1746  21.3697

          k = 0.4276 0.7406 0.0000 (  5956 PWs)   bands (ev):

   -34.8482  -0.0615   6.6641   7.0504   8.4189  10.4757  11.2745  13.5468
    19.5258  21.6408

          k =-0.8551 0.4937 0.3831 (  5956 PWs)   bands (ev):

   -34.8441   1.0627   4.7427   6.0971   8.2664  12.1017  12.3332  15.8554
    18.1896  19.4124

          k = 0.8551 1.4811 0.0000 (  5950 PWs)   bands (ev):

   -34.8375   3.0987   4.8316   5.8690   6.6195   9.0023  14.5320  14.8209
    15.4777  17.9793

          k =-0.0000 0.0000 0.2873 (  5944 PWs)   bands (ev):

   -34.8784  -2.3839   2.5532   8.0057  16.6172  16.6172  18.7597  18.7597
    19.5100  19.5101

          k =-0.4276-0.2469 0.3831 (  5964 PWs)   bands (ev):

   -34.8653  -1.4014   2.7038   9.4599  11.2658  14.7743  16.2775  16.7253
    17.4430  18.4859

          k = 1.2827 0.7406 0.0000 (  5951 PWs)   bands (ev):

   -34.8441   1.3426   3.6887   5.8528  11.9638  12.4712  12.8456  13.2743
    15.2335  16.3696

          k = 0.8551 0.4937 0.0958 (  5952 PWs)   bands (ev):

   -34.8441   0.7556   5.5907   7.1870   7.4851  10.4517  12.5710  15.8787
    16.3417  17.8594

          k =-0.4276 0.2469 0.4788 (  5930 PWs)   bands (ev):

   -34.8652  -1.2639   2.2390  10.4401  11.9069  13.6956  14.1365  16.9583
    18.7267  20.0512

          k = 1.2827 1.2343 0.0958 (  5942 PWs)   bands (ev):

   -34.8481   0.6263   3.1752   8.4429   8.8811  12.0627  13.9510  15.0691
    16.2090  19.5750

          k = 0.8551 0.9874 0.1915 (  5947 PWs)   bands (ev):

   -34.8375   3.0770   4.3148   6.1456   7.4616   9.3343  12.4137  13.6978
    16.8778  19.2590

          k = 1.2827-0.7406-0.2873 (  5961 PWs)   bands (ev):

   -34.8440   1.5657   3.4231   5.8202   9.8461  12.1939  14.2508  15.1131
    16.7423  17.3736

          k =-0.0000 0.0000 0.5746 (  5941 PWs)   bands (ev):

   -34.8782  -2.0206   1.2034  11.1269  15.9719  16.3659  16.3659  18.1586
    18.1586  21.1371

          k = 1.7102 0.9874 0.1915 (  5953 PWs)   bands (ev):

   -34.8652  -1.0459   1.6721  10.9104  12.6996  13.9659  15.6109  15.7811
    18.0662  18.1446

     the Fermi energy is    11.9886 ev

!    total energy              =     -31.06981867 Ry
     estimated scf accuracy    <          1.3E-09 Ry
     smearing contrib. (-TS)   =      -0.00172901 Ry
     internal energy E=F+TS    =     -31.06808966 Ry

     The total energy is F=E-TS. E is the sum of the following terms:
     one-electron contribution =       3.50570361 Ry
     hartree contribution      =       3.35312941 Ry
     xc contribution           =     -10.03196515 Ry
     ewald contribution        =     -27.89495753 Ry

     convergence has been achieved in   8 iterations

     Forces acting on atoms (cartesian axes, Ry/au):

     atom    1 type  1   force =    -0.00000000    0.00000000    0.00000000
     atom    2 type  2   force =    -0.00000000   -0.00000000    0.13420783
     atom    3 type  2   force =     0.00000000    0.00000000   -0.13420783
     The non-local contrib.  to forces
     atom    1 type  1   force =    -0.00000000   -0.00000000   -0.00000000
     atom    2 type  2   force =    -0.00000000   -0.00000000    0.16104350
     atom    3 type  2   force =     0.00000000   -0.00000000   -0.16104350
     The ionic contribution  to forces
     atom    1 type  1   force =     0.00000000    0.00000000    0.00000000
     atom    2 type  2   force =     0.00000000    0.00000000    0.69928917
     atom    3 type  2   force =     0.00000000   -0.00000000   -0.69928917
     The local contribution  to forces
     atom    1 type  1   force =    -0.00000000    0.00000000   -0.00000000
     atom    2 type  2   force =    -0.00000000   -0.00000000   -0.71831360
     atom    3 type  2   force =     0.00000000    0.00000000    0.71831360
     The core correction contribution to forces
     atom    1 type  1   force =     0.00000000    0.00000000    0.00000000
     atom    2 type  2   force =    -0.00000000    0.00000000   -0.00780360
     atom    3 type  2   force =     0.00000000    0.00000000    0.00780360
     The Hubbard contrib.    to forces
     atom    1 type  1   force =     0.00000000    0.00000000    0.00000000
     atom    2 type  2   force =     0.00000000    0.00000000    0.00000000
     atom    3 type  2   force =     0.00000000    0.00000000    0.00000000
     The SCF correction term to forces
     atom    1 type  1   force =    -0.00000000   -0.00000000   -0.00000000
     atom    2 type  2   force =     0.00000000    0.00000000   -0.00000765
     atom    3 type  2   force =    -0.00000000   -0.00000000    0.00000765

     Total force =     0.189799     Total SCF correction =     0.000011


     Computing stress (Cartesian axis) and pressure

          total   stress  (Ry/bohr**3)                   (kbar)     P=      507.45
   0.00332716  -0.00000000   0.00000000          489.44       -0.00        0.00
  -0.00000000   0.00332716   0.00000000           -0.00      489.44        0.00
  -0.00000000   0.00000000   0.00369443           -0.00        0.00      543.47

     Energy error            =      4.0E-01 Ry
     Gradient error          =      1.3E-01 Ry/Bohr
     Cell gradient error     =      4.3E+01 kbar

     number of scf cycles    =   3
     number of bfgs steps    =   2

     enthalpy           old  =     -29.9489430506 Ry
     enthalpy           new  =     -30.3512484380 Ry

     CASE: enthalpy          _new < enthalpy          _old

     new trust radius        =       0.0799482765 bohr
ibrav =      5
 celldm(1) =      8.69393565
 celldm(4) =      0.80605428
Input lattice vectors:
     0.23134339    -0.13356617     0.69321346
    -0.00000000     0.26713234     0.69321346
    -0.23134339    -0.13356617     0.69321346
New lattice vectors in INITIAL alat:
     0.23134339    -0.13356617     0.69321346
     0.00000000     0.26713234     0.69321346
    -0.23134339    -0.13356617     0.69321346
New lattice vectors in NEW alat (for information only):
     0.31140465    -0.17978956     0.93311460
     0.00000000     0.35957912     0.93311460
    -0.31140465    -0.17978956     0.93311460
Discrepancy in bohr =     0.000000    0.000000    0.000000
     new conv_thr            =       0.0000000100 Ry

     new unit-cell volume =    205.98001 a.u.^3 (    30.52309 Ang^3 )
     density =      3.43346 g/cm^3

CELL_PARAMETERS (alat= 11.70265543)
   0.231343394  -0.133566171   0.693213462
   0.000000000   0.267132341   0.693213462
  -0.231343394  -0.133566171   0.693213462

ATOMIC_POSITIONS (crystal)
Li           -0.0000000000        0.0000000000        0.0000000000
Si            0.7669244070        0.7669244070        0.7669244070
Si            0.2330755930        0.2330755930        0.2330755930



     Writing config-only to output data dir ./output/LiSi.save/
     NEW-OLD atomic charge density approx. for the potential
     extrapolated charge   10.71014, renormalised to   11.00000

     total cpu time spent up to now is       24.8 secs

     Self-consistent Calculation

     iteration #  1     ecut=    80.00 Ry     beta= 0.70
     Davidson diagonalization with overlap
     ethr =  1.00E-06,  avg # of iterations =  8.7

     total cpu time spent up to now is       26.0 secs

     total energy              =     -31.06881806 Ry
     estimated scf accuracy    <       0.00088898 Ry

     iteration #  2     ecut=    80.00 Ry     beta= 0.70
     Davidson diagonalization with overlap
     ethr =  8.08E-06,  avg # of iterations =  2.0

     total cpu time spent up to now is       26.6 secs

     total energy              =     -31.06944830 Ry
     estimated scf accuracy    <       0.00015848 Ry

     iteration #  3     ecut=    80.00 Ry     beta= 0.70
     Davidson diagonalization with overlap
     ethr =  1.44E-06,  avg # of iterations =  1.1

     total cpu time spent up to now is       27.0 secs

     total energy              =     -31.06944916 Ry
     estimated scf accuracy    <       0.00002768 Ry

     iteration #  4     ecut=    80.00 Ry     beta= 0.70
     Davidson diagonalization with overlap
     ethr =  2.52E-07,  avg # of iterations =  2.0

     total cpu time spent up to now is       27.5 secs

     total energy              =     -31.06945293 Ry
     estimated scf accuracy    <       0.00001635 Ry

     iteration #  5     ecut=    80.00 Ry     beta= 0.70
     Davidson diagonalization with overlap
     ethr =  1.49E-07,  avg # of iterations =  1.5

     total cpu time spent up to now is       27.9 secs

     total energy              =     -31.06945639 Ry
     estimated scf accuracy    <       0.00000007 Ry

     iteration #  6     ecut=    80.00 Ry     beta= 0.70
     Davidson diagonalization with overlap
     ethr =  6.54E-10,  avg # of iterations =  3.2

     total cpu time spent up to now is       28.5 secs

     End of self-consistent calculation

          k = 0.0000 0.0000 0.0000 (  5953 PWs)   bands (ev):

   -34.4984  -2.5837   4.2408   6.2960  17.2822  17.2822  19.1929  19.1929
    20.2968  20.2968

          k =-0.4323-0.2496 0.0962 (  5956 PWs)   bands (ev):

   -34.4840  -1.6992   4.8147   7.1307  11.7553  15.1289  15.5287  16.9206
    18.3839  20.1338

          k =-0.8645-0.4991 0.1923 (  5952 PWs)   bands (ev):

   -34.4608   0.9413   5.0761   6.6361  10.1824  11.3387  13.7519  14.8768
    15.2866  16.7383

          k =-0.4323 0.2496 0.1923 (  5953 PWs)   bands (ev):

   -34.4840  -1.6477   4.2302   7.9156  12.1713  14.3858  14.3989  18.0398
    18.7335  20.9125

          k =-0.8645-0.0000 0.2885 (  5948 PWs)   bands (ev):

   -34.4652   0.1767   5.0451   8.3895   9.8501  10.0726  12.7347  14.9209
    18.1008  21.7421

          k = 0.8645 0.9983-0.0962 (  5952 PWs)   bands (ev):

   -34.4536   3.3618   3.7404   7.3261   8.6238  10.2068  10.8964  13.6162
    15.6545  21.8113

          k = 0.4323 0.7487 0.0000 (  5956 PWs)   bands (ev):

   -34.4653  -0.0025   6.8892   7.4140   8.7177  10.5458  11.7876  14.2378
    20.0866  22.0621

          k =-0.8645 0.4991 0.3847 (  5956 PWs)   bands (ev):

   -34.4607   1.1154   5.1312   6.1051   8.7998  12.5051  12.7174  16.0851
    18.7355  19.8149

          k = 0.8645 1.4974 0.0000 (  5950 PWs)   bands (ev):

   -34.4536   3.2571   4.8052   6.2441   7.1154   9.1932  15.0582  15.1720
    16.0582  18.2903

          k =-0.0000 0.0000 0.2885 (  5944 PWs)   bands (ev):

   -34.4982  -2.4403   2.8647   8.2921  17.0326  17.0326  19.4952  19.4952
    19.9535  19.9535

          k =-0.4323-0.2496 0.3847 (  5964 PWs)   bands (ev):

   -34.4839  -1.4517   3.0679   9.7053  11.6035  15.1031  16.9545  17.2525
    17.9174  18.8013

          k = 1.2968 0.7487 0.0000 (  5951 PWs)   bands (ev):

   -34.4607   1.3415   4.1166   5.9774  12.3541  12.9429  13.2071  13.6387
    15.8008  16.5632

          k = 0.8645 0.4991 0.0962 (  5952 PWs)   bands (ev):

   -34.4608   0.8472   5.7203   7.4465   7.8342  11.0051  12.9546  16.4238
    16.5329  18.3591

          k =-0.4323 0.2496 0.4809 (  5930 PWs)   bands (ev):

   -34.4838  -1.3416   2.6360  10.6767  12.1309  14.1243  14.8217  17.2490
    19.2660  20.7575

          k = 1.2968 1.2478 0.0962 (  5942 PWs)   bands (ev):

   -34.4651   0.5659   3.6473   8.6305   9.1500  12.4045  14.3287  15.6293
    16.7232  20.0374

          k = 0.8645 0.9983 0.1923 (  5947 PWs)   bands (ev):

   -34.4536   3.2533   4.3702   6.5366   7.7873   9.5475  12.7999  14.3145
    17.3232  19.5657

          k = 1.2968-0.7487-0.2885 (  5961 PWs)   bands (ev):

   -34.4607   1.5087   3.9230   5.9088  10.3370  12.5939  14.6184  15.3199
    17.0940  17.9150

          k =-0.0000 0.0000 0.5770 (  5941 PWs)   bands (ev):

   -34.4980  -2.1526   1.6170  11.3378  16.3373  16.7865  16.7865  18.8015
    18.8015  21.6877

          k = 1.7290 0.9983 0.1923 (  5953 PWs)   bands (ev):

   -34.4837  -1.1766   2.1290  11.1728  12.8899  14.3814  16.0399  16.4174
    18.4484  18.7581

     the Fermi energy is    12.2819 ev

!    total energy              =     -31.06945645 Ry
     estimated scf accuracy    <          6.6E-10 Ry
     smearing contrib. (-TS)   =      -0.00074971 Ry
     internal energy E=F+TS    =     -31.06870674 Ry

     The total energy is F=E-TS. E is the sum of the following terms:
     one-electron contribution =       4.00722639 Ry
     hartree contribution      =       3.24239430 Ry
     xc contribution           =     -10.08627015 Ry
     ewald contribution        =     -28.23205727 Ry

     convergence has been achieved in   6 iterations

     Forces acting on atoms (cartesian axes, Ry/au):

     atom    1 type  1   force =    -0.00000000    0.00000000   -0.00000000
     atom    2 type  2   force =    -0.00000000    0.00000000    0.10155421
     atom    3 type  2   force =     0.00000000   -0.00000000   -0.10155421
     The non-local contrib.  to forces
     atom    1 type  1   force =     0.00000000   -0.00000000   -0.00000000
     atom    2 type  2   force =    -0.00000000    0.00000000    0.12378190
     atom    3 type  2   force =     0.00000000    0.00000000   -0.12378190
     The ionic contribution  to forces
     atom    1 type  1   force =     0.00000000    0.00000000    0.00000000
     atom    2 type  2   force =     0.00000000    0.00000000    0.41340012
     atom    3 type  2   force =     0.00000000   -0.00000000   -0.41340012
     The local contribution  to forces
     atom    1 type  1   force =    -0.00000000   -0.00000000    0.00000000
     atom    2 type  2   force =    -0.00000000   -0.00000000   -0.43109319
     atom    3 type  2   force =     0.00000000    0.00000000    0.43109319
     The core correction contribution to forces
     atom    1 type  1   force =     0.00000000    0.00000000    0.00000000
     atom    2 type  2   force =    -0.00000000   -0.00000000   -0.00454959
     atom    3 type  2   force =    -0.00000000    0.00000000    0.00454959
     The Hubbard contrib.    to forces
     atom    1 type  1   force =     0.00000000    0.00000000    0.00000000
     atom    2 type  2   force =     0.00000000    0.00000000    0.00000000
     atom    3 type  2   force =     0.00000000    0.00000000    0.00000000
     The SCF correction term to forces
     atom    1 type  1   force =    -0.00000000    0.00000000    0.00000000
     atom    2 type  2   force =    -0.00000000    0.00000000    0.00001496
     atom    3 type  2   force =     0.00000000   -0.00000000   -0.00001496

     Total force =     0.143619     Total SCF correction =     0.000021


     Computing stress (Cartesian axis) and pressure

          total   stress  (Ry/bohr**3)                   (kbar)     P=      570.08
   0.00366045   0.00000000  -0.00000000          538.47        0.00       -0.00
   0.00000000   0.00366045   0.00000000            0.00      538.47        0.00
  -0.00000000   0.00000000   0.00430515           -0.00        0.00      633.31

     Energy error            =      1.8E-02 Ry
     Gradient error          =      1.0E-01 Ry/Bohr
     Cell gradient error     =      1.3E+02 kbar

     number of scf cycles    =   4
     number of bfgs steps    =   3

     enthalpy           old  =     -30.3512484380 Ry
     enthalpy           new  =     -30.3693446338 Ry

     CASE: enthalpy          _new < enthalpy          _old

     new trust radius        =       0.1194225885 bohr
ibrav =      5
 celldm(1) =      8.83171351
 celldm(4) =      0.81262107
Input lattice vectors:
     0.23099678    -0.13336605     0.70596734
     0.00000000     0.26673211     0.70596734
    -0.23099678    -0.13336605     0.70596734
New lattice vectors in INITIAL alat:
     0.23099678    -0.13336605     0.70596734
     0.00000000     0.26673211     0.70596734
    -0.23099678    -0.13336605     0.70596734
New lattice vectors in NEW alat (for information only):
     0.30608735    -0.17671961     0.93545749
     0.00000000     0.35343922     0.93545749
    -0.30608735    -0.17671961     0.93545749
Discrepancy in bohr =     0.000000    0.000000    0.000000
     new conv_thr            =       0.0000000100 Ry

     new unit-cell volume =    209.14156 a.u.^3 (    30.99158 Ang^3 )
     density =      3.38156 g/cm^3

CELL_PARAMETERS (alat= 11.70265543)
   0.230996782  -0.133366054   0.705967342
   0.000000000   0.266732109   0.705967342
  -0.230996782  -0.133366054   0.705967342

ATOMIC_POSITIONS (crystal)
Li           -0.0000000000        0.0000000000        0.0000000000
Si            0.7718313817        0.7718313817        0.7718313817
Si            0.2281686183        0.2281686183        0.2281686183



     Writing config-only to output data dir ./output/LiSi.save/
     NEW-OLD atomic charge density approx. for the potential
     extrapolated charge   11.16620, renormalised to   11.00000

     total cpu time spent up to now is       30.1 secs

     Self-consistent Calculation

     iteration #  1     ecut=    80.00 Ry     beta= 0.70
     Davidson diagonalization with overlap
     ethr =  1.00E-06,  avg # of iterations =  9.8

     total cpu time spent up to now is       31.4 secs

     total energy              =     -31.09882818 Ry
     estimated scf accuracy    <       0.00566780 Ry

     iteration #  2     ecut=    80.00 Ry     beta= 0.70
     Davidson diagonalization with overlap
     ethr =  5.15E-05,  avg # of iterations =  2.4

     total cpu time spent up to now is       32.0 secs

     total energy              =     -31.10042506 Ry
     estimated scf accuracy    <       0.00636350 Ry

     iteration #  3     ecut=    80.00 Ry     beta= 0.70
     Davidson diagonalization with overlap
     ethr =  5.15E-05,  avg # of iterations =  1.7

     total cpu time spent up to now is       32.5 secs

     total energy              =     -31.10172099 Ry
     estimated scf accuracy    <       0.00002472 Ry

     iteration #  4     ecut=    80.00 Ry     beta= 0.70
     Davidson diagonalization with overlap
     ethr =  2.25E-07,  avg # of iterations =  2.9

     total cpu time spent up to now is       33.0 secs

     total energy              =     -31.10172982 Ry
     estimated scf accuracy    <       0.00000151 Ry

     iteration #  5     ecut=    80.00 Ry     beta= 0.70
     Davidson diagonalization with overlap
     ethr =  1.38E-08,  avg # of iterations =  2.5

     total cpu time spent up to now is       33.5 secs

     total energy              =     -31.10173021 Ry
     estimated scf accuracy    <       0.00000001 Ry

     iteration #  6     ecut=    80.00 Ry     beta= 0.70
     Davidson diagonalization with overlap
     ethr =  1.18E-10,  avg # of iterations =  3.7

     total cpu time spent up to now is       34.0 secs

     End of self-consistent calculation

          k = 0.0000 0.0000 0.0000 (  5953 PWs)   bands (ev):

   -34.5587  -3.0065   3.8677   6.2756  16.8199  16.8199  19.2082  19.2082
    20.1395  20.1395

          k =-0.4329-0.2499 0.0944 (  5956 PWs)   bands (ev):

   -34.5451  -2.1084   4.5285   7.0425  11.3517  14.6559  15.6389  17.2002
    17.8443  20.1695

          k =-0.8658-0.4999 0.1889 (  5952 PWs)   bands (ev):

   -34.5229   0.5714   4.8711   6.3256   9.8630  11.4008  13.1738  14.9898
    15.2653  16.2241

          k =-0.4329 0.2499 0.1889 (  5953 PWs)   bands (ev):

   -34.5450  -2.0700   4.0497   7.7177  11.6123  14.1410  14.6963  17.6077
    18.7432  20.7769

          k =-0.8658 0.0000 0.2833 (  5948 PWs)   bands (ev):

   -34.5271  -0.2356   5.0042   8.0069   9.4606   9.8281  12.7157  14.8702
    17.9250  21.4179

          k = 0.8658 0.9998-0.0944 (  5952 PWs)   bands (ev):

   -34.5161   3.0145   3.4260   7.1706   8.3177  10.1402  10.5836  13.5465
    15.4412  21.3916

          k = 0.4329 0.7498 0.0000 (  5956 PWs)   bands (ev):

   -34.5272  -0.3708   6.5065   7.4287   8.3539   9.9716  11.9747  14.3289
    19.7950  21.6513

          k =-0.8658 0.4999 0.3777 (  5956 PWs)   bands (ev):

   -34.5229   0.6952   5.1958   5.5657   8.7727  12.3034  12.5146  15.6353
    18.6168  19.2231

          k = 0.8658 1.4996 0.0000 (  5950 PWs)   bands (ev):

   -34.5161   2.8781   4.2536   6.3849   7.1300   8.7985  14.6731  14.9120
    16.0546  17.7874

          k =-0.0000 0.0000 0.2833 (  5944 PWs)   bands (ev):

   -34.5586  -2.9011   2.7454   8.0058  16.6542  16.6542  19.1973  19.1973
    20.1925  20.1927

          k =-0.4329-0.2499 0.3777 (  5964 PWs)   bands (ev):

   -34.5449  -1.9277   3.0465   9.3656  11.2465  14.6372  17.1635  17.2314
    17.4742  18.4895

          k = 1.2987 0.7498 0.0000 (  5951 PWs)   bands (ev):

   -34.5229   0.8549   4.1897   5.6196  11.9836  12.8500  12.8555  13.3620
    15.9473  16.0247

          k = 0.8658 0.4999 0.0944 (  5952 PWs)   bands (ev):

   -34.5229   0.4968   5.3285   7.2749   7.5912  11.1117  12.6695  16.0154
    16.4844  17.9388

          k =-0.4329 0.2499 0.4722 (  5930 PWs)   bands (ev):

   -34.5449  -1.8520   2.6777  10.2543  11.6179  13.9142  15.0273  16.8143
    18.9304  20.6086

          k = 1.2987 1.2497 0.0944 (  5942 PWs)   bands (ev):

   -34.5270   0.0328   3.8009   8.1902   8.9329  12.0732  14.0358  15.4784
    16.5329  19.6817

          k = 0.8658 0.9998 0.1889 (  5947 PWs)   bands (ev):

   -34.5161   2.8986   3.9297   6.6217   7.6077   9.1931  12.5586  14.3026
    16.9417  19.0019

          k = 1.2987-0.7498-0.2833 (  5961 PWs)   bands (ev):

   -34.5228   0.9563   4.1213   5.4831  10.2428  12.3777  14.2338  14.9292
    16.5766  17.8569

          k =-0.0000 0.0000 0.5666 (  5941 PWs)   bands (ev):

   -34.5584  -2.7031   1.6827  10.7634  15.8947  16.4622  16.4622  18.7105
    18.7105  21.6572

          k = 1.7316 0.9998 0.1889 (  5953 PWs)   bands (ev):

   -34.5448  -1.7438   2.2550  10.8394  12.2044  14.1240  15.7399  16.4144
    18.1224  18.7803

     the Fermi energy is    11.9511 ev

!    total energy              =     -31.10173022 Ry
     estimated scf accuracy    <          1.4E-10 Ry
     smearing contrib. (-TS)   =      -0.00027353 Ry
     internal energy E=F+TS    =     -31.10145669 Ry

     The total energy is F=E-TS. E is the sum of the following terms:
     one-electron contribution =       3.97061987 Ry
     hartree contribution      =       3.16635025 Ry
     xc contribution           =     -10.08470510 Ry
     ewald contribution        =     -28.15372172 Ry

     convergence has been achieved in   6 iterations

     Forces acting on atoms (cartesian axes, Ry/au):

     atom    1 type  1   force =     0.00000000    0.00000000    0.00000000
     atom    2 type  2   force =     0.00000000    0.00000000    0.04833150
     atom    3 type  2   force =     0.00000000   -0.00000000   -0.04833150
     The non-local contrib.  to forces
     atom    1 type  1   force =     0.00000000   -0.00000000    0.00000000
     atom    2 type  2   force =     0.00000000    0.00000000    0.07396309
     atom    3 type  2   force =    -0.00000000   -0.00000000   -0.07396309
     The ionic contribution  to forces
     atom    1 type  1   force =    -0.00000000   -0.00000000    0.00000000
     atom    2 type  2   force =     0.00000000    0.00000000   -0.03246314
     atom    3 type  2   force =     0.00000000   -0.00000000    0.03246314
     The local contribution  to forces
     atom    1 type  1   force =    -0.00000000    0.00000000    0.00000000
     atom    2 type  2   force =     0.00000000   -0.00000000    0.00724302
     atom    3 type  2   force =    -0.00000000    0.00000000   -0.00724302
     The core correction contribution to forces
     atom    1 type  1   force =     0.00000000    0.00000000    0.00000000
     atom    2 type  2   force =    -0.00000000   -0.00000000   -0.00041016
     atom    3 type  2   force =    -0.00000000    0.00000000    0.00041016
     The Hubbard contrib.    to forces
     atom    1 type  1   force =     0.00000000    0.00000000    0.00000000
     atom    2 type  2   force =     0.00000000    0.00000000    0.00000000
     atom    3 type  2   force =     0.00000000    0.00000000    0.00000000
     The SCF correction term to forces
     atom    1 type  1   force =     0.00000000   -0.00000000    0.00000000
     atom    2 type  2   force =    -0.00000000    0.00000000   -0.00000130
     atom    3 type  2   force =     0.00000000   -0.00000000    0.00000130

     Total force =     0.068351     Total SCF correction =     0.000002


     Computing stress (Cartesian axis) and pressure

          total   stress  (Ry/bohr**3)                   (kbar)     P=      563.22
   0.00347155  -0.00000000  -0.00000000          510.68       -0.00       -0.00
   0.00000000   0.00347155   0.00000000            0.00      510.68        0.00
  -0.00000000   0.00000000   0.00454300           -0.00        0.00      668.30

     Energy error            =      2.2E-02 Ry
     Gradient error          =      4.8E-02 Ry/Bohr
     Cell gradient error     =      1.7E+02 kbar

     number of scf cycles    =   5
     number of bfgs steps    =   4

     enthalpy           old  =     -30.3693446338 Ry
     enthalpy           new  =     -30.3908724968 Ry

     CASE: enthalpy          _new < enthalpy          _old

     new trust radius        =       0.1824296238 bohr
ibrav =      5
 celldm(1) =      9.24639112
 celldm(4) =      0.83066626
Input lattice vectors:
     0.22990298    -0.13273455     0.74417793
    -0.00000000     0.26546909     0.74417793
    -0.22990298    -0.13273455     0.74417793
New lattice vectors in INITIAL alat:
     0.22990298    -0.13273455     0.74417793
     0.00000000     0.26546909     0.74417793
    -0.22990298    -0.13273455     0.74417793
New lattice vectors in NEW alat (for information only):
     0.29097572    -0.16799491     0.94186562
     0.00000000     0.33598982     0.94186562
    -0.29097572    -0.16799491     0.94186562
Discrepancy in bohr =     0.000000    0.000000    0.000000
     new conv_thr            =       0.0000000048 Ry

     new unit-cell volume =    218.37849 a.u.^3 (    32.36035 Ang^3 )
     density =      3.23853 g/cm^3

CELL_PARAMETERS (alat= 11.70265543)
   0.229902976  -0.132734545   0.744177929
   0.000000000   0.265469090   0.744177929
  -0.229902976  -0.132734545   0.744177929

ATOMIC_POSITIONS (crystal)
Li           -0.0000000000        0.0000000000        0.0000000000
Si            0.7791918437        0.7791918437        0.7791918437
Si            0.2208081563        0.2208081563        0.2208081563



     Writing config-only to output data dir ./output/LiSi.save/
     NEW-OLD atomic charge density approx. for the potential
     extrapolated charge   11.46503, renormalised to   11.00000

     total cpu time spent up to now is       35.6 secs

     Self-consistent Calculation

     iteration #  1     ecut=    80.00 Ry     beta= 0.70
     Davidson diagonalization with overlap
     c_bands:  1 eigenvalues not converged
     ethr =  1.00E-06,  avg # of iterations = 11.6

     total cpu time spent up to now is       37.1 secs

     total energy              =     -31.14444180 Ry
     estimated scf accuracy    <       0.00836501 Ry

     iteration #  2     ecut=    80.00 Ry     beta= 0.70
     Davidson diagonalization with overlap
     ethr =  7.60E-05,  avg # of iterations =  2.3

     total cpu time spent up to now is       37.6 secs

     total energy              =     -31.14785286 Ry
     estimated scf accuracy    <       0.00313079 Ry

     iteration #  3     ecut=    80.00 Ry     beta= 0.70
     Davidson diagonalization with overlap
     ethr =  2.85E-05,  avg # of iterations =  2.0

     total cpu time spent up to now is       38.1 secs

     total energy              =     -31.14848311 Ry
     estimated scf accuracy    <       0.00007761 Ry

     iteration #  4     ecut=    80.00 Ry     beta= 0.70
     Davidson diagonalization with overlap
     ethr =  7.06E-07,  avg # of iterations =  2.3

     total cpu time spent up to now is       38.5 secs

     total energy              =     -31.14849155 Ry
     estimated scf accuracy    <       0.00000137 Ry

     iteration #  5     ecut=    80.00 Ry     beta= 0.70
     Davidson diagonalization with overlap
     ethr =  1.24E-08,  avg # of iterations =  3.5

     total cpu time spent up to now is       39.1 secs

     total energy              =     -31.14849202 Ry
     estimated scf accuracy    <       0.00000013 Ry

     iteration #  6     ecut=    80.00 Ry     beta= 0.70
     Davidson diagonalization with overlap
     ethr =  1.20E-09,  avg # of iterations =  2.1

     total cpu time spent up to now is       39.5 secs

     End of self-consistent calculation

          k = 0.0000 0.0000 0.0000 (  5953 PWs)   bands (ev):

   -34.8938  -3.9258   2.9168   5.9834  15.9019  15.9019  18.4793  18.4793
    20.3966  20.3966

          k =-0.4350-0.2511 0.0896 (  5956 PWs)   bands (ev):

   -34.8811  -3.0071   3.7055   6.6925  10.4793  13.6798  15.6625  16.8206
    17.6390  19.8658

          k =-0.8699-0.5023 0.1792 (  5952 PWs)   bands (ev):

   -34.8605  -0.2781   4.2270   5.7338   9.0911  11.1809  12.1190  14.2430
    15.2510  15.7863

          k =-0.4350 0.2511 0.1792 (  5953 PWs)   bands (ev):

   -34.8811  -2.9875   3.4166   7.1599  10.5845  13.4452  15.0052  16.6880
    18.7461  19.8385

          k =-0.8699 0.0000 0.2688 (  5948 PWs)   bands (ev):

   -34.8644  -1.1390   4.6699   7.2161   8.5059   9.2110  12.6379  14.4421
    17.3316  20.5612

          k = 0.8699 1.0045-0.0896 (  5952 PWs)   bands (ev):

   -34.8542   2.1141   2.7511   6.7841   7.5350   9.6822  10.1809  12.9790
    14.8074  20.1218

          k = 0.4350 0.7534 0.0000 (  5956 PWs)   bands (ev):

   -34.8645  -1.2096   5.5825   7.2932   7.5189   8.8980  12.2030  14.1229
    18.9462  20.7657

          k =-0.8699 0.5023 0.3583 (  5956 PWs)   bands (ev):

   -34.8605  -0.2193   4.5143   5.1121   8.4740  11.7084  11.8650  14.7281
    17.8299  18.2808

          k = 0.8699 1.5068 0.0000 (  5950 PWs)   bands (ev):

   -34.8542   2.0215   3.1803   6.5438   6.8157   8.0561  13.5685  14.2449
    15.7385  16.5544

          k =-0.0000 0.0000 0.2688 (  5944 PWs)   bands (ev):

   -34.8937  -3.8733   2.2291   7.2164  15.8294  15.8294  17.5992  18.4024
    18.4024  20.6173

          k =-0.4350-0.2511 0.3583 (  5964 PWs)   bands (ev):

   -34.8810  -2.9170   2.7272   8.4872  10.4112  13.6707  16.3215  16.7212
    17.6643  17.8806

          k = 1.3049 0.7534 0.0000 (  5951 PWs)   bands (ev):

   -34.8605  -0.1416   3.9981   4.9438  11.0322  11.9956  12.0833  12.9560
    14.9898  16.2269

          k = 0.8699 0.5023 0.0896 (  5952 PWs)   bands (ev):

   -34.8605  -0.3199   4.4227   6.5455   7.3397  10.9723  11.9089  15.0298
    16.6134  16.8162

          k =-0.4350 0.2511 0.4479 (  5930 PWs)   bands (ev):

   -34.8810  -2.8820   2.4675   9.2194  10.5543  13.3173  15.2239  15.7346
    17.8296  20.1241

          k = 1.3049 1.2556 0.0896 (  5942 PWs)   bands (ev):

   -34.8644  -1.0128   3.8044   7.2907   8.3020  11.1947  13.3836  14.8825
    15.8141  18.7039

          k = 0.8699 1.0045 0.1792 (  5947 PWs)   bands (ev):

   -34.8542   2.0485   3.0136   6.6629   7.0080   8.5325  11.9344  13.8916
    15.8388  17.8114

          k = 1.3049-0.7534-0.2688 (  5961 PWs)   bands (ev):

   -34.8605  -0.1005   4.1177   4.6816   9.8375  11.7513  13.0940  14.2271
    15.3389  17.6940

          k =-0.0000 0.0000 0.5375 (  5941 PWs)   bands (ev):

   -34.8936  -3.7818   1.4936   9.3580  14.6246  15.7285  15.7285  18.2095
    18.2095  21.5958

          k = 1.7399 1.0045 0.1792 (  5953 PWs)   bands (ev):

   -34.8810  -2.8339   2.1721  10.0753  10.6568  13.4338  14.7298  16.2623
    17.2653  18.7892

     the Fermi energy is    11.1111 ev

!    total energy              =     -31.14849204 Ry
     estimated scf accuracy    <          5.1E-10 Ry
     smearing contrib. (-TS)   =      -0.00045251 Ry
     internal energy E=F+TS    =     -31.14803953 Ry

     The total energy is F=E-TS. E is the sum of the following terms:
     one-electron contribution =       3.39305956 Ry
     hartree contribution      =       3.19580695 Ry
     xc contribution           =     -10.06632447 Ry
     ewald contribution        =     -27.67058156 Ry

     convergence has been achieved in   6 iterations

     Forces acting on atoms (cartesian axes, Ry/au):

     atom    1 type  1   force =     0.00000000   -0.00000000    0.00000000
     atom    2 type  2   force =    -0.00000000   -0.00000000   -0.05639113
     atom    3 type  2   force =     0.00000000    0.00000000    0.05639113
     The non-local contrib.  to forces
     atom    1 type  1   force =     0.00000000   -0.00000000    0.00000000
     atom    2 type  2   force =     0.00000000    0.00000000    0.00321232
     atom    3 type  2   force =     0.00000000   -0.00000000   -0.00321232
     The ionic contribution  to forces
     atom    1 type  1   force =     0.00000000   -0.00000000   -0.00000000
     atom    2 type  2   force =     0.00000000    0.00000000   -0.71273202
     atom    3 type  2   force =     0.00000000   -0.00000000    0.71273202
     The local contribution  to forces
     atom    1 type  1   force =    -0.00000000    0.00000000    0.00000000
     atom    2 type  2   force =    -0.00000000   -0.00000000    0.64785515
     atom    3 type  2   force =     0.00000000    0.00000000   -0.64785515
     The core correction contribution to forces
     atom    1 type  1   force =     0.00000000    0.00000000    0.00000000
     atom    2 type  2   force =    -0.00000000   -0.00000000    0.00527812
     atom    3 type  2   force =     0.00000000    0.00000000   -0.00527812
     The Hubbard contrib.    to forces
     atom    1 type  1   force =     0.00000000    0.00000000    0.00000000
     atom    2 type  2   force =     0.00000000    0.00000000    0.00000000
     atom    3 type  2   force =     0.00000000    0.00000000    0.00000000
     The SCF correction term to forces
     atom    1 type  1   force =    -0.00000000   -0.00000000    0.00000000
     atom    2 type  2   force =    -0.00000000   -0.00000000   -0.00000470
     atom    3 type  2   force =     0.00000000    0.00000000    0.00000470

     Total force =     0.079749     Total SCF correction =     0.000007


     Computing stress (Cartesian axis) and pressure

          total   stress  (Ry/bohr**3)                   (kbar)     P=      527.14
   0.00291654   0.00000000   0.00000000          429.04        0.00        0.00
  -0.00000000   0.00291654   0.00000000           -0.00      429.04        0.00
  -0.00000000   0.00000000   0.00491721           -0.00        0.00      723.35

     Energy error            =      1.5E-02 Ry
     Gradient error          =      5.6E-02 Ry/Bohr
     Cell gradient error     =      2.2E+02 kbar

     number of scf cycles    =   6
     number of bfgs steps    =   5

     enthalpy           old  =     -30.3908724968 Ry
     enthalpy           new  =     -30.4062386558 Ry

     CASE: enthalpy          _new < enthalpy          _old

     new trust radius        =       0.0893213284 bohr
ibrav =      5
 celldm(1) =      9.48733830
 celldm(4) =      0.84148666
Input lattice vectors:
     0.22823271    -0.13177021     0.76666832
     0.00000000     0.26354043     0.76666832
    -0.22823271    -0.13177021     0.76666832
New lattice vectors in INITIAL alat:
     0.22823271    -0.13177021     0.76666832
     0.00000000     0.26354043     0.76666832
    -0.22823271    -0.13177021     0.76666832
New lattice vectors in NEW alat (for information only):
     0.28152561    -0.16253889     0.94568728
     0.00000000     0.32507777     0.94568728
    -0.28152561    -0.16253889     0.94568728
Discrepancy in bohr =     0.000000    0.000000    0.000000
     new conv_thr            =       0.0000000056 Ry

     new unit-cell volume =    221.72116 a.u.^3 (    32.85569 Ang^3 )
     density =      3.18970 g/cm^3

CELL_PARAMETERS (alat= 11.70265543)
   0.228232705  -0.131770214   0.766668322
   0.000000000   0.263540427   0.766668322
  -0.228232705  -0.131770214   0.766668322

ATOMIC_POSITIONS (crystal)
Li           -0.0000000000        0.0000000000        0.0000000000
Si            0.7792828398        0.7792828398        0.7792828398
Si            0.2207171602        0.2207171602        0.2207171602



     Writing config-only to output data dir ./output/LiSi.save/
     NEW-OLD atomic charge density approx. for the potential
     extrapolated charge   11.16575, renormalised to   11.00000

     total cpu time spent up to now is       41.1 secs

     Self-consistent Calculation

     iteration #  1     ecut=    80.00 Ry     beta= 0.70
     Davidson diagonalization with overlap
     c_bands:  1 eigenvalues not converged
     ethr =  1.00E-06,  avg # of iterations =  8.1

     total cpu time spent up to now is       42.1 secs

     total energy              =     -31.16858973 Ry
     estimated scf accuracy    <       0.00026356 Ry

     iteration #  2     ecut=    80.00 Ry     beta= 0.70
     Davidson diagonalization with overlap
     ethr =  2.40E-06,  avg # of iterations =  2.1

     total cpu time spent up to now is       42.7 secs

     total energy              =     -31.16878592 Ry
     estimated scf accuracy    <       0.00060380 Ry

     iteration #  3     ecut=    80.00 Ry     beta= 0.70
     Davidson diagonalization with overlap
     ethr =  2.40E-06,  avg # of iterations =  2.3

     total cpu time spent up to now is       43.1 secs

     total energy              =     -31.16887270 Ry
     estimated scf accuracy    <       0.00001556 Ry

     iteration #  4     ecut=    80.00 Ry     beta= 0.70
     Davidson diagonalization with overlap
     ethr =  1.41E-07,  avg # of iterations =  1.8

     total cpu time spent up to now is       43.6 secs

     total energy              =     -31.16887158 Ry
     estimated scf accuracy    <       0.00000448 Ry

     iteration #  5     ecut=    80.00 Ry     beta= 0.70
     Davidson diagonalization with overlap
     ethr =  4.07E-08,  avg # of iterations =  2.0

     total cpu time spent up to now is       44.0 secs

     total energy              =     -31.16887235 Ry
     estimated scf accuracy    <       0.00000008 Ry

     iteration #  6     ecut=    80.00 Ry     beta= 0.70
     Davidson diagonalization with overlap
     ethr =  7.38E-10,  avg # of iterations =  3.6

     total cpu time spent up to now is       44.6 secs

     total energy              =     -31.16887238 Ry
     estimated scf accuracy    <          8.9E-09 Ry

     iteration #  7     ecut=    80.00 Ry     beta= 0.70
     Davidson diagonalization with overlap
     ethr =  8.06E-11,  avg # of iterations =  1.6

     total cpu time spent up to now is       45.0 secs

     End of self-consistent calculation

          k = 0.0000 0.0000 0.0000 (  5953 PWs)   bands (ev):

   -35.0852  -4.0695   2.4395   5.6658  16.1533  16.1533  18.6181  18.6181
    20.5500  20.5500

          k =-0.4381-0.2530 0.0870 (  5956 PWs)   bands (ev):

   -35.0719  -3.1340   3.2733   6.3881  10.5591  13.8399  15.5683  16.8502
    17.7601  19.6487

          k =-0.8763-0.5059 0.1739 (  5952 PWs)   bands (ev):

   -35.0504  -0.3561   4.2277   5.4654   8.7384  10.9053  12.2414  13.9372
    15.2262  15.9009

          k =-0.4381 0.2530 0.1739 (  5953 PWs)   bands (ev):

   -35.0719  -3.1175   3.0351   6.7914  10.6505  13.6370  15.0076  16.7029
    18.7659  19.0601

          k =-0.8763 0.0000 0.2609 (  5948 PWs)   bands (ev):

   -35.0545  -1.2391   4.4035   7.2547   8.4596   8.9294  12.5370  14.1691
    16.9831  20.2336

          k = 0.8763 1.0119-0.0870 (  5952 PWs)   bands (ev):

   -35.0438   2.0838   2.7226   6.7029   7.4765   9.3079  10.0876  12.5873
    14.4028  19.6338

          k = 0.4381 0.7589 0.0000 (  5956 PWs)   bands (ev):

   -35.0545  -1.2995   5.1856   7.1401   7.5530   8.8390  12.1761  13.9100
    18.5024  20.2923

          k =-0.8763 0.5059 0.3478 (  5956 PWs)   bands (ev):

   -35.0504  -0.3053   4.4640   4.9284   8.2942  11.4264  11.8852  14.7091
    17.1992  18.1546

          k = 0.8763 1.5178 0.0000 (  5950 PWs)   bands (ev):

   -35.0438   1.9995   3.0960   6.4699   6.8716   7.8538  13.0368  13.8741
    15.4849  15.9833

          k =-0.0000 0.0000 0.2609 (  5944 PWs)   bands (ev):

   -35.0851  -4.0258   1.8711   6.7372  16.0913  16.0913  16.7880  18.5449
    18.5449  20.7783

          k =-0.4381-0.2530 0.3478 (  5964 PWs)   bands (ev):

   -35.0719  -3.0583   2.4411   8.0164  10.4467  13.8323  15.8672  16.6479
    17.6579  17.7839

          k = 1.3144 0.7589 0.0000 (  5951 PWs)   bands (ev):

   -35.0504  -0.2396   4.0025   4.7650  10.6468  11.5965  12.1360  12.7022
    14.9309  16.3012

          k = 0.8763 0.5059 0.0870 (  5952 PWs)   bands (ev):

   -35.0504  -0.3920   4.3865   6.1656   7.2133  10.7081  12.0609  15.0400
    16.2948  16.6536

          k =-0.4381 0.2530 0.4348 (  5930 PWs)   bands (ev):

   -35.0718  -3.0292   2.2129   8.6854  10.5541  13.5246  15.2265  15.3001
    17.5095  19.9749

          k = 1.3144 1.2648 0.0870 (  5942 PWs)   bands (ev):

   -35.0545  -1.1324   3.6306   7.3425   8.3421  10.7373  13.0942  14.5999
    15.2986  18.3228

          k = 0.8763 1.0119 0.1739 (  5947 PWs)   bands (ev):

   -35.0438   2.0251   2.9511   6.5748   7.0431   8.2897  11.6155  13.5706
    15.2282  17.3521

          k = 1.3144-0.7589-0.2609 (  5961 PWs)   bands (ev):

   -35.0504  -0.2046   4.0836   4.5554   9.6337  11.9231  12.4464  14.2142
    14.7784  17.6380

          k =-0.0000 0.0000 0.5217 (  5941 PWs)   bands (ev):

   -35.0851  -3.9505   1.2335   8.6348  13.9497  16.0034  16.0034  18.3787
    18.3787  21.6726

          k = 1.7526 1.0119 0.1739 (  5953 PWs)   bands (ev):

   -35.0718  -2.9895   1.9520   9.8150  10.2414  13.6271  14.2315  16.2048
    17.1379  18.8113

     the Fermi energy is    10.7756 ev

!    total energy              =     -31.16887239 Ry
     estimated scf accuracy    <          5.3E-10 Ry
     smearing contrib. (-TS)   =      -0.00073807 Ry
     internal energy E=F+TS    =     -31.16813432 Ry

     The total energy is F=E-TS. E is the sum of the following terms:
     one-electron contribution =       3.23537582 Ry
     hartree contribution      =       3.19774216 Ry
     xc contribution           =     -10.04159613 Ry
     ewald contribution        =     -27.55965617 Ry

     convergence has been achieved in   7 iterations

     Forces acting on atoms (cartesian axes, Ry/au):

     atom    1 type  1   force =    -0.00000000   -0.00000000    0.00000000
     atom    2 type  2   force =    -0.00000000    0.00000000   -0.04098631
     atom    3 type  2   force =     0.00000000   -0.00000000    0.04098631
     The non-local contrib.  to forces
     atom    1 type  1   force =    -0.00000000   -0.00000000   -0.00000000
     atom    2 type  2   force =     0.00000000    0.00000000    0.01864575
     atom    3 type  2   force =    -0.00000000   -0.00000000   -0.01864575
     The ionic contribution  to forces
     atom    1 type  1   force =     0.00000000   -0.00000000   -0.00000000
     atom    2 type  2   force =     0.00000000    0.00000000   -0.74521349
     atom    3 type  2   force =     0.00000000   -0.00000000    0.74521349
     The local contribution  to forces
     atom    1 type  1   force =     0.00000000    0.00000000   -0.00000000
     atom    2 type  2   force =    -0.00000000   -0.00000000    0.68131590
     atom    3 type  2   force =     0.00000000    0.00000000   -0.68131590
     The core correction contribution to forces
     atom    1 type  1   force =     0.00000000    0.00000000    0.00000000
     atom    2 type  2   force =    -0.00000000    0.00000000    0.00424620
     atom    3 type  2   force =     0.00000000   -0.00000000   -0.00424620
     The Hubbard contrib.    to forces
     atom    1 type  1   force =     0.00000000    0.00000000    0.00000000
     atom    2 type  2   force =     0.00000000    0.00000000    0.00000000
     atom    3 type  2   force =     0.00000000    0.00000000    0.00000000
     The SCF correction term to forces
     atom    1 type  1   force =    -0.00000000   -0.00000000   -0.00000000
     atom    2 type  2   force =     0.00000000   -0.00000000    0.00001932
     atom    3 type  2   force =    -0.00000000    0.00000000   -0.00001932

     Total force =     0.057963     Total SCF correction =     0.000027


     Computing stress (Cartesian axis) and pressure

          total   stress  (Ry/bohr**3)                   (kbar)     P=      479.71
   0.00271189  -0.00000000  -0.00000000          398.93       -0.00       -0.00
  -0.00000000   0.00271189   0.00000000           -0.00      398.93        0.00
   0.00000000   0.00000000   0.00435924            0.00        0.00      641.27

     Energy error            =      9.0E-03 Ry
     Gradient error          =      4.1E-02 Ry/Bohr
     Cell gradient error     =      1.4E+02 kbar

     number of scf cycles    =   7
     number of bfgs steps    =   6

     enthalpy           old  =     -30.4062386558 Ry
     enthalpy           new  =     -30.4152574624 Ry

     CASE: enthalpy          _new < enthalpy          _old

     new trust radius        =       0.1310431580 bohr
ibrav =      5
 celldm(1) =      9.83793296
 celldm(4) =      0.85978668
Input lattice vectors:
     0.22258664    -0.12851045     0.80040391
    -0.00000000     0.25702091     0.80040391
    -0.22258664    -0.12851045     0.80040391
New lattice vectors in INITIAL alat:
     0.22258664    -0.12851045     0.80040391
     0.00000000     0.25702091     0.80040391
    -0.22258664    -0.12851045     0.80040391
New lattice vectors in NEW alat (for information only):
     0.26477663    -0.15286886     0.95211578
     0.00000000     0.30573771     0.95211578
    -0.26477663    -0.15286886     0.95211578
Discrepancy in bohr =     0.000000    0.000000    0.000000
     new conv_thr            =       0.0000000041 Ry

     new unit-cell volume =    220.16651 a.u.^3 (    32.62531 Ang^3 )
     density =      3.21223 g/cm^3

CELL_PARAMETERS (alat= 11.70265543)
   0.222586636  -0.128510454   0.800403911
   0.000000000   0.257020909   0.800403911
  -0.222586636  -0.128510454   0.800403911

ATOMIC_POSITIONS (crystal)
Li           -0.0000000000        0.0000000000        0.0000000000
Si            0.7794728992        0.7794728992        0.7794728992
Si            0.2205271008        0.2205271008        0.2205271008



     Writing config-only to output data dir ./output/LiSi.save/
     NEW-OLD atomic charge density approx. for the potential
     extrapolated charge   10.92237, renormalised to   11.00000

     total cpu time spent up to now is       46.6 secs

     Self-consistent Calculation

     iteration #  1     ecut=    80.00 Ry     beta= 0.70
     Davidson diagonalization with overlap
     ethr =  1.00E-06,  avg # of iterations =  8.3

     total cpu time spent up to now is       47.7 secs

     total energy              =     -31.18287883 Ry
     estimated scf accuracy    <       0.00407240 Ry

     iteration #  2     ecut=    80.00 Ry     beta= 0.70
     Davidson diagonalization with overlap
     ethr =  3.70E-05,  avg # of iterations =  2.3

     total cpu time spent up to now is       48.4 secs

     total energy              =     -31.18336820 Ry
     estimated scf accuracy    <       0.00735451 Ry

     iteration #  3     ecut=    80.00 Ry     beta= 0.70
     Davidson diagonalization with overlap
     ethr =  3.70E-05,  avg # of iterations =  1.9

     total cpu time spent up to now is       48.8 secs

     total energy              =     -31.18482764 Ry
     estimated scf accuracy    <       0.00002883 Ry

     iteration #  4     ecut=    80.00 Ry     beta= 0.70
     Davidson diagonalization with overlap
     ethr =  2.62E-07,  avg # of iterations =  2.2

     total cpu time spent up to now is       49.3 secs

     total energy              =     -31.18483371 Ry
     estimated scf accuracy    <       0.00000053 Ry

     iteration #  5     ecut=    80.00 Ry     beta= 0.70
     Davidson diagonalization with overlap
     ethr =  4.84E-09,  avg # of iterations =  3.6

     total cpu time spent up to now is       49.8 secs

     total energy              =     -31.18483398 Ry
     estimated scf accuracy    <       0.00000007 Ry

     iteration #  6     ecut=    80.00 Ry     beta= 0.70
     Davidson diagonalization with overlap
     ethr =  6.49E-10,  avg # of iterations =  1.9

     total cpu time spent up to now is       50.2 secs

     End of self-consistent calculation

          k = 0.0000 0.0000 0.0000 (  5953 PWs)   bands (ev):

   -34.7609  -4.3149   1.8972   5.4890  17.1497  17.1497  18.1012  19.3502
    19.3502  20.5932

          k =-0.4493-0.2594 0.0833 (  5956 PWs)   bands (ev):

   -34.7444  -3.3261   2.8231   6.2470  11.0771  14.5749  15.9265  17.2294
    18.6716  19.6323

          k =-0.8985-0.5188 0.1666 (  5952 PWs)   bands (ev):

   -34.7175  -0.3918   4.4289   5.3555   8.6085  10.8600  12.8710  13.9410
    15.6192  16.7571

          k =-0.4493 0.2594 0.1666 (  5953 PWs)   bands (ev):

   -34.7443  -3.3157   2.6632   6.5549  11.1302  14.4293  15.6088  16.9219
    18.3193  19.5109

          k =-0.8985-0.0000 0.2499 (  5948 PWs)   bands (ev):

   -34.7226  -1.3385   4.2642   7.5786   8.5752   9.0205  12.9107  14.2537
[...]
     The local contribution  to forces
     atom    1 type  1   force =    -0.00000000    0.00000000   -0.00000000
     atom    2 type  2   force =    -0.00000000   -0.00000000    0.72240623
     atom    3 type  2   force =     0.00000000    0.00000000   -0.72240623
     The core correction contribution to forces
     atom    1 type  1   force =     0.00000000    0.00000000    0.00000000
     atom    2 type  2   force =    -0.00000000    0.00000000    0.00166868
     atom    3 type  2   force =    -0.00000000   -0.00000000   -0.00166868
     The Hubbard contrib.    to forces
     atom    1 type  1   force =     0.00000000    0.00000000    0.00000000
     atom    2 type  2   force =     0.00000000    0.00000000    0.00000000
     atom    3 type  2   force =     0.00000000    0.00000000    0.00000000
     The SCF correction term to forces
     atom    1 type  1   force =     0.00000000    0.00000000   -0.00000000
     atom    2 type  2   force =     0.00000000    0.00000000   -0.00000669
     atom    3 type  2   force =    -0.00000000   -0.00000000    0.00000669

     Total force =     0.000009     Total SCF correction =     0.000009
     SCF correction compared to forces is large: reduce conv_thr to get better values


     Computing stress (Cartesian axis) and pressure

          total   stress  (Ry/bohr**3)                   (kbar)     P=      499.95
   0.00339910  -0.00000000   0.00000000          500.02       -0.00        0.00
   0.00000000   0.00339910   0.00000000            0.00      500.02        0.00
   0.00000000   0.00000000   0.00339759            0.00        0.00      499.80

     Energy error            =      1.2E-06 Ry
     Gradient error          =      6.4E-06 Ry/Bohr
     Cell gradient error     =      2.0E-01 kbar
ibrav =      5
 celldm(1) =     10.60919792
 celldm(4) =      0.89657259
Input lattice vectors:
     0.20615836    -0.11902559     0.87475062
     0.00000000     0.23805117     0.87475062
    -0.20615836    -0.11902559     0.87475062
New lattice vectors in INITIAL alat:
     0.20615836    -0.11902559     0.87475062
     0.00000000     0.23805117     0.87475062
    -0.20615836    -0.11902559     0.87475062
New lattice vectors in NEW alat (for information only):
     0.22740647    -0.13129319     0.96490849
     0.00000000     0.26258638     0.96490849
    -0.22740647    -0.13129319     0.96490849
Discrepancy in bohr =     0.000000    0.000000    0.000000

     bfgs converged in  15 scf cycles and  14 bfgs steps
     (criteria: energy <  1.0E-04 Ry, force <  1.0E-03 Ry/Bohr, cell <  1.0E+00 kbar)

     End of BFGS Geometry Optimization

     Final enthalpy           =     -30.4864951067 Ry

     File ./output/LiSi.bfgs deleted, as requested
Begin final coordinates
     new unit-cell volume =    206.40967 a.u.^3 (    30.58676 Ang^3 )
     density =      3.42632 g/cm^3

CELL_PARAMETERS (alat= 11.70265543)
   0.206158362  -0.119025586   0.874750625
   0.000000000   0.238051171   0.874750625
  -0.206158362  -0.119025586   0.874750625

ATOMIC_POSITIONS (crystal)
Li           -0.0000000000        0.0000000000        0.0000000000
Si            0.7776070104        0.7776070104        0.7776070104
Si            0.2223929896        0.2223929896        0.2223929896
End final coordinates



     Writing config-only to output data dir ./output/LiSi.save/

     Final scf calculation at the relaxed structure.
     The G-vectors are recalculated for the final unit cell
     Results may differ from those at the preceding step.

     Parallelization info
     --------------------
     sticks:   dense  smooth     PW     G-vecs:    dense   smooth      PW
     Min         158     158     50                 2493     2493     455
     Max         159     159     51                 2494     2494     456
     Sum        1271    1271    407                19949    19949    3645

     Using Slab Decomposition



     bravais-lattice index     =            5
     lattice parameter (alat)  =      11.7027  a.u.
     unit-cell volume          =     206.4097 (a.u.)^3
     number of atoms/cell      =            3
     number of atomic types    =            2
     number of electrons       =        11.00
     number of Kohn-Sham states=           10
     kinetic-energy cutoff     =      80.0000  Ry
     charge density cutoff     =     320.0000  Ry
     scf convergence threshold =      1.0E-10
     mixing beta               =       0.7000
     number of iterations used =            8  plain     mixing
     press convergence thresh. =      1.0E+00
     Exchange-correlation= PBE
                           (   1   4   3   4   0   0   0)

     celldm(1)=  11.702655  celldm(2)=   0.000000  celldm(3)=   0.000000
     celldm(4)=   0.810216  celldm(5)=   0.000000  celldm(6)=   0.000000

     crystal axes: (cart. coord. in units of alat)
               a(1) = (   0.206158  -0.119026   0.874751 )  
               a(2) = (   0.000000   0.238051   0.874751 )  
               a(3) = (  -0.206158  -0.119026   0.874751 )  

     reciprocal axes: (cart. coord. in units 2 pi/alat)
               b(1) = (  2.425320 -1.400259  0.381061 )  
               b(2) = (  0.000000  2.800518  0.381061 )  
               b(3) = ( -2.425320 -1.400259  0.381061 )  


     PseudoPot. # 1 for Li read from file:
     ../pseudo/Li_ONCV_PBE_sr.upf
     MD5 check sum: 50ff420e78310ffa21704f3361e624a4
     Pseudo is Norm-conserving, Zval =  3.0
     Generated using ONCVPSP code by D. R. Hamann
     Using radial grid of 1944 points,  4 beta functions with: 
                l(1) =   0
                l(2) =   0
                l(3) =   1
                l(4) =   1

     PseudoPot. # 2 for Si read from file:
     ../pseudo/Si_ONCV_PBE_sr.upf
     MD5 check sum: e543d271109d17c80368dfa7c482276d
     Pseudo is Norm-conserving + core correction, Zval =  4.0
     Generated using ONCVPSP code by D. R. Hamann
     Using radial grid of 1510 points,  6 beta functions with: 
                l(1) =   0
                l(2) =   0
                l(3) =   1
                l(4) =   1
                l(5) =   2
                l(6) =   2

     atomic species   valence    mass     pseudopotential
        Li             3.00     6.94100     Li( 1.00)
        Si             4.00    28.08550     Si( 1.00)

     12 Sym. Ops., with inversion, found



   Cartesian axes

     site n.     atom                  positions (alat units)
         1           Li  tau(   1) = (  -0.0000000   0.0000000  -0.0000000  )
         2           Si  tau(   2) = (  -0.0000000  -0.0000000   2.0406367  )
         3           Si  tau(   3) = (   0.0000000  -0.0000000   0.5836152  )

     number of k points=    19  Marzari-Vanderbilt smearing, width (Ry)=  0.0200
                       cart. coord. in units 2pi/alat
        k(    1) = (   0.0000000   0.0000000   0.0000000), wk =   0.0160000
        k(    2) = (  -0.4850640  -0.2800518   0.0762122), wk =   0.0960000
        k(    3) = (  -0.9701280  -0.5601037   0.1524244), wk =   0.0960000
        k(    4) = (  -0.4850640   0.2800518   0.1524244), wk =   0.0960000
        k(    5) = (  -0.9701280  -0.0000000   0.2286366), wk =   0.1920000
        k(    6) = (   0.9701280   1.1202073  -0.0762122), wk =   0.1920000
        k(    7) = (   0.4850640   0.8401555   0.0000000), wk =   0.0960000
        k(    8) = (  -0.9701280   0.5601037   0.3048488), wk =   0.0960000
        k(    9) = (   0.9701280   1.6803110   0.0000000), wk =   0.0960000
        k(   10) = (   0.0000000   0.0000000   0.2286366), wk =   0.0320000
        k(   11) = (  -0.4850640  -0.2800518   0.3048488), wk =   0.0960000
        k(   12) = (   1.4551920   0.8401555   0.0000000), wk =   0.0960000
        k(   13) = (   0.9701280   0.5601037   0.0762122), wk =   0.0960000
        k(   14) = (  -0.4850640   0.2800518   0.3810610), wk =   0.0960000
        k(   15) = (   1.4551920   1.4002592   0.0762122), wk =   0.1920000
        k(   16) = (   0.9701280   1.1202073   0.1524244), wk =   0.1920000
        k(   17) = (   1.4551920  -0.8401555  -0.2286366), wk =   0.0960000
        k(   18) = (   0.0000000   0.0000000   0.4572732), wk =   0.0320000
        k(   19) = (   1.9402560   1.1202073   0.1524244), wk =   0.0960000

     Dense  grid:    19949 G-vectors     FFT dimensions: (  64,  64,  64)

     Estimated max dynamical RAM per process >      16.32 MB

     Estimated total dynamical RAM >     130.53 MB

     Initial potential from superposition of free atoms

     starting charge      10.9942, renormalised to      11.0000
     Starting wfcs are   10 randomized atomic wfcs

     total cpu time spent up to now is       87.8 secs

     Self-consistent Calculation

     iteration #  1     ecut=    80.00 Ry     beta= 0.70
     Davidson diagonalization with overlap
     c_bands:  1 eigenvalues not converged
     c_bands:  1 eigenvalues not converged
     c_bands:  1 eigenvalues not converged
     c_bands:  1 eigenvalues not converged
     c_bands:  1 eigenvalues not converged
     c_bands:  1 eigenvalues not converged
     ethr =  1.00E-06,  avg # of iterations = 18.4

     total cpu time spent up to now is       89.0 secs

     total energy              =     -31.18279365 Ry
     estimated scf accuracy    <       0.02079484 Ry

     iteration #  2     ecut=    80.00 Ry     beta= 0.70
     Davidson diagonalization with overlap
     ethr =  1.89E-04,  avg # of iterations =  2.1

     total cpu time spent up to now is       89.3 secs

     total energy              =     -31.18278457 Ry
     estimated scf accuracy    <       0.02114457 Ry

     iteration #  3     ecut=    80.00 Ry     beta= 0.70
     Davidson diagonalization with overlap
     ethr =  1.89E-04,  avg # of iterations =  1.8

     total cpu time spent up to now is       89.5 secs

     total energy              =     -31.18787606 Ry
     estimated scf accuracy    <       0.00114881 Ry

     iteration #  4     ecut=    80.00 Ry     beta= 0.70
     Davidson diagonalization with overlap
     ethr =  1.04E-05,  avg # of iterations =  1.7

     total cpu time spent up to now is       89.8 secs

     total energy              =     -31.18799182 Ry
     estimated scf accuracy    <       0.00003227 Ry

     iteration #  5     ecut=    80.00 Ry     beta= 0.70
     Davidson diagonalization with overlap
     ethr =  2.93E-07,  avg # of iterations =  2.6

     total cpu time spent up to now is       90.1 secs

     total energy              =     -31.18800592 Ry
     estimated scf accuracy    <       0.00000222 Ry

     iteration #  6     ecut=    80.00 Ry     beta= 0.70
     Davidson diagonalization with overlap
     ethr =  2.02E-08,  avg # of iterations =  1.9

     total cpu time spent up to now is       90.4 secs

     total energy              =     -31.18800638 Ry
     estimated scf accuracy    <       0.00000002 Ry

     iteration #  7     ecut=    80.00 Ry     beta= 0.70
     Davidson diagonalization with overlap
     ethr =  1.61E-10,  avg # of iterations =  3.6

     total cpu time spent up to now is       90.7 secs

     total energy              =     -31.18800639 Ry
     estimated scf accuracy    <          8.9E-10 Ry

     iteration #  8     ecut=    80.00 Ry     beta= 0.70
     Davidson diagonalization with overlap
     ethr =  8.06E-12,  avg # of iterations =  2.0

     total cpu time spent up to now is       91.0 secs

     total energy              =     -31.18800640 Ry
     estimated scf accuracy    <          2.4E-10 Ry

     iteration #  9     ecut=    80.00 Ry     beta= 0.70
     Davidson diagonalization with overlap
     ethr =  2.17E-12,  avg # of iterations =  1.7

     total cpu time spent up to now is       91.2 secs

     End of self-consistent calculation

          k = 0.0000 0.0000 0.0000 (  2471 PWs)   bands (ev):

   -34.1887  -3.9266   1.0200   5.2068  15.5409  18.1838  21.9146  21.9146
    23.0348  23.0348

          k =-0.4851-0.2801 0.0762 (  2486 PWs)   bands (ev):

   -34.1552  -2.7665   2.1569   6.1107  13.9202  15.9952  18.2124  18.4212
    19.4505  21.7010

          k =-0.9701-0.5601 0.1524 (  2494 PWs)   bands (ev):

   -34.1009   0.6743   5.3148   6.3186   8.9392  11.2437  14.6568  16.4326
    17.6420  19.5547

          k =-0.4851 0.2801 0.1524 (  2491 PWs)   bands (ev):

   -34.1552  -2.7612   2.0863   6.2889  13.8421  15.7954  17.3115  18.3010
    20.0424  22.3354

          k =-0.9701-0.0000 0.2286 (  2491 PWs)   bands (ev):

   -34.1113  -0.4497   4.1762   8.2609  10.6855  11.0161  14.3999  14.9762
    17.3122  19.4635

          k = 0.9701 1.1202-0.0762 (  2489 PWs)   bands (ev):

   -34.0841   3.9449   4.1495   7.8571   9.0552  10.0191  11.6285  12.7750
    14.7472  19.8030

          k = 0.4851 0.8402 0.0000 (  2513 PWs)   bands (ev):

   -34.1113  -0.4747   4.4597   7.6477  10.7034  11.1012  14.1386  15.2515
    19.2198  19.6193

          k =-0.9701 0.5601 0.3048 (  2503 PWs)   bands (ev):

   -34.1009   0.7039   5.0026   6.4986   9.1240  11.2081  16.0942  16.2203
    16.7634  18.4970

          k = 0.9701 1.6803 0.0000 (  2505 PWs)   bands (ev):

   -34.0841   3.8836   4.3353   7.4929   8.7602   9.6466  12.5038  14.6971
    15.2884  16.5979

          k = 0.0000 0.0000 0.2286 (  2480 PWs)   bands (ev):

   -34.1887  -3.9164   0.8668   5.6605  13.7401  20.3984  21.8606  21.8606
    23.0422  23.0422

          k =-0.4851-0.2801 0.3048 (  2490 PWs)   bands (ev):

   -34.1552  -2.7432   1.8793   6.9140  13.0033  14.7809  18.4177  18.8040
    21.0033  21.7220

          k = 1.4552 0.8402 0.0000 (  2483 PWs)   bands (ev):

   -34.1009   0.7252   4.9201   6.1941  10.4722  11.3408  13.2901  16.3720
    16.7084  19.8174

          k = 0.9701 0.5601 0.0762 (  2498 PWs)   bands (ev):

   -34.1009   0.6620   5.3273   6.7442   8.1429  11.1601  16.2524  16.3274
    17.7590  19.0409

          k =-0.4851 0.2801 0.3811 (  2485 PWs)   bands (ev):

   -34.1552  -2.7344   1.7871   7.2584  12.5842  14.7361  17.9092  18.2326
    20.5354  22.9735

          k = 1.4552 1.4003 0.0762 (  2493 PWs)   bands (ev):

   -34.1113  -0.4072   3.8144   9.4859  10.4319  10.8986  14.3408  14.8586
    15.9092  19.3621

          k = 0.9701 1.1202 0.1524 (  2502 PWs)   bands (ev):

   -34.0841   3.9037   4.2637   7.6521   8.8084   9.8227  11.9944  14.4052
    14.5727  17.6120

          k = 1.4552-0.8402-0.2286 (  2496 PWs)   bands (ev):

   -34.1009   0.7447   4.7637   6.2812  10.5859  11.2876  13.7703  16.2439
    16.3006  19.8330

          k = 0.0000 0.0000 0.4573 (  2453 PWs)   bands (ev):

   -34.1887  -3.8996   0.6511   6.5186  11.8944  21.7867  21.7867  23.0223
    23.0223  23.3964

          k = 1.9403 1.1202 0.1524 (  2498 PWs)   bands (ev):

   -34.1552  -2.7229   1.6794   7.7735  11.8218  14.5786  18.2963  18.5547
    20.5665  22.3853

     the Fermi energy is    11.6112 ev

!    total energy              =     -31.18800640 Ry
     estimated scf accuracy    <          3.2E-12 Ry
     smearing contrib. (-TS)   =       0.00116840 Ry
     internal energy E=F+TS    =     -31.18917480 Ry

     The total energy is F=E-TS. E is the sum of the following terms:
     one-electron contribution =       4.39366793 Ry
     hartree contribution      =       3.04383110 Ry
     xc contribution           =     -10.15165803 Ry
     ewald contribution        =     -28.47501580 Ry

     convergence has been achieved in   9 iterations

     Forces acting on atoms (cartesian axes, Ry/au):

     atom    1 type  1   force =    -0.00000000    0.00000000    0.00000000
     atom    2 type  2   force =     0.00000000   -0.00000000   -0.00000707
     atom    3 type  2   force =    -0.00000000    0.00000000    0.00000707
     The non-local contrib.  to forces
     atom    1 type  1   force =    -0.00000000    0.00000000    0.00000000
     atom    2 type  2   force =     0.00000000    0.00000000    0.04255437
     atom    3 type  2   force =    -0.00000000    0.00000000   -0.04255437
     The ionic contribution  to forces
     atom    1 type  1   force =     0.00000000   -0.00000000    0.00000000
     atom    2 type  2   force =     0.00000000    0.00000000   -0.76662773
     atom    3 type  2   force =    -0.00000000   -0.00000000    0.76662773
     The local contribution  to forces
     atom    1 type  1   force =     0.00000000    0.00000000   -0.00000000
     atom    2 type  2   force =    -0.00000000   -0.00000000    0.72239816
     atom    3 type  2   force =     0.00000000    0.00000000   -0.72239816
     The core correction contribution to forces
     atom    1 type  1   force =     0.00000000    0.00000000    0.00000000
     atom    2 type  2   force =    -0.00000000    0.00000000    0.00166968
     atom    3 type  2   force =     0.00000000   -0.00000000   -0.00166968
     The Hubbard contrib.    to forces
     atom    1 type  1   force =     0.00000000    0.00000000    0.00000000
     atom    2 type  2   force =     0.00000000    0.00000000    0.00000000
     atom    3 type  2   force =     0.00000000    0.00000000    0.00000000
     The SCF correction term to forces
     atom    1 type  1   force =     0.00000000    0.00000000    0.00000000
     atom    2 type  2   force =     0.00000000    0.00000000   -0.00000156
     atom    3 type  2   force =    -0.00000000   -0.00000000    0.00000156

     Total force =     0.000010     Total SCF correction =     0.000002
     SCF correction compared to forces is large: reduce conv_thr to get better values


     Computing stress (Cartesian axis) and pressure

          total   stress  (Ry/bohr**3)                   (kbar)     P=      499.97
   0.00339939   0.00000000   0.00000000          500.07        0.00        0.00
   0.00000000   0.00339939   0.00000000            0.00      500.07        0.00
   0.00000000   0.00000000   0.00339749            0.00        0.00      499.79


     Writing all to output data dir ./output/LiSi.save/

     init_run     :      1.56s CPU      1.92s WALL (       2 calls)
     electrons    :     57.75s CPU     65.31s WALL (      16 calls)
     update_pot   :      6.91s CPU      7.04s WALL (      14 calls)
     forces       :      4.12s CPU      4.18s WALL (      16 calls)
     stress       :     11.73s CPU     12.56s WALL (      16 calls)

     Called by init_run:
     wfcinit      :      0.34s CPU      0.49s WALL (       2 calls)
     potinit      :      0.36s CPU      0.47s WALL (       2 calls)
     hinit0       :      0.82s CPU      0.90s WALL (       2 calls)

     Called by electrons:
     c_bands      :     47.80s CPU     53.72s WALL (     113 calls)
     sum_band     :      7.27s CPU      8.30s WALL (     113 calls)
     v_of_rho     :      2.89s CPU      3.46s WALL (     126 calls)
     mix_rho      :      0.13s CPU      0.15s WALL (     113 calls)

     Called by c_bands:
     init_us_2    :      0.82s CPU      0.94s WALL (    4940 calls)
     init_us_2:cp :      0.81s CPU      0.93s WALL (    4940 calls)
     cegterg      :     45.93s CPU     50.78s WALL (    2147 calls)

     Called by *egterg:
     cdiaghg      :      1.06s CPU      1.15s WALL (    9173 calls)
     h_psi        :     43.10s CPU     47.84s WALL (    9534 calls)
     g_psi        :      0.11s CPU      0.11s WALL (    7349 calls)

     Called by h_psi:
     h_psi:calbec :      1.05s CPU      1.19s WALL (    9534 calls)
     vloc_psi     :     41.12s CPU     45.62s WALL (    9534 calls)
     add_vuspsi   :      0.84s CPU      0.93s WALL (    9534 calls)

     General routines
     calbec       :      1.28s CPU      1.42s WALL (   11054 calls)
     fft          :      1.86s CPU      2.59s WALL (    1661 calls)
     ffts         :      0.10s CPU      0.16s WALL (     113 calls)
     fftw         :     41.57s CPU     46.18s WALL (  152846 calls)

     Parallel routines

     PWSCF        :   1m22.35s CPU   1m31.79s WALL


   This run was terminated on:  13:20:20  27Dec2024            

=------------------------------------------------------------------------------=
   JOB DONE.
=------------------------------------------------------------------------------=
