
     Program PWSCF v.7.2 starts on 27Dec2024 at 14:48:35 

     This program is part of the open-source Quantum ESPRESSO suite
     for quantum simulation of materials; please cite
         "P. Giannozzi et al., J. Phys.:Condens. Matter 21 395502 (2009);
         "P. Giannozzi et al., J. Phys.:Condens. Matter 29 465901 (2017);
         "P. Giannozzi et al., J. Chem. Phys. 152 154105 (2020);
          URL http://www.quantum-espresso.org", 
     in publications or presentations arising from this work. More details at
     http://www.quantum-espresso.org/quote

     Parallel version (MPI & OpenMP), running on       8 processor cores
     Number of MPI processes:                 8
     Threads/MPI process:                     1

     MPI processes distributed on     1 nodes
     481797 MiB available memory on the printing compute node when the environment starts

     Waiting for input...
     Reading input from standard input

     Current dimensions of program PWSCF are:
     Max number of different atomic species (ntypx) = 10
     Max number of k-points (npk) =  40000
     Max angular momentum in pseudopotentials (lmaxx) =  4

     R & G space division:  proc/nbgrp/npool/nimage =       8
     Subspace diagonalization in iterative solution of the eigenvalue problem:
     a serial algorithm will be used


     Parallelization info
     --------------------
     sticks:   dense  smooth     PW     G-vecs:    dense   smooth      PW
     Min         196     196     58                 4279     4279     700
     Max         197     197     59                 4282     4282     702
     Sum        1573    1573    471                34239    34239    5613

     Using Slab Decomposition



     bravais-lattice index     =            5
     lattice parameter (alat)  =       9.7015  a.u.
     unit-cell volume          =     353.7805 (a.u.)^3
     number of atoms/cell      =            6
     number of atomic types    =            2
     number of electrons       =        20.00
     number of Kohn-Sham states=           14
     kinetic-energy cutoff     =      80.0000  Ry
     charge density cutoff     =     320.0000  Ry
     scf convergence threshold =      1.0E-08
     mixing beta               =       0.7000
     number of iterations used =            8  plain     mixing
     energy convergence thresh.=      1.0E-04
     force convergence thresh. =      1.0E-03
     press convergence thresh. =      1.0E+00
     Exchange-correlation= PBE
                           (   1   4   3   4   0   0   0)
     nstep                     =           50


     celldm(1)=   9.701460  celldm(2)=   0.000000  celldm(3)=   0.000000
     celldm(4)=   0.755487  celldm(5)=   0.000000  celldm(6)=   0.000000

     crystal axes: (cart. coord. in units of alat)
               a(1) = (   0.349652  -0.201872   0.914872 )  
               a(2) = (   0.000000   0.403743   0.914872 )  
               a(3) = (  -0.349652  -0.201872   0.914872 )  

     reciprocal axes: (cart. coord. in units 2 pi/alat)
               b(1) = (  1.429994 -0.825608  0.364350 )  
               b(2) = ( -0.000000  1.651215  0.364350 )  
               b(3) = ( -1.429994 -0.825608  0.364350 )  


     PseudoPot. # 1 for Li read from file:
     ../pseudo/Li_ONCV_PBE_sr.upf
     MD5 check sum: 50ff420e78310ffa21704f3361e624a4
     Pseudo is Norm-conserving, Zval =  3.0
     Generated using ONCVPSP code by D. R. Hamann
     Using radial grid of 1944 points,  4 beta functions with: 
                l(1) =   0
                l(2) =   0
                l(3) =   1
                l(4) =   1

     PseudoPot. # 2 for Si read from file:
     ../pseudo/Si_ONCV_PBE_sr.upf
     MD5 check sum: e543d271109d17c80368dfa7c482276d
     Pseudo is Norm-conserving + core correction, Zval =  4.0
     Generated using ONCVPSP code by D. R. Hamann
     Using radial grid of 1510 points,  6 beta functions with: 
                l(1) =   0
                l(2) =   0
                l(3) =   1
                l(4) =   1
                l(5) =   2
                l(6) =   2

     atomic species   valence    mass     pseudopotential
        Li             3.00     6.94100     Li( 1.00)
        Si             4.00    28.08550     Si( 1.00)

     12 Sym. Ops., with inversion, found



   Cartesian axes

     site n.     atom                  positions (alat units)
         1           Li  tau(   1) = (   0.0000000  -0.0000000   0.3759993  )
         2           Li  tau(   2) = (  -0.0000000  -0.0000000   2.3686180  )
         3           Li  tau(   3) = (   0.0000000  -0.0000000   0.8400720  )
         4           Li  tau(   4) = (  -0.0000000  -0.0000000   1.9045453  )
         5           Si  tau(   5) = (  -0.0000000  -0.0000000   1.2408566  )
         6           Si  tau(   6) = (  -0.0000000  -0.0000000   1.5037607  )

     number of k points=    19  Marzari-Vanderbilt smearing, width (Ry)=  0.0200
                       cart. coord. in units 2pi/alat
        k(    1) = (   0.0000000   0.0000000   0.0000000), wk =   0.0160000
        k(    2) = (  -0.2859989  -0.1651215   0.0728699), wk =   0.0960000
        k(    3) = (  -0.5719978  -0.3302431   0.1457398), wk =   0.0960000
        k(    4) = (  -0.2859989   0.1651215   0.1457398), wk =   0.0960000
        k(    5) = (  -0.5719978  -0.0000000   0.2186097), wk =   0.1920000
        k(    6) = (   0.5719978   0.6604861  -0.0728699), wk =   0.1920000
        k(    7) = (   0.2859989   0.4953646   0.0000000), wk =   0.0960000
        k(    8) = (  -0.5719978   0.3302431   0.2914796), wk =   0.0960000
        k(    9) = (   0.5719978   0.9907292   0.0000000), wk =   0.0960000
        k(   10) = (  -0.0000000  -0.0000000   0.2186097), wk =   0.0320000
        k(   11) = (  -0.2859989  -0.1651215   0.2914796), wk =   0.0960000
        k(   12) = (   0.8579966   0.4953646   0.0000000), wk =   0.0960000
        k(   13) = (   0.5719978   0.3302431   0.0728699), wk =   0.0960000
        k(   14) = (  -0.2859989   0.1651215   0.3643495), wk =   0.0960000
        k(   15) = (   0.8579966   0.8256077   0.0728699), wk =   0.1920000
        k(   16) = (   0.5719978   0.6604861   0.1457398), wk =   0.1920000
        k(   17) = (   0.8579966  -0.4953646  -0.2186097), wk =   0.0960000
        k(   18) = (  -0.0000000  -0.0000000   0.4372194), wk =   0.0320000
        k(   19) = (   1.1439955   0.6604861   0.1457398), wk =   0.0960000

     Dense  grid:    34239 G-vectors     FFT dimensions: (  60,  60,  60)

     Estimated max dynamical RAM per process >      18.72 MB

     Estimated total dynamical RAM >     149.76 MB

     Initial potential from superposition of free atoms

     starting charge      19.9805, renormalised to      20.0000
     Starting wfcs are   16 randomized atomic wfcs

     total cpu time spent up to now is        1.3 secs

     Self-consistent Calculation

     iteration #  1     ecut=    80.00 Ry     beta= 0.70
     Davidson diagonalization with overlap
     ethr =  1.00E-02,  avg # of iterations =  6.7

     total cpu time spent up to now is        2.5 secs

     total energy              =     -72.75678723 Ry
     estimated scf accuracy    <       0.50554235 Ry

     iteration #  2     ecut=    80.00 Ry     beta= 0.70
     Davidson diagonalization with overlap
     ethr =  2.53E-03,  avg # of iterations =  2.7

     total cpu time spent up to now is        3.2 secs

     total energy              =     -72.88943513 Ry
     estimated scf accuracy    <       0.25673364 Ry

     iteration #  3     ecut=    80.00 Ry     beta= 0.70
     Davidson diagonalization with overlap
     ethr =  1.28E-03,  avg # of iterations =  2.2

     total cpu time spent up to now is        3.8 secs

     total energy              =     -72.94451935 Ry
     estimated scf accuracy    <       0.00223045 Ry

     iteration #  4     ecut=    80.00 Ry     beta= 0.70
     Davidson diagonalization with overlap
     ethr =  1.12E-05,  avg # of iterations =  5.4

     total cpu time spent up to now is        4.5 secs

     total energy              =     -72.94535647 Ry
     estimated scf accuracy    <       0.00037876 Ry

     iteration #  5     ecut=    80.00 Ry     beta= 0.70
     Davidson diagonalization with overlap
     ethr =  1.89E-06,  avg # of iterations =  3.8

     total cpu time spent up to now is        5.1 secs

     total energy              =     -72.94540601 Ry
     estimated scf accuracy    <       0.00000418 Ry

     iteration #  6     ecut=    80.00 Ry     beta= 0.70
     Davidson diagonalization with overlap
     ethr =  2.09E-08,  avg # of iterations =  3.7

     total cpu time spent up to now is        5.6 secs

     total energy              =     -72.94540791 Ry
     estimated scf accuracy    <       0.00000028 Ry

     iteration #  7     ecut=    80.00 Ry     beta= 0.70
     Davidson diagonalization with overlap
     ethr =  1.41E-09,  avg # of iterations =  2.1

     total cpu time spent up to now is        6.1 secs

     End of self-consistent calculation

          k = 0.0000 0.0000 0.0000 (  4303 PWs)   bands (ev):

   -37.4420 -37.1901 -36.4645 -36.2229  -3.4854   2.5277   5.2780   5.7776
     5.7776  10.2331  10.2331  12.0150  12.0150  13.3351

          k =-0.2860-0.1651 0.0729 (  4271 PWs)   bands (ev):

   -37.4189 -37.2098 -36.4443 -36.2428  -3.3014   2.8265   4.2021   4.9812
     5.8305   9.7602  10.6775  11.4876  12.1271  13.8511

          k =-0.5720-0.3302 0.1457 (  4288 PWs)   bands (ev):

   -37.3668 -37.2565 -36.3975 -36.2890  -2.9275   2.4926   3.5417   4.1634
     7.0111   7.6861   9.5531  10.8402  12.0784  15.0455

          k =-0.2860 0.1651 0.1457 (  4261 PWs)   bands (ev):

   -37.4187 -37.2098 -36.4446 -36.2427  -3.2971   2.6630   4.3793   4.8711
     5.9691   9.4168  11.2393  11.5202  12.1767  13.8312

          k =-0.5720-0.0000 0.2186 (  4287 PWs)   bands (ev):

   -37.3794 -37.2447 -36.4092 -36.2776  -3.0052   2.9996   3.2141   3.9596
     6.7520   8.3025   9.6676  12.3081  13.1024  13.5036

          k = 0.5720 0.6605-0.0729 (  4274 PWs)   bands (ev):

   -37.3363 -37.2852 -36.3687 -36.3177  -2.7876   2.3981   3.3110   3.9487
     7.1975   7.4855   8.3339  11.7932  13.3728  15.6986

          k = 0.2860 0.4954 0.0000 (  4270 PWs)   bands (ev):

   -37.3798 -37.2446 -36.4085 -36.2780  -3.0153   3.0906   3.3658   4.0903
     6.2250   8.5718   8.7196  12.8489  13.1658  14.0113

          k =-0.5720 0.3302 0.2915 (  4266 PWs)   bands (ev):

   -37.3665 -37.2565 -36.3972 -36.2896  -2.9263   2.5237   3.6428   3.9445
     5.9952   8.0073  11.6570  11.7773  13.2206  13.7151

          k = 0.5720 0.9907 0.0000 (  4280 PWs)   bands (ev):

   -37.3361 -37.2853 -36.3682 -36.3184  -2.7862   2.5000   3.1593   3.9803
     5.8982   8.1778  10.1652  11.6843  13.9948  14.0255

          k =-0.0000-0.0000 0.2186 (  4288 PWs)   bands (ev):

   -37.4413 -37.1903 -36.4658 -36.2222  -3.4678   2.0966   5.7413   5.7413
     6.1206  10.2069  10.2069  12.2483  12.2483  13.2482

          k =-0.2860-0.1651 0.2915 (  4278 PWs)   bands (ev):

   -37.4181 -37.2099 -36.4460 -36.2418  -3.2778   2.2809   4.1641   4.9715
     6.9780  10.2976  10.7238  11.4518  12.0806  13.1345

          k = 0.8580 0.4954 0.0000 (  4285 PWs)   bands (ev):

   -37.3664 -37.2565 -36.3983 -36.2886  -2.9161   2.5103   3.1833   4.1023
     7.6143   7.9523   9.9162  10.5154  12.3864  14.8892

          k = 0.5720 0.3302 0.0729 (  4269 PWs)   bands (ev):

   -37.3668 -37.2565 -36.3969 -36.2897  -2.9338   2.5248   3.8358   4.0579
     6.1870   7.4561  10.2414  11.6042  12.9101  15.0921

          k =-0.2860 0.1651 0.3643 (  4289 PWs)   bands (ev):

   -37.4178 -37.2100 -36.4464 -36.2416  -3.2706   2.1232   4.3502   4.7997
     7.2220   9.7179  10.9817  11.8933  13.1197  13.5238

          k = 0.8580 0.8256 0.0729 (  4277 PWs)   bands (ev):

   -37.3789 -37.2448 -36.4103 -36.2769  -2.9885   2.7416   3.1440   3.8043
     7.6759   8.3244  10.6637  11.5855  13.1945  13.4726

          k = 0.5720 0.6605 0.1457 (  4260 PWs)   bands (ev):

   -37.3362 -37.2853 -36.3684 -36.3181  -2.7867   2.4649   3.2180   3.9295
     6.3605   7.8629   9.3060  12.2311  13.7813  14.3457

          k = 0.8580-0.4954-0.2186 (  4269 PWs)   bands (ev):

   -37.3662 -37.2566 -36.3981 -36.2889  -2.9154   2.5227   3.2282   3.9691
     6.7208   8.3166  11.2081  11.3118  13.3909  14.0441

          k =-0.0000-0.0000 0.4372 (  4289 PWs)   bands (ev):

   -37.4401 -37.1906 -36.4680 -36.2210  -3.4382   1.6153   5.6859   5.6859
     7.5181  10.0991  10.0991  12.6524  13.2443  13.2443

          k = 1.1440 0.6605 0.1457 (  4287 PWs)   bands (ev):

   -37.4174 -37.2101 -36.4473 -36.2411  -3.2583   1.9510   4.2271   4.8570
     7.9494  10.4511  10.6650  11.4139  12.5001  13.5361

     the Fermi energy is     9.4857 ev

!    total energy              =     -72.94540795 Ry
     estimated scf accuracy    <          6.5E-09 Ry
     smearing contrib. (-TS)   =      -0.00112865 Ry
     internal energy E=F+TS    =     -72.94427931 Ry

     The total energy is F=E-TS. E is the sum of the following terms:
     one-electron contribution =     -19.71507578 Ry
     hartree contribution      =      13.50361427 Ry
     xc contribution           =     -21.12543453 Ry
     ewald contribution        =     -45.60738326 Ry

     convergence has been achieved in   7 iterations

     Forces acting on atoms (cartesian axes, Ry/au):

     atom    1 type  1   force =    -0.00000000   -0.00000000   -0.01217234
     atom    2 type  1   force =     0.00000000   -0.00000000    0.01217234
     atom    3 type  1   force =     0.00000000   -0.00000000   -0.07213849
     atom    4 type  1   force =    -0.00000000    0.00000000    0.07213849
     atom    5 type  2   force =    -0.00000000   -0.00000000   -2.57929672
     atom    6 type  2   force =     0.00000000    0.00000000    2.57929672
     The non-local contrib.  to forces
     atom    1 type  1   force =    -0.00000000    0.00000000    0.02494098
     atom    2 type  1   force =     0.00000000    0.00000000   -0.02494098
     atom    3 type  1   force =    -0.00000000    0.00000000   -0.05094757
     atom    4 type  1   force =    -0.00000000    0.00000000    0.05094757
     atom    5 type  2   force =     0.00000000   -0.00000000   -1.20588261
     atom    6 type  2   force =     0.00000000   -0.00000000    1.20588261
     The ionic contribution  to forces
     atom    1 type  1   force =    -0.00000000    0.00000000   -0.97150779
     atom    2 type  1   force =    -0.00000000   -0.00000000    0.97150779
     atom    3 type  1   force =     0.00000000    0.00000000    0.19238870
     atom    4 type  1   force =     0.00000000   -0.00000000   -0.19238870
     atom    5 type  2   force =    -0.00000000    0.00000000   -4.22111776
     atom    6 type  2   force =     0.00000000   -0.00000000    4.22111776
     The local contribution  to forces
     atom    1 type  1   force =    -0.00000000   -0.00000000    0.93439179
     atom    2 type  1   force =     0.00000000    0.00000000   -0.93439179
     atom    3 type  1   force =     0.00000000   -0.00000000   -0.21352567
     atom    4 type  1   force =    -0.00000000    0.00000000    0.21352567
     atom    5 type  2   force =    -0.00000000    0.00000000    2.77062671
     atom    6 type  2   force =     0.00000000   -0.00000000   -2.77062671
     The core correction contribution to forces
     atom    1 type  1   force =     0.00000000    0.00000000    0.00000000
     atom    2 type  1   force =     0.00000000    0.00000000    0.00000000
     atom    3 type  1   force =     0.00000000    0.00000000    0.00000000
     atom    4 type  1   force =     0.00000000    0.00000000    0.00000000
     atom    5 type  2   force =     0.00000000   -0.00000000    0.07702360
     atom    6 type  2   force =     0.00000000    0.00000000   -0.07702360
     The Hubbard contrib.    to forces
     atom    1 type  1   force =     0.00000000    0.00000000    0.00000000
     atom    2 type  1   force =     0.00000000    0.00000000    0.00000000
     atom    3 type  1   force =     0.00000000    0.00000000    0.00000000
     atom    4 type  1   force =     0.00000000    0.00000000    0.00000000
     atom    5 type  2   force =     0.00000000    0.00000000    0.00000000
     atom    6 type  2   force =     0.00000000    0.00000000    0.00000000
     The SCF correction term to forces
     atom    1 type  1   force =    -0.00000000   -0.00000000    0.00000268
     atom    2 type  1   force =    -0.00000000    0.00000000   -0.00000268
     atom    3 type  1   force =     0.00000000    0.00000000   -0.00005395
     atom    4 type  1   force =    -0.00000000   -0.00000000    0.00005395
     atom    5 type  2   force =    -0.00000000    0.00000000    0.00005334
     atom    6 type  2   force =     0.00000000   -0.00000000   -0.00005334

     Total force =     3.649143     Total SCF correction =     0.000107


     Computing stress (Cartesian axis) and pressure

          total   stress  (Ry/bohr**3)                   (kbar)     P=     1502.06
   0.00365183  -0.00000000  -0.00000000          537.20       -0.00       -0.00
  -0.00000000   0.00365183   0.00000000           -0.00      537.20        0.00
  -0.00000000   0.00000000   0.02332882           -0.00        0.00     3431.79


     BFGS Geometry Optimization
     Energy error            =      0.0E+00 Ry
     Gradient error          =      2.6E+00 Ry/Bohr
     Cell gradient error     =      2.9E+03 kbar

     number of scf cycles    =   1
     number of bfgs steps    =   0

     enthalpy           new  =     -71.7429325937 Ry

     new trust radius        =       0.5000000000 bohr
ibrav =      5
 celldm(1) =     10.49324546
 celldm(4) =      0.79048275
Input lattice vectors:
     0.35008025    -0.20211893     1.00323618
    -0.00000000     0.40423785     1.00323618
    -0.35008025    -0.20211893     1.00323618
New lattice vectors in INITIAL alat:
     0.35008025    -0.20211893     1.00323618
     0.00000000     0.40423785     1.00323618
    -0.35008025    -0.20211893     1.00323618
New lattice vectors in NEW alat (for information only):
     0.32366437    -0.18686771     0.92753535
     0.00000000     0.37373542     0.92753535
    -0.32366437    -0.18686771     0.92753535
Discrepancy in bohr =     0.000000    0.000000    0.000000
     new conv_thr            =       0.0000000100 Ry

     new unit-cell volume =    388.90218 a.u.^3 (    57.62936 Ang^3 )
     density =      2.41851 g/cm^3

CELL_PARAMETERS (alat=  9.70146046)
   0.350080248  -0.202118925   1.003236181
   0.000000000   0.404237851   1.003236181
  -0.350080248  -0.202118925   1.003236181

ATOMIC_POSITIONS (crystal)
Li            0.1369065516        0.1369065516        0.1369065516
Li            0.8630934484        0.8630934484        0.8630934484
Li            0.3055546395        0.3055546395        0.3055546395
Li            0.6944453605        0.6944453605        0.6944453605
Si            0.4333274241        0.4333274241        0.4333274241
Si            0.5666725759        0.5666725759        0.5666725759



     Writing config-only to output data dir ./output/LiSi.save/
     NEW-OLD atomic charge density approx. for the potential
     extrapolated charge   21.80444, renormalised to   20.00000

     total cpu time spent up to now is        7.6 secs

     Self-consistent Calculation

     iteration #  1     ecut=    80.00 Ry     beta= 0.70
     Davidson diagonalization with overlap
     c_bands:  2 eigenvalues not converged
     ethr =  1.00E-06,  avg # of iterations = 13.8

     total cpu time spent up to now is        9.3 secs

     total energy              =     -73.97791075 Ry
     estimated scf accuracy    <       0.45286000 Ry

     iteration #  2     ecut=    80.00 Ry     beta= 0.70
     Davidson diagonalization with overlap
     ethr =  2.26E-03,  avg # of iterations =  3.0

     total cpu time spent up to now is        9.9 secs

     total energy              =     -74.16710253 Ry
     estimated scf accuracy    <       0.88288240 Ry

     iteration #  3     ecut=    80.00 Ry     beta= 0.70
     Davidson diagonalization with overlap
     ethr =  2.26E-03,  avg # of iterations =  2.0

     total cpu time spent up to now is       10.4 secs

     total energy              =     -74.27320616 Ry
     estimated scf accuracy    <       0.02842621 Ry

     iteration #  4     ecut=    80.00 Ry     beta= 0.70
     Davidson diagonalization with overlap
     ethr =  1.42E-04,  avg # of iterations =  3.1

     total cpu time spent up to now is       10.9 secs

     total energy              =     -74.28136465 Ry
     estimated scf accuracy    <       0.00090676 Ry

     iteration #  5     ecut=    80.00 Ry     beta= 0.70
     Davidson diagonalization with overlap
     ethr =  4.53E-06,  avg # of iterations =  3.8

     total cpu time spent up to now is       11.5 secs

     total energy              =     -74.28166599 Ry
     estimated scf accuracy    <       0.00034554 Ry

     iteration #  6     ecut=    80.00 Ry     beta= 0.70
     Davidson diagonalization with overlap
     ethr =  1.73E-06,  avg # of iterations =  2.1

     total cpu time spent up to now is       12.0 secs

     total energy              =     -74.28171824 Ry
     estimated scf accuracy    <       0.00000317 Ry

     iteration #  7     ecut=    80.00 Ry     beta= 0.70
     Davidson diagonalization with overlap
     ethr =  1.58E-08,  avg # of iterations =  3.9

     total cpu time spent up to now is       12.5 secs

     total energy              =     -74.28172033 Ry
     estimated scf accuracy    <       0.00000055 Ry

     iteration #  8     ecut=    80.00 Ry     beta= 0.70
     Davidson diagonalization with overlap
     ethr =  2.76E-09,  avg # of iterations =  1.4

     total cpu time spent up to now is       13.0 secs

     total energy              =     -74.28172033 Ry
     estimated scf accuracy    <       0.00000010 Ry

     iteration #  9     ecut=    80.00 Ry     beta= 0.70
     Davidson diagonalization with overlap
     ethr =  5.15E-10,  avg # of iterations =  2.0

     total cpu time spent up to now is       13.5 secs

     End of self-consistent calculation

          k = 0.0000 0.0000 0.0000 (  4303 PWs)   bands (ev):

   -37.7584 -37.6816 -37.5186 -37.4927  -2.9785   0.8291   3.4659   7.8011
     7.8011   9.9423   9.9423  11.0830  11.0830  12.3133

          k =-0.2856-0.1649 0.0665 (  4271 PWs)   bands (ev):

   -37.7339 -37.6686 -37.5317 -37.5135  -2.7223   1.1490   3.7492   5.6586
     6.7039   8.2416   8.9291  11.4873  12.4570  13.0441

          k =-0.5713-0.3298 0.1329 (  4288 PWs)   bands (ev):

   -37.6748 -37.6431 -37.5659 -37.5580  -2.1716   1.8401   3.0970   5.0627
     5.7667   6.1491   7.8306   9.7965  11.6517  13.1030

          k =-0.2856 0.1649 0.1329 (  4261 PWs)   bands (ev):

   -37.7323 -37.6706 -37.5313 -37.5135  -2.7085   1.0027   4.0224   5.8147
     6.3936   7.7285   9.8920  11.3663  12.2967  13.1506

          k =-0.5713-0.0000 0.1994 (  4287 PWs)   bands (ev):

   -37.6894 -37.6489 -37.5563 -37.5483  -2.2822   1.5020   3.9162   4.9948
     5.0576   6.5490   8.1226  11.4394  12.8167  13.4378

          k = 0.5713 0.6597-0.0665 (  4274 PWs)   bands (ev):

   -37.6388 -37.6303 -37.5889 -37.5820  -1.9560   2.2210   3.0375   4.3464
     5.4588   5.6973   6.7669  10.8277  13.3281  13.5443

          k = 0.2856 0.4948 0.0000 (  4270 PWs)   bands (ev):

   -37.6936 -37.6433 -37.5565 -37.5495  -2.3137   1.8623   3.6343   4.8236
     5.0097   7.0540   7.0823  12.4529  13.5633  14.0808

          k =-0.5713 0.3298 0.2658 (  4266 PWs)   bands (ev):

   -37.6765 -37.6396 -37.5659 -37.5598  -2.1538   1.6218   3.6861   4.3157
     5.2372   6.2618  10.0015  10.9710  11.4543  12.0038

          k = 0.5713 0.9895 0.0000 (  4280 PWs)   bands (ev):

   -37.6461 -37.6178 -37.5924 -37.5837  -1.9433   2.0704   3.5098   4.0625
     4.3113   6.2155   8.2865  11.3070  11.7343  13.3402

          k =-0.0000-0.0000 0.1994 (  4288 PWs)   bands (ev):

   -37.7519 -37.6901 -37.5157 -37.4934  -2.9294   0.4152   4.2196   7.6574
     7.6574  10.4208  10.4208  10.8621  10.8621  11.2845

          k =-0.2856-0.1649 0.2658 (  4278 PWs)   bands (ev):

   -37.7244 -37.6808 -37.5287 -37.5137  -2.6542   0.6030   4.6811   5.6108
     6.6651   8.9086   9.0410  10.8289  12.0591  12.7941

          k = 0.8569 0.4948 0.0000 (  4285 PWs)   bands (ev):

   -37.6642 -37.6552 -37.5660 -37.5563  -2.1327   1.4710   3.1791   5.5410
     5.5852   6.3981   8.2859   9.7014  11.3494  12.7478

          k = 0.5713 0.3298 0.0665 (  4269 PWs)   bands (ev):

   -37.6792 -37.6365 -37.5658 -37.5603  -2.1840   1.9761   3.2387   4.6793
     5.4774   5.7658   8.6234  10.7719  11.8029  13.3842

          k =-0.2856 0.1649 0.3323 (  4289 PWs)   bands (ev):

   -37.7201 -37.6857 -37.5281 -37.5137  -2.6290   0.4472   5.2200   5.6776
     6.2312   8.0162  10.5350  11.0456  11.7596  12.5377

          k = 0.8569 0.8246 0.0665 (  4277 PWs)   bands (ev):

   -37.6779 -37.6625 -37.5560 -37.5465  -2.2276   1.0875   4.0710   4.8249
     5.7664   6.6046   8.9702  10.7672  12.0543  12.9727

          k = 0.5713 0.6597 0.1329 (  4260 PWs)   bands (ev):

   -37.6442 -37.6220 -37.5907 -37.5832  -1.9482   2.1367   3.2085   4.1988
     4.8363   5.9043   7.6757  11.7030  12.4159  12.6896

          k = 0.8569-0.4948-0.1994 (  4269 PWs)   bands (ev):

   -37.6676 -37.6508 -37.5660 -37.5573  -2.1210   1.3709   3.4072   5.0380
     5.2840   6.5984   9.5883  10.5619  11.1054  12.5317

          k =-0.0000-0.0000 0.3987 (  4289 PWs)   bands (ev):

   -37.7345 -37.7108 -37.5109 -37.4951  -2.8401  -0.0776   5.5312   7.4808
     7.4808   9.6568  10.5431  10.5431  11.6355  11.6355

          k = 1.1426 0.6597 0.1329 (  4287 PWs)   bands (ev):

   -37.7068 -37.7003 -37.5266 -37.5139  -2.5911   0.2591   5.2958   6.0006
     6.3544   8.7134   9.8696  10.1375  12.0176  12.6740

     the Fermi energy is     7.8449 ev

!    total energy              =     -74.28172034 Ry
     estimated scf accuracy    <          1.3E-09 Ry
     smearing contrib. (-TS)   =      -0.00085373 Ry
     internal energy E=F+TS    =     -74.28086662 Ry

     The total energy is F=E-TS. E is the sum of the following terms:
     one-electron contribution =     -19.80499491 Ry
     hartree contribution      =      12.84041672 Ry
     xc contribution           =     -20.60221452 Ry
     ewald contribution        =     -46.71407391 Ry

     convergence has been achieved in   9 iterations

     Forces acting on atoms (cartesian axes, Ry/au):

     atom    1 type  1   force =     0.00000000    0.00000000    0.02597440
     atom    2 type  1   force =    -0.00000000   -0.00000000   -0.02597440
     atom    3 type  1   force =     0.00000000   -0.00000000   -0.10896531
     atom    4 type  1   force =     0.00000000   -0.00000000    0.10896531
     atom    5 type  2   force =    -0.00000000   -0.00000000   -0.00766361
     atom    6 type  2   force =     0.00000000    0.00000000    0.00766361
     The non-local contrib.  to forces
     atom    1 type  1   force =    -0.00000000    0.00000000    0.01143934
     atom    2 type  1   force =     0.00000000   -0.00000000   -0.01143934
     atom    3 type  1   force =     0.00000000    0.00000000    0.00257823
     atom    4 type  1   force =    -0.00000000   -0.00000000   -0.00257823
     atom    5 type  2   force =    -0.00000000    0.00000000    0.01966223
     atom    6 type  2   force =     0.00000000   -0.00000000   -0.01966223
     The ionic contribution  to forces
     atom    1 type  1   force =    -0.00000000    0.00000000   -0.46947024
     atom    2 type  1   force =     0.00000000   -0.00000000    0.46947024
     atom    3 type  1   force =    -0.00000000    0.00000000   -0.15455150
     atom    4 type  1   force =     0.00000000   -0.00000000    0.15455150
     atom    5 type  2   force =    -0.00000000   -0.00000000   -1.00322849
     atom    6 type  2   force =    -0.00000000    0.00000000    1.00322849
     The local contribution  to forces
     atom    1 type  1   force =     0.00000000   -0.00000000    0.48399825
     atom    2 type  1   force =    -0.00000000    0.00000000   -0.48399825
     atom    3 type  1   force =     0.00000000   -0.00000000    0.04303043
     atom    4 type  1   force =    -0.00000000    0.00000000   -0.04303043
     atom    5 type  2   force =    -0.00000000    0.00000000    0.97210712
     atom    6 type  2   force =     0.00000000    0.00000000   -0.97210712
     The core correction contribution to forces
     atom    1 type  1   force =     0.00000000    0.00000000    0.00000000
     atom    2 type  1   force =     0.00000000    0.00000000    0.00000000
     atom    3 type  1   force =     0.00000000    0.00000000    0.00000000
     atom    4 type  1   force =     0.00000000    0.00000000    0.00000000
     atom    5 type  2   force =    -0.00000000   -0.00000000    0.00376543
     atom    6 type  2   force =     0.00000000    0.00000000   -0.00376543
     The Hubbard contrib.    to forces
     atom    1 type  1   force =     0.00000000    0.00000000    0.00000000
     atom    2 type  1   force =     0.00000000    0.00000000    0.00000000
     atom    3 type  1   force =     0.00000000    0.00000000    0.00000000
     atom    4 type  1   force =     0.00000000    0.00000000    0.00000000
     atom    5 type  2   force =     0.00000000    0.00000000    0.00000000
     atom    6 type  2   force =     0.00000000    0.00000000    0.00000000
     The SCF correction term to forces
     atom    1 type  1   force =    -0.00000000    0.00000000    0.00000705
     atom    2 type  1   force =    -0.00000000   -0.00000000   -0.00000705
     atom    3 type  1   force =    -0.00000000    0.00000000   -0.00002248
     atom    4 type  1   force =     0.00000000   -0.00000000    0.00002248
     atom    5 type  2   force =     0.00000000   -0.00000000    0.00003010
     atom    6 type  2   force =    -0.00000000    0.00000000   -0.00003010

     Total force =     0.158788     Total SCF correction =     0.000054


     Computing stress (Cartesian axis) and pressure

          total   stress  (Ry/bohr**3)                   (kbar)     P=      559.43
   0.00333890  -0.00000000  -0.00000000          491.17       -0.00       -0.00
  -0.00000000   0.00333890   0.00000000           -0.00      491.17        0.00
  -0.00000000   0.00000000   0.00473093           -0.00        0.00      695.94

     Energy error            =      1.2E+00 Ry
     Gradient error          =      1.1E-01 Ry/Bohr
     Cell gradient error     =      2.0E+02 kbar

     number of scf cycles    =   2
     number of bfgs steps    =   1

     enthalpy           old  =     -71.7429325937 Ry
     enthalpy           new  =     -72.9598686939 Ry

     CASE: enthalpy          _new < enthalpy          _old

     new trust radius        =       0.1324302961 bohr
ibrav =      5
 celldm(1) =     10.72222052
 celldm(4) =      0.80003741
Input lattice vectors:
     0.34946766    -0.20176525     1.02891598
     0.00000000     0.40353050     1.02891598
    -0.34946766    -0.20176525     1.02891598
New lattice vectors in INITIAL alat:
     0.34946766    -0.20176525     1.02891598
     0.00000000     0.40353050     1.02891598
    -0.34946766    -0.20176525     1.02891598
New lattice vectors in NEW alat (for information only):
     0.31619819    -0.18255711     0.93096273
     0.00000000     0.36511422     0.93096273
    -0.31619819    -0.18255711     0.93096273
Discrepancy in bohr =     0.000000    0.000000    0.000000
     new conv_thr            =       0.0000000100 Ry

     new unit-cell volume =    397.46224 a.u.^3 (    58.89783 Ang^3 )
     density =      2.36643 g/cm^3

CELL_PARAMETERS (alat=  9.70146046)
   0.349467661  -0.201765248   1.028915981
   0.000000000   0.403530497   1.028915981
  -0.349467661  -0.201765248   1.028915981

ATOMIC_POSITIONS (crystal)
Li            0.1380007721        0.1380007721        0.1380007721
Li            0.8619992279        0.8619992279        0.8619992279
Li            0.3010191331        0.3010191331        0.3010191331
Li            0.6989808669        0.6989808669        0.6989808669
Si            0.4341547594        0.4341547594        0.4341547594
Si            0.5658452406        0.5658452406        0.5658452406



     Writing config-only to output data dir ./output/LiSi.save/
     NEW-OLD atomic charge density approx. for the potential
     extrapolated charge   20.43032, renormalised to   20.00000

     total cpu time spent up to now is       15.0 secs

     Self-consistent Calculation

     iteration #  1     ecut=    80.00 Ry     beta= 0.70
     Davidson diagonalization with overlap
     ethr =  1.00E-06,  avg # of iterations =  9.3

     total cpu time spent up to now is       16.2 secs

     total energy              =     -74.33774797 Ry
     estimated scf accuracy    <       0.00359129 Ry

     iteration #  2     ecut=    80.00 Ry     beta= 0.70
     Davidson diagonalization with overlap
     ethr =  1.80E-05,  avg # of iterations =  2.0

     total cpu time spent up to now is       16.7 secs

     total energy              =     -74.33935145 Ry
     estimated scf accuracy    <       0.00097409 Ry

     iteration #  3     ecut=    80.00 Ry     beta= 0.70
     Davidson diagonalization with overlap
     ethr =  4.87E-06,  avg # of iterations =  2.0

     total cpu time spent up to now is       17.2 secs

     total energy              =     -74.33959555 Ry
     estimated scf accuracy    <       0.00034458 Ry

     iteration #  4     ecut=    80.00 Ry     beta= 0.70
     Davidson diagonalization with overlap
     ethr =  1.72E-06,  avg # of iterations =  1.1

     total cpu time spent up to now is       17.6 secs

     total energy              =     -74.33960653 Ry
     estimated scf accuracy    <       0.00003731 Ry

     iteration #  5     ecut=    80.00 Ry     beta= 0.70
     Davidson diagonalization with overlap
     ethr =  1.87E-07,  avg # of iterations =  2.2

     total cpu time spent up to now is       18.1 secs

     total energy              =     -74.33961468 Ry
     estimated scf accuracy    <       0.00000145 Ry

     iteration #  6     ecut=    80.00 Ry     beta= 0.70
     Davidson diagonalization with overlap
     ethr =  7.24E-09,  avg # of iterations =  2.1

     total cpu time spent up to now is       18.6 secs

     total energy              =     -74.33961476 Ry
     estimated scf accuracy    <       0.00000025 Ry

     iteration #  7     ecut=    80.00 Ry     beta= 0.70
     Davidson diagonalization with overlap
     ethr =  1.24E-09,  avg # of iterations =  2.2

     total cpu time spent up to now is       19.1 secs

     total energy              =     -74.33961483 Ry
     estimated scf accuracy    <       0.00000003 Ry

     iteration #  8     ecut=    80.00 Ry     beta= 0.70
     Davidson diagonalization with overlap
     ethr =  1.42E-10,  avg # of iterations =  2.0

     total cpu time spent up to now is       19.5 secs

     End of self-consistent calculation

          k = 0.0000 0.0000 0.0000 (  4303 PWs)   bands (ev):

   -37.9060 -37.8279 -37.7015 -37.6480  -3.1298   0.5873   3.1554   7.6767
     7.6767   9.9563   9.9563  10.8933  10.8933  11.9618

          k =-0.2861-0.1652 0.0648 (  4271 PWs)   bands (ev):

   -37.8837 -37.8164 -37.7130 -37.6663  -2.8707   0.9082   3.4680   5.5014
     6.5510   8.0896   8.9165  11.2252  12.3005  12.9134

          k =-0.5723-0.3304 0.1296 (  4288 PWs)   bands (ev):

   -37.8308 -37.7951 -37.7399 -37.7075  -2.3143   1.6166   2.9739   4.7410
     5.5917   5.8994   7.8230   9.6395  11.3525  12.6319

          k =-0.2861 0.1652 0.1296 (  4261 PWs)   bands (ev):

   -37.8822 -37.8186 -37.7123 -37.6664  -2.8563   0.7635   3.7362   5.6289
     6.2949   7.6365   9.7703  11.1936  11.8854  12.9892

          k =-0.5723-0.0000 0.1944 (  4287 PWs)   bands (ev):

   -37.8437 -37.7996 -37.7337 -37.6974  -2.4252   1.2725   3.7749   4.7368
     4.8984   6.4004   7.8720  11.1720  12.4530  13.2907

          k = 0.5723 0.6608-0.0648 (  4274 PWs)   bands (ev):

   -37.8017 -37.7852 -37.7532 -37.7312  -2.0953   2.0003   2.9118   4.1921
     5.1479   5.5765   6.4758  10.6171  12.9516  13.1322

          k = 0.2861 0.4956 0.0000 (  4270 PWs)   bands (ev):

   -37.8478 -37.7929 -37.7363 -37.6974  -2.4572   1.6220   3.4762   4.5435
     4.8715   6.8398   6.9751  12.2971  13.0480  13.1336

          k =-0.5723 0.3304 0.2592 (  4266 PWs)   bands (ev):

   -37.8331 -37.7897 -37.7429 -37.7075  -2.2935   1.3945   3.4874   4.1582
     5.1517   6.0158   9.7077  10.6019  11.1169  11.9184

          k = 0.5723 0.9913 0.0000 (  4280 PWs)   bands (ev):

   -37.8074 -37.7675 -37.7652 -37.7311  -2.0808   1.8468   3.3190   3.9635
     4.1742   5.9614   7.9042  11.1577  11.2047  13.2367

          k =-0.0000-0.0000 0.1944 (  4288 PWs)   bands (ev):

   -37.8998 -37.8371 -37.6977 -37.6487  -3.0794   0.1784   3.9071   7.5605
     7.5605  10.3875  10.3875  10.6960  10.7045  10.7045

          k =-0.2861-0.1652 0.2592 (  4278 PWs)   bands (ev):

   -37.8744 -37.8297 -37.7085 -37.6669  -2.8014   0.3724   4.4303   5.4504
     6.5213   8.6127   9.0104  10.4596  11.9055  12.3911

          k = 0.8584 0.4956 0.0000 (  4285 PWs)   bands (ev):

   -37.8222 -37.8064 -37.7372 -37.7074  -2.2746   1.2543   3.0544   5.2204
     5.4472   6.1576   8.2183   9.5065  10.9107  12.3264

          k = 0.5723 0.3304 0.0648 (  4269 PWs)   bands (ev):

   -37.8353 -37.7865 -37.7440 -37.7074  -2.3254   1.7418   3.0971   4.3993
     5.3575   5.5615   8.5186  10.5880  11.4630  12.8528

          k =-0.2861 0.1652 0.3240 (  4289 PWs)   bands (ev):

   -37.8704 -37.8348 -37.7074 -37.6670  -2.7750   0.2177   4.9480   5.5178
     6.1553   7.8331  10.0929  10.7435  11.4668  12.5237

          k = 0.8584 0.8260 0.0648 (  4277 PWs)   bands (ev):

   -37.8335 -37.8134 -37.7302 -37.6975  -2.3695   0.8667   3.9351   4.7043
     5.5127   6.4162   8.6572  10.2720  11.7943  12.7245

          k = 0.5723 0.6608 0.1296 (  4260 PWs)   bands (ev):

   -37.8057 -37.7765 -37.7580 -37.7311  -2.0864   1.9109   3.0684   4.0722
     4.6449   5.6681   7.3590  11.4935  11.8238  12.4717

          k = 0.8584-0.4956-0.1944 (  4269 PWs)   bands (ev):

   -37.8254 -37.8016 -37.7387 -37.7075  -2.2609   1.1503   3.2598   4.8092
     5.1926   6.3707   9.3643  10.1175  10.7464  12.3780

          k =-0.0000-0.0000 0.3888 (  4289 PWs)   bands (ev):

   -37.8826 -37.8587 -37.6922 -37.6499  -2.9876  -0.3086   5.2561   7.4112
     7.4112   8.9256  10.4457  10.4457  11.4453  11.4453

          k = 1.1446 0.6608 0.1296 (  4287 PWs)   bands (ev):

   -37.8580 -37.8489 -37.7053 -37.6673  -2.7365   0.0331   5.1522   5.7741
     6.2625   8.3118   9.4608   9.9775  11.7213  12.5108

     the Fermi energy is     7.6871 ev

!    total energy              =     -74.33961484 Ry
     estimated scf accuracy    <          1.2E-10 Ry
     smearing contrib. (-TS)   =      -0.00061263 Ry
     internal energy E=F+TS    =     -74.33900220 Ry

     The total energy is F=E-TS. E is the sum of the following terms:
     one-electron contribution =     -20.54132381 Ry
     hartree contribution      =      13.04523590 Ry
     xc contribution           =     -20.54687615 Ry
     ewald contribution        =     -46.29603814 Ry

     convergence has been achieved in   8 iterations

     Forces acting on atoms (cartesian axes, Ry/au):

     atom    1 type  1   force =     0.00000000    0.00000000    0.02961337
     atom    2 type  1   force =     0.00000000   -0.00000000   -0.02961337
     atom    3 type  1   force =    -0.00000000    0.00000000   -0.04796155
     atom    4 type  1   force =    -0.00000000   -0.00000000    0.04796155
     atom    5 type  2   force =    -0.00000000    0.00000000   -0.03304597
     atom    6 type  2   force =    -0.00000000   -0.00000000    0.03304597
     The non-local contrib.  to forces
     atom    1 type  1   force =     0.00000000   -0.00000000    0.01446435
     atom    2 type  1   force =    -0.00000000    0.00000000   -0.01446435
     atom    3 type  1   force =     0.00000000    0.00000000    0.01726255
     atom    4 type  1   force =    -0.00000000    0.00000000   -0.01726255
     atom    5 type  2   force =     0.00000000    0.00000000    0.00454697
     atom    6 type  2   force =    -0.00000000   -0.00000000   -0.00454697
     The ionic contribution  to forces
     atom    1 type  1   force =    -0.00000000    0.00000000   -0.53323126
     atom    2 type  1   force =     0.00000000   -0.00000000    0.53323126
     atom    3 type  1   force =     0.00000000    0.00000000    0.19172701
     atom    4 type  1   force =     0.00000000   -0.00000000   -0.19172701
     atom    5 type  2   force =     0.00000000   -0.00000000   -1.31157866
     atom    6 type  2   force =    -0.00000000   -0.00000000    1.31157866
     The local contribution  to forces
     atom    1 type  1   force =     0.00000000   -0.00000000    0.54838488
     atom    2 type  1   force =    -0.00000000    0.00000000   -0.54838488
     atom    3 type  1   force =    -0.00000000   -0.00000000   -0.25695407
     atom    4 type  1   force =    -0.00000000    0.00000000    0.25695407
     atom    5 type  2   force =    -0.00000000   -0.00000000    1.26944187
     atom    6 type  2   force =     0.00000000    0.00000000   -1.26944187
     The core correction contribution to forces
     atom    1 type  1   force =     0.00000000    0.00000000    0.00000000
     atom    2 type  1   force =     0.00000000    0.00000000    0.00000000
     atom    3 type  1   force =     0.00000000    0.00000000    0.00000000
     atom    4 type  1   force =     0.00000000    0.00000000    0.00000000
     atom    5 type  2   force =    -0.00000000   -0.00000000    0.00455468
     atom    6 type  2   force =     0.00000000    0.00000000   -0.00455468
     The Hubbard contrib.    to forces
     atom    1 type  1   force =     0.00000000    0.00000000    0.00000000
     atom    2 type  1   force =     0.00000000    0.00000000    0.00000000
     atom    3 type  1   force =     0.00000000    0.00000000    0.00000000
     atom    4 type  1   force =     0.00000000    0.00000000    0.00000000
     atom    5 type  2   force =     0.00000000    0.00000000    0.00000000
     atom    6 type  2   force =     0.00000000    0.00000000    0.00000000
     The SCF correction term to forces
     atom    1 type  1   force =     0.00000000    0.00000000   -0.00000461
     atom    2 type  1   force =    -0.00000000   -0.00000000    0.00000461
     atom    3 type  1   force =     0.00000000    0.00000000    0.00000296
     atom    4 type  1   force =     0.00000000    0.00000000   -0.00000296
     atom    5 type  2   force =    -0.00000000    0.00000000   -0.00001083
     atom    6 type  2   force =     0.00000000   -0.00000000    0.00001083

     Total force =     0.092405     Total SCF correction =     0.000017


     Computing stress (Cartesian axis) and pressure

          total   stress  (Ry/bohr**3)                   (kbar)     P=      496.96
   0.00327080  -0.00000000  -0.00000000          481.15       -0.00       -0.00
   0.00000000   0.00327080   0.00000000            0.00      481.15        0.00
   0.00000000   0.00000000   0.00359310            0.00        0.00      528.56

     Energy error            =      2.9E-02 Ry
     Gradient error          =      4.8E-02 Ry/Bohr
     Cell gradient error     =      2.9E+01 kbar

     number of scf cycles    =   3
     number of bfgs steps    =   2

     enthalpy           old  =     -72.9598686939 Ry
     enthalpy           new  =     -72.9886681342 Ry

     CASE: enthalpy          _new < enthalpy          _old

     new trust radius        =       0.1245055170 bohr
ibrav =      5
 celldm(1) =     10.76426714
 celldm(4) =      0.80400794
Input lattice vectors:
     0.34733743    -0.20053536     1.03452702
    -0.00000000     0.40107072     1.03452702
    -0.34733743    -0.20053536     1.03452702
New lattice vectors in INITIAL alat:
     0.34733743    -0.20053536     1.03452702
     0.00000000     0.40107072     1.03452702
    -0.34733743    -0.20053536     1.03452702
New lattice vectors in NEW alat (for information only):
     0.31304318    -0.18073556     0.93238330
     0.00000000     0.36147113     0.93238330
    -0.31304318    -0.18073556     0.93238330
Discrepancy in bohr =     0.000000    0.000000    0.000000
     new conv_thr            =       0.0000000048 Ry

     new unit-cell volume =    394.77260 a.u.^3 (    58.49926 Ang^3 )
     density =      2.38255 g/cm^3

CELL_PARAMETERS (alat=  9.70146046)
   0.347337434  -0.200535361   1.034527018
   0.000000000   0.401070722   1.034527018
  -0.347337434  -0.200535361   1.034527018

ATOMIC_POSITIONS (crystal)
Li            0.1402029190        0.1402029190        0.1402029190
Li            0.8597970810        0.8597970810        0.8597970810
Li            0.2968614602        0.2968614602        0.2968614602
Li            0.7031385398        0.7031385398        0.7031385398
Si            0.4337295386        0.4337295386        0.4337295386
Si            0.5662704614        0.5662704614        0.5662704614



     Writing config-only to output data dir ./output/LiSi.save/
     NEW-OLD atomic charge density approx. for the potential
     extrapolated charge   19.86387, renormalised to   20.00000

     total cpu time spent up to now is       21.0 secs

     Self-consistent Calculation

     iteration #  1     ecut=    80.00 Ry     beta= 0.70
     Davidson diagonalization with overlap
     ethr =  1.00E-06,  avg # of iterations =  7.5

     total cpu time spent up to now is       22.1 secs

     total energy              =     -74.34029920 Ry
     estimated scf accuracy    <       0.00451874 Ry

     iteration #  2     ecut=    80.00 Ry     beta= 0.70
     Davidson diagonalization with overlap
     ethr =  2.26E-05,  avg # of iterations =  3.0

     total cpu time spent up to now is       22.6 secs

     total energy              =     -74.34128665 Ry
     estimated scf accuracy    <       0.01139386 Ry

     iteration #  3     ecut=    80.00 Ry     beta= 0.70
     Davidson diagonalization with overlap
     ethr =  2.26E-05,  avg # of iterations =  2.1

     total cpu time spent up to now is       23.1 secs

     total energy              =     -74.34304174 Ry
     estimated scf accuracy    <       0.00006804 Ry

     iteration #  4     ecut=    80.00 Ry     beta= 0.70
     Davidson diagonalization with overlap
     ethr =  3.40E-07,  avg # of iterations =  3.8

     total cpu time spent up to now is       23.6 secs

     total energy              =     -74.34306672 Ry
     estimated scf accuracy    <       0.00000225 Ry

     iteration #  5     ecut=    80.00 Ry     beta= 0.70
     Davidson diagonalization with overlap
     ethr =  1.13E-08,  avg # of iterations =  2.4

     total cpu time spent up to now is       24.1 secs

     total energy              =     -74.34306720 Ry
     estimated scf accuracy    <       0.00000002 Ry

     iteration #  6     ecut=    80.00 Ry     beta= 0.70
     Davidson diagonalization with overlap
     ethr =  1.16E-10,  avg # of iterations =  3.5

     total cpu time spent up to now is       24.6 secs

     End of self-consistent calculation

          k = 0.0000 0.0000 0.0000 (  4303 PWs)   bands (ev):

   -37.8123 -37.7167 -37.6077 -37.5359  -3.0582   0.6056   3.1510   7.8197
     7.8197  10.0891  10.0891  10.9791  10.9791  11.9678

          k =-0.2879-0.1662 0.0644 (  4271 PWs)   bands (ev):

   -37.7881 -37.7070 -37.6169 -37.5564  -2.7977   0.9296   3.4773   5.5852
     6.6358   8.1645   9.0650  11.2622  12.4522  13.0344

          k =-0.5758-0.3324 0.1289 (  4288 PWs)   bands (ev):

   -37.7303 -37.6913 -37.6374 -37.6026  -2.2379   1.6495   3.0640   4.7336
     5.6465   5.9057   7.9619   9.8323  11.3729  12.5468

          k =-0.2879 0.1662 0.1289 (  4261 PWs)   bands (ev):

   -37.7867 -37.7094 -37.6159 -37.5564  -2.7819   0.7786   3.7558   5.7047
     6.3961   7.7248   9.8820  11.2935  11.8564  13.1245

          k =-0.5758-0.0000 0.1933 (  4287 PWs)   bands (ev):

   -37.7446 -37.6942 -37.6328 -37.5914  -2.3480   1.2942   3.8579   4.7729
     4.9727   6.4469   7.8908  11.2474  12.4918  13.4625

          k = 0.5758 0.6649-0.0644 (  4274 PWs)   bands (ev):

   -37.6966 -37.6863 -37.6473 -37.6292  -2.0178   2.0388   2.9995   4.2782
     5.1546   5.6286   6.4405  10.7621  12.9316  13.2149

          k = 0.2879 0.4987 0.0000 (  4270 PWs)   bands (ev):

   -37.7488 -37.6862 -37.6363 -37.5913  -2.3828   1.6582   3.5342   4.5678
     4.9513   6.8316   7.0794  12.4849  13.1314  13.1510

          k =-0.5758 0.3324 0.2578 (  4266 PWs)   bands (ev):

   -37.7330 -37.6849 -37.6409 -37.6027  -2.2141   1.4200   3.5439   4.2075
     5.2366   6.0798   9.7352  10.5197  11.1812  12.1030

          k = 0.5758 0.9973 0.0000 (  4280 PWs)   bands (ev):

   -37.7051 -37.6640 -37.6619 -37.6285  -2.0012   1.8839   3.3845   4.0316
     4.2351   6.0276   7.8260  11.0956  11.3325  13.4231

          k =-0.0000-0.0000 0.1933 (  4288 PWs)   bands (ev):

   -37.8065 -37.7265 -37.6033 -37.5363  -3.0033   0.1811   3.9312   7.7079
     7.7079  10.5080  10.5080  10.5302  10.7980  10.7980

          k =-0.2879-0.1662 0.2578 (  4278 PWs)   bands (ev):

   -37.7793 -37.7212 -37.6113 -37.5566  -2.7222   0.3747   4.4855   5.5400
     6.6090   8.6064   9.1538  10.4448  12.0438  12.3960

          k = 0.8637 0.4987 0.0000 (  4285 PWs)   bands (ev):

   -37.7203 -37.7048 -37.6336 -37.6028  -2.1945   1.2728   3.1449   5.2213
     5.5142   6.1999   8.3364   9.6621  10.8198  12.2988

          k = 0.5758 0.3324 0.0644 (  4269 PWs)   bands (ev):

   -37.7354 -37.6808 -37.6427 -37.6026  -2.2493   1.7832   3.1644   4.4064
     5.4304   5.6014   8.6229  10.7376  11.4562  12.8155

          k =-0.2879 0.1662 0.3222 (  4289 PWs)   bands (ev):

   -37.7758 -37.7259 -37.6101 -37.5567  -2.6930   0.2141   5.0301   5.6024
     6.2636   7.8462  10.0521  10.7912  11.4922  12.7506

          k = 0.8637 0.8311 0.0644 (  4277 PWs)   bands (ev):

   -37.7340 -37.7094 -37.6281 -37.5914  -2.2872   0.8740   4.0259   4.7791
     5.5934   6.4611   8.6501  10.1492  11.9395  12.8493

          k = 0.5758 0.6649 0.1289 (  4260 PWs)   bands (ev):

   -37.7029 -37.6746 -37.6531 -37.6287  -2.0076   1.9485   3.1435   4.1577
     4.6723   5.7256   7.3134  11.6222  11.7267  12.6372

          k = 0.8637-0.4987-0.1933 (  4269 PWs)   bands (ev):

   -37.7243 -37.6990 -37.6353 -37.6029  -2.1789   1.1650   3.3374   4.8343
     5.2754   6.4770   9.4211   9.9695  10.8271  12.5330

          k =-0.0000-0.0000 0.3867 (  4289 PWs)   bands (ev):

   -37.7931 -37.7455 -37.5971 -37.5370  -2.9021  -0.3231   5.3794   7.5634
     7.5634   8.6202  10.5584  10.5584  11.4986  11.4986

          k = 1.1516 0.6649 0.1289 (  4287 PWs)   bands (ev):

   -37.7681 -37.7360 -37.6076 -37.5569  -2.6506   0.0234   5.2566   5.9097
     6.3660   8.1502   9.4722  10.0791  11.7419  12.6727

     the Fermi energy is     7.7574 ev

!    total energy              =     -74.34306721 Ry
     estimated scf accuracy    <          3.0E-09 Ry
     smearing contrib. (-TS)   =      -0.00112367 Ry
     internal energy E=F+TS    =     -74.34194355 Ry

     The total energy is F=E-TS. E is the sum of the following terms:
     one-electron contribution =     -20.69425624 Ry
     hartree contribution      =      13.18186583 Ry
     xc contribution           =     -20.55331350 Ry
     ewald contribution        =     -46.27623964 Ry

     convergence has been achieved in   6 iterations

     Forces acting on atoms (cartesian axes, Ry/au):

     atom    1 type  1   force =    -0.00000000   -0.00000000    0.02757125
     atom    2 type  1   force =    -0.00000000    0.00000000   -0.02757125
     atom    3 type  1   force =     0.00000000   -0.00000000   -0.01327408
     atom    4 type  1   force =     0.00000000    0.00000000    0.01327408
     atom    5 type  2   force =    -0.00000000   -0.00000000   -0.03347968
     atom    6 type  2   force =     0.00000000   -0.00000000    0.03347968
     The non-local contrib.  to forces
     atom    1 type  1   force =     0.00000000    0.00000000    0.01491864
     atom    2 type  1   force =    -0.00000000    0.00000000   -0.01491864
     atom    3 type  1   force =     0.00000000    0.00000000    0.02797519
     atom    4 type  1   force =    -0.00000000    0.00000000   -0.02797519
     atom    5 type  2   force =     0.00000000   -0.00000000    0.00702535
     atom    6 type  2   force =    -0.00000000   -0.00000000   -0.00702535
     The ionic contribution  to forces
     atom    1 type  1   force =     0.00000000    0.00000000   -0.57999216
     atom    2 type  1   force =    -0.00000000   -0.00000000    0.57999216
     atom    3 type  1   force =     0.00000000    0.00000000    0.46604730
     atom    4 type  1   force =     0.00000000   -0.00000000   -0.46604730
     atom    5 type  2   force =    -0.00000000    0.00000000   -1.49314867
     atom    6 type  2   force =     0.00000000   -0.00000000    1.49314867
     The local contribution  to forces
     atom    1 type  1   force =    -0.00000000   -0.00000000    0.59267779
     atom    2 type  1   force =    -0.00000000    0.00000000   -0.59267779
     atom    3 type  1   force =     0.00000000   -0.00000000   -0.50732747
     atom    4 type  1   force =     0.00000000    0.00000000    0.50732747
     atom    5 type  2   force =    -0.00000000   -0.00000000    1.44837960
     atom    6 type  2   force =     0.00000000    0.00000000   -1.44837960
     The core correction contribution to forces
     atom    1 type  1   force =     0.00000000    0.00000000    0.00000000
     atom    2 type  1   force =     0.00000000    0.00000000    0.00000000
     atom    3 type  1   force =     0.00000000    0.00000000    0.00000000
     atom    4 type  1   force =     0.00000000    0.00000000    0.00000000
     atom    5 type  2   force =     0.00000000   -0.00000000    0.00431238
     atom    6 type  2   force =    -0.00000000    0.00000000   -0.00431238
     The Hubbard contrib.    to forces
     atom    1 type  1   force =     0.00000000    0.00000000    0.00000000
     atom    2 type  1   force =     0.00000000    0.00000000    0.00000000
     atom    3 type  1   force =     0.00000000    0.00000000    0.00000000
     atom    4 type  1   force =     0.00000000    0.00000000    0.00000000
     atom    5 type  2   force =     0.00000000    0.00000000    0.00000000
     atom    6 type  2   force =     0.00000000    0.00000000    0.00000000
     The SCF correction term to forces
     atom    1 type  1   force =     0.00000000   -0.00000000   -0.00003302
     atom    2 type  1   force =    -0.00000000   -0.00000000    0.00003302
     atom    3 type  1   force =    -0.00000000   -0.00000000    0.00003089
     atom    4 type  1   force =     0.00000000    0.00000000   -0.00003089
     atom    5 type  2   force =     0.00000000    0.00000000   -0.00004834
     atom    6 type  2   force =    -0.00000000   -0.00000000    0.00004834

     Total force =     0.064145     Total SCF correction =     0.000094


     Computing stress (Cartesian axis) and pressure

          total   stress  (Ry/bohr**3)                   (kbar)     P=      497.00
   0.00341544  -0.00000000   0.00000000          502.43       -0.00        0.00
  -0.00000000   0.00341544   0.00000000           -0.00      502.43        0.00
  -0.00000000   0.00000000   0.00330469           -0.00        0.00      486.14

     Energy error            =      1.3E-02 Ry
     Gradient error          =      3.3E-02 Ry/Bohr
     Cell gradient error     =      1.4E+01 kbar

     number of scf cycles    =   4
     number of bfgs steps    =   3

     enthalpy           old  =     -72.9886681342 Ry
     enthalpy           new  =     -73.0012624316 Ry

     CASE: enthalpy          _new < enthalpy          _old

     new trust radius        =       0.1058624152 bohr
ibrav =      5
 celldm(1) =     10.73970301
 celldm(4) =      0.80386609
Input lattice vectors:
     0.34667019    -0.20015013     1.03211008
     0.00000000     0.40030026     1.03211008
    -0.34667019    -0.20015013     1.03211008
New lattice vectors in INITIAL alat:
     0.34667019    -0.20015013     1.03211008
     0.00000000     0.40030026     1.03211008
    -0.34667019    -0.20015013     1.03211008
New lattice vectors in NEW alat (for information only):
     0.31315644    -0.18080095     0.93233259
     0.00000000     0.36160191     0.93233259
    -0.31315644    -0.18080095     0.93233259
Discrepancy in bohr =     0.000000    0.000000    0.000000
     new conv_thr            =       0.0000000033 Ry

     new unit-cell volume =    392.33856 a.u.^3 (    58.13858 Ang^3 )
     density =      2.39733 g/cm^3

CELL_PARAMETERS (alat=  9.70146046)
   0.346670191  -0.200150128   1.032110080
   0.000000000   0.400300256   1.032110080
  -0.346670191  -0.200150128   1.032110080

ATOMIC_POSITIONS (crystal)
Li            0.1433058855        0.1433058855        0.1433058855
Li            0.8566941145        0.8566941145        0.8566941145
Li            0.2933455192        0.2933455192        0.2933455192
Li            0.7066544808        0.7066544808        0.7066544808
Si            0.4327331378        0.4327331378        0.4327331378
Si            0.5672668622        0.5672668622        0.5672668622



     Writing config-only to output data dir ./output/LiSi.save/
     NEW-OLD atomic charge density approx. for the potential
     extrapolated charge   19.87604, renormalised to   20.00000

     total cpu time spent up to now is       26.1 secs

     Self-consistent Calculation

     iteration #  1     ecut=    80.00 Ry     beta= 0.70
     Davidson diagonalization with overlap
     ethr =  1.00E-06,  avg # of iterations =  7.8

     total cpu time spent up to now is       27.1 secs

     total energy              =     -74.33929070 Ry
     estimated scf accuracy    <       0.00303923 Ry

     iteration #  2     ecut=    80.00 Ry     beta= 0.70
     Davidson diagonalization with overlap
     ethr =  1.52E-05,  avg # of iterations =  3.1

     total cpu time spent up to now is       27.7 secs

     total energy              =     -74.34008652 Ry
     estimated scf accuracy    <       0.00763532 Ry

     iteration #  3     ecut=    80.00 Ry     beta= 0.70
     Davidson diagonalization with overlap
     ethr =  1.52E-05,  avg # of iterations =  2.1

     total cpu time spent up to now is       28.1 secs

     total energy              =     -74.34121377 Ry
     estimated scf accuracy    <       0.00007095 Ry

     iteration #  4     ecut=    80.00 Ry     beta= 0.70
     Davidson diagonalization with overlap
     ethr =  3.55E-07,  avg # of iterations =  3.2

     total cpu time spent up to now is       28.7 secs

     total energy              =     -74.34123417 Ry
     estimated scf accuracy    <       0.00000127 Ry

     iteration #  5     ecut=    80.00 Ry     beta= 0.70
     Davidson diagonalization with overlap
     ethr =  6.35E-09,  avg # of iterations =  3.4

     total cpu time spent up to now is       29.2 secs

     total energy              =     -74.34123470 Ry
     estimated scf accuracy    <       0.00000005 Ry

     iteration #  6     ecut=    80.00 Ry     beta= 0.70
     Davidson diagonalization with overlap
     ethr =  2.27E-10,  avg # of iterations =  2.7

     total cpu time spent up to now is       29.7 secs

     total energy              =     -74.34123470 Ry
     estimated scf accuracy    <          5.8E-09 Ry

     iteration #  7     ecut=    80.00 Ry     beta= 0.70
     Davidson diagonalization with overlap
     ethr =  2.90E-11,  avg # of iterations =  2.5

     total cpu time spent up to now is       30.2 secs

     End of self-consistent calculation

          k = 0.0000 0.0000 0.0000 (  4303 PWs)   bands (ev):

   -37.7515 -37.6182 -37.5267 -37.4434  -2.9785   0.6520   3.1858   7.9084
     7.9084  10.0785  10.0785  11.0511  11.0511  12.0148

          k =-0.2885-0.1665 0.0646 (  4271 PWs)   bands (ev):

   -37.7246 -37.6100 -37.5344 -37.4664  -2.7196   0.9751   3.5181   5.6412
     6.6815   8.1926   9.1216  11.2953  12.5610  13.0844

          k =-0.5769-0.3331 0.1292 (  4288 PWs)   bands (ev):

   -37.6615 -37.5994 -37.5501 -37.5176  -2.1644   1.6859   3.1564   4.7523
     5.6755   5.9176   8.0207  10.0475  11.3929  12.4646

          k =-0.2885 0.1665 0.1292 (  4261 PWs)   bands (ev):

   -37.7235 -37.6125 -37.5331 -37.4664  -2.7018   0.8135   3.8120   5.7660
     6.4417   7.7438   9.9341  11.3463  11.8805  13.2046

          k =-0.5769-0.0000 0.1938 (  4287 PWs)   bands (ev):

   -37.6771 -37.6007 -37.5469 -37.5053  -2.2709   1.3226   3.9307   4.8416
     5.0309   6.4489   7.9035  11.3221  12.5681  13.5940

          k = 0.5769 0.6662-0.0646 (  4274 PWs)   bands (ev):

   -37.6253 -37.5989 -37.5565 -37.5457  -1.9481   2.0678   3.0893   4.3728
     5.1854   5.6508   6.4131  10.8983  12.9869  13.2889

          k = 0.2885 0.4996 0.0000 (  4270 PWs)   bands (ev):

   -37.6804 -37.5919 -37.5524 -37.5050  -2.3102   1.7128   3.5802   4.6225
     5.0168   6.7927   7.1381  12.6326  13.2275  13.2309

          k =-0.5769 0.3331 0.2584 (  4266 PWs)   bands (ev):

   -37.6636 -37.5923 -37.5552 -37.5175  -2.1361   1.4454   3.6109   4.2571
     5.2693   6.1555   9.7664  10.4632  11.2484  12.2334

          k = 0.5769 0.9992 0.0000 (  4280 PWs)   bands (ev):

   -37.6311 -37.5797 -37.5730 -37.5426  -1.9284   1.9105   3.4682   4.0481
     4.3159   6.1091   7.7796  11.0369  11.4862  13.5360

          k =-0.0000-0.0000 0.1938 (  4288 PWs)   bands (ev):

   -37.7469 -37.6277 -37.5217 -37.4434  -2.9167   0.2011   4.0047   7.7904
     7.7904  10.4716  10.4829  10.4829  10.8849  10.8849

          k =-0.2885-0.1665 0.2584 (  4278 PWs)   bands (ev):

   -37.7181 -37.6235 -37.5275 -37.4664  -2.6342   0.3862   4.5785   5.5978
     6.6545   8.6042   9.2129  10.4737  12.1388  12.4085

          k = 0.8654 0.4996 0.0000 (  4285 PWs)   bands (ev):

   -37.6559 -37.6098 -37.5444 -37.5184  -2.1151   1.2862   3.2356   5.2547
     5.5447   6.2485   8.3923   9.8394  10.7952  12.2544

          k = 0.5769 0.3331 0.0646 (  4269 PWs)   bands (ev):

   -37.6655 -37.5876 -37.5583 -37.5171  -2.1766   1.8352   3.2224   4.4550
     5.4618   5.6225   8.6756  10.8853  11.4606  12.8413

          k =-0.2885 0.1665 0.3230 (  4289 PWs)   bands (ev):

   -37.7159 -37.6273 -37.5260 -37.4664  -2.6005   0.2157   5.1614   5.6678
     6.3089   7.8099  10.0901  10.8334  11.4801  12.9050

          k = 0.8654 0.8327 0.0646 (  4277 PWs)   bands (ev):

   -37.6704 -37.6136 -37.5402 -37.5058  -2.2015   0.8771   4.1057   4.8318
     5.7035   6.4862   8.6521  10.0835  12.1093  12.9810

          k = 0.5769 0.6662 0.1292 (  4260 PWs)   bands (ev):

   -37.6292 -37.5893 -37.5644 -37.5435  -1.9360   1.9770   3.2185   4.2308
     4.7162   5.7809   7.2816  11.5847  11.8659  12.8351

          k = 0.8654-0.4996-0.1938 (  4269 PWs)   bands (ev):

   -37.6577 -37.6057 -37.5468 -37.5183  -2.0963   1.1727   3.4182   4.8707
     5.3078   6.6020   9.4627   9.8558  10.9709  12.5616

          k =-0.0000-0.0000 0.3876 (  4289 PWs)   bands (ev):

   -37.7384 -37.6431 -37.5148 -37.4435  -2.8005  -0.3332   5.5694   7.6398
     7.6398   8.4447  10.6022  10.6022  11.4931  11.4931

          k = 1.1538 0.6662 0.1292 (  4287 PWs)   bands (ev):

   -37.7118 -37.6343 -37.5231 -37.4664  -2.5517   0.0134   5.3474   6.0872
     6.4113   8.0145   9.5204  10.1376  11.7242  12.8282

     the Fermi energy is     7.7747 ev

!    total energy              =     -74.34123471 Ry
     estimated scf accuracy    <          7.6E-10 Ry
     smearing contrib. (-TS)   =      -0.00142306 Ry
     internal energy E=F+TS    =     -74.33981164 Ry

     The total energy is F=E-TS. E is the sum of the following terms:
     one-electron contribution =     -20.86928350 Ry
     hartree contribution      =      13.32190408 Ry
     xc contribution           =     -20.55982190 Ry
     ewald contribution        =     -46.23261032 Ry

     convergence has been achieved in   7 iterations

     Forces acting on atoms (cartesian axes, Ry/au):

     atom    1 type  1   force =     0.00000000    0.00000000    0.01898071
     atom    2 type  1   force =     0.00000000    0.00000000   -0.01898071
     atom    3 type  1   force =     0.00000000    0.00000000    0.01037240
     atom    4 type  1   force =     0.00000000   -0.00000000   -0.01037240
     atom    5 type  2   force =     0.00000000   -0.00000000   -0.02333675
     atom    6 type  2   force =    -0.00000000    0.00000000    0.02333675
     The non-local contrib.  to forces
     atom    1 type  1   force =    -0.00000000    0.00000000    0.01393251
     atom    2 type  1   force =    -0.00000000   -0.00000000   -0.01393251
     atom    3 type  1   force =     0.00000000    0.00000000    0.03215307
     atom    4 type  1   force =    -0.00000000   -0.00000000   -0.03215307
     atom    5 type  2   force =    -0.00000000   -0.00000000    0.01687487
     atom    6 type  2   force =     0.00000000    0.00000000   -0.01687487
     The ionic contribution  to forces
     atom    1 type  1   force =     0.00000000    0.00000000   -0.61105322
     atom    2 type  1   force =     0.00000000   -0.00000000    0.61105322
     atom    3 type  1   force =     0.00000000    0.00000000    0.67956329
     atom    4 type  1   force =     0.00000000   -0.00000000   -0.67956329
     atom    5 type  2   force =     0.00000000    0.00000000   -1.59861436
     atom    6 type  2   force =    -0.00000000   -0.00000000    1.59861436
     The local contribution  to forces
     atom    1 type  1   force =    -0.00000000   -0.00000000    0.61608665
     atom    2 type  1   force =    -0.00000000    0.00000000   -0.61608665
     atom    3 type  1   force =     0.00000000   -0.00000000   -0.70132367
     atom    4 type  1   force =    -0.00000000    0.00000000    0.70132367
     atom    5 type  2   force =    -0.00000000   -0.00000000    1.55477281
     atom    6 type  2   force =     0.00000000    0.00000000   -1.55477281
     The core correction contribution to forces
     atom    1 type  1   force =     0.00000000    0.00000000    0.00000000
     atom    2 type  1   force =     0.00000000    0.00000000    0.00000000
     atom    3 type  1   force =     0.00000000    0.00000000    0.00000000
     atom    4 type  1   force =     0.00000000    0.00000000    0.00000000
     atom    5 type  2   force =    -0.00000000   -0.00000000    0.00360001
     atom    6 type  2   force =     0.00000000    0.00000000   -0.00360001
     The Hubbard contrib.    to forces
     atom    1 type  1   force =     0.00000000    0.00000000    0.00000000
     atom    2 type  1   force =     0.00000000    0.00000000    0.00000000
     atom    3 type  1   force =     0.00000000    0.00000000    0.00000000
     atom    4 type  1   force =     0.00000000    0.00000000    0.00000000
     atom    5 type  2   force =     0.00000000    0.00000000    0.00000000
     atom    6 type  2   force =     0.00000000    0.00000000    0.00000000
     The SCF correction term to forces
     atom    1 type  1   force =     0.00000000    0.00000000    0.00001477
     atom    2 type  1   force =    -0.00000000   -0.00000000   -0.00001477
     atom    3 type  1   force =    -0.00000000   -0.00000000   -0.00002028
     atom    4 type  1   force =     0.00000000    0.00000000    0.00002028
     atom    5 type  2   force =    -0.00000000    0.00000000    0.00002992
     atom    6 type  2   force =     0.00000000   -0.00000000   -0.00002992

     Total force =     0.044999     Total SCF correction =     0.000055


     Computing stress (Cartesian axis) and pressure

          total   stress  (Ry/bohr**3)                   (kbar)     P=      499.62
   0.00346750  -0.00000000  -0.00000000          510.09       -0.00       -0.00
  -0.00000000   0.00346750   0.00000000           -0.00      510.09        0.00
   0.00000000   0.00000000   0.00325406            0.00        0.00      478.69

     Energy error            =      6.4E-03 Ry
     Gradient error          =      2.3E-02 Ry/Bohr
     Cell gradient error     =      2.1E+01 kbar

     number of scf cycles    =   5
     number of bfgs steps    =   4

     enthalpy           old  =     -73.0012624316 Ry
     enthalpy           new  =     -73.0077030380 Ry

     CASE: enthalpy          _new < enthalpy          _old

     new trust radius        =       0.0622982852 bohr
ibrav =      5
 celldm(1) =     10.69488878
 celldm(4) =      0.80163370
Input lattice vectors:
     0.34718273    -0.20044604     1.02692308
    -0.00000000     0.40089208     1.02692308
    -0.34718273    -0.20044604     1.02692308
New lattice vectors in INITIAL alat:
     0.34718273    -0.20044604     1.02692308
     0.00000000     0.40089208     1.02692308
    -0.34718273    -0.20044604     1.02692308
New lattice vectors in NEW alat (for information only):
     0.31493357    -0.18182698     0.93153411
     0.00000000     0.36365396     0.93153411
    -0.31493357    -0.18182698     0.93153411
Discrepancy in bohr =     0.000000    0.000000    0.000000
     new conv_thr            =       0.0000000023 Ry

     new unit-cell volume =    391.52195 a.u.^3 (    58.01757 Ang^3 )
     density =      2.40233 g/cm^3

CELL_PARAMETERS (alat=  9.70146046)
   0.347182726  -0.200446040   1.026923084
   0.000000000   0.400892080   1.026923084
  -0.347182726  -0.200446040   1.026923084

ATOMIC_POSITIONS (crystal)
Li            0.1453798040        0.1453798040        0.1453798040
Li            0.8546201960        0.8546201960        0.8546201960
Li            0.2923802576        0.2923802576        0.2923802576
Li            0.7076197424        0.7076197424        0.7076197424
Si            0.4319484426        0.4319484426        0.4319484426
Si            0.5680515574        0.5680515574        0.5680515574



     Writing config-only to output data dir ./output/LiSi.save/
     NEW-OLD atomic charge density approx. for the potential
     extrapolated charge   19.95833, renormalised to   20.00000

     total cpu time spent up to now is       31.6 secs

     Self-consistent Calculation

     iteration #  1     ecut=    80.00 Ry     beta= 0.70
     Davidson diagonalization with overlap
     ethr =  1.00E-06,  avg # of iterations =  5.9

     total cpu time spent up to now is       32.5 secs

     total energy              =     -74.34060774 Ry
     estimated scf accuracy    <       0.00022943 Ry

     iteration #  2     ecut=    80.00 Ry     beta= 0.70
     Davidson diagonalization with overlap
     ethr =  1.15E-06,  avg # of iterations =  2.7

     total cpu time spent up to now is       33.1 secs

     total energy              =     -74.34066652 Ry
     estimated scf accuracy    <       0.00046086 Ry

     iteration #  3     ecut=    80.00 Ry     beta= 0.70
     Davidson diagonalization with overlap
     ethr =  1.15E-06,  avg # of iterations =  2.1

     total cpu time spent up to now is       33.5 secs

     total energy              =     -74.34074047 Ry
     estimated scf accuracy    <       0.00000335 Ry

     iteration #  4     ecut=    80.00 Ry     beta= 0.70
     Davidson diagonalization with overlap
     ethr =  1.68E-08,  avg # of iterations =  3.4

     total cpu time spent up to now is       34.0 secs

     total energy              =     -74.34074152 Ry
     estimated scf accuracy    <       0.00000015 Ry

     iteration #  5     ecut=    80.00 Ry     beta= 0.70
     Davidson diagonalization with overlap
     ethr =  7.55E-10,  avg # of iterations =  2.9

     total cpu time spent up to now is       34.5 secs

     total energy              =     -74.34074154 Ry
     estimated scf accuracy    <          9.8E-09 Ry

     iteration #  6     ecut=    80.00 Ry     beta= 0.70
     Davidson diagonalization with overlap
     ethr =  4.88E-11,  avg # of iterations =  2.0

     total cpu time spent up to now is       35.0 secs

     End of self-consistent calculation

          k = 0.0000 0.0000 0.0000 (  4303 PWs)   bands (ev):

   -37.7442 -37.5863 -37.4985 -37.4178  -2.9380   0.6801   3.2216   7.9240
     7.9240  10.0005  10.0005  11.0758  11.0758  12.0580

          k =-0.2880-0.1663 0.0649 (  4271 PWs)   bands (ev):

   -37.7160 -37.5784 -37.5064 -37.4418  -2.6806   1.0017   3.5515   5.6543
     6.6870   8.1767   9.0961  11.3124  12.5844  13.0721

          k =-0.5761-0.3326 0.1298 (  4288 PWs)   bands (ev):

   -37.6502 -37.5701 -37.5219 -37.4939  -2.1295   1.6980   3.2005   4.7698
     5.6809   5.9205   8.0029  10.1561  11.4090  12.4111

          k =-0.2880 0.1663 0.1298 (  4261 PWs)   bands (ev):

   -37.7151 -37.5808 -37.5049 -37.4418  -2.6613   0.8336   3.8538   5.7899
     6.4370   7.7127   9.9276  11.3427  11.9118  13.2132

          k =-0.5761-0.0000 0.1948 (  4287 PWs)   bands (ev):

   -37.6664 -37.5702 -37.5190 -37.4817  -2.2333   1.3337   3.9572   4.8875
     5.0517   6.4243   7.9046  11.3649  12.5989  13.6324

          k = 0.5761 0.6652-0.0649 (  4274 PWs)   bands (ev):

   -37.6124 -37.5743 -37.5270 -37.5202  -1.9165   2.0704   3.1305   4.4207
     5.2042   5.6497   6.4024  10.9538  13.0409  13.3100

          k = 0.2880 0.4989 0.0000 (  4270 PWs)   bands (ev):

   -37.6692 -37.5607 -37.5263 -37.4809  -2.2758   1.7416   3.5929   4.6615
     5.0431   6.7567   7.1396  12.6573  13.2868  13.3091

          k =-0.5761 0.3326 0.2597 (  4266 PWs)   bands (ev):

   -37.6519 -37.5623 -37.5286 -37.4932  -2.0983   1.4522   3.6477   4.2756
     5.2605   6.1864   9.7907  10.4637  11.2665  12.2466

          k = 0.5761 0.9978 0.0000 (  4280 PWs)   bands (ev):

   -37.6168 -37.5592 -37.5426 -37.5154  -1.8948   1.9127   3.5167   4.0265
     4.3623   6.1432   7.7815  11.0416  11.5259  13.5458

          k =-0.0000-0.0000 0.1948 (  4288 PWs)   bands (ev):

   -37.7403 -37.5954 -37.4933 -37.4178  -2.8714   0.2127   4.0616   7.7960
     7.7960  10.4109  10.4109  10.4886  10.9085  10.9085

          k =-0.2880-0.1663 0.2597 (  4278 PWs)   bands (ev):

   -37.7105 -37.5915 -37.4987 -37.4419  -2.5883   0.3904   4.6375   5.6082
     6.6579   8.5990   9.1929  10.5236  12.1492  12.4058

          k = 0.8641 0.4989 0.0000 (  4285 PWs)   bands (ev):

   -37.6458 -37.5798 -37.5140 -37.4963  -2.0759   1.2839   3.2772   5.2834
     5.5446   6.2646   8.3843   9.9303  10.8288  12.2077

          k = 0.5761 0.3326 0.0649 (  4269 PWs)   bands (ev):

   -37.6535 -37.5569 -37.5331 -37.4925  -2.1423   1.8590   3.2432   4.4979
     5.4589   5.6148   8.6731  10.9466  11.4749  12.8688

          k =-0.2880 0.1663 0.3246 (  4289 PWs)   bands (ev):

   -37.7087 -37.5950 -37.4970 -37.4420  -2.5516   0.2133   5.2397   5.6921
     6.2995   7.7713  10.1387  10.8581  11.4447  12.9235

          k = 0.8641 0.8315 0.0649 (  4277 PWs)   bands (ev):

   -37.6611 -37.5827 -37.5103 -37.4833  -2.1580   0.8711   4.1368   4.8458
     5.7601   6.4877   8.6596  10.0855  12.1842  13.0327

          k = 0.5761 0.6652 0.1298 (  4260 PWs)   bands (ev):

   -37.6152 -37.5661 -37.5360 -37.5165  -1.9032   1.9805   3.2508   4.2554
     4.7475   5.7959   7.2783  11.5879  11.9254  12.9433

          k = 0.8641-0.4989-0.1948 (  4269 PWs)   bands (ev):

   -37.6472 -37.5760 -37.5173 -37.4955  -2.0551   1.1676   3.4569   4.8895
     5.3001   6.6549   9.4794   9.8373  11.0557  12.5847

          k =-0.0000-0.0000 0.3895 (  4289 PWs)   bands (ev):

   -37.7333 -37.6096 -37.4861 -37.4177  -2.7449  -0.3418   5.6833   7.6358
     7.6358   8.4222  10.5895  10.5895  11.4656  11.4656

          k = 1.1521 0.6652 0.1298 (  4287 PWs)   bands (ev):

   -37.7055 -37.6013 -37.4938 -37.4420  -2.4982   0.0029   5.3767   6.1854
     6.4049   7.9754   9.5534  10.1443  11.6874  12.8970

     the Fermi energy is     7.7611 ev

!    total energy              =     -74.34074154 Ry
     estimated scf accuracy    <          5.4E-10 Ry
     smearing contrib. (-TS)   =      -0.00136839 Ry
     internal energy E=F+TS    =     -74.33937315 Ry

     The total energy is F=E-TS. E is the sum of the following terms:
     one-electron contribution =     -20.90351612 Ry
     hartree contribution      =      13.35579437 Ry
     xc contribution           =     -20.56033237 Ry
     ewald contribution        =     -46.23131903 Ry

     convergence has been achieved in   6 iterations

     Forces acting on atoms (cartesian axes, Ry/au):

     atom    1 type  1   force =    -0.00000000    0.00000000    0.01114901
     atom    2 type  1   force =     0.00000000   -0.00000000   -0.01114901
     atom    3 type  1   force =     0.00000000    0.00000000    0.01458895
     atom    4 type  1   force =    -0.00000000    0.00000000   -0.01458895
     atom    5 type  2   force =     0.00000000   -0.00000000   -0.01281379
     atom    6 type  2   force =    -0.00000000   -0.00000000    0.01281379
     The non-local contrib.  to forces
     atom    1 type  1   force =     0.00000000    0.00000000    0.01238297
     atom    2 type  1   force =     0.00000000   -0.00000000   -0.01238297
     atom    3 type  1   force =    -0.00000000   -0.00000000    0.02996067
     atom    4 type  1   force =    -0.00000000   -0.00000000   -0.02996067
     atom    5 type  2   force =     0.00000000   -0.00000000    0.02606095
     atom    6 type  2   force =    -0.00000000    0.00000000   -0.02606095
     The ionic contribution  to forces
     atom    1 type  1   force =     0.00000000    0.00000000   -0.61316303
     atom    2 type  1   force =     0.00000000   -0.00000000    0.61316303
     atom    3 type  1   force =    -0.00000000    0.00000000    0.72033473
     atom    4 type  1   force =     0.00000000   -0.00000000   -0.72033473
     atom    5 type  2   force =     0.00000000    0.00000000   -1.59065407
     atom    6 type  2   force =    -0.00000000   -0.00000000    1.59065407
     The local contribution  to forces
     atom    1 type  1   force =    -0.00000000   -0.00000000    0.61193877
     atom    2 type  1   force =    -0.00000000    0.00000000   -0.61193877
     atom    3 type  1   force =     0.00000000   -0.00000000   -0.73572208
     atom    4 type  1   force =    -0.00000000    0.00000000    0.73572208
     atom    5 type  2   force =    -0.00000000   -0.00000000    1.54883492
     atom    6 type  2   force =    -0.00000000    0.00000000   -1.54883492
     The core correction contribution to forces
     atom    1 type  1   force =     0.00000000    0.00000000    0.00000000
     atom    2 type  1   force =     0.00000000    0.00000000    0.00000000
     atom    3 type  1   force =     0.00000000    0.00000000    0.00000000
     atom    4 type  1   force =     0.00000000    0.00000000    0.00000000
     atom    5 type  2   force =     0.00000000   -0.00000000    0.00296724
     atom    6 type  2   force =     0.00000000    0.00000000   -0.00296724
     The Hubbard contrib.    to forces
     atom    1 type  1   force =     0.00000000    0.00000000    0.00000000
     atom    2 type  1   force =     0.00000000    0.00000000    0.00000000
     atom    3 type  1   force =     0.00000000    0.00000000    0.00000000
     atom    4 type  1   force =     0.00000000    0.00000000    0.00000000
     atom    5 type  2   force =     0.00000000    0.00000000    0.00000000
     atom    6 type  2   force =     0.00000000    0.00000000    0.00000000
     The SCF correction term to forces
     atom    1 type  1   force =     0.00000000   -0.00000000   -0.00000970
     atom    2 type  1   force =    -0.00000000    0.00000000    0.00000970
     atom    3 type  1   force =    -0.00000000    0.00000000    0.00001564
     atom    4 type  1   force =     0.00000000   -0.00000000   -0.00001564
     atom    5 type  2   force =     0.00000000    0.00000000   -0.00002283
     atom    6 type  2   force =    -0.00000000    0.00000000    0.00002283

     Total force =     0.031665     Total SCF correction =     0.000041


     Computing stress (Cartesian axis) and pressure

          total   stress  (Ry/bohr**3)                   (kbar)     P=      499.40
[...]
     new unit-cell volume =    389.35350 a.u.^3 (    57.69624 Ang^3 )
     density =      2.41571 g/cm^3

CELL_PARAMETERS (alat=  9.70146046)
   0.344378271  -0.198826888   1.037936117
   0.000000000   0.397653775   1.037936117
  -0.344378271  -0.198826888   1.037936117

ATOMIC_POSITIONS (crystal)
Li            0.1503845432        0.1503845432        0.1503845432
Li            0.8496154568        0.8496154568        0.8496154568
Li            0.2950429259        0.2950429259        0.2950429259
Li            0.7049570741        0.7049570741        0.7049570741
Si            0.4317773977        0.4317773977        0.4317773977
Si            0.5682226023        0.5682226023        0.5682226023
End final coordinates



     Writing config-only to output data dir ./output/LiSi.save/

     Final scf calculation at the relaxed structure.
     The G-vectors are recalculated for the final unit cell
     Results may differ from those at the preceding step.

     Parallelization info
     --------------------
     sticks:   dense  smooth     PW     G-vecs:    dense   smooth      PW
     Min         217     217     65                 4691     4691     780
     Max         218     218     66                 4692     4692     781
     Sum        1737    1737    527                37533    37533    6247

     Using Slab Decomposition



     bravais-lattice index     =            5
     lattice parameter (alat)  =       9.7015  a.u.
     unit-cell volume          =     389.3535 (a.u.)^3
     number of atoms/cell      =            6
     number of atomic types    =            2
     number of electrons       =        20.00
     number of Kohn-Sham states=           14
     kinetic-energy cutoff     =      80.0000  Ry
     charge density cutoff     =     320.0000  Ry
     scf convergence threshold =      1.0E-10
     mixing beta               =       0.7000
     number of iterations used =            8  plain     mixing
     press convergence thresh. =      1.0E+00
     Exchange-correlation= PBE
                           (   1   4   3   4   0   0   0)

     celldm(1)=   9.701460  celldm(2)=   0.000000  celldm(3)=   0.000000
     celldm(4)=   0.755487  celldm(5)=   0.000000  celldm(6)=   0.000000

     crystal axes: (cart. coord. in units of alat)
               a(1) = (   0.344378  -0.198827   1.037936 )  
               a(2) = (   0.000000   0.397654   1.037936 )  
               a(3) = (  -0.344378  -0.198827   1.037936 )  

     reciprocal axes: (cart. coord. in units 2 pi/alat)
               b(1) = (  1.451892 -0.838250  0.321150 )  
               b(2) = ( -0.000000  1.676500  0.321150 )  
               b(3) = ( -1.451892 -0.838250  0.321150 )  


     PseudoPot. # 1 for Li read from file:
     ../pseudo/Li_ONCV_PBE_sr.upf
     MD5 check sum: 50ff420e78310ffa21704f3361e624a4
     Pseudo is Norm-conserving, Zval =  3.0
     Generated using ONCVPSP code by D. R. Hamann
     Using radial grid of 1944 points,  4 beta functions with: 
                l(1) =   0
                l(2) =   0
                l(3) =   1
                l(4) =   1

     PseudoPot. # 2 for Si read from file:
     ../pseudo/Si_ONCV_PBE_sr.upf
     MD5 check sum: e543d271109d17c80368dfa7c482276d
     Pseudo is Norm-conserving + core correction, Zval =  4.0
     Generated using ONCVPSP code by D. R. Hamann
     Using radial grid of 1510 points,  6 beta functions with: 
                l(1) =   0
                l(2) =   0
                l(3) =   1
                l(4) =   1
                l(5) =   2
                l(6) =   2

     atomic species   valence    mass     pseudopotential
        Li             3.00     6.94100     Li( 1.00)
        Si             4.00    28.08550     Si( 1.00)

     12 Sym. Ops., with inversion, found



   Cartesian axes

     site n.     atom                  positions (alat units)
         1           Li  tau(   1) = (  -0.0000000  -0.0000000   0.4682686  )
         2           Li  tau(   2) = (   0.0000000  -0.0000000   2.6455397  )
         3           Li  tau(   3) = (  -0.0000000  -0.0000000   0.9187071  )
         4           Li  tau(   4) = (  -0.0000000  -0.0000000   2.1951012  )
         5           Si  tau(   5) = (   0.0000000  -0.0000000   1.3444721  )
         6           Si  tau(   6) = (  -0.0000000  -0.0000000   1.7693363  )

     number of k points=    19  Marzari-Vanderbilt smearing, width (Ry)=  0.0200
                       cart. coord. in units 2pi/alat
        k(    1) = (   0.0000000   0.0000000   0.0000000), wk =   0.0160000
        k(    2) = (  -0.2903784  -0.1676500   0.0642300), wk =   0.0960000
        k(    3) = (  -0.5807567  -0.3353001   0.1284601), wk =   0.0960000
        k(    4) = (  -0.2903784   0.1676500   0.1284601), wk =   0.0960000
        k(    5) = (  -0.5807567  -0.0000000   0.1926901), wk =   0.1920000
        k(    6) = (   0.5807567   0.6706001  -0.0642300), wk =   0.1920000
        k(    7) = (   0.2903784   0.5029501   0.0000000), wk =   0.0960000
        k(    8) = (  -0.5807567   0.3353001   0.2569201), wk =   0.0960000
        k(    9) = (   0.5807567   1.0059002   0.0000000), wk =   0.0960000
        k(   10) = (   0.0000000   0.0000000   0.1926901), wk =   0.0320000
        k(   11) = (  -0.2903784  -0.1676500   0.2569201), wk =   0.0960000
        k(   12) = (   0.8711351   0.5029501   0.0000000), wk =   0.0960000
        k(   13) = (   0.5807567   0.3353001   0.0642300), wk =   0.0960000
        k(   14) = (  -0.2903784   0.1676500   0.3211501), wk =   0.0960000
        k(   15) = (   0.8711351   0.8382501   0.0642300), wk =   0.1920000
        k(   16) = (   0.5807567   0.6706001   0.1284601), wk =   0.1920000
        k(   17) = (   0.8711351  -0.5029501  -0.1926901), wk =   0.0960000
        k(   18) = (   0.0000000   0.0000000   0.3853802), wk =   0.0320000
        k(   19) = (   1.1615135   0.6706001   0.1284601), wk =   0.0960000

     Dense  grid:    37533 G-vectors     FFT dimensions: (  64,  64,  64)

     Estimated max dynamical RAM per process >      19.57 MB

     Estimated total dynamical RAM >     156.59 MB

     Initial potential from superposition of free atoms

     starting charge      19.9805, renormalised to      20.0000
     Starting wfcs are   16 randomized atomic wfcs

     total cpu time spent up to now is       69.5 secs

     Self-consistent Calculation

     iteration #  1     ecut=    80.00 Ry     beta= 0.70
     Davidson diagonalization with overlap
     c_bands:  1 eigenvalues not converged
     c_bands:  1 eigenvalues not converged
     c_bands:  1 eigenvalues not converged
     c_bands:  1 eigenvalues not converged
     c_bands:  1 eigenvalues not converged
     c_bands:  1 eigenvalues not converged
     c_bands:  1 eigenvalues not converged
     c_bands:  1 eigenvalues not converged
     ethr =  1.00E-06,  avg # of iterations = 17.7

     total cpu time spent up to now is       71.4 secs

     total energy              =     -74.24632606 Ry
     estimated scf accuracy    <       0.18945897 Ry

     iteration #  2     ecut=    80.00 Ry     beta= 0.70
     Davidson diagonalization with overlap
     ethr =  9.47E-04,  avg # of iterations =  3.1

     total cpu time spent up to now is       72.0 secs

     total energy              =     -74.26872858 Ry
     estimated scf accuracy    <       0.35386546 Ry

     iteration #  3     ecut=    80.00 Ry     beta= 0.70
     Davidson diagonalization with overlap
     ethr =  9.47E-04,  avg # of iterations =  2.0

     total cpu time spent up to now is       72.5 secs

     total energy              =     -74.33589108 Ry
     estimated scf accuracy    <       0.00121267 Ry

     iteration #  4     ecut=    80.00 Ry     beta= 0.70
     Davidson diagonalization with overlap
     c_bands:  1 eigenvalues not converged
     ethr =  6.06E-06,  avg # of iterations =  4.9

     total cpu time spent up to now is       73.2 secs

     total energy              =     -74.33634250 Ry
     estimated scf accuracy    <       0.00036349 Ry

     iteration #  5     ecut=    80.00 Ry     beta= 0.70
     Davidson diagonalization with overlap
     ethr =  1.82E-06,  avg # of iterations =  1.9

     total cpu time spent up to now is       73.7 secs

     total energy              =     -74.33637751 Ry
     estimated scf accuracy    <       0.00001596 Ry

     iteration #  6     ecut=    80.00 Ry     beta= 0.70
     Davidson diagonalization with overlap
     ethr =  7.98E-08,  avg # of iterations =  3.2

     total cpu time spent up to now is       74.3 secs

     total energy              =     -74.33638311 Ry
     estimated scf accuracy    <       0.00000225 Ry

     iteration #  7     ecut=    80.00 Ry     beta= 0.70
     Davidson diagonalization with overlap
     ethr =  1.12E-08,  avg # of iterations =  2.0

     total cpu time spent up to now is       74.8 secs

     total energy              =     -74.33638351 Ry
     estimated scf accuracy    <          7.9E-09 Ry

     iteration #  8     ecut=    80.00 Ry     beta= 0.70
     Davidson diagonalization with overlap
     ethr =  3.94E-11,  avg # of iterations =  4.2

     total cpu time spent up to now is       75.4 secs

     total energy              =     -74.33638353 Ry
     estimated scf accuracy    <       0.00000001 Ry

     iteration #  9     ecut=    80.00 Ry     beta= 0.70
     Davidson diagonalization with overlap
     ethr =  3.94E-11,  avg # of iterations =  2.0

     total cpu time spent up to now is       75.9 secs

     End of self-consistent calculation

          k = 0.0000 0.0000 0.0000 (  4721 PWs)   bands (ev):

   -37.7142 -37.5654 -37.4514 -37.3194  -2.8605   0.4881   3.3496   8.1488
     8.1488  10.1574  10.1574  11.2807  11.2807  12.0817

          k =-0.2904-0.1677 0.0642 (  4717 PWs)   bands (ev):

   -37.6815 -37.5539 -37.4617 -37.3491  -2.5940   0.8638   3.6338   5.8219
     6.8566   8.2306   9.2748  11.4522  12.6819  13.3244

          k =-0.5808-0.3353 0.1285 (  4697 PWs)   bands (ev):

   -37.6052 -37.5370 -37.4802 -37.4172  -2.0231   1.6953   3.2743   4.8407
     5.8212   5.8320   8.1745  10.3076  11.5403  12.2763

          k =-0.2904 0.1677 0.1285 (  4716 PWs)   bands (ev):

   -37.6806 -37.5560 -37.4605 -37.3492  -2.5764   0.7230   3.9082   5.9458
     6.6166   7.7915  10.0975  11.5252  11.7913  13.4706

          k =-0.5808-0.0000 0.1927 (  4703 PWs)   bands (ev):

   -37.6241 -37.5392 -37.4771 -37.4005  -2.1355   1.3162   3.9993   5.0139
     5.1907   6.4325   7.9390  11.3552  12.6121  13.8076

          k = 0.5808 0.6706-0.0642 (  4716 PWs)   bands (ev):

   -37.5618 -37.5360 -37.4836 -37.4561  -1.8067   2.1327   3.2199   4.5481
     5.2417   5.6148   6.3995  10.9169  13.0979  13.3754

          k = 0.2904 0.5030 0.0000 (  4691 PWs)   bands (ev):

   -37.6275 -37.5299 -37.4837 -37.3998  -2.1750   1.6818   3.6339   4.8185
     5.1941   6.7276   7.2399  12.6451  13.2764  13.5408

          k =-0.5808 0.3353 0.2569 (  4675 PWs)   bands (ev):

   -37.6077 -37.5287 -37.4865 -37.4167  -1.9995   1.4912   3.7107   4.3313
     5.4206   6.0842   9.9685  10.4691  11.4589  12.1982

          k = 0.5808 1.0059 0.0000 (  4686 PWs)   bands (ev):

   -37.5693 -37.5138 -37.5016 -37.4529  -1.7903   2.0118   3.6057   4.0568
     4.4711   6.0770   7.7688  11.1321  11.3599  13.7904

          k = 0.0000 0.0000 0.1927 (  4769 PWs)   bands (ev):

   -37.7105 -37.5730 -37.4474 -37.3195  -2.7979   0.0974   4.1011   8.0200
     8.0200  10.2985  10.5549  10.5549  11.1358  11.1358

          k =-0.2904-0.1677 0.2569 (  4715 PWs)   bands (ev):

   -37.6759 -37.5657 -37.4552 -37.3495  -2.5073   0.3308   4.6258   5.7832
     6.8284   8.5465   9.3719  10.6071  12.2757  12.4400

          k = 0.8711 0.5030 0.0000 (  4694 PWs)   bands (ev):

   -37.5993 -37.5486 -37.4731 -37.4186  -1.9737   1.3096   3.3737   5.2796
     5.6923   6.1783   8.5483   9.9960  10.9434  12.1994

          k = 0.5808 0.3353 0.0642 (  4688 PWs)   bands (ev):

   -37.6096 -37.5233 -37.4906 -37.4161  -2.0379   1.8618   3.2983   4.5908
     5.5442   5.6108   8.8328  11.1005  11.5531  12.7639

          k =-0.2904 0.1677 0.3212 (  4725 PWs)   bands (ev):

   -37.6740 -37.5691 -37.4536 -37.3496  -2.4737   0.1724   5.1899   5.8627
     6.4834   7.7867  10.0997  11.0593  11.5969  12.9368

          k = 0.8711 0.8383 0.0642 (  4700 PWs)   bands (ev):

   -37.6175 -37.5528 -37.4690 -37.4017  -2.0657   0.8886   4.2360   4.9882
     5.7747   6.4917   8.6728  10.0247  12.2162  13.0037

          k = 0.5808 0.6706 0.1285 (  4705 PWs)   bands (ev):

   -37.5670 -37.5242 -37.4924 -37.4540  -1.7966   2.0657   3.3344   4.3750
     4.7653   5.7667   7.2696  11.5851  11.7980  13.0275

          k = 0.8711-0.5030-0.1927 (  4692 PWs)   bands (ev):

   -37.6014 -37.5440 -37.4760 -37.4182  -1.9580   1.2134   3.5550   4.8905
     5.4586   6.5320   9.6448   9.8262  11.2878  12.5475

          k = 0.0000 0.0000 0.3854 (  4714 PWs)   bands (ev):

   -37.7038 -37.5854 -37.4416 -37.3197  -2.6794  -0.3954   5.6285   7.8595
     7.8595   8.2476  10.7876  10.7876  11.6433  11.6433

          k = 1.1615 0.6706 0.1285 (  4718 PWs)   bands (ev):

   -37.6706 -37.5751 -37.4508 -37.3498  -2.4234  -0.0206   5.4453   6.2232
     6.5851   7.8432   9.6572  10.3214  11.8342  13.0120

     the Fermi energy is     7.8170 ev

!    total energy              =     -74.33638353 Ry
     estimated scf accuracy    <          2.4E-11 Ry
     smearing contrib. (-TS)   =      -0.00157784 Ry
     internal energy E=F+TS    =     -74.33480568 Ry

     The total energy is F=E-TS. E is the sum of the following terms:
     one-electron contribution =     -20.94693978 Ry
     hartree contribution      =      13.42198614 Ry
     xc contribution           =     -20.56610352 Ry
     ewald contribution        =     -46.24374852 Ry

     convergence has been achieved in   9 iterations

     Forces acting on atoms (cartesian axes, Ry/au):

     atom    1 type  1   force =     0.00000000    0.00000000    0.00010231
     atom    2 type  1   force =     0.00000000   -0.00000000   -0.00010231
     atom    3 type  1   force =     0.00000000    0.00000000   -0.00007054
     atom    4 type  1   force =    -0.00000000   -0.00000000    0.00007054
     atom    5 type  2   force =    -0.00000000   -0.00000000    0.00062209
     atom    6 type  2   force =     0.00000000    0.00000000   -0.00062209
     The non-local contrib.  to forces
     atom    1 type  1   force =     0.00000000   -0.00000000    0.00544268
     atom    2 type  1   force =     0.00000000    0.00000000   -0.00544268
     atom    3 type  1   force =     0.00000000    0.00000000    0.02628965
     atom    4 type  1   force =    -0.00000000    0.00000000   -0.02628965
     atom    5 type  2   force =     0.00000000   -0.00000000    0.04500005
     atom    6 type  2   force =    -0.00000000   -0.00000000   -0.04500005
     The ionic contribution  to forces
     atom    1 type  1   force =     0.00000000    0.00000000   -0.56689171
     atom    2 type  1   force =    -0.00000000   -0.00000000    0.56689171
     atom    3 type  1   force =    -0.00000000    0.00000000    0.64830994
     atom    4 type  1   force =     0.00000000   -0.00000000   -0.64830994
     atom    5 type  2   force =    -0.00000000    0.00000000   -1.60825993
     atom    6 type  2   force =     0.00000000   -0.00000000    1.60825993
     The local contribution  to forces
     atom    1 type  1   force =     0.00000000   -0.00000000    0.56155265
     atom    2 type  1   force =    -0.00000000    0.00000000   -0.56155265
     atom    3 type  1   force =     0.00000000   -0.00000000   -0.67467232
     atom    4 type  1   force =     0.00000000   -0.00000000    0.67467232
     atom    5 type  2   force =    -0.00000000   -0.00000000    1.56223357
     atom    6 type  2   force =     0.00000000    0.00000000   -1.56223357
     The core correction contribution to forces
     atom    1 type  1   force =     0.00000000    0.00000000    0.00000000
     atom    2 type  1   force =     0.00000000    0.00000000    0.00000000
     atom    3 type  1   force =     0.00000000    0.00000000    0.00000000
     atom    4 type  1   force =     0.00000000    0.00000000    0.00000000
     atom    5 type  2   force =     0.00000000   -0.00000000    0.00165309
     atom    6 type  2   force =     0.00000000    0.00000000   -0.00165309
     The Hubbard contrib.    to forces
     atom    1 type  1   force =     0.00000000    0.00000000    0.00000000
     atom    2 type  1   force =     0.00000000    0.00000000    0.00000000
     atom    3 type  1   force =     0.00000000    0.00000000    0.00000000
     atom    4 type  1   force =     0.00000000    0.00000000    0.00000000
     atom    5 type  2   force =     0.00000000    0.00000000    0.00000000
     atom    6 type  2   force =     0.00000000    0.00000000    0.00000000
     The SCF correction term to forces
     atom    1 type  1   force =    -0.00000000    0.00000000   -0.00000130
     atom    2 type  1   force =     0.00000000   -0.00000000    0.00000130
     atom    3 type  1   force =     0.00000000    0.00000000    0.00000219
     atom    4 type  1   force =    -0.00000000   -0.00000000   -0.00000219
     atom    5 type  2   force =     0.00000000   -0.00000000   -0.00000470
     atom    6 type  2   force =    -0.00000000   -0.00000000    0.00000470

     Total force =     0.000897     Total SCF correction =     0.000008


     Computing stress (Cartesian axis) and pressure

          total   stress  (Ry/bohr**3)                   (kbar)     P=      501.35
   0.00340226  -0.00000000  -0.00000000          500.49       -0.00       -0.00
   0.00000000   0.00340226   0.00000000            0.00      500.49        0.00
   0.00000000   0.00000000   0.00341979            0.00        0.00      503.07


     Writing all to output data dir ./output/LiSi.save/

     init_run     :      1.56s CPU      1.99s WALL (       2 calls)
     electrons    :     51.25s CPU     55.34s WALL (      14 calls)
     update_pot   :      4.60s CPU      4.67s WALL (      12 calls)
     forces       :      3.17s CPU      3.25s WALL (      14 calls)
     stress       :     10.53s CPU     11.23s WALL (      14 calls)

     Called by init_run:
     wfcinit      :      0.42s CPU      0.55s WALL (       2 calls)
     potinit      :      0.35s CPU      0.44s WALL (       2 calls)
     hinit0       :      0.74s CPU      0.85s WALL (       2 calls)

     Called by electrons:
     c_bands      :     42.80s CPU     45.20s WALL (      97 calls)
     sum_band     :      6.62s CPU      7.26s WALL (      97 calls)
     v_of_rho     :      1.90s CPU      2.83s WALL (     107 calls)
     mix_rho      :      0.07s CPU      0.10s WALL (      97 calls)

     Called by c_bands:
     init_us_2    :      0.74s CPU      0.83s WALL (    4256 calls)
     init_us_2:cp :      0.73s CPU      0.82s WALL (    4256 calls)
     cegterg      :     41.01s CPU     42.56s WALL (    1843 calls)

     Called by *egterg:
     cdiaghg      :      1.69s CPU      1.78s WALL (    7506 calls)
     h_psi        :     37.00s CPU     38.49s WALL (    7848 calls)
     g_psi        :      0.10s CPU      0.10s WALL (    5967 calls)

     Called by h_psi:
     h_psi:calbec :      1.51s CPU      1.57s WALL (    7848 calls)
     vloc_psi     :     34.23s CPU     35.62s WALL (    7848 calls)
     add_vuspsi   :      1.17s CPU      1.21s WALL (    7848 calls)

     General routines
     calbec       :      2.04s CPU      2.11s WALL (    9178 calls)
     fft          :      1.55s CPU      2.74s WALL (    1422 calls)
     ffts         :      0.06s CPU      0.21s WALL (      97 calls)
     fftw         :     34.79s CPU     36.17s WALL (  175064 calls)

     Parallel routines

     PWSCF        :   1m11.43s CPU   1m17.14s WALL


   This run was terminated on:  14:49:52  27Dec2024            

=------------------------------------------------------------------------------=
   JOB DONE.
=------------------------------------------------------------------------------=
