
     Program PWSCF v.7.2 starts on 28Dec2024 at 18:25:49 

     This program is part of the open-source Quantum ESPRESSO suite
     for quantum simulation of materials; please cite
         "P. Giannozzi et al., J. Phys.:Condens. Matter 21 395502 (2009);
         "P. Giannozzi et al., J. Phys.:Condens. Matter 29 465901 (2017);
         "P. Giannozzi et al., J. Chem. Phys. 152 154105 (2020);
          URL http://www.quantum-espresso.org", 
     in publications or presentations arising from this work. More details at
     http://www.quantum-espresso.org/quote

     Parallel version (MPI & OpenMP), running on       8 processor cores
     Number of MPI processes:                 8
     Threads/MPI process:                     1

     MPI processes distributed on     1 nodes
     479349 MiB available memory on the printing compute node when the environment starts

     Waiting for input...
     Reading input from standard input

     Current dimensions of program PWSCF are:
     Max number of different atomic species (ntypx) = 10
     Max number of k-points (npk) =  40000
     Max angular momentum in pseudopotentials (lmaxx) =  4

     R & G space division:  proc/nbgrp/npool/nimage =       8
     Subspace diagonalization in iterative solution of the eigenvalue problem:
     a serial algorithm will be used


     Parallelization info
     --------------------
     sticks:   dense  smooth     PW     G-vecs:    dense   smooth      PW
     Min         371     371    106                 9974     9974    1522
     Max         374     374    108                 9975     9975    1523
     Sum        2981    2981    853                79797    79797   12177

     Using Slab Decomposition



     bravais-lattice index     =            6
     lattice parameter (alat)  =      10.8317  a.u.
     unit-cell volume          =     825.8440 (a.u.)^3
     number of atoms/cell      =            6
     number of atomic types    =            2
     number of electrons       =        22.00
     number of Kohn-Sham states=           15
     kinetic-energy cutoff     =      80.0000  Ry
     charge density cutoff     =     320.0000  Ry
     scf convergence threshold =      1.0E-08
     mixing beta               =       0.7000
     number of iterations used =            8  plain     mixing
     energy convergence thresh.=      1.0E-04
     force convergence thresh. =      1.0E-03
     press convergence thresh. =      1.0E+00
     Exchange-correlation= PBE
                           (   1   4   3   4   0   0   0)
     nstep                     =           50


     celldm(1)=  10.831708  celldm(2)=   0.000000  celldm(3)=   0.649841
     celldm(4)=   0.000000  celldm(5)=   0.000000  celldm(6)=   0.000000

     crystal axes: (cart. coord. in units of alat)
               a(1) = (   1.000000   0.000000   0.000000 )  
               a(2) = (   0.000000   1.000000   0.000000 )  
               a(3) = (   0.000000   0.000000   0.649841 )  

     reciprocal axes: (cart. coord. in units 2 pi/alat)
               b(1) = (  1.000000  0.000000  0.000000 )  
               b(2) = (  0.000000  1.000000  0.000000 )  
               b(3) = (  0.000000  0.000000  1.538838 )  


     PseudoPot. # 1 for Li read from file:
     ../pseudo/Li_ONCV_PBE_sr.upf
     MD5 check sum: 50ff420e78310ffa21704f3361e624a4
     Pseudo is Norm-conserving, Zval =  3.0
     Generated using ONCVPSP code by D. R. Hamann
     Using radial grid of 1944 points,  4 beta functions with: 
                l(1) =   0
                l(2) =   0
                l(3) =   1
                l(4) =   1

     PseudoPot. # 2 for Si read from file:
     ../pseudo/Si_ONCV_PBE_sr.upf
     MD5 check sum: e543d271109d17c80368dfa7c482276d
     Pseudo is Norm-conserving + core correction, Zval =  4.0
     Generated using ONCVPSP code by D. R. Hamann
     Using radial grid of 1510 points,  6 beta functions with: 
                l(1) =   0
                l(2) =   0
                l(3) =   1
                l(4) =   1
                l(5) =   2
                l(6) =   2

     atomic species   valence    mass     pseudopotential
        Li             3.00     6.94100     Li( 1.00)
        Si             4.00    28.08550     Si( 1.00)

     16 Sym. Ops., with inversion, found ( 8 have fractional translation)



   Cartesian axes

     site n.     atom                  positions (alat units)
         1           Li  tau(   1) = (   0.0000000   0.0000000   0.0000000  )
         2           Li  tau(   2) = (   0.5000000   0.5000000   0.3249205  )
         3           Si  tau(   3) = (   0.1973955   0.8026045   0.3249205  )
         4           Si  tau(   4) = (   0.8026045   0.1973955   0.3249205  )
         5           Si  tau(   5) = (   0.6973955   0.6973955   0.0000000  )
         6           Si  tau(   6) = (   0.3026045   0.3026045   0.0000000  )

     number of k points=    60  Marzari-Vanderbilt smearing, width (Ry)=  0.0200
                       cart. coord. in units 2pi/alat
        k(    1) = (   0.0000000   0.0000000   0.0000000), wk =   0.0055556
        k(    2) = (   0.0000000   0.0000000   0.1538838), wk =   0.0111111
        k(    3) = (   0.0000000   0.0000000   0.3077676), wk =   0.0111111
        k(    4) = (   0.0000000   0.0000000   0.4616513), wk =   0.0111111
        k(    5) = (   0.0000000   0.0000000   0.6155351), wk =   0.0111111
        k(    6) = (   0.0000000   0.0000000  -0.7694189), wk =   0.0055556
        k(    7) = (   0.0000000   0.1666667   0.0000000), wk =   0.0222222
        k(    8) = (   0.0000000   0.1666667   0.1538838), wk =   0.0444444
        k(    9) = (   0.0000000   0.1666667   0.3077676), wk =   0.0444444
        k(   10) = (   0.0000000   0.1666667   0.4616513), wk =   0.0444444
        k(   11) = (   0.0000000   0.1666667   0.6155351), wk =   0.0444444
        k(   12) = (   0.0000000   0.1666667  -0.7694189), wk =   0.0222222
        k(   13) = (   0.0000000   0.3333333   0.0000000), wk =   0.0222222
        k(   14) = (   0.0000000   0.3333333   0.1538838), wk =   0.0444444
        k(   15) = (   0.0000000   0.3333333   0.3077676), wk =   0.0444444
        k(   16) = (   0.0000000   0.3333333   0.4616513), wk =   0.0444444
        k(   17) = (   0.0000000   0.3333333   0.6155351), wk =   0.0444444
        k(   18) = (   0.0000000   0.3333333  -0.7694189), wk =   0.0222222
        k(   19) = (   0.0000000  -0.5000000   0.0000000), wk =   0.0111111
        k(   20) = (   0.0000000  -0.5000000   0.1538838), wk =   0.0222222
        k(   21) = (   0.0000000  -0.5000000   0.3077676), wk =   0.0222222
        k(   22) = (   0.0000000  -0.5000000   0.4616513), wk =   0.0222222
        k(   23) = (   0.0000000  -0.5000000   0.6155351), wk =   0.0222222
        k(   24) = (   0.0000000  -0.5000000  -0.7694189), wk =   0.0111111
        k(   25) = (   0.1666667   0.1666667   0.0000000), wk =   0.0222222
        k(   26) = (   0.1666667   0.1666667   0.1538838), wk =   0.0444444
        k(   27) = (   0.1666667   0.1666667   0.3077676), wk =   0.0444444
        k(   28) = (   0.1666667   0.1666667   0.4616513), wk =   0.0444444
        k(   29) = (   0.1666667   0.1666667   0.6155351), wk =   0.0444444
        k(   30) = (   0.1666667   0.1666667  -0.7694189), wk =   0.0222222
        k(   31) = (   0.1666667   0.3333333   0.0000000), wk =   0.0444444
        k(   32) = (   0.1666667   0.3333333   0.1538838), wk =   0.0888889
        k(   33) = (   0.1666667   0.3333333   0.3077676), wk =   0.0888889
        k(   34) = (   0.1666667   0.3333333   0.4616513), wk =   0.0888889
        k(   35) = (   0.1666667   0.3333333   0.6155351), wk =   0.0888889
        k(   36) = (   0.1666667   0.3333333  -0.7694189), wk =   0.0444444
        k(   37) = (   0.1666667  -0.5000000   0.0000000), wk =   0.0222222
        k(   38) = (   0.1666667  -0.5000000   0.1538838), wk =   0.0444444
        k(   39) = (   0.1666667  -0.5000000   0.3077676), wk =   0.0444444
        k(   40) = (   0.1666667  -0.5000000   0.4616513), wk =   0.0444444
        k(   41) = (   0.1666667  -0.5000000   0.6155351), wk =   0.0444444
        k(   42) = (   0.1666667  -0.5000000  -0.7694189), wk =   0.0222222
        k(   43) = (   0.3333333   0.3333333   0.0000000), wk =   0.0222222
        k(   44) = (   0.3333333   0.3333333   0.1538838), wk =   0.0444444
        k(   45) = (   0.3333333   0.3333333   0.3077676), wk =   0.0444444
        k(   46) = (   0.3333333   0.3333333   0.4616513), wk =   0.0444444
        k(   47) = (   0.3333333   0.3333333   0.6155351), wk =   0.0444444
        k(   48) = (   0.3333333   0.3333333  -0.7694189), wk =   0.0222222
        k(   49) = (   0.3333333  -0.5000000   0.0000000), wk =   0.0222222
        k(   50) = (   0.3333333  -0.5000000   0.1538838), wk =   0.0444444
        k(   51) = (   0.3333333  -0.5000000   0.3077676), wk =   0.0444444
        k(   52) = (   0.3333333  -0.5000000   0.4616513), wk =   0.0444444
        k(   53) = (   0.3333333  -0.5000000   0.6155351), wk =   0.0444444
        k(   54) = (   0.3333333  -0.5000000  -0.7694189), wk =   0.0222222
        k(   55) = (  -0.5000000  -0.5000000   0.0000000), wk =   0.0055556
        k(   56) = (  -0.5000000  -0.5000000   0.1538838), wk =   0.0111111
        k(   57) = (  -0.5000000  -0.5000000   0.3077676), wk =   0.0111111
        k(   58) = (  -0.5000000  -0.5000000   0.4616513), wk =   0.0111111
        k(   59) = (  -0.5000000  -0.5000000   0.6155351), wk =   0.0111111
        k(   60) = (  -0.5000000  -0.5000000  -0.7694189), wk =   0.0055556

     Dense  grid:    79797 G-vectors     FFT dimensions: (  64,  64,  48)

     Estimated max dynamical RAM per process >      37.92 MB

     Estimated total dynamical RAM >     303.33 MB

     Initial potential from superposition of free atoms

     starting charge      21.9884, renormalised to      22.0000
     Starting wfcs are   20 randomized atomic wfcs

     total cpu time spent up to now is        4.6 secs

     Self-consistent Calculation

     iteration #  1     ecut=    80.00 Ry     beta= 0.70
     Davidson diagonalization with overlap
     ethr =  1.00E-02,  avg # of iterations =  2.1

     Threshold (ethr) on eigenvalues was too large:
     Diagonalizing with lowered threshold

     Davidson diagonalization with overlap
     ethr =  4.04E-04,  avg # of iterations =  3.1

     total cpu time spent up to now is        8.8 secs

     total energy              =     -62.22347711 Ry
     estimated scf accuracy    <       0.10993314 Ry

     iteration #  2     ecut=    80.00 Ry     beta= 0.70
     Davidson diagonalization with overlap
     ethr =  5.00E-04,  avg # of iterations =  2.0

     total cpu time spent up to now is       10.9 secs

     total energy              =     -62.24387992 Ry
     estimated scf accuracy    <       0.00463649 Ry

     iteration #  3     ecut=    80.00 Ry     beta= 0.70
     Davidson diagonalization with overlap
     ethr =  2.11E-05,  avg # of iterations =  4.7

     total cpu time spent up to now is       13.2 secs

     total energy              =     -62.24491955 Ry
     estimated scf accuracy    <       0.00004373 Ry

     iteration #  4     ecut=    80.00 Ry     beta= 0.70
     Davidson diagonalization with overlap
     c_bands:  1 eigenvalues not converged
     c_bands:  1 eigenvalues not converged
     ethr =  1.99E-07,  avg # of iterations =  6.8

     total cpu time spent up to now is       16.2 secs

     total energy              =     -62.24497762 Ry
     estimated scf accuracy    <       0.00000397 Ry

     iteration #  5     ecut=    80.00 Ry     beta= 0.70
     Davidson diagonalization with overlap
     ethr =  1.81E-08,  avg # of iterations =  2.9

     total cpu time spent up to now is       18.3 secs

     total energy              =     -62.24497839 Ry
     estimated scf accuracy    <       0.00000039 Ry

     iteration #  6     ecut=    80.00 Ry     beta= 0.70
     Davidson diagonalization with overlap
     ethr =  1.78E-09,  avg # of iterations =  3.4

     total cpu time spent up to now is       20.5 secs

     total energy              =     -62.24497848 Ry
     estimated scf accuracy    <       0.00000003 Ry

     iteration #  7     ecut=    80.00 Ry     beta= 0.70
     Davidson diagonalization with overlap
     ethr =  1.58E-10,  avg # of iterations =  3.4

     total cpu time spent up to now is       22.5 secs

     End of self-consistent calculation

          k = 0.0000 0.0000 0.0000 (  9953 PWs)   bands (ev):

   -41.1443 -41.1439  -5.3743  -2.5938  -2.5938  -1.4637   1.2361   1.4543
     2.7944   2.7944   3.7437   5.0334   6.7167   6.7167   6.8635

          k = 0.0000 0.0000 0.1539 ( 10020 PWs)   bands (ev):

   -41.1442 -41.1439  -5.2903  -2.5157  -2.5157  -1.5084   1.3339   1.4619
     2.8883   2.8883   3.4466   4.7112   5.9642   5.9642   6.9070

          k = 0.0000 0.0000 0.3078 ( 10016 PWs)   bands (ev):

   -41.1440 -41.1437  -5.0404  -2.2914  -2.2914  -1.6903   1.4318   1.6263
     3.0830   3.1687   3.1687   4.0104   4.6930   4.6930   6.7367

          k = 0.0000 0.0000 0.4617 ( 10000 PWs)   bands (ev):

   -41.1436 -41.1434  -4.6324  -2.1010  -1.9590  -1.9590   1.3881   2.1108
     3.1690   3.2322   3.5088   3.5088   3.6343   3.6343   5.7694

          k = 0.0000 0.0000 0.6155 (  9972 PWs)   bands (ev):

   -41.1433 -41.1432  -4.0829  -2.7244  -1.6159  -1.6159   1.5370   2.5146
     2.6372   2.6372   2.7821   3.6405   4.2664   4.2664   4.6388

          k = 0.0000 0.0000-0.7694 ( 10012 PWs)   bands (ev):

   -41.1432 -41.1432  -3.4248  -3.4248  -1.4552  -1.4552   1.9300   1.9300
     2.2967   2.2967   3.6308   3.6308   4.3494   4.3494   5.0182

          k = 0.0000 0.1667 0.0000 (  9969 PWs)   bands (ev):

   -41.1443 -41.1440  -5.2705  -3.0475  -2.4977  -1.3021   1.0776   1.6648
     2.4131   3.4569   3.8453   5.4540   6.0386   6.7929   7.3356

          k = 0.0000 0.1667 0.1539 (  9980 PWs)   bands (ev):

   -41.1442 -41.1439  -5.1869  -2.9752  -2.4221  -1.3321   1.1500   1.7510
     2.4821   3.0959   3.9528   4.8542   5.8889   6.0585   6.9622

          k = 0.0000 0.1667 0.3078 (  9985 PWs)   bands (ev):

   -41.1439 -41.1437  -4.9386  -2.7758  -2.2070  -1.4635   1.3401   1.9978
     2.5287   2.6405   3.9088   4.2305   4.8154   5.0597   6.3654

          k = 0.0000 0.1667 0.4617 (  9977 PWs)   bands (ev):

   -41.1436 -41.1434  -4.5346  -2.5546  -1.8982  -1.7232   1.5258   2.2926
     2.4574   2.4834   3.3589   3.7193   4.2507   4.6782   5.4512

          k = 0.0000 0.1667 0.6155 ( 10001 PWs)   bands (ev):

   -41.1433 -41.1432  -3.9945  -2.7544  -1.7384  -1.6126   1.6535   1.9106
     2.4415   2.7973   2.9979   3.4482   4.1337   4.5538   5.0668

          k = 0.0000 0.1667-0.7694 (  9996 PWs)   bands (ev):

   -41.1432 -41.1432  -3.3618  -3.3618  -1.5520  -1.5520   1.6767   1.6767
     2.4986   2.4986   3.5016   3.5016   4.1096   4.1096   4.9548

          k = 0.0000 0.3333 0.0000 (  9971 PWs)   bands (ev):

   -41.1442 -41.1440  -4.9619  -3.7927  -2.2204  -1.4015   0.8956   1.7462
     2.7559   4.1464   4.6033   5.2847   5.6900   6.4147   7.0046

          k = 0.0000 0.3333 0.1539 (  9986 PWs)   bands (ev):

   -41.1441 -41.1440  -4.8798  -3.7172  -2.1535  -1.3931   0.9678   1.7991
     2.8098   3.4438   4.4375   5.0794   5.8099   6.3289   6.6266

          k = 0.0000 0.3333 0.3078 (  9978 PWs)   bands (ev):

   -41.1439 -41.1437  -4.6369  -3.5010  -1.9713  -1.4161   1.1810   1.9052
     2.5402   3.0127   3.4040   5.1792   5.4510   5.5573   5.7216

          k = 0.0000 0.3333 0.4617 (  9976 PWs)   bands (ev):

   -41.1436 -41.1435  -4.2461  -3.1891  -1.7460  -1.5862   1.5227   1.7818
     2.0650   2.8792   2.9816   4.3899   4.4542   4.9922   5.9714

          k = 0.0000 0.3333 0.6155 (  9985 PWs)   bands (ev):

   -41.1433 -41.1433  -3.7393  -2.9606  -1.8459  -1.6426   1.4809   1.9760
     1.9836   2.5284   2.8871   3.4408   4.4738   4.4839   5.4522

          k = 0.0000 0.3333-0.7694 (  9988 PWs)   bands (ev):

   -41.1432 -41.1432  -3.2089  -3.2089  -1.7843  -1.7843   1.6169   1.6169
     2.5939   2.5939   2.6796   2.6796   4.5451   4.5451   5.3216

          k = 0.0000-0.5000 0.0000 (  9982 PWs)   bands (ev):

   -41.1441 -41.1441  -4.4597  -4.4597  -1.8078  -1.8078   1.1808   1.1808
     4.2429   4.2429   4.6352   4.6352   5.7094   5.7095   7.2864

          k = 0.0000-0.5000 0.1539 (  9960 PWs)   bands (ev):

   -41.1440 -41.1440  -4.3802  -4.3802  -1.7609  -1.7609   1.2355   1.2355
     3.8300   3.8300   4.3479   4.3479   6.2572   6.2572   6.7129

          k = 0.0000-0.5000 0.3078 (  9996 PWs)   bands (ev):

   -41.1438 -41.1438  -4.1475  -4.1475  -1.6531  -1.6531   1.3672   1.3672
     2.8919   2.8919   4.2726   4.2726   5.7350   5.7351   6.6756

          k = 0.0000-0.5000 0.4617 (  9980 PWs)   bands (ev):

   -41.1435 -41.1435  -3.7839  -3.7839  -1.6011  -1.6011   1.4328   1.4328
     2.4005   2.4005   3.6993   3.6993   5.1914   5.1914   6.0582

          k = 0.0000-0.5000 0.6155 (  9972 PWs)   bands (ev):

   -41.1433 -41.1433  -3.3572  -3.3572  -1.7534  -1.7534   1.5032   1.5032
     2.4597   2.4597   2.8466   2.8466   4.7300   4.7300   5.9495

          k = 0.0000-0.5000-0.7694 (  9972 PWs)   bands (ev):

   -41.1432 -41.1432  -3.1100  -3.1100  -1.9274  -1.9274   1.9130   1.9130
     1.9838   1.9838   2.7408   2.7408   4.4468   4.4468   6.0323

          k = 0.1667 0.1667 0.0000 (  9972 PWs)   bands (ev):

   -41.1443 -41.1440  -5.1667  -3.0413  -2.8373  -1.2882   1.0586   1.8598
     3.0255   3.1422   3.9453   5.7842   5.8839   6.5788   7.4880

          k = 0.1667 0.1667 0.1539 (  9981 PWs)   bands (ev):

   -41.1442 -41.1439  -5.0836  -2.9773  -2.7561  -1.2984   1.1291   1.9461
     2.8582   3.1182   3.8391   5.0099   5.7171   6.2296   6.9122

          k = 0.1667 0.1667 0.3078 (  9981 PWs)   bands (ev):

   -41.1439 -41.1437  -4.8371  -2.8053  -2.5217  -1.3732   1.3393   2.1869
     2.2409   3.3943   3.4374   4.4301   4.4914   5.7085   5.9717

          k = 0.1667 0.1667 0.4617 (  9975 PWs)   bands (ev):

   -41.1436 -41.1434  -4.4373  -2.6258  -2.1696  -1.5712   1.6755   1.7677
     2.4094   2.7255   3.4564   3.8518   4.2851   4.8685   5.3231

          k = 0.1667 0.1667 0.6155 ( 10006 PWs)   bands (ev):

   -41.1433 -41.1432  -3.9068  -2.7628  -1.7965  -1.6769   1.4051   1.9910
     2.1333   2.4311   3.5554   3.6009   4.1336   4.4688   5.3454

          k = 0.1667 0.1667-0.7694 (  9988 PWs)   bands (ev):

   -41.1432 -41.1432  -3.3011  -3.2971  -1.6293  -1.6161   1.2053   1.6842
     2.3904   2.7689   2.8781   3.7580   4.1536   4.5984   5.1600

          k = 0.1667 0.3333 0.0000 (  9956 PWs)   bands (ev):

   -41.1442 -41.1441  -4.8586  -3.6973  -2.6260  -1.6444   1.2512   2.2663
     2.9727   4.2408   4.2695   5.3204   5.8222   6.3836   6.6843

          k = 0.1667 0.3333 0.1539 (  9973 PWs)   bands (ev):

   -41.1441 -41.1440  -4.7771  -3.6238  -2.5554  -1.6132   1.2911   2.2765
     3.0217   3.5188   4.3500   4.9433   5.7846   5.8896   6.7724

          k = 0.1667 0.3333 0.3078 (  9976 PWs)   bands (ev):

   -41.1439 -41.1437  -4.5363  -3.4145  -2.3578  -1.5595   1.3626   2.1106
     2.9262   3.0876   3.5525   4.6406   5.1084   5.2902   6.3125

          k = 0.1667 0.3333 0.4617 (  9996 PWs)   bands (ev):

   -41.1436 -41.1435  -4.1504  -3.1185  -2.0918  -1.5970   1.3180   1.6908
     2.5448   2.7782   3.4281   4.0288   4.2888   5.2654   6.0967

          k = 0.1667 0.3333 0.6155 (  9995 PWs)   bands (ev):

   -41.1433 -41.1433  -3.6545  -2.9143  -1.9136  -1.7210   1.1365   1.5424
     1.9285   2.6257   3.1560   3.7082   4.6161   4.9284   5.8338

          k = 0.1667 0.3333-0.7694 (  9980 PWs)   bands (ev):

   -41.1432 -41.1432  -3.1496  -3.1448  -1.8134  -1.8035   1.0584   1.4474
     1.9502   2.2071   3.0749   3.7657   4.9311   5.1055   5.2497

          k = 0.1667-0.5000 0.0000 (  9956 PWs)   bands (ev):

   -41.1441 -41.1441  -4.3580  -4.3580  -2.1755  -2.1755   1.7016   1.7016
     4.3549   4.3549   4.7148   4.7148   5.4963   5.4963   7.0183

          k = 0.1667-0.5000 0.1539 (  9966 PWs)   bands (ev):

   -41.1440 -41.1440  -4.2794  -4.2794  -2.1180  -2.1180   1.7236   1.7236
     3.9411   3.9411   4.4076   4.4076   5.9602   5.9602   6.3224

          k = 0.1667-0.5000 0.3078 (  9982 PWs)   bands (ev):

   -41.1438 -41.1438  -4.0499  -4.0499  -1.9694  -1.9694   1.6837   1.6837
     3.1347   3.1347   4.1510   4.1510   5.4476   5.4476   6.5155

          k = 0.1667-0.5000 0.4617 ( 10002 PWs)   bands (ev):

   -41.1435 -41.1435  -3.6933  -3.6933  -1.8204  -1.8204   1.3580   1.3580
     2.8695   2.8695   3.3881   3.3881   5.3264   5.3264   6.3600

          k = 0.1667-0.5000 0.6155 (  9990 PWs)   bands (ev):

   -41.1433 -41.1433  -3.2813  -3.2813  -1.8307  -1.8307   1.1461   1.1461
     2.2709   2.2709   3.3173   3.3173   5.1731   5.1731   6.0896

          k = 0.1667-0.5000-0.7694 ( 10000 PWs)   bands (ev):

   -41.1432 -41.1432  -3.0492  -3.0492  -1.9315  -1.9315   1.2889   1.2889
     1.7349   1.7349   3.5030   3.5030   4.9341   4.9341   6.1282

          k = 0.3333 0.3333 0.0000 (  9938 PWs)   bands (ev):

   -41.1442 -41.1441  -4.5527  -3.5319  -3.2135  -2.2482   2.0600   3.1616
     3.6499   3.8401   4.5140   5.2776   5.9616   6.0293   6.2329

          k = 0.3333 0.3333 0.1539 (  9956 PWs)   bands (ev):

   -41.1441 -41.1440  -4.4731  -3.4688  -3.1289  -2.1914   2.0279   3.2115
     3.2499   3.9012   4.1804   5.0371   5.3688   5.4936   6.2886

          k = 0.3333 0.3333 0.3078 (  9963 PWs)   bands (ev):

   -41.1438 -41.1438  -4.2395  -3.2916  -2.8830  -2.0437   1.7637   2.5292
     3.1345   3.5037   3.9774   4.4313   4.5411   5.1257   6.3954

          k = 0.3333 0.3333 0.4617 (  9972 PWs)   bands (ev):

   -41.1435 -41.1435  -3.8705  -3.0479  -2.5077  -1.8903   1.2127   1.7990
     2.3103   3.0622   3.6162   4.2208   4.7373   5.2351   6.4586

          k = 0.3333 0.3333 0.6155 ( 10003 PWs)   bands (ev):

   -41.1433 -41.1433  -3.4144  -2.8703  -2.0972  -1.8630   0.8619   1.2591
     1.4410   2.1864   3.7411   4.7690   5.1415   5.2161   6.2681

          k = 0.3333 0.3333-0.7694 ( 10012 PWs)   bands (ev):

   -41.1432 -41.1432  -3.0017  -2.9959  -1.8999  -1.8902   0.7222   1.0687
     1.3178   1.5945   3.9143   4.9836   5.2734   5.6036   5.7841

          k = 0.3333-0.5000 0.0000 (  9938 PWs)   bands (ev):

   -41.1441 -41.1441  -4.0611  -4.0611  -2.8603  -2.8603   2.8057   2.8057
     4.6295   4.6295   4.9199   4.9199   5.0039   5.0039   6.5090

          k = 0.3333-0.5000 0.1539 (  9950 PWs)   bands (ev):

   -41.1440 -41.1440  -3.9859  -3.9859  -2.7892  -2.7892   2.7253   2.7253
     4.1715   4.1715   4.5429   4.5429   5.4597   5.4597   5.7534

          k = 0.3333-0.5000 0.3078 (  9960 PWs)   bands (ev):

   -41.1438 -41.1438  -3.7685  -3.7685  -2.5879  -2.5879   2.2412   2.2412
     3.6854   3.6854   3.8549   3.8549   5.4298   5.4298   5.9537

          k = 0.3333-0.5000 0.4617 (  9982 PWs)   bands (ev):

   -41.1435 -41.1435  -3.4395  -3.4395  -2.3039  -2.3039   1.4693   1.4693
     2.5833   2.5833   4.0498   4.0498   5.6421   5.6421   6.1909

          k = 0.3333-0.5000 0.6155 (  9984 PWs)   bands (ev):

   -41.1433 -41.1433  -3.0832  -3.0832  -2.0529  -2.0529   0.9167   0.9167
     1.6448   1.6448   4.4268   4.4268   5.8399   5.8400   6.2936

          k = 0.3333-0.5000-0.7694 ( 10008 PWs)   bands (ev):

   -41.1432 -41.1432  -2.9037  -2.9037  -1.9677  -1.9677   0.8122   0.8122
     1.1769   1.1769   4.6590   4.6590   5.8210   5.8211   6.3079

          k =-0.5000-0.5000 0.0000 (  9924 PWs)   bands (ev):

   -41.1441 -41.1441  -3.7079  -3.7079  -3.3680  -3.3680   3.8964   3.8964
     4.0194   4.0194   5.0687   5.0687   5.3722   5.3722   5.5794

          k =-0.5000-0.5000 0.1539 (  9908 PWs)   bands (ev):

   -41.1440 -41.1440  -3.6441  -3.6441  -3.2823  -3.2823   3.5170   3.5170
     3.9190   3.9190   4.8347   4.8347   5.2774   5.2774   5.4417

          k =-0.5000-0.5000 0.3078 (  9968 PWs)   bands (ev):

   -41.1438 -41.1438  -3.4622  -3.4622  -3.0326  -3.0326   2.5972   2.5972
     3.3190   3.3190   4.4334   4.4334   5.5190   5.5190   5.6392

          k =-0.5000-0.5000 0.4617 (  9972 PWs)   bands (ev):

   -41.1435 -41.1435  -3.1971  -3.1971  -2.6497  -2.6497   1.6907   1.6907
     2.1739   2.1739   4.7858   4.7858   5.6853   5.6854   5.9250

          k =-0.5000-0.5000 0.6155 (  9988 PWs)   bands (ev):

   -41.1433 -41.1433  -2.9316  -2.9316  -2.2265  -2.2265   1.0087   1.0087
     1.2431   1.2431   5.2804   5.2805   5.7910   5.7911   6.2078

          k =-0.5000-0.5000-0.7694 ( 10000 PWs)   bands (ev):

   -41.1432 -41.1432  -2.8112  -2.8112  -2.0098  -2.0098   0.7451   0.7451
     0.8526   0.8526   5.5997   5.6000   5.8286   5.8287   6.3344

     the Fermi energy is     4.0874 ev

!    total energy              =     -62.24497849 Ry
     estimated scf accuracy    <          1.3E-09 Ry
     smearing contrib. (-TS)   =      -0.00018421 Ry
     internal energy E=F+TS    =     -62.24479428 Ry

     The total energy is F=E-TS. E is the sum of the following terms:
     one-electron contribution =      -9.86279917 Ry
     hartree contribution      =       9.26963662 Ry
     xc contribution           =     -18.35573051 Ry
     ewald contribution        =     -43.29590122 Ry

     convergence has been achieved in   7 iterations

     Forces acting on atoms (cartesian axes, Ry/au):

     atom    1 type  1   force =     0.00000000    0.00000000    0.00000000
     atom    2 type  1   force =     0.00000000    0.00000000    0.00000000
     atom    3 type  2   force =     0.00464393   -0.00464393    0.00000000
     atom    4 type  2   force =    -0.00464393    0.00464393    0.00000000
     atom    5 type  2   force =     0.00464393    0.00464393   -0.00000000
     atom    6 type  2   force =    -0.00464393   -0.00464393   -0.00000000
     The non-local contrib.  to forces
     atom    1 type  1   force =     0.00000000    0.00000000    0.00000000
     atom    2 type  1   force =     0.00000000    0.00000000   -0.00000000
     atom    3 type  2   force =     0.00345110   -0.00345110    0.00000000
     atom    4 type  2   force =    -0.00345110    0.00345110    0.00000000
     atom    5 type  2   force =     0.00345110    0.00345110    0.00000000
     atom    6 type  2   force =    -0.00345110   -0.00345110   -0.00000000
     The ionic contribution  to forces
     atom    1 type  1   force =     0.00000000    0.00000000   -0.00000000
     atom    2 type  1   force =     0.00000000    0.00000000    0.00000000
     atom    3 type  2   force =     0.20401749   -0.20401749    0.00000000
     atom    4 type  2   force =    -0.20401749    0.20401749    0.00000000
     atom    5 type  2   force =     0.20401749    0.20401749   -0.00000000
     atom    6 type  2   force =    -0.20401749   -0.20401749   -0.00000000
     The local contribution  to forces
     atom    1 type  1   force =     0.00000000   -0.00000000   -0.00000000
     atom    2 type  1   force =     0.00000000    0.00000000    0.00000000
     atom    3 type  2   force =    -0.20249860    0.20249860   -0.00000000
     atom    4 type  2   force =     0.20249860   -0.20249860    0.00000000
     atom    5 type  2   force =    -0.20249860   -0.20249860   -0.00000000
     atom    6 type  2   force =     0.20249860    0.20249860   -0.00000000
     The core correction contribution to forces
     atom    1 type  1   force =     0.00000000    0.00000000    0.00000000
     atom    2 type  1   force =     0.00000000    0.00000000    0.00000000
     atom    3 type  2   force =    -0.00032908    0.00032908   -0.00000000
     atom    4 type  2   force =     0.00032908   -0.00032908   -0.00000000
     atom    5 type  2   force =    -0.00032908   -0.00032908   -0.00000000
     atom    6 type  2   force =     0.00032908    0.00032908   -0.00000000
     The Hubbard contrib.    to forces
     atom    1 type  1   force =     0.00000000    0.00000000    0.00000000
     atom    2 type  1   force =     0.00000000    0.00000000    0.00000000
     atom    3 type  2   force =     0.00000000    0.00000000    0.00000000
     atom    4 type  2   force =     0.00000000    0.00000000    0.00000000
     atom    5 type  2   force =     0.00000000    0.00000000    0.00000000
     atom    6 type  2   force =     0.00000000    0.00000000    0.00000000
     The SCF correction term to forces
     atom    1 type  1   force =     0.00000000    0.00000000    0.00000000
     atom    2 type  1   force =     0.00000000   -0.00000000    0.00000000
     atom    3 type  2   force =     0.00000302   -0.00000302    0.00000000
     atom    4 type  2   force =    -0.00000302    0.00000302    0.00000000
     atom    5 type  2   force =     0.00000302    0.00000302    0.00000000
     atom    6 type  2   force =    -0.00000302   -0.00000302    0.00000000

     Total force =     0.013135     Total SCF correction =     0.000009


     Computing stress (Cartesian axis) and pressure

          total   stress  (Ry/bohr**3)                   (kbar)     P=      -44.79
  -0.00037231   0.00000000   0.00000000          -54.77        0.00        0.00
   0.00000000  -0.00037231   0.00000000            0.00      -54.77        0.00
   0.00000000   0.00000000  -0.00016888            0.00        0.00      -24.84


     BFGS Geometry Optimization
     Energy error            =      0.0E+00 Ry
     Gradient error          =      4.6E-03 Ry/Bohr
     Cell gradient error     =      5.5E+02 kbar

     number of scf cycles    =   1
     number of bfgs steps    =   0

     enthalpy           new  =     -59.4379918365 Ry

     new trust radius        =       0.5000000000 bohr
ibrav =      6
 celldm(1) =      9.88941084
 celldm(3) =      0.65318108
Input lattice vectors:
     0.91300566     0.00000000     0.00000000
     0.00000000     0.91300566     0.00000000
     0.00000000     0.00000000     0.59635802
New lattice vectors in INITIAL alat:
     0.91300566     0.00000000     0.00000000
     0.00000000     0.91300566     0.00000000
     0.00000000     0.00000000     0.59635802
New lattice vectors in NEW alat (for information only):
     1.00000000     0.00000000     0.00000000
     0.00000000     1.00000000     0.00000000
     0.00000000     0.00000000     0.65318108
Discrepancy in bohr =     0.000000    0.000000    0.000000
     new conv_thr            =       0.0000000100 Ry

     new unit-cell volume =    631.74943 a.u.^3 (    93.61561 Ang^3 )
     density =      2.23894 g/cm^3

CELL_PARAMETERS (alat= 10.83170815)
   0.913005659   0.000000000   0.000000000
   0.000000000   0.913005659   0.000000000
   0.000000000   0.000000000   0.596358024

ATOMIC_POSITIONS (crystal)
Li            0.0000000000        0.0000000000        0.0000000000
Li            0.5000000000        0.5000000000        0.5000000000
Si            0.1977910996        0.8022089004        0.5000000000
Si            0.8022089004        0.1977910996        0.5000000000
Si            0.6977910996        0.6977910996       -0.0000000000
Si            0.3022089004        0.3022089004       -0.0000000000



     Writing config-only to output data dir ./output/LiSi.save/
     NEW-OLD atomic charge density approx. for the potential
     extrapolated charge   15.24442, renormalised to   22.00000

     total cpu time spent up to now is       28.1 secs

     Self-consistent Calculation

     iteration #  1     ecut=    80.00 Ry     beta= 0.70
     Davidson diagonalization with overlap
     c_bands:  1 eigenvalues not converged
     c_bands:  1 eigenvalues not converged
     c_bands:  1 eigenvalues not converged
     c_bands:  1 eigenvalues not converged
     c_bands:  1 eigenvalues not converged
     c_bands:  1 eigenvalues not converged
     ethr =  1.00E-06,  avg # of iterations = 14.8

     total cpu time spent up to now is       35.4 secs

     total energy              =     -61.62475925 Ry
     estimated scf accuracy    <       0.40639961 Ry

     iteration #  2     ecut=    80.00 Ry     beta= 0.70
     Davidson diagonalization with overlap
     ethr =  1.85E-03,  avg # of iterations =  4.0

     total cpu time spent up to now is       37.9 secs

     total energy              =     -62.27169330 Ry
     estimated scf accuracy    <       0.54966107 Ry

     iteration #  3     ecut=    80.00 Ry     beta= 0.70
     Davidson diagonalization with overlap
     ethr =  1.85E-03,  avg # of iterations =  1.2

     total cpu time spent up to now is       39.5 secs

     total energy              =     -62.22850588 Ry
     estimated scf accuracy    <       0.12741922 Ry

     iteration #  4     ecut=    80.00 Ry     beta= 0.70
     Davidson diagonalization with overlap
     ethr =  5.79E-04,  avg # of iterations =  2.3

     total cpu time spent up to now is       41.5 secs

     total energy              =     -62.25028731 Ry
     estimated scf accuracy    <       0.00114574 Ry

     iteration #  5     ecut=    80.00 Ry     beta= 0.70
     Davidson diagonalization with overlap
     ethr =  5.21E-06,  avg # of iterations =  6.7

     total cpu time spent up to now is       44.3 secs

     total energy              =     -62.25144704 Ry
     estimated scf accuracy    <       0.00002923 Ry

     iteration #  6     ecut=    80.00 Ry     beta= 0.70
     Davidson diagonalization with overlap
     ethr =  1.33E-07,  avg # of iterations =  3.4

     total cpu time spent up to now is       46.4 secs

     total energy              =     -62.25145117 Ry
     estimated scf accuracy    <       0.00002794 Ry

     iteration #  7     ecut=    80.00 Ry     beta= 0.70
     Davidson diagonalization with overlap
     ethr =  1.27E-07,  avg # of iterations =  2.0

     total cpu time spent up to now is       48.4 secs

     total energy              =     -62.25145594 Ry
     estimated scf accuracy    <       0.00000005 Ry

     iteration #  8     ecut=    80.00 Ry     beta= 0.70
     Davidson diagonalization with overlap
     ethr =  2.05E-10,  avg # of iterations =  6.2

     total cpu time spent up to now is       51.5 secs

     total energy              =     -62.25145613 Ry
     estimated scf accuracy    <       0.00000005 Ry

     iteration #  9     ecut=    80.00 Ry     beta= 0.70
     Davidson diagonalization with overlap
     ethr =  2.05E-10,  avg # of iterations =  1.8

     total cpu time spent up to now is       53.1 secs

     End of self-consistent calculation

          k = 0.0000 0.0000 0.0000 (  9953 PWs)   bands (ev):

   -38.7798 -38.7781  -4.3313  -0.6401  -0.6401   0.8210   2.5520   4.1229
     4.8094   4.8094   5.9406   7.4428   9.7335  10.0147  10.0147

          k = 0.0000 0.0000 0.1677 ( 10020 PWs)   bands (ev):

   -38.7795 -38.7778  -4.2290  -0.5304  -0.5304   0.7659   2.6706   4.0395
     4.9237   4.9237   5.5941   7.0269   8.9712   8.9712   9.9399

          k = 0.0000 0.0000 0.3354 ( 10016 PWs)   bands (ev):

   -38.7785 -38.7771  -3.9240  -0.2079  -0.2079   0.5189   3.0261   3.6494
     5.2643   5.2643   5.4316   6.1755   7.3180   7.3180  10.1346

          k = 0.0000 0.0000 0.5031 ( 10000 PWs)   bands (ev):

   -38.7773 -38.7763  -3.4222  -0.0794   0.2993   0.2993   3.3275   3.6167
     5.2758   5.6737   5.6737   5.8267   5.9223   5.9223   8.2112

          k = 0.0000 0.0000 0.6707 (  9972 PWs)   bands (ev):

   -38.7762 -38.7757  -2.7369  -0.9618   0.8947   0.8947   3.4198   4.4394
     4.4735   4.5043   4.5043   6.5425   6.6352   6.6352   6.7530

          k = 0.0000 0.0000-0.8384 ( 10012 PWs)   bands (ev):

   -38.7756 -38.7756  -1.8957  -1.8957   1.2306   1.2306   3.8353   3.8353
     3.9515   3.9515   5.4885   5.4885   7.4806   7.6257   7.6257

          k = 0.0000 0.1825 0.0000 (  9969 PWs)   bands (ev):

   -38.7797 -38.7782  -4.2027  -1.3194  -0.5054   1.1834   2.9342   3.3323
     4.3248   6.0632   6.0664   8.0272   8.8497  10.1197  10.7080

          k = 0.0000 0.1825 0.1677 (  9980 PWs)   bands (ev):

   -38.7793 -38.7779  -4.1007  -1.2229  -0.3973   1.1455   3.0299   3.4348
     4.4042   5.2504   6.4991   7.2694   8.7774   9.0944  10.2079

          k = 0.0000 0.1825 0.3354 (  9985 PWs)   bands (ev):

   -38.7784 -38.7772  -3.7968  -0.9538  -0.0811   0.9534   3.2669   3.7295
     4.4589   4.5820   6.1235   6.8983   7.4651   7.6931   9.8060

          k = 0.0000 0.1825 0.5031 (  9977 PWs)   bands (ev):

   -38.7772 -38.7763  -3.2982  -0.6567   0.4065   0.5487   3.4316   4.1580
     4.3703   4.4796   5.3880   5.9535   6.7182   7.4785   8.6030

          k = 0.0000 0.1825 0.6707 ( 10001 PWs)   bands (ev):

   -38.7762 -38.7757  -2.6212  -0.9777   0.5974   0.9253   3.5926   3.6056
     4.2979   4.9367   5.1076   5.3726   6.6654   7.2558   7.4490

          k = 0.0000 0.1825-0.8384 (  9996 PWs)   bands (ev):

   -38.7756 -38.7756  -1.8055  -1.8055   1.0193   1.0193   3.4024   3.4024
     4.3301   4.3301   6.0535   6.0535   6.2080   6.2080   7.5052

          k = 0.0000 0.3651 0.0000 (  9971 PWs)   bands (ev):

   -38.7794 -38.7785  -3.8188  -2.3278  -0.1073   1.1927   2.4116   3.4908
     4.7659   6.4406   7.6356   7.8745   8.6350   9.3944  10.4165

          k = 0.0000 0.3651 0.1677 (  9986 PWs)   bands (ev):

   -38.7790 -38.7782  -3.7177  -2.2309  -0.0052   1.2151   2.4940   3.5448
     4.8055   5.6785   6.8195   8.1097   8.8746   9.4555   9.7483

          k = 0.0000 0.3651 0.3354 (  9978 PWs)   bands (ev):

   -38.7781 -38.7774  -3.4176  -1.9503   0.2859   1.1816   2.7496   3.6363
     4.4042   5.2529   5.5181   7.8762   8.4227   8.6775   8.7384

          k = 0.0000 0.3651 0.5031 (  9976 PWs)   bands (ev):

   -38.7770 -38.7765  -2.9297  -1.5366   0.6878   0.8363   3.2079   3.4034
     3.9513   4.8230   5.3455   6.6447   7.4135   7.5053   9.0211

          k = 0.0000 0.3651 0.6707 (  9985 PWs)   bands (ev):

   -38.7761 -38.7758  -2.2841  -1.2254   0.3554   0.8830   3.0263   3.8423
     4.1187   4.5731   4.7564   6.1046   6.6926   6.8802   8.1349

          k = 0.0000 0.3651-0.8384 (  9988 PWs)   bands (ev):

   -38.7756 -38.7756  -1.5804  -1.5804   0.5225   0.5225   3.4617   3.4617
     4.4973   4.4973   4.9416   4.9416   6.9087   6.9087   7.9268

          k = 0.0000-0.5476 0.0000 (  9982 PWs)   bands (ev):

   -38.7789 -38.7789  -3.1867  -3.1867   0.5223   0.5223   2.7678   2.7678
     6.7518   6.7518   7.0519   7.0519   8.8975   8.8975  10.8184

          k = 0.0000-0.5476 0.1677 (  9960 PWs)   bands (ev):

   -38.7786 -38.7786  -3.0874  -3.0874   0.6069   0.6069   2.8161   2.8161
     6.0668   6.0668   6.9390   6.9390   9.5503   9.5508  10.0230

          k = 0.0000-0.5476 0.3354 (  9996 PWs)   bands (ev):

   -38.7778 -38.7778  -2.7946  -2.7946   0.8192   0.8192   2.9096   2.9096
     4.8846   4.8846   6.9985   6.9985   8.5621   8.5621   9.6839

          k = 0.0000-0.5476 0.5031 (  9980 PWs)   bands (ev):

   -38.7768 -38.7768  -2.3302  -2.3302   0.9406   0.9406   2.9145   2.9145
     4.2906   4.2906   6.4133   6.4133   7.7235   7.7235   8.8231

          k = 0.0000-0.5476 0.6707 (  9972 PWs)   bands (ev):

   -38.7759 -38.7759  -1.7687  -1.7687   0.5883   0.5883   3.2025   3.2025
     4.3788   4.3788   5.1943   5.1943   7.1732   7.1732   8.7818

          k = 0.0000-0.5476-0.8384 (  9972 PWs)   bands (ev):

   -38.7756 -38.7756  -1.4276  -1.4276   0.2351   0.2351   3.9107   3.9107
     4.1262   4.1262   4.5785   4.5785   6.8551   6.8551   8.9526

          k = 0.1825 0.1825 0.0000 (  9972 PWs)   bands (ev):

   -38.7796 -38.7783  -4.0739  -1.2532  -1.1116   1.3825   2.7060   3.5418
     5.0717   5.8034   6.1905   8.5577   8.6338   9.7565  11.0597

          k = 0.1825 0.1825 0.1677 (  9981 PWs)   bands (ev):

   -38.7792 -38.7780  -3.9723  -1.1702  -0.9991   1.3756   2.7823   3.6528
     5.1845   5.1849   6.2063   7.5993   8.5656   9.2656  10.3739

          k = 0.1825 0.1825 0.3354 (  9981 PWs)   bands (ev):

   -38.7783 -38.7773  -3.6695  -0.9465  -0.6668   1.2567   3.0185   3.9742
     4.2801   5.5195   5.6350   6.8654   7.1273   8.6739   9.2208

          k = 0.1825 0.1825 0.5031 (  9975 PWs)   bands (ev):

   -38.7772 -38.7764  -3.1741  -0.7222  -0.1373   0.8976   3.4048   3.7792
     4.3647   4.7318   5.4143   6.1158   6.8077   7.8692   8.2008

          k = 0.1825 0.1825 0.6707 ( 10006 PWs)   bands (ev):

   -38.7761 -38.7757  -2.5055  -0.9659   0.5063   0.7635   3.1851   3.7248
     4.0211   4.5015   5.5544   6.0425   6.6716   6.8765   7.7814

          k = 0.1825 0.1825-0.8384 (  9988 PWs)   bands (ev):

   -38.7756 -38.7756  -1.7201  -1.7081   0.8957   0.9032   2.8250   3.1593
     4.3113   4.8265   5.5362   6.0516   6.3089   6.7736   7.9001

          k = 0.1825 0.3651 0.0000 (  9956 PWs)   bands (ev):

   -38.7793 -38.7786  -3.6896  -2.1980  -0.7824   0.6927   3.0206   4.3785
     4.9978   6.5581   7.1154   7.9163   8.8281   9.4512   9.8664

          k = 0.1825 0.3651 0.1677 (  9973 PWs)   bands (ev):

   -38.7790 -38.7783  -3.5888  -2.1021  -0.6849   0.7613   3.0414   4.3993
     5.0635   5.7703   6.7430   7.7863   8.6482   9.0323   9.9721

          k = 0.1825 0.3651 0.3354 (  9976 PWs)   bands (ev):

   -38.7781 -38.7775  -3.2900  -1.8260  -0.4045   0.9130   3.0040   4.1902
     4.9139   5.3442   5.6813   7.0867   8.0756   8.2659   9.3906

          k = 0.1825 0.3651 0.5031 (  9996 PWs)   bands (ev):

   -38.7770 -38.7766  -2.8054  -1.4257  -0.0041   0.9148   2.8042   3.6045
     4.5449   4.9117   5.6648   6.3856   6.8896   7.9638   9.2360

          k = 0.1825 0.3651 0.6707 (  9995 PWs)   bands (ev):

   -38.7761 -38.7758  -2.1686  -1.1422   0.2701   0.7275   2.6662   3.2839
     3.8459   4.5764   5.7313   6.0209   6.9442   7.4358   8.6940

          k = 0.1825 0.3651-0.8384 (  9980 PWs)   bands (ev):

   -38.7756 -38.7756  -1.4940  -1.4771   0.5105   0.5327   2.7120   2.9679
     3.9086   4.1720   5.5572   6.0266   7.4100   7.5991   7.9544

          k = 0.1825-0.5476 0.0000 (  9956 PWs)   bands (ev):

   -38.7789 -38.7789  -3.0569  -3.0569  -0.1430  -0.1430   3.6348   3.6348
     6.8941   6.8941   7.1515   7.1515   8.6079   8.6079  10.3394

          k = 0.1825-0.5476 0.1677 (  9966 PWs)   bands (ev):

   -38.7786 -38.7786  -2.9580  -2.9580  -0.0534  -0.0534   3.6558   3.6558
     6.1935   6.1935   7.0427   7.0427   9.1157   9.1157   9.3590

          k = 0.1825-0.5476 0.3354 (  9982 PWs)   bands (ev):

   -38.7778 -38.7778  -2.6669  -2.6669   0.1936   0.1936   3.5546   3.5546
     5.1606   5.1606   6.9013   6.9013   8.0752   8.0752   9.7395

          k = 0.1825-0.5476 0.5031 ( 10002 PWs)   bands (ev):

   -38.7768 -38.7768  -2.2072  -2.2072   0.4861   0.4861   2.9899   2.9899
     4.8464   4.8464   5.9722   5.9722   7.9603   7.9603   9.2846

          k = 0.1825-0.5476 0.6707 (  9990 PWs)   bands (ev):

   -38.7759 -38.7759  -1.6571  -1.6571   0.4825   0.4825   2.7037   2.7037
     4.2750   4.2750   5.6751   5.6751   7.7826   7.7826   8.9695

          k = 0.1825-0.5476-0.8384 ( 10000 PWs)   bands (ev):

   -38.7756 -38.7756  -1.3298  -1.3298   0.2640   0.2640   3.0271   3.0271
     3.5624   3.5624   5.8701   5.8701   7.4528   7.4528   9.0938

          k = 0.3651 0.3651 0.0000 (  9938 PWs)   bands (ev):

   -38.7791 -38.7787  -3.3040  -1.8767  -1.7281  -0.2925   4.2598   5.5532
     5.9364   6.5094   6.8993   7.8561   8.9444   9.2081   9.5179

          k = 0.3651 0.3651 0.1677 (  9956 PWs)   bands (ev):

   -38.7788 -38.7784  -3.2043  -1.7976  -1.6134  -0.2042   4.1944   5.6463
     5.7841   6.0225   6.4830   7.7795   8.0313   8.6741   9.2841

          k = 0.3651 0.3651 0.3354 (  9963 PWs)   bands (ev):

   -38.7780 -38.7776  -2.9097  -1.5732  -1.2733   0.0421   3.7110   4.8264
     5.6062   5.6286   6.1858   6.7779   7.2693   8.0204   9.4727

          k = 0.3651 0.3651 0.5031 (  9972 PWs)   bands (ev):

   -38.7769 -38.7766  -2.4376  -1.2579  -0.7262   0.3560   2.8232   3.8380
     4.3515   5.1246   6.2893   6.6487   7.0479   8.1097   9.7806

          k = 0.3651 0.3651 0.6707 ( 10003 PWs)   bands (ev):

   -38.7760 -38.7759  -1.8350  -1.0299  -0.0431   0.4800   2.3211   3.0477
     3.0900   4.1672   6.3631   7.3934   7.7101   7.8445   9.3515

          k = 0.3651 0.3651-0.8384 ( 10012 PWs)   bands (ev):

   -38.7756 -38.7756  -1.2593  -1.2346   0.3972   0.4328   2.2141   2.3923
     3.1800   3.3613   6.6201   7.5363   8.1230   8.3195   8.5342

          k = 0.3651-0.5476 0.0000 (  9938 PWs)   bands (ev):

   -38.7789 -38.7789  -2.6700  -2.6700  -1.1575  -1.1575   5.1939   5.1939
     7.3395   7.3395   7.4078   7.4078   7.8796   7.8796   9.5624

          k = 0.3651-0.5476 0.1677 (  9950 PWs)   bands (ev):

   -38.7786 -38.7786  -2.5728  -2.5728  -1.0616  -1.0616   5.1052   5.1052
     6.5245   6.5245   7.3059   7.3059   8.2861   8.2861   8.6233

          k = 0.3651-0.5476 0.3354 (  9960 PWs)   bands (ev):

   -38.7778 -38.7778  -2.2889  -2.2889  -0.7819  -0.7819   4.4035   4.4035
     5.9308   5.9308   6.4753   6.4753   8.0520   8.0520   9.0512

          k = 0.3651-0.5476 0.5031 (  9982 PWs)   bands (ev):

   -38.7768 -38.7768  -1.8497  -1.8497  -0.3545  -0.3545   3.3034   3.3034
     4.6971   4.6971   6.5797   6.5797   8.4029   8.4029   9.3025

          k = 0.3651-0.5476 0.6707 (  9984 PWs)   bands (ev):

   -38.7759 -38.7759  -1.3508  -1.3508   0.0906   0.0906   2.4682   2.4682
     3.4845   3.4845   7.0901   7.0901   8.7062   8.7062   9.3418

          k = 0.3651-0.5476-0.8384 ( 10008 PWs)   bands (ev):

   -38.7756 -38.7756  -1.0819  -1.0819   0.2670   0.2670   2.2716   2.2716
     2.8543   2.8543   7.4388   7.4388   8.5986   8.5986   9.4086

          k =-0.5476-0.5476 0.0000 (  9924 PWs)   bands (ev):

   -38.7789 -38.7789  -2.0947  -2.0947  -1.9618  -1.9618   6.4774   6.4774
     7.0109   7.0109   7.5927   7.5927   8.0302   8.0302   8.5956

          k =-0.5476-0.5476 0.1677 (  9908 PWs)   bands (ev):

   -38.7786 -38.7786  -2.0154  -2.0154  -1.8464  -1.8464   6.0944   6.0944
     6.5872   6.5872   7.4496   7.4496   8.1260   8.1663   8.1663

          k =-0.5476-0.5476 0.3354 (  9968 PWs)   bands (ev):

   -38.7778 -38.7778  -1.7867  -1.7867  -1.5042  -1.5042   4.8420   4.8420
     5.7602   5.7602   6.9177   6.9177   8.4039   8.5921   8.5921

          k =-0.5476-0.5476 0.5031 (  9972 PWs)   bands (ev):

   -38.7768 -38.7768  -1.4437  -1.4437  -0.9523  -0.9523   3.6838   3.6838
     4.1517   4.1517   7.4470   7.4470   8.8033   8.8033   8.8251

          k =-0.5476-0.5476 0.6707 (  9988 PWs)   bands (ev):

   -38.7759 -38.7759  -1.0818  -1.0818  -0.2585  -0.2585   2.8020   2.8020
     2.8092   2.8092   8.1246   8.1246   8.9022   8.9022   9.2787

          k =-0.5476-0.5476-0.8384 ( 10000 PWs)   bands (ev):

   -38.7756 -38.7756  -0.9077  -0.9077   0.1966   0.1966   2.1256   2.1256
     2.4611   2.4611   8.6085   8.6085   8.9316   8.9316   9.7136

     the Fermi energy is     6.5395 ev

!    total energy              =     -62.25145613 Ry
     estimated scf accuracy    <          5.1E-09 Ry
     smearing contrib. (-TS)   =      -0.00012713 Ry
     internal energy E=F+TS    =     -62.25132900 Ry

     The total energy is F=E-TS. E is the sum of the following terms:
     one-electron contribution =      -4.61738355 Ry
     hartree contribution      =       8.66886610 Ry
     xc contribution           =     -18.94355933 Ry
     ewald contribution        =     -47.35925223 Ry

     convergence has been achieved in   9 iterations

     Forces acting on atoms (cartesian axes, Ry/au):

     atom    1 type  1   force =     0.00000000    0.00000000    0.00000000
     atom    2 type  1   force =     0.00000000    0.00000000    0.00000000
     atom    3 type  2   force =     0.01076345   -0.01076345    0.00000000
     atom    4 type  2   force =    -0.01076345    0.01076345    0.00000000
     atom    5 type  2   force =     0.01076345    0.01076345    0.00000000
     atom    6 type  2   force =    -0.01076345   -0.01076345    0.00000000
     The non-local contrib.  to forces
     atom    1 type  1   force =     0.00000000    0.00000000    0.00000000
     atom    2 type  1   force =     0.00000000    0.00000000   -0.00000000
     atom    3 type  2   force =     0.00303432   -0.00303432    0.00000000
     atom    4 type  2   force =    -0.00303432    0.00303432    0.00000000
     atom    5 type  2   force =     0.00303432    0.00303432    0.00000000
     atom    6 type  2   force =    -0.00303432   -0.00303432    0.00000000
     The ionic contribution  to forces
     atom    1 type  1   force =    -0.00000000    0.00000000   -0.00000000
     atom    2 type  1   force =    -0.00000000   -0.00000000   -0.00000000
     atom    3 type  2   force =     0.23146121   -0.23146121    0.00000000
     atom    4 type  2   force =    -0.23146121    0.23146121   -0.00000000
     atom    5 type  2   force =     0.23146121    0.23146121   -0.00000000
     atom    6 type  2   force =    -0.23146121   -0.23146121   -0.00000000
     The local contribution  to forces
     atom    1 type  1   force =    -0.00000000    0.00000000   -0.00000000
     atom    2 type  1   force =     0.00000000    0.00000000    0.00000000
     atom    3 type  2   force =    -0.22333441    0.22333441   -0.00000000
     atom    4 type  2   force =     0.22333441   -0.22333441    0.00000000
     atom    5 type  2   force =    -0.22333441   -0.22333441   -0.00000000
     atom    6 type  2   force =     0.22333441    0.22333441   -0.00000000
     The core correction contribution to forces
     atom    1 type  1   force =     0.00000000    0.00000000    0.00000000
     atom    2 type  1   force =     0.00000000    0.00000000    0.00000000
     atom    3 type  2   force =    -0.00040711    0.00040711   -0.00000000
     atom    4 type  2   force =     0.00040711   -0.00040711   -0.00000000
     atom    5 type  2   force =    -0.00040711   -0.00040711   -0.00000000
     atom    6 type  2   force =     0.00040711    0.00040711   -0.00000000
     The Hubbard contrib.    to forces
     atom    1 type  1   force =     0.00000000    0.00000000    0.00000000
     atom    2 type  1   force =     0.00000000    0.00000000    0.00000000
     atom    3 type  2   force =     0.00000000    0.00000000    0.00000000
     atom    4 type  2   force =     0.00000000    0.00000000    0.00000000
     atom    5 type  2   force =     0.00000000    0.00000000    0.00000000
     atom    6 type  2   force =     0.00000000    0.00000000    0.00000000
     The SCF correction term to forces
     atom    1 type  1   force =    -0.00000000    0.00000000   -0.00000000
     atom    2 type  1   force =    -0.00000000   -0.00000000   -0.00000000
     atom    3 type  2   force =     0.00000944   -0.00000944    0.00000000
     atom    4 type  2   force =    -0.00000944    0.00000944    0.00000000
     atom    5 type  2   force =     0.00000944    0.00000944    0.00000000
     atom    6 type  2   force =    -0.00000944   -0.00000944   -0.00000000

     Total force =     0.030444     Total SCF correction =     0.000027


     Computing stress (Cartesian axis) and pressure

          total   stress  (Ry/bohr**3)                   (kbar)     P=       59.06
   0.00024128   0.00000000   0.00000000           35.49        0.00        0.00
   0.00000000   0.00024128   0.00000000            0.00       35.49        0.00
   0.00000000   0.00000000   0.00072182            0.00        0.00      106.18

     Energy error            =      6.7E-01 Ry
     Gradient error          =      1.1E-02 Ry/Bohr
     Cell gradient error     =      4.6E+02 kbar

     number of scf cycles    =   2
     number of bfgs steps    =   1

     enthalpy           old  =     -59.4379918365 Ry
     enthalpy           new  =     -60.1041834718 Ry

     CASE: enthalpy          _new < enthalpy          _old

     new trust radius        =       0.7184742659 bohr
ibrav =      6
 celldm(1) =      8.47596487
 celldm(3) =      0.67150280
Input lattice vectors:
     0.78251415     0.00000000     0.00000000
     0.00000000     0.78251415     0.00000000
     0.00000000     0.00000000     0.52546044
New lattice vectors in INITIAL alat:
     0.78251415     0.00000000     0.00000000
     0.00000000     0.78251415     0.00000000
     0.00000000     0.00000000     0.52546044
New lattice vectors in NEW alat (for information only):
     1.00000000     0.00000000     0.00000000
     0.00000000     1.00000000     0.00000000
     0.00000000     0.00000000     0.67150280
Discrepancy in bohr =     0.000000    0.000000    0.000000
     new conv_thr            =       0.0000000011 Ry

     new unit-cell volume =    408.89827 a.u.^3 (    60.59247 Ang^3 )
     density =      3.45917 g/cm^3

CELL_PARAMETERS (alat= 10.83170815)
   0.782514147   0.000000000   0.000000000
   0.000000000   0.782514147   0.000000000
   0.000000000   0.000000000   0.525460439

ATOMIC_POSITIONS (crystal)
Li            0.0000000000        0.0000000000        0.0000000000
Li            0.5000000000        0.5000000000        0.5000000000
Si            0.1996674778        0.8003325222        0.5000000000
Si            0.8003325222        0.1996674778        0.5000000000
Si            0.6996674778        0.6996674778       -0.0000000000
Si            0.3003325222        0.3003325222       -0.0000000000



     Writing config-only to output data dir ./output/LiSi.save/
     NEW-OLD atomic charge density approx. for the potential

     negative rho (up, down):  5.721E-02 0.000E+00
     extrapolated charge   10.01622, renormalised to   22.00000

     total cpu time spent up to now is       58.6 secs

     Self-consistent Calculation

     iteration #  1     ecut=    80.00 Ry     beta= 0.70
     Davidson diagonalization with overlap
     c_bands:  1 eigenvalues not converged
     c_bands:  1 eigenvalues not converged
     c_bands:  1 eigenvalues not converged
     c_bands:  1 eigenvalues not converged
     c_bands:  1 eigenvalues not converged
     c_bands:  1 eigenvalues not converged
     c_bands:  1 eigenvalues not converged
     c_bands:  2 eigenvalues not converged
     c_bands:  1 eigenvalues not converged
     c_bands:  1 eigenvalues not converged
     c_bands:  1 eigenvalues not converged
     c_bands:  1 eigenvalues not converged
     c_bands:  1 eigenvalues not converged
     ethr =  1.00E-06,  avg # of iterations = 16.7

     total cpu time spent up to now is       66.9 secs

     total energy              =     -59.58476596 Ry
     estimated scf accuracy    <       1.90473700 Ry

     iteration #  2     ecut=    80.00 Ry     beta= 0.70
     Davidson diagonalization with overlap
     ethr =  8.66E-03,  avg # of iterations =  3.3

     total cpu time spent up to now is       69.2 secs

     total energy              =     -61.95049368 Ry
     estimated scf accuracy    <       1.94272413 Ry

     iteration #  3     ecut=    80.00 Ry     beta= 0.70
     Davidson diagonalization with overlap
     ethr =  8.66E-03,  avg # of iterations =  1.0

     total cpu time spent up to now is       70.7 secs

     total energy              =     -61.73935149 Ry
     estimated scf accuracy    <       0.44991501 Ry

     iteration #  4     ecut=    80.00 Ry     beta= 0.70
     Davidson diagonalization with overlap
     ethr =  2.05E-03,  avg # of iterations =  2.1

     total cpu time spent up to now is       72.5 secs

     total energy              =     -61.85593495 Ry
     estimated scf accuracy    <       0.02113527 Ry

     iteration #  5     ecut=    80.00 Ry     beta= 0.70
     Davidson diagonalization with overlap
     ethr =  9.61E-05,  avg # of iterations =  3.6

     total cpu time spent up to now is       74.4 secs

     total energy              =     -61.85844704 Ry
     estimated scf accuracy    <       0.00127065 Ry

     iteration #  6     ecut=    80.00 Ry     beta= 0.70
     Davidson diagonalization with overlap
     ethr =  5.78E-06,  avg # of iterations =  4.7

     total cpu time spent up to now is       76.6 secs

     total energy              =     -61.85891388 Ry
     estimated scf accuracy    <       0.00012383 Ry

     iteration #  7     ecut=    80.00 Ry     beta= 0.70
     Davidson diagonalization with overlap
     ethr =  5.63E-07,  avg # of iterations =  3.0

     total cpu time spent up to now is       78.6 secs

     total energy              =     -61.85894958 Ry
     estimated scf accuracy    <       0.00000359 Ry

     iteration #  8     ecut=    80.00 Ry     beta= 0.70
     Davidson diagonalization with overlap
     ethr =  1.63E-08,  avg # of iterations =  3.5

     total cpu time spent up to now is       80.5 secs

     total energy              =     -61.85895075 Ry
     estimated scf accuracy    <       0.00000005 Ry

     iteration #  9     ecut=    80.00 Ry     beta= 0.70
     Davidson diagonalization with overlap
     ethr =  2.43E-10,  avg # of iterations =  4.2

     total cpu time spent up to now is       82.6 secs

     End of self-consistent calculation

          k = 0.0000 0.0000 0.0000 (  9953 PWs)   bands (ev):

   -34.5183 -34.5034  -1.8632   3.3832   3.3832   5.3894   5.5130   9.4884
     9.4884  10.4144  11.2038  12.5711  15.0881  15.3938  16.9802

          k = 0.0000 0.0000 0.1903 ( 10020 PWs)   bands (ev):

   -34.5163 -34.5022  -1.7384   3.5394   3.5394   5.2429   5.6663   9.5860
     9.6260   9.6260  11.4459  11.9227  15.4364  15.4364  15.6464

          k = 0.0000 0.0000 0.3806 ( 10016 PWs)   bands (ev):

   -34.5110 -34.4990  -1.3652   4.0062   4.0062   4.6963   6.1263   8.4729
    10.0153  10.0153  10.7902  11.9247  13.2210  13.2210  16.5246

          k = 0.0000 0.0000 0.5709 ( 10000 PWs)   bands (ev):

   -34.5042 -34.4955  -0.7484   3.6613   4.7773   4.7773   6.8925   7.9360
     9.7278  10.2750  10.2750  11.5501  11.5501  12.6641  12.9868

          k = 0.0000 0.0000 0.7612 (  9972 PWs)   bands (ev):

   -34.4979 -34.4933   0.1021   2.3932   5.8345   5.8345   7.9280   7.9642
     8.8721   8.8881   8.8881  11.0161  12.0542  12.0542  13.6713

          k = 0.0000 0.0000-0.9515 ( 10012 PWs)   bands (ev):

   -34.4940 -34.4940   1.1656   1.1656   6.8796   6.8796   7.6018   7.6018
     8.2639   8.2639   9.3398   9.3398  13.1254  13.1254  13.5261

          k = 0.0000 0.2130 0.0000 (  9969 PWs)   bands (ev):

   -34.5173 -34.5044  -1.6961   2.2586   3.5786   5.5771   6.9292   8.1528
     8.8140  10.5856  12.8393  13.4330  14.3070  15.5095  17.4429

          k = 0.0000 0.2130 0.1903 (  9980 PWs)   bands (ev):

   -34.5153 -34.5031  -1.5712   2.3893   3.7344   5.5301   7.0055   8.2713
     8.8934   9.8091  12.3008  13.0504  14.8402  15.6195  16.1954

          k = 0.0000 0.2130 0.3806 (  9985 PWs)   bands (ev):

   -34.5102 -34.4998  -1.1982   2.7491   4.2000   5.2147   7.2589   8.4305
     9.0274   9.0429  10.8749  13.1000  13.3807  13.8089  16.1908

          k = 0.0000 0.2130 0.5709 (  9977 PWs)   bands (ev):

   -34.5036 -34.4960  -0.5835   3.0639   4.6393   4.9685   7.6263   8.4469
     8.7051   9.4804   9.8365  11.2479  12.1166  14.1759  14.3413

          k = 0.0000 0.2130 0.7612 ( 10001 PWs)   bands (ev):

   -34.4976 -34.4936   0.2587   2.4113   5.0020   6.0117   7.5013   7.9730
     8.8524   9.1672   9.4133  10.7836  11.7037  12.6901  13.6385

          k = 0.0000 0.2130-0.9515 (  9996 PWs)   bands (ev):

   -34.4940 -34.4940   1.2942   1.2942   6.0738   6.0738   7.4398   7.4398
     8.5055   8.5055  10.4854  10.4854  11.9674  11.9674  13.3336

          k = 0.0000 0.4260 0.0000 (  9971 PWs)   bands (ev):

   -34.5145 -34.5070  -1.1941   0.8109   4.1617   5.9804   6.4974   7.7089
     9.4850  11.0952  13.0446  14.8297  14.8930  15.5766  16.2394

          k = 0.0000 0.4260 0.1903 (  9986 PWs)   bands (ev):

   -34.5127 -34.5056  -1.0689   0.9371   4.3164   5.9745   6.6315   7.7453
     9.3877  10.3984  11.7741  15.3642  15.4091  15.9179  16.1859

          k = 0.0000 0.4260 0.3806 (  9978 PWs)   bands (ev):

   -34.5079 -34.5019  -0.6969   1.3007   4.7785   5.7892   7.0396   7.7535
     8.5700  10.1144  10.2433  13.8037  14.1493  15.8414  16.1107

          k = 0.0000 0.4260 0.5709 (  9976 PWs)   bands (ev):

   -34.5019 -34.4976  -0.0903   1.8266   5.0905   5.5376   7.2313   7.6343
     8.1994   9.1210  10.6877  11.7518  12.8406  13.8886  15.2726

          k = 0.0000 0.4260 0.7612 (  9985 PWs)   bands (ev):

   -34.4967 -34.4944   0.7177   2.1569   4.4234   5.9716   6.6444   8.0442
     8.7855   8.8450   9.9633  11.4476  11.8588  12.3119  14.1701

          k = 0.0000 0.4260-0.9515 (  9988 PWs)   bands (ev):

   -34.4939 -34.4939   1.6189   1.6189   4.8621   4.8621   7.8716   7.8716
     8.5685   8.5685  10.4236  10.4236  11.9578  11.9578  13.9208

          k = 0.0000-0.6390 0.0000 (  9982 PWs)   bands (ev):

   -34.5107 -34.5107  -0.3564  -0.3564   5.1203   5.1203   6.7488   6.7488
    11.9286  11.9286  12.3820  12.3820  15.4289  15.4289  18.3520

          k = 0.0000-0.6390 0.1903 (  9960 PWs)   bands (ev):

   -34.5091 -34.5091  -0.2310  -0.2310   5.2730   5.2730   6.7545   6.7545
    10.8090  10.8090  12.5737  12.5737  16.4761  16.4761  16.9792

          k = 0.0000-0.6390 0.3806 (  9996 PWs)   bands (ev):

   -34.5049 -34.5049   0.1385   0.1385   5.7284   5.7284   6.6449   6.6449
     9.2905   9.2905  12.7947  12.7947  14.7441  14.7441  15.7644

          k = 0.0000-0.6390 0.5709 (  9980 PWs)   bands (ev):

   -34.4997 -34.4997   0.7232   0.7232   5.9810   5.9810   6.4763   6.4763
     8.5282   8.5282  12.4023  12.4023  13.1015  13.1015  14.8591

          k = 0.0000-0.6390 0.7612 (  9972 PWs)   bands (ev):

   -34.4955 -34.4955   1.4257   1.4257   4.9067   4.9067   7.4696   7.4696
     8.5242   8.5242  10.6995  10.6995  12.5075  12.5075  15.0214

          k = 0.0000-0.6390-0.9515 (  9972 PWs)   bands (ev):

   -34.4939 -34.4939   1.8438   1.8438   4.3205   4.3205   8.1986   8.1986
     8.7943   8.7943   9.5058   9.5058  12.2225  12.2225  15.3484

          k = 0.2130 0.2130 0.0000 (  9972 PWs)   bands (ev):

   -34.5164 -34.5052  -1.5291   2.2606   2.6374   6.5153   6.9504   7.3776
     9.8409  10.7546  12.2131  14.0220  14.7606  15.7684  16.2448

          k = 0.2130 0.2130 0.1903 (  9981 PWs)   bands (ev):

   -34.5145 -34.5039  -1.4040   2.4172   2.7337   6.5464   6.9270   7.5294
     9.9450   9.9744  11.7290  13.5620  14.5036  15.7313  16.7058

          k = 0.2130 0.2130 0.3806 (  9981 PWs)   bands (ev):

   -34.5095 -34.5005  -1.0309   2.8857   2.9715   6.2207   7.1098   7.9831
     8.9303  10.3178  10.4909  12.2295  13.3877  15.2793  16.0631

          k = 0.2130 0.2130 0.5709 (  9975 PWs)   bands (ev):

   -34.5030 -34.4965  -0.4178   3.0732   3.6622   5.5575   7.5047   8.5505
     8.7172   9.3527   9.6860  11.4040  12.5710  14.1934  15.1539

          k = 0.2130 0.2130 0.7612 ( 10006 PWs)   bands (ev):

   -34.4973 -34.4939   0.4171   2.4700   4.7360   5.6081   7.3193   7.8067
     8.4403   9.1736   9.8199  11.6011  12.1806  12.7148  13.0060

          k = 0.2130 0.2130-0.9515 (  9988 PWs)   bands (ev):

   -34.4940 -34.4940   1.4197   1.4365   5.8802   6.2168   6.3928   6.5390
     8.6168   9.3279  11.0104  11.2957  11.3064  11.9539  13.4970

          k = 0.2130 0.4260 0.0000 (  9956 PWs)   bands (ev):

   -34.5139 -34.5075  -1.0277   0.9659   3.0299   5.1332   7.4746   9.1916
     9.7361  11.2562  13.0990  13.6106  15.3062  15.7019  17.0749

          k = 0.2130 0.4260 0.1903 (  9973 PWs)   bands (ev):

   -34.5122 -34.5061  -0.9020   1.0961   3.1459   5.2516   7.4463   9.2565
     9.6775  10.5324  11.7569  14.3505  14.5405  15.8499  16.1648

          k = 0.2130 0.4260 0.3806 (  9976 PWs)   bands (ev):

   -34.5075 -34.5023  -0.5288   1.4703   3.4755   5.5897   7.0841   8.9930
     9.2506  10.2309  10.4639  12.4595  14.5299  14.7641  15.9719

          k = 0.2130 0.4260 0.5709 (  9996 PWs)   bands (ev):

   -34.5016 -34.4978   0.0778   2.0048   3.9211   6.0201   6.2043   8.1264
     8.9415   9.4530  10.8885  11.3682  12.9369  13.9302  16.1822

          k = 0.2130 0.4260 0.7612 (  9995 PWs)   bands (ev):

   -34.4965 -34.4945   0.8813   2.3126   4.2550   5.7827   6.0737   7.3947
     8.2967   8.9785  11.2133  11.5383  12.2770  12.9693  14.8466

          k = 0.2130 0.4260-0.9515 (  9980 PWs)   bands (ev):

   -34.4939 -34.4939   1.7568   1.7817   4.8892   5.0043   6.6143   6.7184
     8.1977   8.7236  11.1939  11.5637  12.6046  12.8985  14.0313

          k = 0.2130-0.6390 0.0000 (  9956 PWs)   bands (ev):

   -34.5107 -34.5107  -0.1923  -0.1923   3.9138   3.9138   8.2464   8.2464
    12.0658  12.0658  12.5621  12.5621  15.1051  15.1051  17.0041

          k = 0.2130-0.6390 0.1903 (  9966 PWs)   bands (ev):

   -34.5091 -34.5091  -0.0655  -0.0655   4.0319   4.0319   8.2612   8.2612
    10.9624  10.9624  12.7244  12.7244  15.3984  15.3985  16.1956

          k = 0.2130-0.6390 0.3806 (  9982 PWs)   bands (ev):

   -34.5049 -34.5049   0.3074   0.3074   4.3678   4.3678   8.0353   8.0353
     9.6273   9.6273  12.6921  12.6921  13.8664  13.8664  16.6901

          k = 0.2130-0.6390 0.5709 ( 10002 PWs)   bands (ev):

   -34.4997 -34.4997   0.8955   0.8955   4.8099   4.8099   7.0462   7.0462
     9.2284   9.2284  11.6372  11.6372  13.7965  13.7965  15.5414

          k = 0.2130-0.6390 0.7612 (  9990 PWs)   bands (ev):

   -34.4955 -34.4955   1.5969   1.5969   4.7818   4.7818   6.5887   6.5887
     8.6578   8.6578  11.2072  11.2072  13.4740  13.4740  15.2611

          k = 0.2130-0.6390-0.9515 ( 10000 PWs)   bands (ev):

   -34.4939 -34.4939   2.0097   2.0097   4.3934   4.3934   6.9629   6.9629
     8.0069   8.0069  11.3690  11.3690  12.9882  12.9882  15.5833

          k = 0.4260 0.4260 0.0000 (  9938 PWs)   bands (ev):

   -34.5125 -34.5088  -0.5300   1.1832   1.8849   3.6504   9.4113  10.5410
    10.9576  11.7237  12.9667  13.0180  15.1874  15.3665  15.5801

          k = 0.4260 0.4260 0.1903 (  9956 PWs)   bands (ev):

   -34.5108 -34.5073  -0.4024   1.3403   1.9684   3.7637   9.2335  10.6664
    10.8574  11.0863  11.5190  13.5606  14.0453  15.0271  15.8341

          k = 0.4260 0.4260 0.3806 (  9963 PWs)   bands (ev):

   -34.5063 -34.5033  -0.0254   1.8106   2.1993   4.0952   8.2259   9.8287
    10.2475  10.5937  11.3434  11.8590  13.3217  14.6015  16.2110

          k = 0.4260 0.4260 0.5709 (  9972 PWs)   bands (ev):

   -34.5007 -34.4986   0.5802   2.4947   2.5909   4.6053   6.7998   8.5129
     8.7004   9.6210  11.9625  12.3378  12.3697  14.6333  16.6173

          k = 0.4260 0.4260 0.7612 ( 10003 PWs)   bands (ev):

   -34.4960 -34.4949   1.3608   2.6048   3.6725   5.1313   5.7817   6.7757
     7.6039   8.5772  12.4358  12.9426  13.3472  13.9506  15.8926

          k = 0.4260 0.4260-0.9515 ( 10012 PWs)   bands (ev):

   -34.4938 -34.4938   2.1427   2.1834   4.8486   5.2594   5.3119   5.5721
     7.5337   7.7805  13.0581  13.1180  13.8328  14.3381  14.8455

          k = 0.4260-0.6390 0.0000 (  9938 PWs)   bands (ev):

   -34.5106 -34.5106   0.2853   0.2853   2.4791   2.4791  10.4408  10.4408
    12.4184  12.4184  13.1333  13.1333  14.3123  14.3123  15.6416

          k = 0.4260-0.6390 0.1903 (  9950 PWs)   bands (ev):

   -34.5090 -34.5090   0.4183   0.4183   2.5864   2.5864  10.3246  10.3246
    11.3894  11.3894  13.2065  13.2065  14.1265  14.1265  15.2127

          k = 0.4260-0.6390 0.3806 (  9960 PWs)   bands (ev):

   -34.5048 -34.5048   0.8071   0.8071   2.9040   2.9040   9.1691   9.1691
    10.5648  10.5648  12.3131  12.3131  13.8474  13.8474  16.0405

          k = 0.4260-0.6390 0.5709 (  9982 PWs)   bands (ev):

   -34.4996 -34.4996   1.4095   1.4095   3.4148   3.4148   7.5975   7.5975
     9.1863   9.1863  12.3491  12.3491  14.4557  14.4558  16.2325

          k = 0.4260-0.6390 0.7612 (  9984 PWs)   bands (ev):

   -34.4954 -34.4954   2.0935   2.0935   4.0638   4.0638   6.2322   6.2322
     7.8389   7.8389  13.0583  13.0583  14.9591  14.9592  15.9436

          k = 0.4260-0.6390-0.9515 ( 10008 PWs)   bands (ev):

   -34.4938 -34.4938   2.4589   2.4589   4.5467   4.5467   5.4902   5.4902
     7.2545   7.2545  13.7140  13.7140  14.5277  14.5277  16.2813

          k =-0.6390-0.6390 0.0000 (  9924 PWs)   bands (ev):

   -34.5106 -34.5106   0.8091   0.8091   1.6254   1.6254  11.8106  11.8106
    12.6712  12.6712  13.6701  13.6701  13.9274  13.9274  15.6866

          k =-0.6390-0.6390 0.1903 (  9908 PWs)   bands (ev):

   -34.5090 -34.5090   0.9664   0.9664   1.7080   1.7080  11.3414  11.3414
    11.8019  11.8019  13.4025  13.4025  14.0681  14.7679  14.7679

          k =-0.6390-0.6390 0.3806 (  9968 PWs)   bands (ev):

   -34.5048 -34.5048   1.4373   1.4373   1.9451   1.9451   9.7054   9.7054
    10.4889  10.4889  12.7461  12.7461  14.4862  15.6400  15.6400

          k =-0.6390-0.6390 0.5709 (  9972 PWs)   bands (ev):

   -34.4996 -34.4996   2.2187   2.2187   2.2961   2.2961   8.3039   8.3039
     8.3584   8.3584  13.3703  13.3703  15.1639  15.9410  15.9410

          k =-0.6390-0.6390 0.7612 (  9988 PWs)   bands (ev):

   -34.4954 -34.4954   2.6580   2.6580   3.3025   3.3025   6.4141   6.4141
     7.3016   7.3016  14.3299  14.3299  15.9763  16.7884  16.7884

          k =-0.6390-0.6390-0.9515 ( 10000 PWs)   bands (ev):

   -34.4938 -34.4938   2.8274   2.8274   4.4842   4.4842   4.9416   4.9416
     6.9177   6.9177  15.2400  15.2400  15.9570  15.9651  15.9651

     the Fermi energy is    11.8865 ev

!    total energy              =     -61.85895079 Ry
     estimated scf accuracy    <          9.5E-10 Ry
     smearing contrib. (-TS)   =       0.00047700 Ry
     internal energy E=F+TS    =     -61.85942778 Ry

     The total energy is F=E-TS. E is the sum of the following terms:
     one-electron contribution =       5.25294462 Ry
     hartree contribution      =       7.97678051 Ry
     xc contribution           =     -20.24085666 Ry
     ewald contribution        =     -54.84829624 Ry

     convergence has been achieved in   9 iterations

     Forces acting on atoms (cartesian axes, Ry/au):

     atom    1 type  1   force =     0.00000000    0.00000000   -0.00000000
     atom    2 type  1   force =     0.00000000    0.00000000   -0.00000000
     atom    3 type  2   force =     0.00955759   -0.00955759    0.00000000
     atom    4 type  2   force =    -0.00955759    0.00955759   -0.00000000
     atom    5 type  2   force =     0.00955759    0.00955759    0.00000000
     atom    6 type  2   force =    -0.00955759   -0.00955759    0.00000000
     The non-local contrib.  to forces
     atom    1 type  1   force =     0.00000000    0.00000000    0.00000000
     atom    2 type  1   force =     0.00000000    0.00000000    0.00000000
     atom    3 type  2   force =    -0.00912700    0.00912700    0.00000000
     atom    4 type  2   force =     0.00912700   -0.00912700    0.00000000
     atom    5 type  2   force =    -0.00912700   -0.00912700    0.00000000
     atom    6 type  2   force =     0.00912700    0.00912700    0.00000000
     The ionic contribution  to forces
     atom    1 type  1   force =    -0.00000000    0.00000000   -0.00000000
     atom    2 type  1   force =    -0.00000000   -0.00000000    0.00000000
     atom    3 type  2   force =     0.22495185   -0.22495185   -0.00000000
     atom    4 type  2   force =    -0.22495185    0.22495185   -0.00000000
     atom    5 type  2   force =     0.22495185    0.22495185   -0.00000000
     atom    6 type  2   force =    -0.22495185   -0.22495185   -0.00000000
     The local contribution  to forces
     atom    1 type  1   force =    -0.00000000    0.00000000   -0.00000000
     atom    2 type  1   force =     0.00000000    0.00000000    0.00000000
     atom    3 type  2   force =    -0.20619340    0.20619340   -0.00000000
     atom    4 type  2   force =     0.20619340   -0.20619340   -0.00000000
     atom    5 type  2   force =    -0.20619340   -0.20619340   -0.00000000
     atom    6 type  2   force =     0.20619340    0.20619340   -0.00000000
     The core correction contribution to forces
     atom    1 type  1   force =     0.00000000    0.00000000    0.00000000
     atom    2 type  1   force =     0.00000000    0.00000000    0.00000000
     atom    3 type  2   force =    -0.00007076    0.00007076   -0.00000000
     atom    4 type  2   force =     0.00007076   -0.00007076   -0.00000000
     atom    5 type  2   force =    -0.00007076   -0.00007076   -0.00000000
     atom    6 type  2   force =     0.00007076    0.00007076   -0.00000000
     The Hubbard contrib.    to forces
     atom    1 type  1   force =     0.00000000    0.00000000    0.00000000
     atom    2 type  1   force =     0.00000000    0.00000000    0.00000000
     atom    3 type  2   force =     0.00000000    0.00000000    0.00000000
     atom    4 type  2   force =     0.00000000    0.00000000    0.00000000
     atom    5 type  2   force =     0.00000000    0.00000000    0.00000000
     atom    6 type  2   force =     0.00000000    0.00000000    0.00000000
     The SCF correction term to forces
     atom    1 type  1   force =     0.00000000   -0.00000000   -0.00000000
     atom    2 type  1   force =     0.00000000   -0.00000000   -0.00000000
     atom    3 type  2   force =    -0.00000310    0.00000310    0.00000000
     atom    4 type  2   force =     0.00000310   -0.00000310    0.00000000
     atom    5 type  2   force =    -0.00000310   -0.00000310    0.00000000
     atom    6 type  2   force =     0.00000310    0.00000310    0.00000000

     Total force =     0.027033     Total SCF correction =     0.000009


     Computing stress (Cartesian axis) and pressure

          total   stress  (Ry/bohr**3)                   (kbar)     P=      642.41
   0.00393544   0.00000000   0.00000000          578.92        0.00        0.00
   0.00000000   0.00393544   0.00000000            0.00      578.92        0.00
   0.00000000   0.00000000   0.00523017            0.00        0.00      769.38

     Energy error            =      3.6E-01 Ry
     Gradient error          =      9.6E-03 Ry/Bohr
     Cell gradient error     =      2.7E+02 kbar

     number of scf cycles    =   3
     number of bfgs steps    =   2

     enthalpy           old  =     -60.1041834718 Ry
     enthalpy           new  =     -60.4691338228 Ry

     CASE: enthalpy          _new < enthalpy          _old

     new trust radius        =       0.1573796124 bohr
ibrav =      6
 celldm(1) =      8.66474505
 celldm(3) =      0.68243449
Input lattice vectors:
     0.79994262     0.00000000     0.00000000
     0.00000000     0.79994262     0.00000000
     0.00000000     0.00000000     0.54590844
New lattice vectors in INITIAL alat:
     0.79994262     0.00000000     0.00000000
     0.00000000     0.79994262     0.00000000
     0.00000000     0.00000000     0.54590844
New lattice vectors in NEW alat (for information only):
     1.00000000     0.00000000     0.00000000
     0.00000000     1.00000000     0.00000000
     0.00000000     0.00000000     0.68243449
Discrepancy in bohr =     0.000000    0.000000    0.000000
     new conv_thr            =       0.0000000010 Ry

     new unit-cell volume =    443.94415 a.u.^3 (    65.78574 Ang^3 )
     density =      3.18610 g/cm^3

CELL_PARAMETERS (alat= 10.83170815)
   0.799942625   0.000000000   0.000000000
   0.000000000   0.799942625   0.000000000
   0.000000000   0.000000000   0.545908441

ATOMIC_POSITIONS (crystal)
Li            0.0000000000        0.0000000000       -0.0000000000
Li            0.5000000000        0.5000000000        0.5000000000
Si            0.2000616792        0.7999383208        0.5000000000
Si            0.7999383208        0.2000616792        0.5000000000
Si            0.7000616792        0.7000616792       -0.0000000000
Si            0.2999383208        0.2999383208       -0.0000000000



     Writing config-only to output data dir ./output/LiSi.save/
     NEW-OLD atomic charge density approx. for the potential
     extrapolated charge   23.73581, renormalised to   22.00000

     total cpu time spent up to now is       87.8 secs

     Self-consistent Calculation

     iteration #  1     ecut=    80.00 Ry     beta= 0.70
     Davidson diagonalization with overlap
     c_bands:  1 eigenvalues not converged
     ethr =  1.00E-06,  avg # of iterations = 10.9

     total cpu time spent up to now is       92.9 secs

     total energy              =     -61.96104785 Ry
     estimated scf accuracy    <       0.01436449 Ry

     iteration #  2     ecut=    80.00 Ry     beta= 0.70
     Davidson diagonalization with overlap
     ethr =  6.53E-05,  avg # of iterations =  3.9

     total cpu time spent up to now is       95.3 secs

     total energy              =     -61.99600771 Ry
     estimated scf accuracy    <       0.02870900 Ry

     iteration #  3     ecut=    80.00 Ry     beta= 0.70
     Davidson diagonalization with overlap
     ethr =  6.53E-05,  avg # of iterations =  1.4

     total cpu time spent up to now is       96.8 secs

     total energy              =     -61.99519453 Ry
     estimated scf accuracy    <       0.00785941 Ry

     iteration #  4     ecut=    80.00 Ry     beta= 0.70
     Davidson diagonalization with overlap
     ethr =  3.57E-05,  avg # of iterations =  1.0

     total cpu time spent up to now is       98.3 secs

     total energy              =     -61.99380170 Ry
     estimated scf accuracy    <       0.00342313 Ry

     iteration #  5     ecut=    80.00 Ry     beta= 0.70
     Davidson diagonalization with overlap
     ethr =  1.56E-05,  avg # of iterations =  2.1

     total cpu time spent up to now is       99.9 secs

     total energy              =     -61.99408764 Ry
     estimated scf accuracy    <       0.00027678 Ry

     iteration #  6     ecut=    80.00 Ry     beta= 0.70
     Davidson diagonalization with overlap
     ethr =  1.26E-06,  avg # of iterations =  3.8

     total cpu time spent up to now is      101.7 secs

     total energy              =     -61.99414413 Ry
     estimated scf accuracy    <       0.00003240 Ry

     iteration #  7     ecut=    80.00 Ry     beta= 0.70
     Davidson diagonalization with overlap
     ethr =  1.47E-07,  avg # of iterations =  2.3

     total cpu time spent up to now is      103.3 secs

     total energy              =     -61.99413580 Ry
     estimated scf accuracy    <       0.00001836 Ry

     iteration #  8     ecut=    80.00 Ry     beta= 0.70
     Davidson diagonalization with overlap
     ethr =  8.34E-08,  avg # of iterations =  2.1

     total cpu time spent up to now is      105.0 secs

     total energy              =     -61.99414035 Ry
     estimated scf accuracy    <       0.00000011 Ry

     iteration #  9     ecut=    80.00 Ry     beta= 0.70
     Davidson diagonalization with overlap
     ethr =  4.89E-10,  avg # of iterations =  4.7

     total cpu time spent up to now is      107.2 secs

     total energy              =     -61.99414048 Ry
     estimated scf accuracy    <       0.00000003 Ry

     iteration # 10     ecut=    80.00 Ry     beta= 0.70
     Davidson diagonalization with overlap
     ethr =  1.37E-10,  avg # of iterations =  2.0

     total cpu time spent up to now is      108.8 secs

     End of self-consistent calculation

          k = 0.0000 0.0000 0.0000 (  9953 PWs)   bands (ev):

   -35.3520 -35.3415  -2.4328   2.6413   2.6413   4.4312   4.8944   8.6258
     8.6258   9.0906   9.7887  11.4937  13.7830  14.0620  15.2178

          k = 0.0000 0.0000 0.1832 ( 10020 PWs)   bands (ev):

   -35.3507 -35.3407  -2.3152   2.7844   2.7844   4.2945   5.0367   8.2814
     8.7556   8.7556  10.1287  10.8697  13.8309  13.8309  14.3242

          k = 0.0000 0.0000 0.3664 ( 10016 PWs)   bands (ev):

   -35.3472 -35.3387  -1.9637   3.2112   3.2112   3.7743   5.4635   7.2855
     9.1253   9.1253   9.7864  10.6262  11.7855  11.7855  15.1642

          k = 0.0000 0.0000 0.5495 ( 10000 PWs)   bands (ev):

   -35.3426 -35.3365  -1.3823   2.7858   3.9123   3.9123   6.1743   6.8534
     8.7609   9.3039   9.3039  10.3149  10.3149  11.3280  11.8175

          k = 0.0000 0.0000 0.7327 (  9972 PWs)   bands (ev):

   -35.3384 -35.3352  -0.5803   1.5830   4.8509   4.8509   6.9151   7.1680
     7.8976   7.8976   7.9167   9.9948  10.9480  10.9480  12.2666

          k = 0.0000 0.0000-0.9159 ( 10012 PWs)   bands (ev):

   -35.3358 -35.3358   0.4231   0.4231   5.6300   5.6300   6.8798   6.8798
[...]
     estimated scf accuracy    <       0.00000030 Ry

     iteration #  6     ecut=    80.00 Ry     beta= 0.70
     Davidson diagonalization with overlap
     ethr =  1.35E-09,  avg # of iterations =  2.9

     total cpu time spent up to now is      274.3 secs

     total energy              =     -62.00966244 Ry
     estimated scf accuracy    <          8.3E-09 Ry

     iteration #  7     ecut=    80.00 Ry     beta= 0.70
     Davidson diagonalization with overlap
     ethr =  3.76E-11,  avg # of iterations =  3.7

     total cpu time spent up to now is      275.3 secs

     total energy              =     -62.00966245 Ry
     estimated scf accuracy    <          5.3E-10 Ry

     iteration #  8     ecut=    80.00 Ry     beta= 0.70
     Davidson diagonalization with overlap
     ethr =  2.42E-12,  avg # of iterations =  2.8

     total cpu time spent up to now is      276.2 secs

     End of self-consistent calculation

          k = 0.0000 0.0000 0.0000 (  5231 PWs)   bands (ev):

   -35.2765 -35.2642  -2.5051   3.6772   3.6772   3.8212   5.6757   6.8598
    10.4451  10.4451  10.5068  10.7486  12.0296  13.7321  14.1372

          k = 0.0000 0.0000 0.1658 (  5287 PWs)   bands (ev):

   -35.2758 -35.2641  -2.4151   3.5036   3.7916   3.7916   5.7922   6.7291
    10.0395  10.5481  10.5481  10.9646  12.8318  12.9618  12.9618

          k = 0.0000 0.0000 0.3316 (  5295 PWs)   bands (ev):

   -35.2739 -35.2639  -2.1458   2.6870   4.1321   4.1321   6.1416   6.5886
     9.0701  10.7486  10.7486  11.3623  11.3623  11.8725  13.0763

          k = 0.0000 0.0000 0.4974 (  5310 PWs)   bands (ev):

   -35.2712 -35.2640  -1.6991   1.6596   4.6856   4.6856   6.6044   6.7236
     8.2351   9.5395   9.5395  11.3565  11.5093  11.5093  12.7736

          k = 0.0000 0.0000 0.6632 (  5302 PWs)   bands (ev):

   -35.2684 -35.2646  -1.0793   0.6320   5.4000   5.4000   6.7729   7.5375
     7.5757   8.1932   8.1932   9.8566  12.2453  12.2453  13.6710

          k = 0.0000 0.0000-0.8290 (  5290 PWs)   bands (ev):

   -35.2661 -35.2661  -0.2957  -0.2957   5.9068   5.9068   7.0925   7.0925
     7.4712   7.4712   8.5825   8.5825  12.9418  12.9418  13.6345

          k = 0.0000 0.2205 0.0000 (  5287 PWs)   bands (ev):

   -35.2756 -35.2650  -2.3210   2.0454   3.8835   4.5984   7.0478   7.0493
     8.6795   8.8451  11.1740  11.7009  12.3590  14.3236  14.5779

          k = 0.0000 0.2205 0.1658 (  5298 PWs)   bands (ev):

   -35.2750 -35.2649  -2.2317   2.0767   3.9972   4.3699   6.7252   7.3021
     8.6721   8.9246  10.6224  12.1581  12.8783  13.1380  13.4627

          k = 0.0000 0.2205 0.3316 (  5306 PWs)   bands (ev):

   -35.2731 -35.2646  -1.9647   2.0360   3.9030   4.3343   6.5973   7.6077
     8.0790   9.4011  10.0073  11.4228  11.8335  13.1967  14.1263

          k = 0.0000 0.2205 0.4974 (  5295 PWs)   bands (ev):

   -35.2706 -35.2644  -1.5234   1.5466   3.8574   4.8736   6.7213   7.2176
     8.0470   9.1993   9.7786  10.1096  11.4784  12.7592  14.0790

          k = 0.0000 0.2205 0.6632 (  5302 PWs)   bands (ev):

   -35.2681 -35.2648  -0.9157   0.7045   4.3463   5.4465   6.4595   6.9921
     8.0473   8.3206   9.1963  10.8143  11.0717  12.0951  13.1349

          k = 0.0000 0.2205-0.8290 (  5300 PWs)   bands (ev):

   -35.2660 -35.2660  -0.1586  -0.1586   5.0708   5.0708   6.8316   6.8316
     7.6925   7.6925   9.9869   9.9869  11.7335  11.7335  12.9717

          k = 0.0000 0.4411 0.0000 (  5291 PWs)   bands (ev):

   -35.2733 -35.2672  -1.7685   0.4347   4.4976   5.2006   6.9328   7.3406
     7.6137   9.6400   9.7751  12.3198  13.0138  14.8742  15.0917

          k = 0.0000 0.4411 0.1658 (  5294 PWs)   bands (ev):

   -35.2727 -35.2669  -1.6814   0.5035   4.6087   4.9862   6.8488   7.1678
     7.5463   9.3766   9.8982  12.7469  13.4136  13.7371  14.0228

          k = 0.0000 0.4411 0.3316 (  5286 PWs)   bands (ev):

   -35.2712 -35.2663  -1.4230   0.6822   4.3433   4.9316   6.5781   6.7636
     7.7508   8.8582  10.2564  12.0974  12.4322  13.5760  14.0415

          k = 0.0000 0.4411 0.4974 (  5287 PWs)   bands (ev):

   -35.2692 -35.2656  -1.0031   0.8474   3.6263   5.2721   5.8690   6.8970
     8.2411   8.5315  10.0184  11.1956  11.6246  12.6897  13.5895

          k = 0.0000 0.4411 0.6632 (  5287 PWs)   bands (ev):

   -35.2673 -35.2654  -0.4459   0.7107   3.3812   4.5676   6.3716   7.1560
     8.1967   8.6208   9.1951  11.0473  11.4117  11.6295  13.2146

          k = 0.0000 0.4411-0.8290 (  5296 PWs)   bands (ev):

   -35.2660 -35.2660   0.1848   0.1848   3.7895   3.7895   7.1488   7.1488
     7.9684   7.9684  10.0202  10.0202  11.5204  11.5204  13.3800

          k = 0.0000-0.6616 0.0000 (  5292 PWs)   bands (ev):

   -35.2702 -35.2702  -0.8478  -0.8478   5.4786   5.4786   6.1634   6.1634
     8.5373   8.5373  12.0867  12.0867  13.3359  13.3359  15.6720

          k = 0.0000-0.6616 0.1658 (  5292 PWs)   bands (ev):

   -35.2698 -35.2698  -0.7662  -0.7662   5.5874   5.5874   5.9443   5.9443
     8.2474   8.2474  12.5768  12.5768  13.2401  13.2401  14.7675

          k = 0.0000-0.6616 0.3316 (  5282 PWs)   bands (ev):

   -35.2687 -35.2687  -0.5294  -0.5294   5.2633   5.2633   5.9107   5.9107
     7.9520   7.9520  12.2814  12.2814  13.2827  13.2827  13.8524

          k = 0.0000-0.6616 0.4974 (  5288 PWs)   bands (ev):

   -35.2674 -35.2674  -0.1693  -0.1693   4.3502   4.3502   6.4226   6.4226
     7.9475   7.9475  11.0393  11.0393  12.3753  12.3753  14.4043

          k = 0.0000-0.6616 0.6632 (  5268 PWs)   bands (ev):

   -35.2663 -35.2663   0.2225   0.2225   3.5540   3.5540   7.0269   7.0269
     8.1513   8.1513   9.7680   9.7680  11.7459  11.7459  14.9186

          k = 0.0000-0.6616-0.8290 (  5284 PWs)   bands (ev):

   -35.2659 -35.2659   0.4191   0.4191   3.2137   3.2137   7.3454   7.3454
     8.6465   8.6465   8.8089   8.8089  11.5200  11.5200  15.1805

          k = 0.2205 0.2205 0.0000 (  5281 PWs)   bands (ev):

   -35.2749 -35.2657  -2.1364   2.1224   2.3977   6.0129   6.8658   7.2367
     7.7303  10.7813  10.8340  10.8691  12.5055  13.2525  14.7638

          k = 0.2205 0.2205 0.1658 (  5288 PWs)   bands (ev):

   -35.2743 -35.2655  -2.0477   2.1114   2.5143   5.6272   6.7060   7.5088
     7.8389   9.8989  10.9163  11.6971  11.8584  13.0060  14.8219

          k = 0.2205 0.2205 0.3316 (  5301 PWs)   bands (ev):

   -35.2725 -35.2651  -1.7828   1.9878   2.8625   4.9174   6.7542   7.5889
     8.1441   9.1703   9.9716  11.3353  12.2556  13.1698  14.3398

          k = 0.2205 0.2205 0.4974 (  5306 PWs)   bands (ev):

   -35.2702 -35.2648  -1.3467   1.5415   3.4353   4.5901   6.6603   7.4489
     8.0503   8.9772   9.0304  11.4375  11.8605  12.8089  13.3983

          k = 0.2205 0.2205 0.6632 (  5304 PWs)   bands (ev):

   -35.2678 -35.2650  -0.7502   0.7945   4.2035   4.7620   6.0991   6.7453
     7.6097   9.2189   9.6300  10.6791  11.9320  11.9520  12.6461

          k = 0.2205 0.2205-0.8290 (  5298 PWs)   bands (ev):

   -35.2660 -35.2660  -0.0298  -0.0046   4.8383   5.0476   5.6680   5.8991
     7.7466   9.2993  10.3847  10.4793  10.9639  11.5075  13.3288

          k = 0.2205 0.4411 0.0000 (  5292 PWs)   bands (ev):

   -35.2728 -35.2675  -1.5825   0.6257   2.8435   5.1082   7.1126   7.7930
     9.3190   9.8434   9.9873  12.2502  12.8856  13.2697  14.4479

          k = 0.2205 0.4411 0.1658 (  5286 PWs)   bands (ev):

   -35.2723 -35.2673  -1.4958   0.6940   2.9025   5.1601   6.4980   7.9445
     8.8296   9.8040  10.3217  11.9234  12.5459  13.4148  14.8155

          k = 0.2205 0.4411 0.3316 (  5279 PWs)   bands (ev):

   -35.2709 -35.2666  -1.2390   0.8677   3.0484   5.2195   5.6272   7.5473
     8.4935   9.4219  10.7080  10.9369  12.3339  13.7910  14.6596

          k = 0.2205 0.4411 0.4974 (  5271 PWs)   bands (ev):

   -35.2690 -35.2658  -0.8233   1.0130   3.1842   4.8468   5.3962   6.8749
     8.2484   8.7037  10.7574  11.0159  11.7985  13.1043  14.8128

          k = 0.2205 0.4411 0.6632 (  5282 PWs)   bands (ev):

   -35.2671 -35.2655  -0.2754   0.8548   3.3762   4.5128   5.3117   6.5327
     7.4804   8.6482  10.4740  11.1998  11.9797  12.6705  14.0142

          k = 0.2205 0.4411-0.8290 (  5284 PWs)   bands (ev):

   -35.2659 -35.2659   0.3213   0.3579   3.8073   3.9539   5.7005   5.9813
     7.4535   8.4797  10.5005  11.0547  12.2262  12.8723  13.4772

          k = 0.2205-0.6616 0.0000 (  5302 PWs)   bands (ev):

   -35.2701 -35.2701  -0.6597  -0.6597   3.7973   3.7973   8.1032   8.1032
     8.6925   8.6925  12.2215  12.2215  13.4029  13.4029  14.0912

          k = 0.2205-0.6616 0.1658 (  5298 PWs)   bands (ev):

   -35.2697 -35.2697  -0.5782  -0.5782   3.8524   3.8524   7.4837   7.4837
     8.8704   8.8704  12.2613  12.2613  13.0088  13.0088  14.4221

          k = 0.2205-0.6616 0.3316 (  5276 PWs)   bands (ev):

   -35.2687 -35.2687  -0.3423  -0.3423   3.9701   3.9701   6.5007   6.5007
     8.9682   8.9682  11.2131  11.2131  13.5601  13.5602  14.9965

          k = 0.2205-0.6616 0.4974 (  5280 PWs)   bands (ev):

   -35.2674 -35.2674   0.0139   0.0139   3.9326   3.9326   5.8498   5.8498
     8.6616   8.6616  10.5981  10.5981  13.5668  13.5668  14.8772

          k = 0.2205-0.6616 0.6632 (  5266 PWs)   bands (ev):

   -35.2663 -35.2663   0.3967   0.3967   3.5499   3.5499   5.8835   5.8835
     7.9286   7.9286  10.7039  10.7039  12.8986  12.8986  15.1904

          k = 0.2205-0.6616-0.8290 (  5276 PWs)   bands (ev):

   -35.2659 -35.2659   0.5859   0.5859   3.3026   3.3026   6.0988   6.0988
     7.4890   7.4890  10.8908  10.8908  12.5149  12.5149  15.4355

          k = 0.4411 0.4411 0.0000 (  5304 PWs)   bands (ev):

   -35.2716 -35.2686  -1.0247   1.1739   1.2233   3.4575   8.3150   9.0475
     9.7702  11.0223  11.2810  12.0668  12.2457  12.7729  13.7350

          k = 0.4411 0.4411 0.1658 (  5302 PWs)   bands (ev):

   -35.2711 -35.2682  -0.9395   1.2020   1.3408   3.5235   7.4129   8.9679
     9.6827  10.4627  11.4569  11.8285  12.1901  12.3314  14.3092

          k = 0.4411 0.4411 0.3316 (  5286 PWs)   bands (ev):

   -35.2699 -35.2674  -0.6893   1.2647   1.6922   3.7062   6.2295   7.9524
     8.7198   9.6249  11.3850  11.6780  12.5186  13.2124  15.6717

          k = 0.4411 0.4411 0.4974 (  5277 PWs)   bands (ev):

   -35.2682 -35.2664  -0.2918   1.2861   2.2717   3.9393   5.2727   7.0426
     7.1195   8.7053  11.5605  12.2092  13.0612  13.7015  15.8016

          k = 0.4411 0.4411 0.6632 (  5275 PWs)   bands (ev):

   -35.2667 -35.2658   0.2121   1.1340   3.0557   4.0516   4.7763   5.5872
     6.6990   7.7356  12.0331  12.9350  13.3002  13.8009  15.2740

          k = 0.4411 0.4411-0.8290 (  5290 PWs)   bands (ev):

   -35.2658 -35.2658   0.7094   0.7663   3.7318   4.0288   4.6859   4.6861
     6.7267   7.2012  12.6213  12.6586  13.5356  14.4464  14.5927

          k = 0.4411-0.6616 0.0000 (  5310 PWs)   bands (ev):

   -35.2701 -35.2701  -0.0960  -0.0960   2.1451   2.1451   9.0951   9.0951
    10.3751  10.3751  12.4600  12.4600  12.5599  12.5599  13.7467

          k = 0.4411-0.6616 0.1658 (  5284 PWs)   bands (ev):

   -35.2696 -35.2696  -0.0151  -0.0151   2.2168   2.2168   8.2997   8.2997
    10.5544  10.5544  11.3393  11.3393  13.3932  13.3932  14.3180

          k = 0.4411-0.6616 0.3316 (  5286 PWs)   bands (ev):

   -35.2686 -35.2686   0.2149   0.2149   2.4290   2.4290   7.1017   7.1017
     9.1593   9.1593  11.7683  11.7683  14.1566  14.1566  15.0885

          k = 0.4411-0.6616 0.4974 (  5286 PWs)   bands (ev):

   -35.2673 -35.2673   0.5476   0.5476   2.7688   2.7688   5.9949   5.9949
     7.7975   7.7975  12.3460  12.3460  14.6681  14.6681  15.8754

          k = 0.4411-0.6616 0.6632 (  5292 PWs)   bands (ev):

   -35.2662 -35.2662   0.8768   0.8768   3.1882   3.1882   5.1073   5.1073
     6.8269   6.8269  12.9604  12.9604  14.7051  14.7051  16.0150

          k = 0.4411-0.6616-0.8290 (  5272 PWs)   bands (ev):

   -35.2658 -35.2658   1.0243   1.0243   3.4544   3.4544   4.6871   4.6871
     6.4599   6.4599  13.3606  13.3606  14.4046  14.4046  16.1769

          k =-0.6616-0.6616 0.0000 (  5336 PWs)   bands (ev):

   -35.2700 -35.2700   0.8184   0.8184   0.8639   0.8639   9.3903   9.3903
    11.7718  11.7718  11.8822  11.8822  12.4738  12.4738  13.6537

          k =-0.6616-0.6616 0.1658 (  5308 PWs)   bands (ev):

   -35.2696 -35.2696   0.9031   0.9031   0.9362   0.9362   8.7412   8.7412
    10.2297  10.2297  12.5188  12.5188  13.1531  13.1531  14.7805

          k =-0.6616-0.6616 0.3316 (  5296 PWs)   bands (ev):

   -35.2685 -35.2685   1.0118   1.0118   1.2883   1.2883   7.7006   7.7006
     8.3530   8.3530  13.5494  13.5494  13.7586  13.7586  15.2224

          k =-0.6616-0.6616 0.4974 (  5300 PWs)   bands (ev):

   -35.2672 -35.2672   1.1617   1.1617   1.8694   1.8694   6.6534   6.6534
     6.8069   6.8069  14.1039  14.1039  14.7095  14.7095  15.6611

          k =-0.6616-0.6616 0.6632 (  5308 PWs)   bands (ev):

   -35.2662 -35.2662   1.2995   1.2995   2.6568   2.6568   5.1881   5.1881
     6.2076   6.2076  14.8288  14.8288  15.1524  15.1524  16.1570

          k =-0.6616-0.6616-0.8290 (  5296 PWs)   bands (ev):

   -35.2658 -35.2658   1.3571   1.3571   3.3408   3.3408   4.2772   4.2772
     5.9944   5.9944  15.2599  15.2599  15.4326  15.4327  16.2100

     the Fermi energy is    11.0971 ev

!    total energy              =     -62.00966245 Ry
     estimated scf accuracy    <          2.3E-11 Ry
     smearing contrib. (-TS)   =       0.00023104 Ry
     internal energy E=F+TS    =     -62.00989349 Ry

     The total energy is F=E-TS. E is the sum of the following terms:
     one-electron contribution =       4.06145764 Ry
     hartree contribution      =       7.77628061 Ry
     xc contribution           =     -20.03686262 Ry
     ewald contribution        =     -53.81076911 Ry

     convergence has been achieved in   8 iterations

     Forces acting on atoms (cartesian axes, Ry/au):

     atom    1 type  1   force =     0.00000000    0.00000000   -0.00000000
     atom    2 type  1   force =     0.00000000    0.00000000   -0.00000000
     atom    3 type  2   force =     0.00003579   -0.00003579   -0.00000000
     atom    4 type  2   force =    -0.00003579    0.00003579    0.00000000
     atom    5 type  2   force =     0.00003579    0.00003579    0.00000000
     atom    6 type  2   force =    -0.00003579   -0.00003579   -0.00000000
     The non-local contrib.  to forces
     atom    1 type  1   force =     0.00000000    0.00000000    0.00000000
     atom    2 type  1   force =     0.00000000    0.00000000   -0.00000000
     atom    3 type  2   force =    -0.00922103    0.00922103    0.00000000
     atom    4 type  2   force =     0.00922103   -0.00922103    0.00000000
     atom    5 type  2   force =    -0.00922103   -0.00922103    0.00000000
     atom    6 type  2   force =     0.00922103    0.00922103    0.00000000
     The ionic contribution  to forces
     atom    1 type  1   force =    -0.00000000   -0.00000000   -0.00000000
     atom    2 type  1   force =    -0.00000000   -0.00000000    0.00000000
     atom    3 type  2   force =     0.20603319   -0.20603319    0.00000000
     atom    4 type  2   force =    -0.20603319    0.20603319    0.00000000
     atom    5 type  2   force =     0.20603319    0.20603319   -0.00000000
     atom    6 type  2   force =    -0.20603319   -0.20603319   -0.00000000
     The local contribution  to forces
     atom    1 type  1   force =    -0.00000000    0.00000000   -0.00000000
     atom    2 type  1   force =     0.00000000    0.00000000    0.00000000
     atom    3 type  2   force =    -0.19575427    0.19575427   -0.00000000
     atom    4 type  2   force =     0.19575427   -0.19575427   -0.00000000
     atom    5 type  2   force =    -0.19575427   -0.19575427   -0.00000000
     atom    6 type  2   force =     0.19575427    0.19575427   -0.00000000
     The core correction contribution to forces
     atom    1 type  1   force =     0.00000000    0.00000000    0.00000000
     atom    2 type  1   force =     0.00000000    0.00000000    0.00000000
     atom    3 type  2   force =    -0.00102285    0.00102285   -0.00000000
     atom    4 type  2   force =     0.00102285   -0.00102285   -0.00000000
     atom    5 type  2   force =    -0.00102285   -0.00102285    0.00000000
     atom    6 type  2   force =     0.00102285    0.00102285    0.00000000
     The Hubbard contrib.    to forces
     atom    1 type  1   force =     0.00000000    0.00000000    0.00000000
     atom    2 type  1   force =     0.00000000    0.00000000    0.00000000
     atom    3 type  2   force =     0.00000000    0.00000000    0.00000000
     atom    4 type  2   force =     0.00000000    0.00000000    0.00000000
     atom    5 type  2   force =     0.00000000    0.00000000    0.00000000
     atom    6 type  2   force =     0.00000000    0.00000000    0.00000000
     The SCF correction term to forces
     atom    1 type  1   force =    -0.00000000    0.00000000    0.00000000
     atom    2 type  1   force =    -0.00000000   -0.00000000    0.00000000
     atom    3 type  2   force =     0.00000075   -0.00000075    0.00000000
     atom    4 type  2   force =    -0.00000075    0.00000075    0.00000000
     atom    5 type  2   force =     0.00000075    0.00000075   -0.00000000
     atom    6 type  2   force =    -0.00000075   -0.00000075   -0.00000000

     Total force =     0.000101     Total SCF correction =     0.000002


     Computing stress (Cartesian axis) and pressure

          total   stress  (Ry/bohr**3)                   (kbar)     P=      500.24
   0.00339979   0.00000000   0.00000000          500.13        0.00        0.00
   0.00000000   0.00339979   0.00000000            0.00      500.13        0.00
   0.00000000   0.00000000   0.00340202            0.00        0.00      500.45


     Writing all to output data dir ./output/LiSi.save/

     init_run     :      3.04s CPU      5.44s WALL (       2 calls)
     electrons    :    184.43s CPU    211.50s WALL (      13 calls)
     update_pot   :      8.52s CPU      8.61s WALL (      11 calls)
     forces       :      7.65s CPU      7.82s WALL (      13 calls)
     stress       :     43.23s CPU     44.58s WALL (      13 calls)

     Called by init_run:
     wfcinit      :      1.66s CPU      3.72s WALL (       2 calls)
     potinit      :      0.57s CPU      0.69s WALL (       2 calls)
     hinit0       :      0.72s CPU      0.84s WALL (       2 calls)

     Called by electrons:
     c_bands      :    164.87s CPU    188.17s WALL (     101 calls)
     sum_band     :     18.13s CPU     21.22s WALL (     101 calls)
     v_of_rho     :      1.41s CPU      2.00s WALL (     112 calls)
     mix_rho      :      0.12s CPU      0.17s WALL (     101 calls)

     Called by c_bands:
     init_us_2    :      4.68s CPU      5.31s WALL (   13800 calls)
     init_us_2:cp :      4.66s CPU      5.30s WALL (   13800 calls)
     cegterg      :    151.10s CPU    171.99s WALL (    6060 calls)

     Called by *egterg:
     cdiaghg      :      6.49s CPU      6.79s WALL (   27787 calls)
     h_psi        :    127.35s CPU    149.45s WALL (   28687 calls)
     g_psi        :      0.82s CPU      0.85s WALL (   22507 calls)

     Called by h_psi:
     h_psi:calbec :     12.46s CPU     13.81s WALL (   28687 calls)
     vloc_psi     :    103.26s CPU    123.50s WALL (   28687 calls)
     add_vuspsi   :     11.12s CPU     11.60s WALL (   28687 calls)

     General routines
     calbec       :     14.82s CPU     16.21s WALL (   32587 calls)
     fft          :      1.20s CPU      1.97s WALL (    1445 calls)
     ffts         :      0.04s CPU      0.07s WALL (     101 calls)
     fftw         :    103.60s CPU    123.87s WALL (  684058 calls)

     Parallel routines

     PWSCF        :   4m 7.23s CPU   4m38.69s WALL


   This run was terminated on:  18:30:28  28Dec2024            

=------------------------------------------------------------------------------=
   JOB DONE.
=------------------------------------------------------------------------------=
