
     Program PWSCF v.7.2 starts on 26Dec2024 at 19:36:55 

     This program is part of the open-source Quantum ESPRESSO suite
     for quantum simulation of materials; please cite
         "P. Giannozzi et al., J. Phys.:Condens. Matter 21 395502 (2009);
         "P. Giannozzi et al., J. Phys.:Condens. Matter 29 465901 (2017);
         "P. Giannozzi et al., J. Chem. Phys. 152 154105 (2020);
          URL http://www.quantum-espresso.org", 
     in publications or presentations arising from this work. More details at
     http://www.quantum-espresso.org/quote

     Parallel version (MPI & OpenMP), running on       8 processor cores
     Number of MPI processes:                 8
     Threads/MPI process:                     1

     MPI processes distributed on     1 nodes
     481570 MiB available memory on the printing compute node when the environment starts

     Waiting for input...
     Reading input from standard input

     Current dimensions of program PWSCF are:
     Max number of different atomic species (ntypx) = 10
     Max number of k-points (npk) =  40000
     Max angular momentum in pseudopotentials (lmaxx) =  4

     R & G space division:  proc/nbgrp/npool/nimage =       8
     Subspace diagonalization in iterative solution of the eigenvalue problem:
     a serial algorithm will be used


     Parallelization info
     --------------------
     sticks:   dense  smooth     PW     G-vecs:    dense   smooth      PW
     Min         121     121     36                 4690     4690     745
     Max         123     123     39                 4691     4691     748
     Sum         979     979    295                37527    37527    5965

     Using Slab Decomposition



     bravais-lattice index     =            4
     lattice parameter (alat)  =       6.6926  a.u.
     unit-cell volume          =     389.3729 (a.u.)^3
     number of atoms/cell      =            3
     number of atomic types    =            2
     number of electrons       =        11.00
     number of Kohn-Sham states=           10
     kinetic-energy cutoff     =      80.0000  Ry
     charge density cutoff     =     320.0000  Ry
     scf convergence threshold =      1.0E-08
     mixing beta               =       0.7000
     number of iterations used =            8  plain     mixing
     energy convergence thresh.=      1.0E-04
     force convergence thresh. =      1.0E-03
     press convergence thresh. =      1.0E+00
     Exchange-correlation= PBE
                           (   1   4   3   4   0   0   0)
     nstep                     =           50


     celldm(1)=   6.692558  celldm(2)=   0.000000  celldm(3)=   1.499887
     celldm(4)=   0.000000  celldm(5)=   0.000000  celldm(6)=   0.000000

     crystal axes: (cart. coord. in units of alat)
               a(1) = (   1.000000   0.000000   0.000000 )  
               a(2) = (  -0.500000   0.866025   0.000000 )  
               a(3) = (   0.000000   0.000000   1.499887 )  

     reciprocal axes: (cart. coord. in units 2 pi/alat)
               b(1) = (  1.000000  0.577350 -0.000000 )  
               b(2) = (  0.000000  1.154701  0.000000 )  
               b(3) = (  0.000000 -0.000000  0.666717 )  


     PseudoPot. # 1 for Li read from file:
     ../pseudo/Li_ONCV_PBE_sr.upf
     MD5 check sum: 50ff420e78310ffa21704f3361e624a4
     Pseudo is Norm-conserving, Zval =  3.0
     Generated using ONCVPSP code by D. R. Hamann
     Using radial grid of 1944 points,  4 beta functions with: 
                l(1) =   0
                l(2) =   0
                l(3) =   1
                l(4) =   1

     PseudoPot. # 2 for Si read from file:
     ../pseudo/Si_ONCV_PBE_sr.upf
     MD5 check sum: e543d271109d17c80368dfa7c482276d
     Pseudo is Norm-conserving + core correction, Zval =  4.0
     Generated using ONCVPSP code by D. R. Hamann
     Using radial grid of 1510 points,  6 beta functions with: 
                l(1) =   0
                l(2) =   0
                l(3) =   1
                l(4) =   1
                l(5) =   2
                l(6) =   2

     atomic species   valence    mass     pseudopotential
        Li             3.00     6.94100     Li( 1.00)
        Si             4.00    28.08550     Si( 1.00)

     12 Sym. Ops., with inversion, found



   Cartesian axes

     site n.     atom                  positions (alat units)
         1           Li  tau(   1) = (   0.0000000   0.0000000   0.0000000  )
         2           Si  tau(   2) = (  -0.0000000   0.5773503   0.4166522  )
         3           Si  tau(   3) = (   0.5000000   0.2886751   1.0832351  )

     number of k points=   131  Marzari-Vanderbilt smearing, width (Ry)=  0.0200

     Number of k-points >= 100: set verbosity='high' to print them.

     Dense  grid:    37527 G-vectors     FFT dimensions: (  40,  40,  60)

     Estimated max dynamical RAM per process >      27.08 MB

     Estimated total dynamical RAM >     216.67 MB

     Initial potential from superposition of free atoms

     starting charge      10.9942, renormalised to      11.0000
     Starting wfcs are   10 randomized atomic wfcs

     total cpu time spent up to now is        1.3 secs

     Self-consistent Calculation

     iteration #  1     ecut=    80.00 Ry     beta= 0.70
     Davidson diagonalization with overlap
     ethr =  1.00E-02,  avg # of iterations =  5.6

     Threshold (ethr) on eigenvalues was too large:
     Diagonalizing with lowered threshold

     Davidson diagonalization with overlap
     ethr =  5.39E-04,  avg # of iterations =  2.8

     total cpu time spent up to now is        4.6 secs

     total energy              =     -31.12999650 Ry
     estimated scf accuracy    <       0.06419811 Ry

     iteration #  2     ecut=    80.00 Ry     beta= 0.70
     Davidson diagonalization with overlap
     ethr =  5.84E-04,  avg # of iterations =  2.8

     total cpu time spent up to now is        6.1 secs

     total energy              =     -31.14475719 Ry
     estimated scf accuracy    <       0.07520005 Ry

     iteration #  3     ecut=    80.00 Ry     beta= 0.70
     Davidson diagonalization with overlap
     ethr =  5.84E-04,  avg # of iterations =  2.0

     total cpu time spent up to now is        7.4 secs

     total energy              =     -31.15875242 Ry
     estimated scf accuracy    <       0.00008359 Ry

     iteration #  4     ecut=    80.00 Ry     beta= 0.70
     Davidson diagonalization with overlap
     c_bands:  1 eigenvalues not converged
     c_bands:  1 eigenvalues not converged
     c_bands:  1 eigenvalues not converged
     c_bands:  1 eigenvalues not converged
     ethr =  7.60E-07,  avg # of iterations =  9.0

     total cpu time spent up to now is        9.8 secs

     total energy              =     -31.15886479 Ry
     estimated scf accuracy    <       0.00006503 Ry

     iteration #  5     ecut=    80.00 Ry     beta= 0.70
     Davidson diagonalization with overlap
     ethr =  5.91E-07,  avg # of iterations =  2.1

     total cpu time spent up to now is       11.0 secs

     total energy              =     -31.15888205 Ry
     estimated scf accuracy    <       0.00000728 Ry

     iteration #  6     ecut=    80.00 Ry     beta= 0.70
     Davidson diagonalization with overlap
     ethr =  6.62E-08,  avg # of iterations =  1.5

     total cpu time spent up to now is       12.1 secs

     total energy              =     -31.15888328 Ry
     estimated scf accuracy    <       0.00000005 Ry

     iteration #  7     ecut=    80.00 Ry     beta= 0.70
     Davidson diagonalization with overlap
     ethr =  4.13E-10,  avg # of iterations =  4.0

     total cpu time spent up to now is       13.6 secs

     total energy              =     -31.15888333 Ry
     estimated scf accuracy    <       0.00000002 Ry

     iteration #  8     ecut=    80.00 Ry     beta= 0.70
     Davidson diagonalization with overlap
     ethr =  1.37E-10,  avg # of iterations =  2.0

     total cpu time spent up to now is       14.8 secs

     End of self-consistent calculation

     Number of k-points >= 100: set verbosity='high' to print the bands.

     the Fermi energy is     4.6571 ev

!    total energy              =     -31.15888333 Ry
     estimated scf accuracy    <          1.4E-11 Ry
     smearing contrib. (-TS)   =      -0.00024400 Ry
     internal energy E=F+TS    =     -31.15863933 Ry

     The total energy is F=E-TS. E is the sum of the following terms:
     one-electron contribution =      -3.40235355 Ry
     hartree contribution      =       4.06464294 Ry
     xc contribution           =      -9.19921306 Ry
     ewald contribution        =     -22.62171565 Ry

     convergence has been achieved in   8 iterations

     Forces acting on atoms (cartesian axes, Ry/au):

     atom    1 type  1   force =     0.00000000    0.00000000    0.00000000
     atom    2 type  2   force =     0.00000000    0.00000000    0.07057491
     atom    3 type  2   force =     0.00000000    0.00000000   -0.07057491
     The non-local contrib.  to forces
     atom    1 type  1   force =     0.00000000    0.00000000    0.00000000
     atom    2 type  2   force =    -0.00000000   -0.00000000    0.12688695
     atom    3 type  2   force =    -0.00000000   -0.00000000   -0.12688695
     The ionic contribution  to forces
     atom    1 type  1   force =    -0.00000000   -0.00000000   -0.00000000
     atom    2 type  2   force =     0.00000001   -0.00000001    0.76133788
     atom    3 type  2   force =    -0.00000001    0.00000001   -0.76133788
     The local contribution  to forces
     atom    1 type  1   force =    -0.00000000    0.00000000    0.00000000
     atom    2 type  2   force =     0.00000001   -0.00000001   -0.80962726
     atom    3 type  2   force =    -0.00000001    0.00000001    0.80962726
     The core correction contribution to forces
     atom    1 type  1   force =     0.00000000    0.00000000    0.00000000
     atom    2 type  2   force =    -0.00000000    0.00000000   -0.00802417
     atom    3 type  2   force =     0.00000000   -0.00000000    0.00802417
     The Hubbard contrib.    to forces
     atom    1 type  1   force =     0.00000000    0.00000000    0.00000000
     atom    2 type  2   force =     0.00000000    0.00000000    0.00000000
     atom    3 type  2   force =     0.00000000    0.00000000    0.00000000
     The SCF correction term to forces
     atom    1 type  1   force =    -0.00000000    0.00000000    0.00000000
     atom    2 type  2   force =    -0.00000000    0.00000000    0.00000151
     atom    3 type  2   force =     0.00000000   -0.00000000   -0.00000151

     Total force =     0.099808     Total SCF correction =     0.000002


     Computing stress (Cartesian axis) and pressure

          total   stress  (Ry/bohr**3)                   (kbar)     P=      -62.04
  -0.00047826  -0.00000000  -0.00000000          -70.35       -0.00       -0.00
  -0.00000000  -0.00047826  -0.00000000           -0.00      -70.35       -0.00
   0.00000000   0.00000000  -0.00030873            0.00        0.00      -45.42


     BFGS Geometry Optimization
     Energy error            =      0.0E+00 Ry
     Gradient error          =      7.1E-02 Ry/Bohr
     Cell gradient error     =      5.7E+02 kbar

     number of scf cycles    =   1
     number of bfgs steps    =   0

     enthalpy           new  =     -29.8354318389 Ry

     new trust radius        =       0.3825341841 bohr
ibrav =      4
 celldm(1) =      6.04384952
 celldm(3) =      1.50692681
Input lattice vectors:
     0.90307018     0.00000000     0.00000000
    -0.45153509     0.78208172     0.00000000
    -0.00000000    -0.00000000     1.36086066
New lattice vectors in INITIAL alat:
     0.90307018     0.00000000     0.00000000
    -0.45153509     0.78208172     0.00000000
     0.00000000     0.00000000     1.36086066
New lattice vectors in NEW alat (for information only):
     1.00000000     0.00000000     0.00000000
    -0.50000000     0.86602540     0.00000000
     0.00000000     0.00000000     1.50692681
Discrepancy in bohr =     0.000000    0.000000    0.000000
     new conv_thr            =       0.0000000100 Ry

     new unit-cell volume =    288.11357 a.u.^3 (    42.69403 Ang^3 )
     density =      2.45467 g/cm^3

CELL_PARAMETERS (alat=  6.69255796)
   0.903070179   0.000000000   0.000000000
  -0.451535090   0.782081717   0.000000000
   0.000000000   0.000000000   1.360860664

ATOMIC_POSITIONS (crystal)
Li            0.0000000000        0.0000000000        0.0000000000
Si            0.3333333300        0.6666666700        0.2848197164
Si            0.6666666700        0.3333333300        0.7151802836



     Writing config-only to output data dir ./output/LiSi.save/
     NEW-OLD atomic charge density approx. for the potential
     extrapolated charge    7.13602, renormalised to   11.00000

     total cpu time spent up to now is       17.2 secs

     Self-consistent Calculation

     iteration #  1     ecut=    80.00 Ry     beta= 0.70
     Davidson diagonalization with overlap
     c_bands:  1 eigenvalues not converged
     c_bands:  1 eigenvalues not converged
     c_bands:  1 eigenvalues not converged
     ethr =  1.00E-06,  avg # of iterations = 12.9

     total cpu time spent up to now is       21.5 secs

     total energy              =     -30.76566237 Ry
     estimated scf accuracy    <       0.37649077 Ry

     iteration #  2     ecut=    80.00 Ry     beta= 0.70
     Davidson diagonalization with overlap
     ethr =  3.42E-03,  avg # of iterations =  3.0

     total cpu time spent up to now is       23.1 secs

     total energy              =     -31.09353691 Ry
     estimated scf accuracy    <       1.10444669 Ry

     iteration #  3     ecut=    80.00 Ry     beta= 0.70
     Davidson diagonalization with overlap
     ethr =  3.42E-03,  avg # of iterations =  2.0

     total cpu time spent up to now is       24.3 secs

     total energy              =     -31.16849380 Ry
     estimated scf accuracy    <       0.08869806 Ry

     iteration #  4     ecut=    80.00 Ry     beta= 0.70
     Davidson diagonalization with overlap
     ethr =  8.06E-04,  avg # of iterations =  2.0

     total cpu time spent up to now is       25.5 secs

     total energy              =     -31.17937205 Ry
     estimated scf accuracy    <       0.00392500 Ry

     iteration #  5     ecut=    80.00 Ry     beta= 0.70
     Davidson diagonalization with overlap
     ethr =  3.57E-05,  avg # of iterations =  4.1

     total cpu time spent up to now is       27.1 secs

     total energy              =     -31.18075577 Ry
     estimated scf accuracy    <       0.00001154 Ry

     iteration #  6     ecut=    80.00 Ry     beta= 0.70
     Davidson diagonalization with overlap
     c_bands:  1 eigenvalues not converged
     c_bands:  1 eigenvalues not converged
     ethr =  1.05E-07,  avg # of iterations =  5.4

     total cpu time spent up to now is       29.0 secs

     total energy              =     -31.18078467 Ry
     estimated scf accuracy    <       0.00000030 Ry

     iteration #  7     ecut=    80.00 Ry     beta= 0.70
     Davidson diagonalization with overlap
     ethr =  2.74E-09,  avg # of iterations =  2.4

     total cpu time spent up to now is       30.3 secs

     total energy              =     -31.18078476 Ry
     estimated scf accuracy    <       0.00000003 Ry

     iteration #  8     ecut=    80.00 Ry     beta= 0.70
     Davidson diagonalization with overlap
     ethr =  3.11E-10,  avg # of iterations =  2.1

     total cpu time spent up to now is       31.5 secs

     End of self-consistent calculation

     Number of k-points >= 100: set verbosity='high' to print the bands.

     the Fermi energy is     7.6059 ev

!    total energy              =     -31.18078477 Ry
     estimated scf accuracy    <          1.8E-09 Ry
     smearing contrib. (-TS)   =       0.00024530 Ry
     internal energy E=F+TS    =     -31.18103007 Ry

     The total energy is F=E-TS. E is the sum of the following terms:
     one-electron contribution =      -0.17054148 Ry
     hartree contribution      =       3.66307974 Ry
     xc contribution           =      -9.55497778 Ry
     ewald contribution        =     -25.11859055 Ry

     convergence has been achieved in   8 iterations

     Forces acting on atoms (cartesian axes, Ry/au):

     atom    1 type  1   force =     0.00000000    0.00000000    0.00000000
     atom    2 type  2   force =    -0.00000000   -0.00000000    0.10611455
     atom    3 type  2   force =     0.00000000    0.00000000   -0.10611455
     The non-local contrib.  to forces
     atom    1 type  1   force =    -0.00000000    0.00000000    0.00000000
     atom    2 type  2   force =    -0.00000000   -0.00000000    0.16348158
     atom    3 type  2   force =     0.00000000    0.00000000   -0.16348158
     The ionic contribution  to forces
     atom    1 type  1   force =    -0.00000000   -0.00000000   -0.00000000
     atom    2 type  2   force =     0.00000002   -0.00000001    0.75981464
     atom    3 type  2   force =    -0.00000002    0.00000001   -0.75981464
     The local contribution  to forces
     atom    1 type  1   force =    -0.00000000    0.00000000    0.00000000
     atom    2 type  2   force =     0.00000000   -0.00000000   -0.80744353
     atom    3 type  2   force =    -0.00000000    0.00000000    0.80744353
     The core correction contribution to forces
     atom    1 type  1   force =     0.00000000    0.00000000    0.00000000
     atom    2 type  2   force =    -0.00000000    0.00000000   -0.00978355
     atom    3 type  2   force =     0.00000000   -0.00000000    0.00978355
     The Hubbard contrib.    to forces
     atom    1 type  1   force =     0.00000000    0.00000000    0.00000000
     atom    2 type  2   force =     0.00000000    0.00000000    0.00000000
     atom    3 type  2   force =     0.00000000    0.00000000    0.00000000
     The SCF correction term to forces
     atom    1 type  1   force =     0.00000000    0.00000000    0.00000000
     atom    2 type  2   force =     0.00000000   -0.00000000    0.00004540
     atom    3 type  2   force =    -0.00000000    0.00000000   -0.00004540

     Total force =     0.150069     Total SCF correction =     0.000064


     Computing stress (Cartesian axis) and pressure

          total   stress  (Ry/bohr**3)                   (kbar)     P=       68.25
   0.00028175   0.00000000  -0.00000000           41.45        0.00       -0.00
   0.00000000   0.00028175  -0.00000000            0.00       41.45       -0.00
   0.00000000   0.00000000   0.00082834            0.00        0.00      121.85

     Energy error            =      3.7E-01 Ry
     Gradient error          =      1.1E-01 Ry/Bohr
     Cell gradient error     =      4.6E+02 kbar

     number of scf cycles    =   2
     number of bfgs steps    =   1

     enthalpy           old  =     -29.8354318389 Ry
     enthalpy           new  =     -30.2015066335 Ry

     CASE: enthalpy          _new < enthalpy          _old

     new trust radius        =       0.5465614826 bohr
ibrav =      4
 celldm(1) =      5.07078685
 celldm(3) =      1.55766506
Input lattice vectors:
     0.75767545     0.00000000     0.00000000
    -0.37883772     0.65616619     0.00000000
    -0.00000000    -0.00000000     1.18020457
New lattice vectors in INITIAL alat:
     0.75767545     0.00000000     0.00000000
    -0.37883772     0.65616619     0.00000000
     0.00000000     0.00000000     1.18020457
New lattice vectors in NEW alat (for information only):
     1.00000000     0.00000000     0.00000000
    -0.50000000     0.86602540     0.00000000
     0.00000000     0.00000000     1.55766506
Discrepancy in bohr =     0.000000    0.000000    0.000000
     new conv_thr            =       0.0000000100 Ry

     new unit-cell volume =    175.88580 a.u.^3 (    26.06359 Ang^3 )
     density =      4.02093 g/cm^3

CELL_PARAMETERS (alat=  6.69255796)
   0.757675448   0.000000000   0.000000000
  -0.378837724   0.656166186   0.000000000
   0.000000000   0.000000000   1.180204570

ATOMIC_POSITIONS (crystal)
Li            0.0000000000        0.0000000000        0.0000000000
Si            0.3333333300        0.6666666700        0.3060249760
Si            0.6666666700        0.3333333300        0.6939750240



     Writing config-only to output data dir ./output/LiSi.save/
     NEW-OLD atomic charge density approx. for the potential

     negative rho (up, down):  1.318E-01 0.000E+00
     extrapolated charge    3.98490, renormalised to   11.00000

     total cpu time spent up to now is       33.8 secs

     Self-consistent Calculation

     iteration #  1     ecut=    80.00 Ry     beta= 0.70
     Davidson diagonalization with overlap
     c_bands:  1 eigenvalues not converged
     c_bands:  1 eigenvalues not converged
     c_bands:  1 eigenvalues not converged
     c_bands:  1 eigenvalues not converged
     c_bands:  1 eigenvalues not converged
     ethr =  1.00E-06,  avg # of iterations = 13.4

     negative rho (up, down):  3.500E-03 0.000E+00

     total cpu time spent up to now is       37.9 secs

     total energy              =     -29.89997968 Ry
     estimated scf accuracy    <       2.03746295 Ry

     iteration #  2     ecut=    80.00 Ry     beta= 0.70
     Davidson diagonalization with overlap
     ethr =  1.00E-02,  avg # of iterations =  2.5

     negative rho (up, down):  1.027E-05 0.000E+00

     total cpu time spent up to now is       39.2 secs

     total energy              =     -30.58899608 Ry
     estimated scf accuracy    <       1.97872984 Ry

     iteration #  3     ecut=    80.00 Ry     beta= 0.70
     Davidson diagonalization with overlap
     ethr =  1.00E-02,  avg # of iterations =  2.0

     total cpu time spent up to now is       40.3 secs

     total energy              =     -30.91945485 Ry
     estimated scf accuracy    <       0.07939407 Ry

     iteration #  4     ecut=    80.00 Ry     beta= 0.70
     Davidson diagonalization with overlap
     ethr =  7.22E-04,  avg # of iterations =  2.0

     total cpu time spent up to now is       41.4 secs

     total energy              =     -30.92651667 Ry
     estimated scf accuracy    <       0.00118881 Ry

     iteration #  5     ecut=    80.00 Ry     beta= 0.70
     Davidson diagonalization with overlap
     ethr =  1.08E-05,  avg # of iterations =  5.0

     total cpu time spent up to now is       43.0 secs

     total energy              =     -30.92685962 Ry
     estimated scf accuracy    <       0.00015367 Ry

     iteration #  6     ecut=    80.00 Ry     beta= 0.70
     Davidson diagonalization with overlap
     ethr =  1.40E-06,  avg # of iterations =  2.5

     total cpu time spent up to now is       44.1 secs

     total energy              =     -30.92688573 Ry
     estimated scf accuracy    <       0.00000044 Ry

     iteration #  7     ecut=    80.00 Ry     beta= 0.70
     Davidson diagonalization with overlap
     ethr =  4.00E-09,  avg # of iterations =  3.8

     total cpu time spent up to now is       45.5 secs

     total energy              =     -30.92688632 Ry
     estimated scf accuracy    <       0.00000003 Ry

     iteration #  8     ecut=    80.00 Ry     beta= 0.70
     Davidson diagonalization with overlap
     ethr =  2.43E-10,  avg # of iterations =  2.1

     total cpu time spent up to now is       46.6 secs

     End of self-consistent calculation

     Number of k-points >= 100: set verbosity='high' to print the bands.

     the Fermi energy is    14.1829 ev

!    total energy              =     -30.92688632 Ry
     estimated scf accuracy    <          4.6E-10 Ry
     smearing contrib. (-TS)   =       0.00044643 Ry
     internal energy E=F+TS    =     -30.92733275 Ry

     The total energy is F=E-TS. E is the sum of the following terms:
     one-electron contribution =       6.19730781 Ry
     hartree contribution      =       3.11372803 Ry
     xc contribution           =     -10.37978725 Ry
     ewald contribution        =     -29.85858135 Ry

     convergence has been achieved in   8 iterations

     Forces acting on atoms (cartesian axes, Ry/au):

     atom    1 type  1   force =     0.00000000   -0.00000000    0.00000000
     atom    2 type  2   force =    -0.00000000    0.00000000    0.02765532
     atom    3 type  2   force =     0.00000000    0.00000000   -0.02765532
     The non-local contrib.  to forces
     atom    1 type  1   force =     0.00000000    0.00000000    0.00000000
     atom    2 type  2   force =     0.00000000   -0.00000000    0.04281892
     atom    3 type  2   force =     0.00000000    0.00000000   -0.04281892
     The ionic contribution  to forces
     atom    1 type  1   force =    -0.00000000   -0.00000000   -0.00000000
     atom    2 type  2   force =     0.00000002   -0.00000001    0.33935015
     atom    3 type  2   force =    -0.00000002    0.00000001   -0.33935015
     The local contribution  to forces
     atom    1 type  1   force =    -0.00000000    0.00000000    0.00000000
     atom    2 type  2   force =    -0.00000001    0.00000001   -0.35610388
     atom    3 type  2   force =     0.00000001   -0.00000001    0.35610388
     The core correction contribution to forces
     atom    1 type  1   force =     0.00000000    0.00000000    0.00000000
     atom    2 type  2   force =    -0.00000000    0.00000000    0.00156751
     atom    3 type  2   force =     0.00000000   -0.00000000   -0.00156751
     The Hubbard contrib.    to forces
     atom    1 type  1   force =     0.00000000    0.00000000    0.00000000
     atom    2 type  2   force =     0.00000000    0.00000000    0.00000000
     atom    3 type  2   force =     0.00000000    0.00000000    0.00000000
     The SCF correction term to forces
     atom    1 type  1   force =     0.00000000    0.00000000   -0.00000000
     atom    2 type  2   force =     0.00000000   -0.00000000    0.00002262
     atom    3 type  2   force =    -0.00000000    0.00000000   -0.00002262

     Total force =     0.039111     Total SCF correction =     0.000032


     Computing stress (Cartesian axis) and pressure

          total   stress  (Ry/bohr**3)                   (kbar)     P=     1039.05
   0.00576090   0.00000000  -0.00000000          847.46        0.00       -0.00
   0.00000000   0.00576090  -0.00000000            0.00      847.46       -0.00
  -0.00000000  -0.00000000   0.00966820           -0.00       -0.00     1422.24

     Energy error            =      1.3E-01 Ry
     Gradient error          =      2.8E-02 Ry/Bohr
     Cell gradient error     =      9.2E+02 kbar

     number of scf cycles    =   3
     number of bfgs steps    =   2

     enthalpy           old  =     -30.2015066335 Ry
     enthalpy           new  =     -30.3290626422 Ry

     CASE: enthalpy          _new < enthalpy          _old

     new trust radius        =       0.2508035864 bohr
ibrav =      4
 celldm(1) =      5.39445863
 celldm(3) =      1.60265296
Input lattice vectors:
     0.80603839     0.00000000    -0.00000000
    -0.40301919     0.69804972    -0.00000000
    -0.00000000    -0.00000000     1.29179981
New lattice vectors in INITIAL alat:
     0.80603839     0.00000000     0.00000000
    -0.40301919     0.69804972     0.00000000
     0.00000000     0.00000000     1.29179981
New lattice vectors in NEW alat (for information only):
     1.00000000     0.00000000     0.00000000
    -0.50000000     0.86602540     0.00000000
     0.00000000     0.00000000     1.60265296
Discrepancy in bohr =     0.000000    0.000000    0.000000
     new conv_thr            =       0.0000000028 Ry

     new unit-cell volume =    217.87817 a.u.^3 (    32.28621 Ang^3 )
     density =      3.24597 g/cm^3

CELL_PARAMETERS (alat=  6.69255796)
   0.806038388   0.000000000   0.000000000
  -0.403019194   0.698049721   0.000000000
   0.000000000   0.000000000   1.291799805

ATOMIC_POSITIONS (crystal)
Li            0.0000000000        0.0000000000        0.0000000000
Si            0.3333333300        0.6666666700        0.3028575197
Si            0.6666666700        0.3333333300        0.6971424803



     Writing config-only to output data dir ./output/LiSi.save/
     NEW-OLD atomic charge density approx. for the potential
     extrapolated charge   13.11895, renormalised to   11.00000

     total cpu time spent up to now is       48.8 secs

     Self-consistent Calculation

     iteration #  1     ecut=    80.00 Ry     beta= 0.70
     Davidson diagonalization with overlap
     c_bands:  1 eigenvalues not converged
     c_bands:  1 eigenvalues not converged
     ethr =  1.00E-06,  avg # of iterations = 11.5

     total cpu time spent up to now is       52.3 secs

     total energy              =     -31.09356540 Ry
     estimated scf accuracy    <       0.00791966 Ry

     iteration #  2     ecut=    80.00 Ry     beta= 0.70
     Davidson diagonalization with overlap
     ethr =  7.20E-05,  avg # of iterations =  3.6

     total cpu time spent up to now is       53.9 secs

     total energy              =     -31.13141260 Ry
     estimated scf accuracy    <       0.04838583 Ry

     iteration #  3     ecut=    80.00 Ry     beta= 0.70
     Davidson diagonalization with overlap
     ethr =  7.20E-05,  avg # of iterations =  2.0

     total cpu time spent up to now is       55.0 secs

     total energy              =     -31.13134485 Ry
     estimated scf accuracy    <       0.01167573 Ry

     iteration #  4     ecut=    80.00 Ry     beta= 0.70
     Davidson diagonalization with overlap
     ethr =  7.20E-05,  avg # of iterations =  1.0

     total cpu time spent up to now is       56.0 secs

     total energy              =     -31.12858912 Ry
     estimated scf accuracy    <       0.00499649 Ry

     iteration #  5     ecut=    80.00 Ry     beta= 0.70
     Davidson diagonalization with overlap
     ethr =  4.54E-05,  avg # of iterations =  2.1

     total cpu time spent up to now is       57.1 secs

     total energy              =     -31.12987757 Ry
     estimated scf accuracy    <       0.00028831 Ry

     iteration #  6     ecut=    80.00 Ry     beta= 0.70
     Davidson diagonalization with overlap
     ethr =  2.62E-06,  avg # of iterations =  2.8

     total cpu time spent up to now is       58.3 secs

     total energy              =     -31.12991909 Ry
     estimated scf accuracy    <       0.00000782 Ry

     iteration #  7     ecut=    80.00 Ry     beta= 0.70
     Davidson diagonalization with overlap
     ethr =  7.11E-08,  avg # of iterations =  3.0

     total cpu time spent up to now is       59.4 secs

     total energy              =     -31.12992298 Ry
     estimated scf accuracy    <       0.00000032 Ry

     iteration #  8     ecut=    80.00 Ry     beta= 0.70
     Davidson diagonalization with overlap
     ethr =  2.94E-09,  avg # of iterations =  2.4

     total cpu time spent up to now is       60.5 secs

     total energy              =     -31.12992302 Ry
     estimated scf accuracy    <       0.00000006 Ry

     iteration #  9     ecut=    80.00 Ry     beta= 0.70
     Davidson diagonalization with overlap
     ethr =  5.73E-10,  avg # of iterations =  1.2

     total cpu time spent up to now is       61.5 secs

     total energy              =     -31.12992302 Ry
     estimated scf accuracy    <       0.00000002 Ry

     iteration # 10     ecut=    80.00 Ry     beta= 0.70
     Davidson diagonalization with overlap
     ethr =  2.03E-10,  avg # of iterations =  2.0

     total cpu time spent up to now is       62.6 secs

     End of self-consistent calculation

     Number of k-points >= 100: set verbosity='high' to print the bands.

     the Fermi energy is    11.0766 ev

!    total energy              =     -31.12992302 Ry
     estimated scf accuracy    <          1.5E-10 Ry
     smearing contrib. (-TS)   =       0.00024684 Ry
     internal energy E=F+TS    =     -31.13016986 Ry

     The total energy is F=E-TS. E is the sum of the following terms:
     one-electron contribution =       3.39858207 Ry
     hartree contribution      =       3.26205368 Ry
     xc contribution           =      -9.98753389 Ry
     ewald contribution        =     -27.80327172 Ry

     convergence has been achieved in  10 iterations

     Forces acting on atoms (cartesian axes, Ry/au):

     atom    1 type  1   force =     0.00000000   -0.00000000    0.00000000
     atom    2 type  2   force =     0.00000000    0.00000000    0.08316068
     atom    3 type  2   force =    -0.00000000   -0.00000000   -0.08316068
     The non-local contrib.  to forces
     atom    1 type  1   force =     0.00000000   -0.00000000    0.00000000
     atom    2 type  2   force =     0.00000000    0.00000000    0.13377379
     atom    3 type  2   force =     0.00000000   -0.00000000   -0.13377379
     The ionic contribution  to forces
     atom    1 type  1   force =    -0.00000000    0.00000000   -0.00000000
     atom    2 type  2   force =     0.00000002   -0.00000001    0.41922090
     atom    3 type  2   force =    -0.00000002    0.00000001   -0.41922090
     The local contribution  to forces
     atom    1 type  1   force =    -0.00000000    0.00000000    0.00000000
     atom    2 type  2   force =    -0.00000000    0.00000000   -0.46402637
     atom    3 type  2   force =     0.00000000   -0.00000000    0.46402637
     The core correction contribution to forces
     atom    1 type  1   force =     0.00000000    0.00000000    0.00000000
     atom    2 type  2   force =    -0.00000000    0.00000000   -0.00579738
     atom    3 type  2   force =     0.00000000   -0.00000000    0.00579738
     The Hubbard contrib.    to forces
     atom    1 type  1   force =     0.00000000    0.00000000    0.00000000
     atom    2 type  2   force =     0.00000000    0.00000000    0.00000000
     atom    3 type  2   force =     0.00000000    0.00000000    0.00000000
     The SCF correction term to forces
     atom    1 type  1   force =    -0.00000000   -0.00000000    0.00000000
     atom    2 type  2   force =     0.00000000   -0.00000000   -0.00001026
     atom    3 type  2   force =    -0.00000000    0.00000000    0.00001026

     Total force =     0.117607     Total SCF correction =     0.000015


     Computing stress (Cartesian axis) and pressure

          total   stress  (Ry/bohr**3)                   (kbar)     P=      415.11
   0.00201750   0.00000000   0.00000000          296.78        0.00        0.00
   0.00000000   0.00201750   0.00000000            0.00      296.78        0.00
   0.00000000   0.00000000   0.00443049            0.00        0.00      651.75

     Energy error            =      6.0E-02 Ry
     Gradient error          =      8.3E-02 Ry/Bohr
     Cell gradient error     =      2.0E+02 kbar

     number of scf cycles    =   4
     number of bfgs steps    =   3

     enthalpy           old  =     -30.3290626422 Ry
     enthalpy           new  =     -30.3893701679 Ry

     CASE: enthalpy          _new < enthalpy          _old

     new trust radius        =       0.0918744199 bohr
ibrav =      4
 celldm(1) =      5.23524002
 celldm(3) =      1.70278775
Input lattice vectors:
     0.78224799     0.00000000    -0.00000000
    -0.39112400     0.67744663     0.00000000
    -0.00000000    -0.00000000     1.33200230
New lattice vectors in INITIAL alat:
     0.78224799     0.00000000     0.00000000
    -0.39112400     0.67744663     0.00000000
     0.00000000     0.00000000     1.33200230
New lattice vectors in NEW alat (for information only):
     1.00000000     0.00000000     0.00000000
    -0.50000000     0.86602540     0.00000000
     0.00000000     0.00000000     1.70278775
Discrepancy in bohr =     0.000000    0.000000    0.000000
     new conv_thr            =       0.0000000083 Ry

     new unit-cell volume =    211.59283 a.u.^3 (    31.35482 Ang^3 )
     density =      3.34239 g/cm^3

CELL_PARAMETERS (alat=  6.69255796)
   0.782247991   0.000000000   0.000000000
  -0.391123995   0.677446632   0.000000000
   0.000000000   0.000000000   1.332002297

ATOMIC_POSITIONS (crystal)
Li           -0.0000000000       -0.0000000000        0.0000000000
Si            0.3333333300        0.6666666700        0.3108173295
Si            0.6666666700        0.3333333300        0.6891826705



     Writing config-only to output data dir ./output/LiSi.save/
     NEW-OLD atomic charge density approx. for the potential
     extrapolated charge   10.67342, renormalised to   11.00000

     total cpu time spent up to now is       64.8 secs

     Self-consistent Calculation

     iteration #  1     ecut=    80.00 Ry     beta= 0.70
     Davidson diagonalization with overlap
     c_bands:  1 eigenvalues not converged
     ethr =  1.00E-06,  avg # of iterations =  9.5

     total cpu time spent up to now is       67.7 secs

     total energy              =     -31.14267415 Ry
     estimated scf accuracy    <       0.00028974 Ry

     iteration #  2     ecut=    80.00 Ry     beta= 0.70
     Davidson diagonalization with overlap
     ethr =  2.63E-06,  avg # of iterations =  2.9

     total cpu time spent up to now is       69.0 secs

     total energy              =     -31.14332883 Ry
     estimated scf accuracy    <       0.00047865 Ry

     iteration #  3     ecut=    80.00 Ry     beta= 0.70
     Davidson diagonalization with overlap
     ethr =  2.63E-06,  avg # of iterations =  1.7

     total cpu time spent up to now is       70.0 secs

     total energy              =     -31.14335475 Ry
     estimated scf accuracy    <       0.00006826 Ry

     iteration #  4     ecut=    80.00 Ry     beta= 0.70
     Davidson diagonalization with overlap
     ethr =  6.21E-07,  avg # of iterations =  1.0

     total cpu time spent up to now is       70.9 secs

     total energy              =     -31.14334141 Ry
     estimated scf accuracy    <       0.00003171 Ry

     iteration #  5     ecut=    80.00 Ry     beta= 0.70
     Davidson diagonalization with overlap
     ethr =  2.88E-07,  avg # of iterations =  2.0

     total cpu time spent up to now is       71.9 secs

     total energy              =     -31.14334722 Ry
     estimated scf accuracy    <       0.00000003 Ry

     iteration #  6     ecut=    80.00 Ry     beta= 0.70
     Davidson diagonalization with overlap
     ethr =  2.41E-10,  avg # of iterations =  4.4

     total cpu time spent up to now is       73.4 secs

     total energy              =     -31.14334731 Ry
     estimated scf accuracy    <       0.00000003 Ry

     iteration #  7     ecut=    80.00 Ry     beta= 0.70
     Davidson diagonalization with overlap
     ethr =  2.29E-10,  avg # of iterations =  1.4

     total cpu time spent up to now is       74.3 secs

     End of self-consistent calculation

     Number of k-points >= 100: set verbosity='high' to print the bands.

     the Fermi energy is    11.6485 ev

!    total energy              =     -31.14334731 Ry
     estimated scf accuracy    <          4.8E-10 Ry
     smearing contrib. (-TS)   =      -0.00023613 Ry
     internal energy E=F+TS    =     -31.14311118 Ry

     The total energy is F=E-TS. E is the sum of the following terms:
     one-electron contribution =       3.90965934 Ry
     hartree contribution      =       3.16371719 Ry
     xc contribution           =     -10.04710298 Ry
     ewald contribution        =     -28.16938474 Ry

     convergence has been achieved in   7 iterations

     Forces acting on atoms (cartesian axes, Ry/au):

     atom    1 type  1   force =     0.00000000   -0.00000000    0.00000000
     atom    2 type  2   force =    -0.00000000   -0.00000000    0.05201483
     atom    3 type  2   force =     0.00000000    0.00000000   -0.05201483
     The non-local contrib.  to forces
     atom    1 type  1   force =     0.00000000    0.00000000    0.00000000
     atom    2 type  2   force =     0.00000000   -0.00000000    0.12108079
     atom    3 type  2   force =     0.00000000    0.00000000   -0.12108079
     The ionic contribution  to forces
     atom    1 type  1   force =    -0.00000000    0.00000000   -0.00000000
     atom    2 type  2   force =     0.00000001   -0.00000001    0.18898201
     atom    3 type  2   force =    -0.00000001    0.00000001   -0.18898201
     The local contribution  to forces
     atom    1 type  1   force =    -0.00000000    0.00000000    0.00000000
     atom    2 type  2   force =    -0.00000000    0.00000000   -0.25373278
     atom    3 type  2   force =     0.00000000   -0.00000000    0.25373278
     The core correction contribution to forces
     atom    1 type  1   force =     0.00000000    0.00000000    0.00000000
     atom    2 type  2   force =    -0.00000000    0.00000000   -0.00434114
     atom    3 type  2   force =     0.00000000   -0.00000000    0.00434114
     The Hubbard contrib.    to forces
     atom    1 type  1   force =     0.00000000    0.00000000    0.00000000
     atom    2 type  2   force =     0.00000000    0.00000000    0.00000000
     atom    3 type  2   force =     0.00000000    0.00000000    0.00000000
     The SCF correction term to forces
     atom    1 type  1   force =     0.00000000   -0.00000000    0.00000000
     atom    2 type  2   force =    -0.00000000    0.00000000    0.00002594
     atom    3 type  2   force =     0.00000000   -0.00000000   -0.00002594

     Total force =     0.073560     Total SCF correction =     0.000037


     Computing stress (Cartesian axis) and pressure

          total   stress  (Ry/bohr**3)                   (kbar)     P=      465.35
   0.00223060  -0.00000000   0.00000000          328.13       -0.00        0.00
  -0.00000000   0.00223060   0.00000000           -0.00      328.13        0.00
   0.00000000   0.00000000   0.00502892            0.00        0.00      739.78

     Energy error            =      3.5E-02 Ry
     Gradient error          =      5.2E-02 Ry/Bohr
     Cell gradient error     =      2.4E+02 kbar

     number of scf cycles    =   5
     number of bfgs steps    =   4

     enthalpy           old  =     -30.3893701679 Ry
     enthalpy           new  =     -30.4241579109 Ry

     CASE: enthalpy          _new < enthalpy          _old


     WARNING: bfgs curvature condition failed, Theta= 0.882
     new trust radius        =       0.1327177385 bohr
ibrav =      4
 celldm(1) =      5.04201541
 celldm(3) =      1.84870039
Input lattice vectors:
     0.75337643    -0.00000000     0.00000000
    -0.37668821     0.65244313    -0.00000000
     0.00000000     0.00000000     1.39276729
New lattice vectors in INITIAL alat:
     0.75337643     0.00000000     0.00000000
    -0.37668821     0.65244313     0.00000000
     0.00000000     0.00000000     1.39276729
New lattice vectors in NEW alat (for information only):
     1.00000000     0.00000000     0.00000000
    -0.50000000     0.86602540     0.00000000
     0.00000000     0.00000000     1.84870039
Discrepancy in bohr =     0.000000    0.000000    0.000000
     new conv_thr            =       0.0000000052 Ry

     new unit-cell volume =    205.21527 a.u.^3 (    30.40977 Ang^3 )
     density =      3.44626 g/cm^3

CELL_PARAMETERS (alat=  6.69255796)
   0.753376428   0.000000000   0.000000000
  -0.376688214   0.652443125   0.000000000
   0.000000000   0.000000000   1.392767294

ATOMIC_POSITIONS (crystal)
Li           -0.0000000000       -0.0000000000        0.0000000000
Si            0.3333333300        0.6666666700        0.3194605071
Si            0.6666666700        0.3333333300        0.6805394929



     Writing config-only to output data dir ./output/LiSi.save/
     NEW-OLD atomic charge density approx. for the potential
     extrapolated charge   10.65833, renormalised to   11.00000

     total cpu time spent up to now is       76.5 secs

     Self-consistent Calculation

     iteration #  1     ecut=    80.00 Ry     beta= 0.70
     Davidson diagonalization with overlap
     c_bands:  1 eigenvalues not converged
     c_bands:  1 eigenvalues not converged
     c_bands:  1 eigenvalues not converged
     ethr =  1.00E-06,  avg # of iterations = 10.3

     total cpu time spent up to now is       79.5 secs

     total energy              =     -31.15742885 Ry
     estimated scf accuracy    <       0.00105452 Ry

     iteration #  2     ecut=    80.00 Ry     beta= 0.70
     Davidson diagonalization with overlap
     ethr =  9.59E-06,  avg # of iterations =  2.0

     total cpu time spent up to now is       80.7 secs

     total energy              =     -31.15816985 Ry
     estimated scf accuracy    <       0.00074120 Ry

     iteration #  3     ecut=    80.00 Ry     beta= 0.70
     Davidson diagonalization with overlap
     ethr =  6.74E-06,  avg # of iterations =  1.9

     total cpu time spent up to now is       81.7 secs

     total energy              =     -31.15831022 Ry
     estimated scf accuracy    <       0.00007000 Ry

     iteration #  4     ecut=    80.00 Ry     beta= 0.70
     Davidson diagonalization with overlap
     ethr =  6.36E-07,  avg # of iterations =  1.1

     total cpu time spent up to now is       82.6 secs

     total energy              =     -31.15831175 Ry
     estimated scf accuracy    <       0.00000935 Ry

     iteration #  5     ecut=    80.00 Ry     beta= 0.70
     Davidson diagonalization with overlap
     ethr =  8.50E-08,  avg # of iterations =  2.0

     total cpu time spent up to now is       83.7 secs

     total energy              =     -31.15831292 Ry
     estimated scf accuracy    <       0.00000009 Ry

     iteration #  6     ecut=    80.00 Ry     beta= 0.70
     Davidson diagonalization with overlap
     ethr =  8.54E-10,  avg # of iterations =  3.1

     total cpu time spent up to now is       84.8 secs

     End of self-consistent calculation

     Number of k-points >= 100: set verbosity='high' to print the bands.

     the Fermi energy is    12.1849 ev

!    total energy              =     -31.15831297 Ry
     estimated scf accuracy    <          2.7E-09 Ry
     smearing contrib. (-TS)   =      -0.00014895 Ry
     internal energy E=F+TS    =     -31.15816402 Ry

     The total energy is F=E-TS. E is the sum of the following terms:
     one-electron contribution =       4.43796762 Ry
     hartree contribution      =       3.06292946 Ry
     xc contribution           =     -10.11616446 Ry
     ewald contribution        =     -28.54289664 Ry

     convergence has been achieved in   6 iterations

     Forces acting on atoms (cartesian axes, Ry/au):

     atom    1 type  1   force =     0.00000000   -0.00000000    0.00000000
     atom    2 type  2   force =     0.00000000    0.00000000    0.01547933
     atom    3 type  2   force =    -0.00000000    0.00000000   -0.01547933
     The non-local contrib.  to forces
     atom    1 type  1   force =     0.00000000    0.00000000    0.00000000
     atom    2 type  2   force =     0.00000000   -0.00000000    0.09449083
     atom    3 type  2   force =     0.00000000   -0.00000000   -0.09449083
     The ionic contribution  to forces
     atom    1 type  1   force =    -0.00000000   -0.00000000   -0.00000000
     atom    2 type  2   force =     0.00000001   -0.00000001   -0.12461131
     atom    3 type  2   force =    -0.00000001    0.00000001    0.12461131
     The local contribution  to forces
     atom    1 type  1   force =    -0.00000000    0.00000000    0.00000000
     atom    2 type  2   force =    -0.00000000    0.00000000    0.04766629
     atom    3 type  2   force =     0.00000000   -0.00000000   -0.04766629
     The core correction contribution to forces
     atom    1 type  1   force =     0.00000000    0.00000000    0.00000000
     atom    2 type  2   force =    -0.00000000    0.00000000   -0.00203013
     atom    3 type  2   force =     0.00000000   -0.00000000    0.00203013
     The Hubbard contrib.    to forces
     atom    1 type  1   force =     0.00000000    0.00000000    0.00000000
     atom    2 type  2   force =     0.00000000    0.00000000    0.00000000
     atom    3 type  2   force =     0.00000000    0.00000000    0.00000000
     The SCF correction term to forces
     atom    1 type  1   force =     0.00000000    0.00000000   -0.00000000
     atom    2 type  2   force =     0.00000000   -0.00000000   -0.00003636
     atom    3 type  2   force =    -0.00000000    0.00000000    0.00003636

     Total force =     0.021891     Total SCF correction =     0.000051


     Computing stress (Cartesian axis) and pressure

          total   stress  (Ry/bohr**3)                   (kbar)     P=      518.90
   0.00269267  -0.00000000  -0.00000000          396.11       -0.00       -0.00
  -0.00000000   0.00269267  -0.00000000           -0.00      396.11       -0.00
   0.00000000   0.00000000   0.00519693            0.00        0.00      764.50

     Energy error            =      3.7E-02 Ry
     Gradient error          =      1.5E-02 Ry/Bohr
     Cell gradient error     =      2.6E+02 kbar

     number of scf cycles    =   6
     number of bfgs steps    =   5

     enthalpy           old  =     -30.4241579109 Ry
     enthalpy           new  =     -30.4608004480 Ry

     CASE: enthalpy          _new < enthalpy          _old

     new trust radius        =       0.1874998869 bohr
ibrav =      4
 celldm(1) =      4.80437644
 celldm(3) =      2.06711232
Input lattice vectors:
     0.71786848    -0.00000000     0.00000000
    -0.35893424     0.62169234     0.00000000
    -0.00000000    -0.00000000     1.48391479
New lattice vectors in INITIAL alat:
     0.71786848     0.00000000     0.00000000
    -0.35893424     0.62169234     0.00000000
     0.00000000     0.00000000     1.48391479
New lattice vectors in NEW alat (for information only):
     1.00000000     0.00000000     0.00000000
    -0.50000000     0.86602540     0.00000000
     0.00000000     0.00000000     2.06711232
Discrepancy in bohr =     0.000000    0.000000    0.000000
     new conv_thr            =       0.0000000015 Ry

     new unit-cell volume =    198.52070 a.u.^3 (    29.41773 Ang^3 )
     density =      3.56248 g/cm^3

CELL_PARAMETERS (alat=  6.69255796)
   0.717868484   0.000000000   0.000000000
  -0.358934242   0.621692344   0.000000000
   0.000000000   0.000000000   1.483914789

ATOMIC_POSITIONS (crystal)
Li           -0.0000000000       -0.0000000000        0.0000000000
Si            0.3333333300        0.6666666700        0.3287158154
Si            0.6666666700        0.3333333300        0.6712841846



     Writing config-only to output data dir ./output/LiSi.save/
     NEW-OLD atomic charge density approx. for the potential
     extrapolated charge   10.62925, renormalised to   11.00000

     total cpu time spent up to now is       86.9 secs

     Self-consistent Calculation

     iteration #  1     ecut=    80.00 Ry     beta= 0.70
     Davidson diagonalization with overlap
     c_bands:  1 eigenvalues not converged
     ethr =  1.00E-06,  avg # of iterations = 11.9

     total cpu time spent up to now is       90.2 secs

     total energy              =     -31.15608231 Ry
     estimated scf accuracy    <       0.00637763 Ry

     iteration #  2     ecut=    80.00 Ry     beta= 0.70
     Davidson diagonalization with overlap
     ethr =  5.80E-05,  avg # of iterations =  2.4

     total cpu time spent up to now is       91.4 secs

     total energy              =     -31.15725754 Ry
     estimated scf accuracy    <       0.01965580 Ry

     iteration #  3     ecut=    80.00 Ry     beta= 0.70
     Davidson diagonalization with overlap
     ethr =  5.80E-05,  avg # of iterations =  1.9

     total cpu time spent up to now is       92.4 secs

     total energy              =     -31.16042198 Ry
     estimated scf accuracy    <       0.00009011 Ry

     iteration #  4     ecut=    80.00 Ry     beta= 0.70
     Davidson diagonalization with overlap
     ethr =  8.19E-07,  avg # of iterations =  3.1

     total cpu time spent up to now is       93.6 secs

     total energy              =     -31.16043350 Ry
     estimated scf accuracy    <       0.00001252 Ry

     iteration #  5     ecut=    80.00 Ry     beta= 0.70
     Davidson diagonalization with overlap
     ethr =  1.14E-07,  avg # of iterations =  2.1

     total cpu time spent up to now is       94.7 secs

     total energy              =     -31.16043492 Ry
     estimated scf accuracy    <       0.00000083 Ry

     iteration #  6     ecut=    80.00 Ry     beta= 0.70
     Davidson diagonalization with overlap
     ethr =  7.59E-09,  avg # of iterations =  3.0

     total cpu time spent up to now is       95.8 secs

     total energy              =     -31.16043527 Ry
     estimated scf accuracy    <       0.00000005 Ry

     iteration #  7     ecut=    80.00 Ry     beta= 0.70
     Davidson diagonalization with overlap
     ethr =  4.94E-10,  avg # of iterations =  1.8

     total cpu time spent up to now is       96.7 secs

     total energy              =     -31.16043527 Ry
     estimated scf accuracy    <          3.3E-09 Ry

     iteration #  8     ecut=    80.00 Ry     beta= 0.70
     Davidson diagonalization with overlap
     ethr =  2.98E-11,  avg # of iterations =  2.3

     total cpu time spent up to now is       97.8 secs

     End of self-consistent calculation

     Number of k-points >= 100: set verbosity='high' to print the bands.

     the Fermi energy is    12.6070 ev

!    total energy              =     -31.16043528 Ry
     estimated scf accuracy    <          4.6E-11 Ry
     smearing contrib. (-TS)   =       0.00002914 Ry
     internal energy E=F+TS    =     -31.16046441 Ry

     The total energy is F=E-TS. E is the sum of the following terms:
     one-electron contribution =       4.94566877 Ry
     hartree contribution      =       2.98836948 Ry
     xc contribution           =     -10.20211392 Ry
     ewald contribution        =     -28.89238874 Ry

     convergence has been achieved in   8 iterations

     Forces acting on atoms (cartesian axes, Ry/au):

     atom    1 type  1   force =     0.00000000    0.00000000    0.00000000
     atom    2 type  2   force =     0.00000000    0.00000000   -0.02513994
     atom    3 type  2   force =    -0.00000000   -0.00000000    0.02513994
     The non-local contrib.  to forces
     atom    1 type  1   force =     0.00000000    0.00000000    0.00000000
     atom    2 type  2   force =     0.00000000   -0.00000000    0.05642504
     atom    3 type  2   force =     0.00000000    0.00000000   -0.05642504
     The ionic contribution  to forces
     atom    1 type  1   force =    -0.00000000    0.00000000    0.00000000
     atom    2 type  2   force =     0.00000001   -0.00000001   -0.56929477
     atom    3 type  2   force =    -0.00000001    0.00000001    0.56929477
     The local contribution  to forces
     atom    1 type  1   force =    -0.00000000    0.00000000    0.00000000
     atom    2 type  2   force =    -0.00000001    0.00000000    0.48676013
     atom    3 type  2   force =     0.00000001   -0.00000000   -0.48676013
     The core correction contribution to forces
     atom    1 type  1   force =     0.00000000    0.00000000    0.00000000
     atom    2 type  2   force =    -0.00000000    0.00000000    0.00096063
     atom    3 type  2   force =     0.00000000   -0.00000000   -0.00096063
     The Hubbard contrib.    to forces
     atom    1 type  1   force =     0.00000000    0.00000000    0.00000000
     atom    2 type  2   force =     0.00000000    0.00000000    0.00000000
     atom    3 type  2   force =     0.00000000    0.00000000    0.00000000
     The SCF correction term to forces
     atom    1 type  1   force =     0.00000000    0.00000000    0.00000000
     atom    2 type  2   force =    -0.00000000    0.00000000    0.00000903
     atom    3 type  2   force =     0.00000000   -0.00000000   -0.00000903

     Total force =     0.035553     Total SCF correction =     0.000013


     Computing stress (Cartesian axis) and pressure

          total   stress  (Ry/bohr**3)                   (kbar)     P=      586.27
   0.00360098   0.00000000   0.00000000          529.72        0.00        0.00
   0.00000000   0.00360098   0.00000000            0.00      529.72        0.00
   0.00000000   0.00000000   0.00475418            0.00        0.00      699.36

     Energy error            =      2.5E-02 Ry
     Gradient error          =      2.5E-02 Ry/Bohr
     Cell gradient error     =      2.0E+02 kbar

     number of scf cycles    =   7
     number of bfgs steps    =   6

     enthalpy           old  =     -30.4608004480 Ry
     enthalpy           new  =     -30.4856771376 Ry

     CASE: enthalpy          _new < enthalpy          _old

     new trust radius        =       0.0830668732 bohr
ibrav =      4
 celldm(1) =      4.75910651
 celldm(3) =      2.14828879
Input lattice vectors:
     0.71110427     0.00000000     0.00000000
    -0.35555213     0.61583436     0.00000000
     0.00000000     0.00000000     1.52765732
New lattice vectors in INITIAL alat:
     0.71110427     0.00000000     0.00000000
    -0.35555213     0.61583436     0.00000000
     0.00000000     0.00000000     1.52765732
New lattice vectors in NEW alat (for information only):
     1.00000000     0.00000000     0.00000000
    -0.50000000     0.86602540     0.00000000
     0.00000000     0.00000000     2.14828879
Discrepancy in bohr =     0.000000    0.000000    0.000000
     new conv_thr            =       0.0000000025 Ry

     new unit-cell volume =    200.53933 a.u.^3 (    29.71686 Ang^3 )
     density =      3.52662 g/cm^3

CELL_PARAMETERS (alat=  6.69255796)
   0.711104266   0.000000000   0.000000000
  -0.355552133   0.615834359   0.000000000
   0.000000000   0.000000000   1.527657323

ATOMIC_POSITIONS (crystal)
Li           -0.0000000000       -0.0000000000        0.0000000000
Si            0.3333333300        0.6666666700        0.3298836307
Si            0.6666666700        0.3333333300        0.6701163693



     Writing config-only to output data dir ./output/LiSi.save/
     NEW-OLD atomic charge density approx. for the potential
     extrapolated charge   11.11067, renormalised to   11.00000

     total cpu time spent up to now is       99.9 secs

     Self-consistent Calculation

     iteration #  1     ecut=    80.00 Ry     beta= 0.70
     Davidson diagonalization with overlap
     c_bands:  1 eigenvalues not converged
     ethr =  1.00E-06,  avg # of iterations =  8.2

     total cpu time spent up to now is      102.2 secs

     total energy              =     -31.17212428 Ry
     estimated scf accuracy    <       0.00013698 Ry

     iteration #  2     ecut=    80.00 Ry     beta= 0.70
     Davidson diagonalization with overlap
     ethr =  1.25E-06,  avg # of iterations =  2.0

     total cpu time spent up to now is      103.4 secs

     total energy              =     -31.17220945 Ry
     estimated scf accuracy    <       0.00001940 Ry

     iteration #  3     ecut=    80.00 Ry     beta= 0.70
     Davidson diagonalization with overlap
     ethr =  1.76E-07,  avg # of iterations =  1.8

     total cpu time spent up to now is      104.4 secs

     total energy              =     -31.17220924 Ry
     estimated scf accuracy    <       0.00000467 Ry

     iteration #  4     ecut=    80.00 Ry     beta= 0.70
     Davidson diagonalization with overlap
     ethr =  4.25E-08,  avg # of iterations =  1.9

     total cpu time spent up to now is      105.4 secs

     total energy              =     -31.17221001 Ry
     estimated scf accuracy    <       0.00000510 Ry

     iteration #  5     ecut=    80.00 Ry     beta= 0.70
     Davidson diagonalization with overlap
     ethr =  4.25E-08,  avg # of iterations =  1.7

     total cpu time spent up to now is      106.3 secs

     total energy              =     -31.17221086 Ry
     estimated scf accuracy    <          8.9E-09 Ry

     iteration #  6     ecut=    80.00 Ry     beta= 0.70
     Davidson diagonalization with overlap
     ethr =  8.08E-11,  avg # of iterations =  3.7

     total cpu time spent up to now is      107.6 secs

     End of self-consistent calculation

     Number of k-points >= 100: set verbosity='high' to print the bands.

     the Fermi energy is    12.4403 ev

!    total energy              =     -31.17221087 Ry
     estimated scf accuracy    <          1.1E-09 Ry
     smearing contrib. (-TS)   =      -0.00001418 Ry
     internal energy E=F+TS    =     -31.17219669 Ry

     The total energy is F=E-TS. E is the sum of the following terms:
     one-electron contribution =       4.82921719 Ry
     hartree contribution      =       2.98849526 Ry
     xc contribution           =     -10.18875111 Ry
     ewald contribution        =     -28.80115803 Ry

     convergence has been achieved in   6 iterations

     Forces acting on atoms (cartesian axes, Ry/au):

     atom    1 type  1   force =     0.00000000    0.00000000    0.00000000
     atom    2 type  2   force =    -0.00000000   -0.00000000   -0.02502404
     atom    3 type  2   force =    -0.00000000   -0.00000000    0.02502404
     The non-local contrib.  to forces
     atom    1 type  1   force =     0.00000000   -0.00000000    0.00000000
     atom    2 type  2   force =     0.00000000   -0.00000000    0.05802221
     atom    3 type  2   force =     0.00000000    0.00000000   -0.05802221
     The ionic contribution  to forces
     atom    1 type  1   force =    -0.00000000    0.00000000    0.00000000
     atom    2 type  2   force =     0.00000001   -0.00000000   -0.64202217
     atom    3 type  2   force =    -0.00000001    0.00000000    0.64202217
     The local contribution  to forces
     atom    1 type  1   force =    -0.00000000    0.00000000    0.00000000
     atom    2 type  2   force =    -0.00000001    0.00000000    0.55839493
     atom    3 type  2   force =     0.00000001   -0.00000000   -0.55839493
     The core correction contribution to forces
     atom    1 type  1   force =     0.00000000    0.00000000    0.00000000
     atom    2 type  2   force =    -0.00000000    0.00000000    0.00062346
     atom    3 type  2   force =     0.00000000   -0.00000000   -0.00062346
     The Hubbard contrib.    to forces
     atom    1 type  1   force =     0.00000000    0.00000000    0.00000000
     atom    2 type  2   force =     0.00000000    0.00000000    0.00000000
     atom    3 type  2   force =     0.00000000    0.00000000    0.00000000
     The SCF correction term to forces
     atom    1 type  1   force =    -0.00000000   -0.00000000   -0.00000000
     atom    2 type  2   force =     0.00000000   -0.00000000   -0.00004247
     atom    3 type  2   force =    -0.00000000    0.00000000    0.00004247

     Total force =     0.035389     Total SCF correction =     0.000060


     Computing stress (Cartesian axis) and pressure

          total   stress  (Ry/bohr**3)                   (kbar)     P=      548.13
   0.00350837   0.00000000  -0.00000000          516.10        0.00       -0.00
   0.00000000   0.00350837  -0.00000000            0.00      516.10       -0.00
  -0.00000000  -0.00000000   0.00416157           -0.00       -0.00      612.19

     Energy error            =      4.9E-03 Ry
     Gradient error          =      2.5E-02 Ry/Bohr
     Cell gradient error     =      1.1E+02 kbar

     number of scf cycles    =   8
     number of bfgs steps    =   7

     enthalpy           old  =     -30.4856771376 Ry
     enthalpy           new  =     -30.4905915233 Ry

     CASE: enthalpy          _new < enthalpy          _old

     new trust radius        =       0.0846356070 bohr
ibrav =      4
 celldm(1) =      4.71537979
 celldm(3) =      2.23300283
Input lattice vectors:
     0.70457063    -0.00000000    -0.00000000
    -0.35228532     0.61017607    -0.00000000
    -0.00000000    -0.00000000     1.57330822
New lattice vectors in INITIAL alat:
     0.70457063     0.00000000     0.00000000
    -0.35228532     0.61017607     0.00000000
     0.00000000     0.00000000     1.57330822
New lattice vectors in NEW alat (for information only):
     1.00000000     0.00000000     0.00000000
    -0.50000000     0.86602540     0.00000000
     0.00000000     0.00000000     2.23300283
Discrepancy in bohr =     0.000000    0.000000    0.000000
     new conv_thr            =       0.0000000025 Ry

     new unit-cell volume =    202.75424 a.u.^3 (    30.04508 Ang^3 )
     density =      3.48809 g/cm^3

CELL_PARAMETERS (alat=  6.69255796)
   0.704570632   0.000000000   0.000000000
  -0.352285316   0.610176066   0.000000000
   0.000000000   0.000000000   1.573308216

ATOMIC_POSITIONS (crystal)
Li           -0.0000000000       -0.0000000000        0.0000000000
Si            0.3333333300        0.6666666700        0.3286172110
Si            0.6666666700        0.3333333300        0.6713827890



     Writing config-only to output data dir ./output/LiSi.save/
     NEW-OLD atomic charge density approx. for the potential
     extrapolated charge   11.12010, renormalised to   11.00000

     total cpu time spent up to now is      109.7 secs

     Self-consistent Calculation

     iteration #  1     ecut=    80.00 Ry     beta= 0.70
     Davidson diagonalization with overlap
     c_bands:  1 eigenvalues not converged
     ethr =  1.00E-06,  avg # of iterations =  8.6

     total cpu time spent up to now is      112.1 secs

     total energy              =     -31.18216986 Ry
     estimated scf accuracy    <       0.00107307 Ry

     iteration #  2     ecut=    80.00 Ry     beta= 0.70
     Davidson diagonalization with overlap
     ethr =  9.76E-06,  avg # of iterations =  2.5

     total cpu time spent up to now is      113.4 secs

     total energy              =     -31.18213679 Ry
     estimated scf accuracy    <       0.00482589 Ry

     iteration #  3     ecut=    80.00 Ry     beta= 0.70
     Davidson diagonalization with overlap
     ethr =  9.76E-06,  avg # of iterations =  2.0

     total cpu time spent up to now is      114.5 secs

     total energy              =     -31.18285625 Ry
     estimated scf accuracy    <       0.00001444 Ry

     iteration #  4     ecut=    80.00 Ry     beta= 0.70
     Davidson diagonalization with overlap
     ethr =  1.31E-07,  avg # of iterations =  2.7

     total cpu time spent up to now is      115.5 secs

     total energy              =     -31.18285994 Ry
     estimated scf accuracy    <       0.00000064 Ry

     iteration #  5     ecut=    80.00 Ry     beta= 0.70
     Davidson diagonalization with overlap
     ethr =  5.86E-09,  avg # of iterations =  2.7

     total cpu time spent up to now is      116.6 secs

     total energy              =     -31.18286011 Ry
     estimated scf accuracy    <       0.00000001 Ry

     iteration #  6     ecut=    80.00 Ry     beta= 0.70
     Davidson diagonalization with overlap
     ethr =  9.10E-11,  avg # of iterations =  2.8

     total cpu time spent up to now is      117.8 secs

     End of self-consistent calculation

     Number of k-points >= 100: set verbosity='high' to print the bands.

     the Fermi energy is    12.2519 ev

!    total energy              =     -31.18286011 Ry
     estimated scf accuracy    <          8.9E-10 Ry
     smearing contrib. (-TS)   =      -0.00018485 Ry
     internal energy E=F+TS    =     -31.18267526 Ry

     The total energy is F=E-TS. E is the sum of the following terms:
     one-electron contribution =       4.73151192 Ry
     hartree contribution      =       2.97837202 Ry
     xc contribution           =     -10.16744229 Ry
     ewald contribution        =     -28.72511690 Ry

     convergence has been achieved in   6 iterations

     Forces acting on atoms (cartesian axes, Ry/au):

     atom    1 type  1   force =     0.00000000   -0.00000000    0.00000000
     atom    2 type  2   force =    -0.00000000   -0.00000000   -0.01439280
     atom    3 type  2   force =     0.00000000    0.00000000    0.01439280
     The non-local contrib.  to forces
     atom    1 type  1   force =     0.00000000    0.00000000    0.00000000
     atom    2 type  2   force =    -0.00000000   -0.00000000    0.07022730
     atom    3 type  2   force =     0.00000000    0.00000000   -0.07022730
     The ionic contribution  to forces
     atom    1 type  1   force =    -0.00000000   -0.00000000    0.00000000
     atom    2 type  2   force =     0.00000001   -0.00000000   -0.59231056
     atom    3 type  2   force =    -0.00000001    0.00000000    0.59231056
     The local contribution  to forces
     atom    1 type  1   force =    -0.00000000    0.00000000   -0.00000000
     atom    2 type  2   force =    -0.00000001    0.00000000    0.50835228
     atom    3 type  2   force =     0.00000001   -0.00000000   -0.50835228
     The core correction contribution to forces
     atom    1 type  1   force =     0.00000000    0.00000000    0.00000000
     atom    2 type  2   force =    -0.00000000    0.00000000   -0.00069793
     atom    3 type  2   force =     0.00000000   -0.00000000    0.00069793
     The Hubbard contrib.    to forces
     atom    1 type  1   force =     0.00000000    0.00000000    0.00000000
     atom    2 type  2   force =     0.00000000    0.00000000    0.00000000
     atom    3 type  2   force =     0.00000000    0.00000000    0.00000000
     The SCF correction term to forces
     atom    1 type  1   force =     0.00000000    0.00000000    0.00000000
     atom    2 type  2   force =     0.00000000   -0.00000000    0.00003611
     atom    3 type  2   force =    -0.00000000    0.00000000   -0.00003611

     Total force =     0.020354     Total SCF correction =     0.000051


     Computing stress (Cartesian axis) and pressure

          total   stress  (Ry/bohr**3)                   (kbar)     P=      502.73
   0.00333468   0.00000000   0.00000000          490.55        0.00        0.00
   0.00000000   0.00333468   0.00000000            0.00      490.55        0.00
   0.00000000   0.00000000   0.00358306            0.00        0.00      527.09

     Energy error            =      3.1E-03 Ry
     Gradient error          =      1.4E-02 Ry/Bohr
     Cell gradient error     =      2.7E+01 kbar

     number of scf cycles    =   9
     number of bfgs steps    =   8

     enthalpy           old  =     -30.4905915233 Ry
     enthalpy           new  =     -30.4937124634 Ry

     CASE: enthalpy          _new < enthalpy          _old

     new trust radius        =       0.0467777063 bohr
ibrav =      4
 celldm(1) =      4.67257550
 celldm(3) =      2.29047346
Input lattice vectors:
     0.69817483     0.00000000     0.00000000
    -0.34908741     0.60463714     0.00000000
     0.00000000     0.00000000     1.59915091
New lattice vectors in INITIAL alat:
     0.69817483     0.00000000     0.00000000
    -0.34908741     0.60463714     0.00000000
     0.00000000     0.00000000     1.59915091
New lattice vectors in NEW alat (for information only):
     1.00000000     0.00000000     0.00000000
    -0.50000000     0.86602540     0.00000000
     0.00000000     0.00000000     2.29047346
Discrepancy in bohr =     0.000000    0.000000    0.000000
     new conv_thr            =       0.0000000014 Ry

     new unit-cell volume =    202.36010 a.u.^3 (    29.98667 Ang^3 )
     density =      3.49488 g/cm^3

CELL_PARAMETERS (alat=  6.69255796)
   0.698174827   0.000000000   0.000000000
  -0.349087414   0.604637137   0.000000000
   0.000000000   0.000000000   1.599150909

ATOMIC_POSITIONS (crystal)
Li           -0.0000000000       -0.0000000000        0.0000000000
Si            0.3333333300        0.6666666700        0.3268622007
Si            0.6666666700        0.3333333300        0.6731377993



     Writing config-only to output data dir ./output/LiSi.save/
     NEW-OLD atomic charge density approx. for the potential
     extrapolated charge   10.97859, renormalised to   11.00000

     total cpu time spent up to now is      119.9 secs

     Self-consistent Calculation

     iteration #  1     ecut=    80.00 Ry     beta= 0.70
     Davidson diagonalization with overlap
     c_bands:  1 eigenvalues not converged
     c_bands:  1 eigenvalues not converged
     ethr =  1.00E-06,  avg # of iterations =  7.7

     total cpu time spent up to now is      122.1 secs

     total energy              =     -31.18205900 Ry
     estimated scf accuracy    <       0.00091189 Ry

     iteration #  2     ecut=    80.00 Ry     beta= 0.70
     Davidson diagonalization with overlap
     ethr =  8.29E-06,  avg # of iterations =  2.3

     total cpu time spent up to now is      123.3 secs

     total energy              =     -31.18187823 Ry
     estimated scf accuracy    <       0.00423862 Ry

     iteration #  3     ecut=    80.00 Ry     beta= 0.70
     Davidson diagonalization with overlap
     ethr =  8.29E-06,  avg # of iterations =  2.0

     total cpu time spent up to now is      124.4 secs

     total energy              =     -31.18255722 Ry
     estimated scf accuracy    <       0.00000647 Ry

     iteration #  4     ecut=    80.00 Ry     beta= 0.70
     Davidson diagonalization with overlap
     ethr =  5.88E-08,  avg # of iterations =  3.0

     total cpu time spent up to now is      125.5 secs

     total energy              =     -31.18255930 Ry
     estimated scf accuracy    <       0.00000083 Ry

     iteration #  5     ecut=    80.00 Ry     beta= 0.70
     Davidson diagonalization with overlap
     ethr =  7.52E-09,  avg # of iterations =  1.7

     total cpu time spent up to now is      126.4 secs

     End of self-consistent calculation

     Number of k-points >= 100: set verbosity='high' to print the bands.

     the Fermi energy is    12.3177 ev

!    total energy              =     -31.18255945 Ry
     estimated scf accuracy    <          1.4E-09 Ry
     smearing contrib. (-TS)   =      -0.00063045 Ry
     internal energy E=F+TS    =     -31.18192900 Ry

     The total energy is F=E-TS. E is the sum of the following terms:
     one-electron contribution =       4.79540796 Ry
     hartree contribution      =       2.95959647 Ry
     xc contribution           =     -10.16813420 Ry
     ewald contribution        =     -28.76879923 Ry

     convergence has been achieved in   5 iterations

     Forces acting on atoms (cartesian axes, Ry/au):

     atom    1 type  1   force =     0.00000000    0.00000000    0.00000000
     atom    2 type  2   force =    -0.00000000   -0.00000000   -0.01066093
     atom    3 type  2   force =     0.00000000    0.00000000    0.01066093
     The non-local contrib.  to forces
     atom    1 type  1   force =     0.00000000    0.00000000    0.00000000
     atom    2 type  2   force =    -0.00000000   -0.00000000    0.08072565
     atom    3 type  2   force =    -0.00000000   -0.00000000   -0.08072565
     The ionic contribution  to forces
     atom    1 type  1   force =    -0.00000000    0.00000000    0.00000000
     atom    2 type  2   force =     0.00000001   -0.00000000   -0.51076480
     atom    3 type  2   force =    -0.00000001    0.00000000    0.51076480
     The local contribution  to forces
     atom    1 type  1   force =    -0.00000000    0.00000000    0.00000000
     atom    2 type  2   force =    -0.00000001    0.00000000    0.42117752
     atom    3 type  2   force =     0.00000001   -0.00000000   -0.42117752
     The core correction contribution to forces
     atom    1 type  1   force =     0.00000000    0.00000000    0.00000000
     atom    2 type  2   force =    -0.00000000    0.00000000   -0.00177019
     atom    3 type  2   force =     0.00000000   -0.00000000    0.00177019
     The Hubbard contrib.    to forces
     atom    1 type  1   force =     0.00000000    0.00000000    0.00000000
     atom    2 type  2   force =     0.00000000    0.00000000    0.00000000
     atom    3 type  2   force =     0.00000000    0.00000000    0.00000000
     The SCF correction term to forces
     atom    1 type  1   force =    -0.00000000   -0.00000000   -0.00000000
     atom    2 type  2   force =     0.00000000   -0.00000000   -0.00002911
     atom    3 type  2   force =    -0.00000000    0.00000000    0.00002911

     Total force =     0.015077     Total SCF correction =     0.000041


     Computing stress (Cartesian axis) and pressure

          total   stress  (Ry/bohr**3)                   (kbar)     P=      495.11
   0.00332998  -0.00000000  -0.00000000          489.86       -0.00       -0.00
  -0.00000000   0.00332998  -0.00000000           -0.00      489.86       -0.00
   0.00000000   0.00000000   0.00343704            0.00        0.00      505.61

     Energy error            =      1.0E-03 Ry
     Gradient error          =      1.1E-02 Ry/Bohr
     Cell gradient error     =      1.0E+01 kbar

     number of scf cycles    =  10
     number of bfgs steps    =   9

     enthalpy           old  =     -30.4937124634 Ry
     enthalpy           new  =     -30.4947514638 Ry

     CASE: enthalpy          _new < enthalpy          _old

     new trust radius        =       0.0524695750 bohr
ibrav =      4
 celldm(1) =      4.61317498
 celldm(3) =      2.36275174
Input lattice vectors:
     0.68929922    -0.00000000     0.00000000
    -0.34464961     0.59695064     0.00000000
    -0.00000000    -0.00000000     1.62864293
New lattice vectors in INITIAL alat:
     0.68929922     0.00000000     0.00000000
    -0.34464961     0.59695064     0.00000000
     0.00000000     0.00000000     1.62864293
New lattice vectors in NEW alat (for information only):
     1.00000000     0.00000000     0.00000000
    -0.50000000     0.86602540     0.00000000
     0.00000000     0.00000000     2.36275174
Discrepancy in bohr =     0.000000    0.000000    0.000000
     new conv_thr            =       0.0000000010 Ry

     new unit-cell volume =    200.88546 a.u.^3 (    29.76815 Ang^3 )
     density =      3.52054 g/cm^3

CELL_PARAMETERS (alat=  6.69255796)
   0.689299220   0.000000000   0.000000000
  -0.344649610   0.596950636   0.000000000
   0.000000000   0.000000000   1.628642932

ATOMIC_POSITIONS (crystal)
Li           -0.0000000000       -0.0000000000        0.0000000000
Si            0.3333333300        0.6666666700        0.3235286176
Si            0.6666666700        0.3333333300        0.6764713824



     Writing config-only to output data dir ./output/LiSi.save/
     NEW-OLD atomic charge density approx. for the potential
     extrapolated charge   10.91930, renormalised to   11.00000

     total cpu time spent up to now is      128.6 secs

     Self-consistent Calculation

     iteration #  1     ecut=    80.00 Ry     beta= 0.70
     Davidson diagonalization with overlap
     c_bands:  1 eigenvalues not converged
     ethr =  1.00E-06,  avg # of iterations =  8.5

     total cpu time spent up to now is      131.0 secs

     total energy              =     -31.17751809 Ry
     estimated scf accuracy    <       0.00203884 Ry

     iteration #  2     ecut=    80.00 Ry     beta= 0.70
     Davidson diagonalization with overlap
     ethr =  1.85E-05,  avg # of iterations =  2.4

     total cpu time spent up to now is      132.2 secs

     total energy              =     -31.17712502 Ry
     estimated scf accuracy    <       0.00952726 Ry

     iteration #  3     ecut=    80.00 Ry     beta= 0.70
     Davidson diagonalization with overlap
     ethr =  1.85E-05,  avg # of iterations =  2.0

     total cpu time spent up to now is      133.3 secs

     total energy              =     -31.17866303 Ry
     estimated scf accuracy    <       0.00001593 Ry

     iteration #  4     ecut=    80.00 Ry     beta= 0.70
     Davidson diagonalization with overlap
     ethr =  1.45E-07,  avg # of iterations =  3.0

     total cpu time spent up to now is      134.4 secs

     total energy              =     -31.17866724 Ry
     estimated scf accuracy    <       0.00000215 Ry

     iteration #  5     ecut=    80.00 Ry     beta= 0.70
     Davidson diagonalization with overlap
     ethr =  1.95E-08,  avg # of iterations =  1.8

     total cpu time spent up to now is      135.4 secs

     total energy              =     -31.17866766 Ry
     estimated scf accuracy    <       0.00000001 Ry

     iteration #  6     ecut=    80.00 Ry     beta= 0.70
     Davidson diagonalization with overlap
     ethr =  1.28E-10,  avg # of iterations =  3.6

     total cpu time spent up to now is      136.6 secs

     End of self-consistent calculation

[...]
     Diagonalizing with lowered threshold

     Davidson diagonalization with overlap
     ethr =  1.94E-09,  avg # of iterations =  3.3

     total cpu time spent up to now is      173.8 secs

     total energy              =     -31.17735566 Ry
     estimated scf accuracy    <       0.00000042 Ry

     iteration #  2     ecut=    80.00 Ry     beta= 0.70
     Davidson diagonalization with overlap
     ethr =  3.86E-09,  avg # of iterations =  2.2

     total cpu time spent up to now is      174.9 secs

     total energy              =     -31.17735560 Ry
     estimated scf accuracy    <       0.00000224 Ry

     iteration #  3     ecut=    80.00 Ry     beta= 0.70
     Davidson diagonalization with overlap
     ethr =  3.86E-09,  avg # of iterations =  1.9

     total cpu time spent up to now is      175.9 secs

     total energy              =     -31.17735593 Ry
     estimated scf accuracy    <          1.1E-09 Ry

     iteration #  4     ecut=    80.00 Ry     beta= 0.70
     Davidson diagonalization with overlap
     ethr =  9.90E-12,  avg # of iterations =  3.9

     total cpu time spent up to now is      177.1 secs

     total energy              =     -31.17735593 Ry
     estimated scf accuracy    <          6.9E-10 Ry

     iteration #  5     ecut=    80.00 Ry     beta= 0.70
     Davidson diagonalization with overlap
     ethr =  6.24E-12,  avg # of iterations =  1.8

     total cpu time spent up to now is      178.1 secs

     End of self-consistent calculation

     Number of k-points >= 100: set verbosity='high' to print the bands.

     the Fermi energy is    12.5066 ev

!    total energy              =     -31.17735593 Ry
     estimated scf accuracy    <          1.1E-12 Ry
     smearing contrib. (-TS)   =       0.00003693 Ry
     internal energy E=F+TS    =     -31.17739287 Ry

     The total energy is F=E-TS. E is the sum of the following terms:
     one-electron contribution =       4.97550455 Ry
     hartree contribution      =       2.92707748 Ry
     xc contribution           =     -10.17909596 Ry
     ewald contribution        =     -28.90087893 Ry

     convergence has been achieved in   5 iterations

     Forces acting on atoms (cartesian axes, Ry/au):

     atom    1 type  1   force =     0.00000000    0.00000000    0.00000000
     atom    2 type  2   force =     0.00000000    0.00000000   -0.00005461
     atom    3 type  2   force =     0.00000000   -0.00000000    0.00005461
     The non-local contrib.  to forces
     atom    1 type  1   force =     0.00000000   -0.00000000    0.00000000
     atom    2 type  2   force =     0.00000000   -0.00000000    0.10014859
     atom    3 type  2   force =    -0.00000000   -0.00000000   -0.10014859
     The ionic contribution  to forces
     atom    1 type  1   force =    -0.00000000   -0.00000000    0.00000000
     atom    2 type  2   force =     0.00000000   -0.00000000   -0.24726791
     atom    3 type  2   force =    -0.00000000    0.00000000    0.24726791
     The local contribution  to forces
     atom    1 type  1   force =    -0.00000000    0.00000000    0.00000000
     atom    2 type  2   force =    -0.00000001    0.00000001    0.15097092
     atom    3 type  2   force =     0.00000001   -0.00000001   -0.15097092
     The core correction contribution to forces
     atom    1 type  1   force =     0.00000000    0.00000000    0.00000000
     atom    2 type  2   force =    -0.00000000    0.00000000   -0.00390544
     atom    3 type  2   force =     0.00000000   -0.00000000    0.00390544
     The Hubbard contrib.    to forces
     atom    1 type  1   force =     0.00000000    0.00000000    0.00000000
     atom    2 type  2   force =     0.00000000    0.00000000    0.00000000
     atom    3 type  2   force =     0.00000000    0.00000000    0.00000000
     The SCF correction term to forces
     atom    1 type  1   force =     0.00000000    0.00000000    0.00000000
     atom    2 type  2   force =    -0.00000000    0.00000000   -0.00000077
     atom    3 type  2   force =     0.00000000   -0.00000000    0.00000077

     Total force =     0.000077     Total SCF correction =     0.000001


     Computing stress (Cartesian axis) and pressure

          total   stress  (Ry/bohr**3)                   (kbar)     P=      499.60
   0.00339672   0.00000000  -0.00000000          499.67        0.00       -0.00
   0.00000000   0.00339672  -0.00000000            0.00      499.67       -0.00
  -0.00000000  -0.00000000   0.00339521           -0.00       -0.00      499.45

     Energy error            =      4.3E-07 Ry
     Gradient error          =      5.5E-05 Ry/Bohr
     Cell gradient error     =      5.5E-01 kbar
ibrav =      4
 celldm(1) =      4.58963325
 celldm(3) =      2.39395450
Input lattice vectors:
     0.68578162     0.00000000     0.00000000
    -0.34289081     0.59390431     0.00000000
     0.00000000     0.00000000     1.64173000
New lattice vectors in INITIAL alat:
     0.68578162     0.00000000     0.00000000
    -0.34289081     0.59390431     0.00000000
     0.00000000     0.00000000     1.64173000
New lattice vectors in NEW alat (for information only):
     1.00000000     0.00000000     0.00000000
    -0.50000000     0.86602540     0.00000000
     0.00000000     0.00000000     2.39395450
Discrepancy in bohr =     0.000000    0.000000    0.000000

     bfgs converged in  15 scf cycles and  13 bfgs steps
     (criteria: energy <  1.0E-04 Ry, force <  1.0E-03 Ry/Bohr, cell <  1.0E+00 kbar)

     End of BFGS Geometry Optimization

     Final enthalpy           =     -30.4960803707 Ry

     File ./output/LiSi.bfgs deleted, as requested
Begin final coordinates
     new unit-cell volume =    200.43819 a.u.^3 (    29.70188 Ang^3 )
     density =      3.52839 g/cm^3

CELL_PARAMETERS (alat=  6.69255796)
   0.685781621   0.000000000   0.000000000
  -0.342890811   0.593904305   0.000000000
   0.000000000   0.000000000   1.641729997

ATOMIC_POSITIONS (crystal)
Li           -0.0000000000       -0.0000000000        0.0000000000
Si            0.3333333300        0.6666666700        0.3218731959
Si            0.6666666700        0.3333333300        0.6781268041
End final coordinates



     Writing config-only to output data dir ./output/LiSi.save/

     Final scf calculation at the relaxed structure.
     The G-vectors are recalculated for the final unit cell
     Results may differ from those at the preceding step.

     Parallelization info
     --------------------
     sticks:   dense  smooth     PW     G-vecs:    dense   smooth      PW
     Min          57      57     18                 2417     2417     412
     Max          58      58     20                 2422     2422     414
     Sum         463     463    151                19353    19353    3305

     Using Slab Decomposition



     bravais-lattice index     =            4
     lattice parameter (alat)  =       6.6926  a.u.
     unit-cell volume          =     200.4382 (a.u.)^3
     number of atoms/cell      =            3
     number of atomic types    =            2
     number of electrons       =        11.00
     number of Kohn-Sham states=           10
     kinetic-energy cutoff     =      80.0000  Ry
     charge density cutoff     =     320.0000  Ry
     scf convergence threshold =      1.0E-10
     mixing beta               =       0.7000
     number of iterations used =            8  plain     mixing
     press convergence thresh. =      1.0E+00
     Exchange-correlation= PBE
                           (   1   4   3   4   0   0   0)

     celldm(1)=   6.692558  celldm(2)=   0.000000  celldm(3)=   1.499887
     celldm(4)=   0.000000  celldm(5)=   0.000000  celldm(6)=   0.000000

     crystal axes: (cart. coord. in units of alat)
               a(1) = (   0.685782   0.000000   0.000000 )  
               a(2) = (  -0.342891   0.593904   0.000000 )  
               a(3) = (   0.000000   0.000000   1.641730 )  

     reciprocal axes: (cart. coord. in units 2 pi/alat)
               b(1) = (  1.458190  0.841886 -0.000000 )  
               b(2) = (  0.000000  1.683773  0.000000 )  
               b(3) = (  0.000000 -0.000000  0.609114 )  


     PseudoPot. # 1 for Li read from file:
     ../pseudo/Li_ONCV_PBE_sr.upf
     MD5 check sum: 50ff420e78310ffa21704f3361e624a4
     Pseudo is Norm-conserving, Zval =  3.0
     Generated using ONCVPSP code by D. R. Hamann
     Using radial grid of 1944 points,  4 beta functions with: 
                l(1) =   0
                l(2) =   0
                l(3) =   1
                l(4) =   1

     PseudoPot. # 2 for Si read from file:
     ../pseudo/Si_ONCV_PBE_sr.upf
     MD5 check sum: e543d271109d17c80368dfa7c482276d
     Pseudo is Norm-conserving + core correction, Zval =  4.0
     Generated using ONCVPSP code by D. R. Hamann
     Using radial grid of 1510 points,  6 beta functions with: 
                l(1) =   0
                l(2) =   0
                l(3) =   1
                l(4) =   1
                l(5) =   2
                l(6) =   2

     atomic species   valence    mass     pseudopotential
        Li             3.00     6.94100     Li( 1.00)
        Si             4.00    28.08550     Si( 1.00)

     12 Sym. Ops., with inversion, found



   Cartesian axes

     site n.     atom                  positions (alat units)
         1           Li  tau(   1) = (  -0.0000000  -0.0000000   0.0000000  )
         2           Si  tau(   2) = (  -0.0000000   0.3959362   0.5284289  )
         3           Si  tau(   3) = (   0.3428908   0.1979681   1.1133011  )

     number of k points=   131  Marzari-Vanderbilt smearing, width (Ry)=  0.0200

     Number of k-points >= 100: set verbosity='high' to print them.

     Dense  grid:    19353 G-vectors     FFT dimensions: (  27,  27,  64)

     Estimated max dynamical RAM per process >      19.54 MB

     Estimated total dynamical RAM >     156.30 MB

     Initial potential from superposition of free atoms

     starting charge      10.9942, renormalised to      11.0000
     Starting wfcs are   10 randomized atomic wfcs

     total cpu time spent up to now is      180.4 secs

     Self-consistent Calculation

     iteration #  1     ecut=    80.00 Ry     beta= 0.70
     Davidson diagonalization with overlap
     c_bands:  4 eigenvalues not converged
     c_bands:  2 eigenvalues not converged
     c_bands:  1 eigenvalues not converged
     c_bands:  1 eigenvalues not converged
     c_bands:  1 eigenvalues not converged
     c_bands:  1 eigenvalues not converged
     c_bands:  3 eigenvalues not converged
     c_bands:  1 eigenvalues not converged
     c_bands:  1 eigenvalues not converged
     c_bands:  1 eigenvalues not converged
     c_bands:  1 eigenvalues not converged
     c_bands:  1 eigenvalues not converged
     c_bands:  1 eigenvalues not converged
     c_bands:  1 eigenvalues not converged
     c_bands:  1 eigenvalues not converged
     c_bands:  1 eigenvalues not converged
     c_bands:  1 eigenvalues not converged
     c_bands:  1 eigenvalues not converged
     c_bands:  2 eigenvalues not converged
     c_bands:  2 eigenvalues not converged
     c_bands:  1 eigenvalues not converged
     c_bands:  1 eigenvalues not converged
     c_bands:  1 eigenvalues not converged
     c_bands:  1 eigenvalues not converged
     c_bands:  1 eigenvalues not converged
     c_bands:  1 eigenvalues not converged
     c_bands:  1 eigenvalues not converged
     c_bands:  1 eigenvalues not converged
     c_bands:  1 eigenvalues not converged
     c_bands:  1 eigenvalues not converged
     c_bands:  1 eigenvalues not converged
     c_bands:  1 eigenvalues not converged
     c_bands:  1 eigenvalues not converged
     c_bands:  1 eigenvalues not converged
     c_bands:  1 eigenvalues not converged
     c_bands:  1 eigenvalues not converged
     c_bands:  1 eigenvalues not converged
     c_bands:  1 eigenvalues not converged
     c_bands:  2 eigenvalues not converged
     c_bands:  1 eigenvalues not converged
     c_bands:  1 eigenvalues not converged
     c_bands:  1 eigenvalues not converged
     c_bands:  1 eigenvalues not converged
     c_bands:  1 eigenvalues not converged
     c_bands:  1 eigenvalues not converged
     c_bands:  1 eigenvalues not converged
     c_bands:  1 eigenvalues not converged
     c_bands:  1 eigenvalues not converged
     c_bands:  1 eigenvalues not converged
     ethr =  1.00E-06,  avg # of iterations = 17.8

     total cpu time spent up to now is      183.3 secs

     total energy              =     -31.07719524 Ry
     estimated scf accuracy    <       0.16914992 Ry

     iteration #  2     ecut=    80.00 Ry     beta= 0.70
     Davidson diagonalization with overlap
     ethr =  1.54E-03,  avg # of iterations =  2.4

     total cpu time spent up to now is      184.2 secs

     total energy              =     -31.04254632 Ry
     estimated scf accuracy    <       0.89102529 Ry

     iteration #  3     ecut=    80.00 Ry     beta= 0.70
     Davidson diagonalization with overlap
     ethr =  1.54E-03,  avg # of iterations =  2.0

     total cpu time spent up to now is      184.9 secs

     total energy              =     -31.17692940 Ry
     estimated scf accuracy    <       0.00063432 Ry

     iteration #  4     ecut=    80.00 Ry     beta= 0.70
     Davidson diagonalization with overlap
     ethr =  5.77E-06,  avg # of iterations =  5.6

     total cpu time spent up to now is      186.0 secs

     total energy              =     -31.17729334 Ry
     estimated scf accuracy    <       0.00019529 Ry

     iteration #  5     ecut=    80.00 Ry     beta= 0.70
     Davidson diagonalization with overlap
     ethr =  1.78E-06,  avg # of iterations =  1.8

     total cpu time spent up to now is      186.7 secs

     total energy              =     -31.17732054 Ry
     estimated scf accuracy    <       0.00000171 Ry

     iteration #  6     ecut=    80.00 Ry     beta= 0.70
     Davidson diagonalization with overlap
     ethr =  1.55E-08,  avg # of iterations =  3.2

     total cpu time spent up to now is      187.5 secs

     total energy              =     -31.17732150 Ry
     estimated scf accuracy    <       0.00000067 Ry

     iteration #  7     ecut=    80.00 Ry     beta= 0.70
     Davidson diagonalization with overlap
     ethr =  6.10E-09,  avg # of iterations =  1.5

     total cpu time spent up to now is      188.2 secs

     total energy              =     -31.17732158 Ry
     estimated scf accuracy    <       0.00000001 Ry

     iteration #  8     ecut=    80.00 Ry     beta= 0.70
     Davidson diagonalization with overlap
     ethr =  1.20E-10,  avg # of iterations =  2.9

     total cpu time spent up to now is      189.0 secs

     End of self-consistent calculation

     Number of k-points >= 100: set verbosity='high' to print the bands.

     the Fermi energy is    12.5066 ev

!    total energy              =     -31.17732159 Ry
     estimated scf accuracy    <          6.5E-11 Ry
     smearing contrib. (-TS)   =       0.00003695 Ry
     internal energy E=F+TS    =     -31.17735853 Ry

     The total energy is F=E-TS. E is the sum of the following terms:
     one-electron contribution =       4.97550060 Ry
     hartree contribution      =       2.92711773 Ry
     xc contribution           =     -10.17909792 Ry
     ewald contribution        =     -28.90087893 Ry

     convergence has been achieved in   8 iterations

     Forces acting on atoms (cartesian axes, Ry/au):

     atom    1 type  1   force =     0.00000000    0.00000000    0.00000000
     atom    2 type  2   force =     0.00000000    0.00000000   -0.00006155
     atom    3 type  2   force =     0.00000000    0.00000000    0.00006155
     The non-local contrib.  to forces
     atom    1 type  1   force =     0.00000000    0.00000000    0.00000000
     atom    2 type  2   force =     0.00000000    0.00000000    0.10014227
     atom    3 type  2   force =    -0.00000000   -0.00000000   -0.10014227
     The ionic contribution  to forces
     atom    1 type  1   force =    -0.00000000   -0.00000000    0.00000000
     atom    2 type  2   force =     0.00000000   -0.00000000   -0.24726791
     atom    3 type  2   force =    -0.00000000    0.00000000    0.24726791
     The local contribution  to forces
     atom    1 type  1   force =     0.00000000    0.00000000   -0.00000000
     atom    2 type  2   force =    -0.00000001    0.00000001    0.15095680
     atom    3 type  2   force =     0.00000001   -0.00000001   -0.15095680
     The core correction contribution to forces
     atom    1 type  1   force =     0.00000000    0.00000000    0.00000000
     atom    2 type  2   force =    -0.00000000    0.00000000   -0.00390490
     atom    3 type  2   force =     0.00000000   -0.00000000    0.00390490
     The Hubbard contrib.    to forces
     atom    1 type  1   force =     0.00000000    0.00000000    0.00000000
     atom    2 type  2   force =     0.00000000    0.00000000    0.00000000
     atom    3 type  2   force =     0.00000000    0.00000000    0.00000000
     The SCF correction term to forces
     atom    1 type  1   force =     0.00000000    0.00000000    0.00000000
     atom    2 type  2   force =     0.00000000   -0.00000000    0.00001219
     atom    3 type  2   force =    -0.00000000    0.00000000   -0.00001219

     Total force =     0.000087     Total SCF correction =     0.000017
     SCF correction compared to forces is large: reduce conv_thr to get better values


     Computing stress (Cartesian axis) and pressure

          total   stress  (Ry/bohr**3)                   (kbar)     P=      499.69
   0.00339684   0.00000000   0.00000000          499.69        0.00        0.00
   0.00000000   0.00339684   0.00000000            0.00      499.69        0.00
  -0.00000000  -0.00000000   0.00339670           -0.00       -0.00      499.67


     Writing all to output data dir ./output/LiSi.save/

     init_run     :      1.47s CPU      1.69s WALL (       2 calls)
     electrons    :    144.03s CPU    154.69s WALL (      16 calls)
     update_pot   :      5.04s CPU      5.14s WALL (      14 calls)
     forces       :      4.52s CPU      4.65s WALL (      16 calls)
     stress       :     22.10s CPU     23.01s WALL (      16 calls)

     Called by init_run:
     wfcinit      :      0.67s CPU      0.70s WALL (       2 calls)
     potinit      :      0.26s CPU      0.32s WALL (       2 calls)
     hinit0       :      0.50s CPU      0.57s WALL (       2 calls)

     Called by electrons:
     c_bands      :    126.30s CPU    135.37s WALL (     114 calls)
     sum_band     :     16.83s CPU     17.43s WALL (     114 calls)
     v_of_rho     :      0.92s CPU      1.36s WALL (     128 calls)
     mix_rho      :      0.06s CPU      0.09s WALL (     114 calls)

     Called by c_bands:
     init_us_2    :      4.49s CPU      4.80s WALL (   34322 calls)
     init_us_2:cp :      4.45s CPU      4.77s WALL (   34322 calls)
     cegterg      :    117.03s CPU    120.92s WALL (   14934 calls)

     Called by *egterg:
     cdiaghg      :      7.45s CPU      7.81s WALL (   64631 calls)
     h_psi        :     98.74s CPU    101.88s WALL (   66989 calls)
     g_psi        :      0.59s CPU      0.61s WALL (   51793 calls)

     Called by h_psi:
     h_psi:calbec :      6.07s CPU      6.27s WALL (   66989 calls)
     vloc_psi     :     87.97s CPU     90.71s WALL (   66989 calls)
     add_vuspsi   :      4.21s CPU      4.37s WALL (   66989 calls)

     General routines
     calbec       :      7.53s CPU      7.77s WALL (   77469 calls)
     fft          :      0.92s CPU      1.44s WALL (    1680 calls)
     ffts         :      0.05s CPU      0.07s WALL (     114 calls)
     fftw         :     88.44s CPU     91.09s WALL ( 1071748 calls)

     Parallel routines

     PWSCF        :   2m57.60s CPU   3m10.52s WALL


   This run was terminated on:  19:40: 6  26Dec2024            

=------------------------------------------------------------------------------=
   JOB DONE.
=------------------------------------------------------------------------------=
