
     Program PWSCF v.7.2 starts on 10Jan2025 at 22: 0:18 

     This program is part of the open-source Quantum ESPRESSO suite
     for quantum simulation of materials; please cite
         "P. Giannozzi et al., J. Phys.:Condens. Matter 21 395502 (2009);
         "P. Giannozzi et al., J. Phys.:Condens. Matter 29 465901 (2017);
         "P. Giannozzi et al., J. Chem. Phys. 152 154105 (2020);
          URL http://www.quantum-espresso.org", 
     in publications or presentations arising from this work. More details at
     http://www.quantum-espresso.org/quote

     Parallel version (MPI & OpenMP), running on       8 processor cores
     Number of MPI processes:                 8
     Threads/MPI process:                     1

     MPI processes distributed on     1 nodes
     481862 MiB available memory on the printing compute node when the environment starts

     Waiting for input...
     Reading input from standard input

     Current dimensions of program PWSCF are:
     Max number of different atomic species (ntypx) = 10
     Max number of k-points (npk) =  40000
     Max angular momentum in pseudopotentials (lmaxx) =  4

     R & G space division:  proc/nbgrp/npool/nimage =       8
     Subspace diagonalization in iterative solution of the eigenvalue problem:
     a serial algorithm will be used


     Parallelization info
     --------------------
     sticks:   dense  smooth     PW     G-vecs:    dense   smooth      PW
     Min          79      79     23                 3497     3497     571
     Max          80      80     24                 3502     3502     578
     Sum         633     633    185                27995    27995    4589

     Using Slab Decomposition



     bravais-lattice index     =            6
     lattice parameter (alat)  =       4.4575  a.u.
     unit-cell volume          =     207.4593 (a.u.)^3
     number of atoms/cell      =            3
     number of atomic types    =            2
     number of electrons       =        11.00
     number of Kohn-Sham states=           10
     kinetic-energy cutoff     =     100.0000  Ry
     charge density cutoff     =     400.0000  Ry
     scf convergence threshold =      1.0E-08
     mixing beta               =       0.7000
     number of iterations used =            8  plain     mixing
     energy convergence thresh.=      1.0E-04
     force convergence thresh. =      1.0E-03
     press convergence thresh. =      1.0E+00
     Exchange-correlation= PBE
                           (   1   4   3   4   0   0   0)
     nstep                     =           50


     celldm(1)=   4.457486  celldm(2)=   0.000000  celldm(3)=   2.342410
     celldm(4)=   0.000000  celldm(5)=   0.000000  celldm(6)=   0.000000

     crystal axes: (cart. coord. in units of alat)
               a(1) = (   1.000000   0.000000   0.000000 )  
               a(2) = (   0.000000   1.000000   0.000000 )  
               a(3) = (   0.000000   0.000000   2.342410 )  

     reciprocal axes: (cart. coord. in units 2 pi/alat)
               b(1) = (  1.000000  0.000000  0.000000 )  
               b(2) = (  0.000000  1.000000  0.000000 )  
               b(3) = (  0.000000  0.000000  0.426911 )  


     PseudoPot. # 1 for Li read from file:
     ../pseudo/Li_ONCV_PBE_sr.upf
     MD5 check sum: 50ff420e78310ffa21704f3361e624a4
     Pseudo is Norm-conserving, Zval =  3.0
     Generated using ONCVPSP code by D. R. Hamann
     Using radial grid of 1944 points,  4 beta functions with: 
                l(1) =   0
                l(2) =   0
                l(3) =   1
                l(4) =   1

     PseudoPot. # 2 for Si read from file:
     ../pseudo/Si_ONCV_PBE_sr.upf
     MD5 check sum: e543d271109d17c80368dfa7c482276d
     Pseudo is Norm-conserving + core correction, Zval =  4.0
     Generated using ONCVPSP code by D. R. Hamann
     Using radial grid of 1510 points,  6 beta functions with: 
                l(1) =   0
                l(2) =   0
                l(3) =   1
                l(4) =   1
                l(5) =   2
                l(6) =   2

     atomic species   valence    mass     pseudopotential
        Li             3.00     6.94100     Li( 1.00)
        Si             4.00    28.08550     Si( 1.00)

     16 Sym. Ops., with inversion, found



   Cartesian axes

     site n.     atom                  positions (alat units)
         1           Li  tau(   1) = (   0.5000000   0.5000000   1.1712050  )
         2           Si  tau(   2) = (   0.0000000   0.0000000   0.3940566  )
         3           Si  tau(   3) = (   0.0000000   0.0000000   1.9483535  )

     number of k points=   105  Marzari-Vanderbilt smearing, width (Ry)=  0.0200

     Number of k-points >= 100: set verbosity='high' to print them.

     Dense  grid:    27995 G-vectors     FFT dimensions: (  30,  30,  72)

     Estimated max dynamical RAM per process >      22.62 MB

     Estimated total dynamical RAM >     180.92 MB

     Initial potential from superposition of free atoms

     starting charge      10.9942, renormalised to      11.0000
     Starting wfcs are   10 randomized atomic wfcs

     total cpu time spent up to now is        1.4 secs

     Self-consistent Calculation

     iteration #  1     ecut=   100.00 Ry     beta= 0.70
     Davidson diagonalization with overlap
     ethr =  1.00E-02,  avg # of iterations =  6.4

     Threshold (ethr) on eigenvalues was too large:
     Diagonalizing with lowered threshold

     Davidson diagonalization with overlap
     ethr =  3.76E-04,  avg # of iterations =  3.2

     total cpu time spent up to now is        3.8 secs

     total energy              =     -31.08768916 Ry
     estimated scf accuracy    <       0.04308723 Ry

     iteration #  2     ecut=   100.00 Ry     beta= 0.70
     Davidson diagonalization with overlap
     ethr =  3.92E-04,  avg # of iterations =  2.2

     total cpu time spent up to now is        4.6 secs

     total energy              =     -31.08337795 Ry
     estimated scf accuracy    <       0.02613304 Ry

     iteration #  3     ecut=   100.00 Ry     beta= 0.70
     Davidson diagonalization with overlap
     ethr =  2.38E-04,  avg # of iterations =  2.1

     total cpu time spent up to now is        5.4 secs

     total energy              =     -31.09063847 Ry
     estimated scf accuracy    <       0.01767208 Ry

     iteration #  4     ecut=   100.00 Ry     beta= 0.70
     Davidson diagonalization with overlap
     ethr =  1.61E-04,  avg # of iterations =  1.6

     total cpu time spent up to now is        6.1 secs

     total energy              =     -31.09321316 Ry
     estimated scf accuracy    <       0.00005258 Ry

     iteration #  5     ecut=   100.00 Ry     beta= 0.70
     Davidson diagonalization with overlap
     c_bands:  1 eigenvalues not converged
     c_bands:  1 eigenvalues not converged
     ethr =  4.78E-07,  avg # of iterations =  6.6

     total cpu time spent up to now is        7.3 secs

     total energy              =     -31.09324768 Ry
     estimated scf accuracy    <       0.00000972 Ry

     iteration #  6     ecut=   100.00 Ry     beta= 0.70
     Davidson diagonalization with overlap
     ethr =  8.84E-08,  avg # of iterations =  1.7

     total cpu time spent up to now is        8.2 secs

     total energy              =     -31.09324985 Ry
     estimated scf accuracy    <       0.00000043 Ry

     iteration #  7     ecut=   100.00 Ry     beta= 0.70
     Davidson diagonalization with overlap
     ethr =  3.94E-09,  avg # of iterations =  2.0

     total cpu time spent up to now is        9.0 secs

     End of self-consistent calculation

     Number of k-points >= 100: set verbosity='high' to print the bands.

     the Fermi energy is    11.8182 ev

!    total energy              =     -31.09324995 Ry
     estimated scf accuracy    <          4.6E-09 Ry
     smearing contrib. (-TS)   =      -0.00046608 Ry
     internal energy E=F+TS    =     -31.09278387 Ry

     The total energy is F=E-TS. E is the sum of the following terms:
     one-electron contribution =       4.11498617 Ry
     hartree contribution      =       3.09934559 Ry
     xc contribution           =     -10.22090350 Ry
     ewald contribution        =     -28.08621213 Ry

     convergence has been achieved in   7 iterations

     Forces acting on atoms (cartesian axes, Ry/au):

     atom    1 type  1   force =     0.00000000    0.00000000    0.00000000
     atom    2 type  2   force =     0.00000000    0.00000000    0.44673168
     atom    3 type  2   force =     0.00000000    0.00000000   -0.44673168
     The non-local contrib.  to forces
     atom    1 type  1   force =     0.00000000    0.00000000    0.00000000
     atom    2 type  2   force =     0.00000000    0.00000000    0.34897164
     atom    3 type  2   force =     0.00000000    0.00000000   -0.34897164
     The ionic contribution  to forces
     atom    1 type  1   force =    -0.00000000   -0.00000000    0.00000000
     atom    2 type  2   force =    -0.00000000   -0.00000000    1.27764819
     atom    3 type  2   force =    -0.00000000   -0.00000000   -1.27764819
     The local contribution  to forces
     atom    1 type  1   force =     0.00000000    0.00000000    0.00000000
     atom    2 type  2   force =    -0.00000000    0.00000000   -1.15452090
     atom    3 type  2   force =     0.00000000    0.00000000    1.15452090
     The core correction contribution to forces
     atom    1 type  1   force =     0.00000000    0.00000000    0.00000000
     atom    2 type  2   force =     0.00000000   -0.00000000   -0.02546466
     atom    3 type  2   force =    -0.00000000    0.00000000    0.02546466
     The Hubbard contrib.    to forces
     atom    1 type  1   force =     0.00000000    0.00000000    0.00000000
     atom    2 type  2   force =     0.00000000    0.00000000    0.00000000
     atom    3 type  2   force =     0.00000000    0.00000000    0.00000000
     The SCF correction term to forces
     atom    1 type  1   force =    -0.00000000    0.00000000   -0.00000000
     atom    2 type  2   force =    -0.00000000   -0.00000000    0.00009742
     atom    3 type  2   force =     0.00000000   -0.00000000   -0.00009742

     Total force =     0.631774     Total SCF correction =     0.000138


     Computing stress (Cartesian axis) and pressure

          total   stress  (Ry/bohr**3)                   (kbar)     P=      772.15
   0.00324900   0.00000000   0.00000000          477.94        0.00        0.00
   0.00000000   0.00324900   0.00000000            0.00      477.94        0.00
   0.00000000   0.00000000   0.00924886            0.00        0.00     1360.55


     BFGS Geometry Optimization
     Energy error            =      0.0E+00 Ry
     Gradient error          =      4.5E-01 Ry/Bohr
     Cell gradient error     =      8.6E+02 kbar

     number of scf cycles    =   1
     number of bfgs steps    =   0

     enthalpy           new  =     -30.3881100325 Ry

     new trust radius        =       0.4467316801 bohr
ibrav =      6
 celldm(1) =      4.44077829
 celldm(3) =      2.69508537
Input lattice vectors:
     0.99625171     0.00000000     0.00000000
     0.00000000     0.99625171     0.00000000
     0.00000000     0.00000000     2.68498341
New lattice vectors in INITIAL alat:
     0.99625171     0.00000000     0.00000000
     0.00000000     0.99625171     0.00000000
     0.00000000     0.00000000     2.68498341
New lattice vectors in NEW alat (for information only):
     1.00000000     0.00000000     0.00000000
     0.00000000     1.00000000     0.00000000
     0.00000000     0.00000000     2.69508537
Discrepancy in bohr =     0.000000    0.000000    0.000000
     new conv_thr            =       0.0000000100 Ry

     new unit-cell volume =    236.02054 a.u.^3 (    34.97464 Ang^3 )
     density =      2.99646 g/cm^3

CELL_PARAMETERS (alat=  4.45748624)
   0.996251710   0.000000000   0.000000000
   0.000000000   0.996251710   0.000000000
   0.000000000   0.000000000   2.684983409

ATOMIC_POSITIONS (crystal)
Li            0.5000000000        0.5000000000        0.5000000000
Si            0.0000000000        0.0000000000        0.2110122240
Si            0.0000000000        0.0000000000        0.7889877760



     Writing config-only to output data dir ./output/LiSi.save/
     NEW-OLD atomic charge density approx. for the potential
     extrapolated charge   12.33043, renormalised to   11.00000

     total cpu time spent up to now is       10.7 secs

     Self-consistent Calculation

     iteration #  1     ecut=   100.00 Ry     beta= 0.70
     Davidson diagonalization with overlap
     c_bands:  1 eigenvalues not converged
     c_bands:  1 eigenvalues not converged
     c_bands:  1 eigenvalues not converged
     c_bands:  1 eigenvalues not converged
     c_bands:  1 eigenvalues not converged
     c_bands:  1 eigenvalues not converged
     c_bands:  1 eigenvalues not converged
     c_bands:  1 eigenvalues not converged
     c_bands:  1 eigenvalues not converged
     c_bands:  1 eigenvalues not converged
     ethr =  1.00E-06,  avg # of iterations = 14.5

     total cpu time spent up to now is       13.7 secs

     total energy              =     -31.10857508 Ry
     estimated scf accuracy    <       0.33273794 Ry

     iteration #  2     ecut=   100.00 Ry     beta= 0.70
     Davidson diagonalization with overlap
     ethr =  3.02E-03,  avg # of iterations =  2.3

     total cpu time spent up to now is       14.6 secs

     total energy              =     -31.04799928 Ry
     estimated scf accuracy    <       1.08432513 Ry

     iteration #  3     ecut=   100.00 Ry     beta= 0.70
     Davidson diagonalization with overlap
     ethr =  3.02E-03,  avg # of iterations =  2.1

     total cpu time spent up to now is       15.5 secs

     total energy              =     -31.26109210 Ry
     estimated scf accuracy    <       0.03263840 Ry

     iteration #  4     ecut=   100.00 Ry     beta= 0.70
     Davidson diagonalization with overlap
     ethr =  2.97E-04,  avg # of iterations =  1.3

     total cpu time spent up to now is       16.2 secs

     total energy              =     -31.26516403 Ry
     estimated scf accuracy    <       0.00053680 Ry

     iteration #  5     ecut=   100.00 Ry     beta= 0.70
     Davidson diagonalization with overlap
     ethr =  4.88E-06,  avg # of iterations =  4.3

     total cpu time spent up to now is       17.3 secs

     total energy              =     -31.26536087 Ry
     estimated scf accuracy    <       0.00010672 Ry

     iteration #  6     ecut=   100.00 Ry     beta= 0.70
     Davidson diagonalization with overlap
     ethr =  9.70E-07,  avg # of iterations =  2.0

     total cpu time spent up to now is       18.1 secs

     total energy              =     -31.26538034 Ry
     estimated scf accuracy    <       0.00000074 Ry

     iteration #  7     ecut=   100.00 Ry     beta= 0.70
     Davidson diagonalization with overlap
     ethr =  6.70E-09,  avg # of iterations =  3.1

     total cpu time spent up to now is       19.0 secs

     total energy              =     -31.26538081 Ry
     estimated scf accuracy    <       0.00000010 Ry

     iteration #  8     ecut=   100.00 Ry     beta= 0.70
     Davidson diagonalization with overlap
     ethr =  9.50E-10,  avg # of iterations =  2.0

     total cpu time spent up to now is       19.8 secs

     End of self-consistent calculation

     Number of k-points >= 100: set verbosity='high' to print the bands.

     the Fermi energy is     9.9268 ev

!    total energy              =     -31.26538084 Ry
     estimated scf accuracy    <          2.6E-09 Ry
     smearing contrib. (-TS)   =      -0.00006671 Ry
     internal energy E=F+TS    =     -31.26531413 Ry

     The total energy is F=E-TS. E is the sum of the following terms:
     one-electron contribution =       1.87658196 Ry
     hartree contribution      =       3.53717745 Ry
     xc contribution           =      -9.92838924 Ry
     ewald contribution        =     -26.75068430 Ry

     convergence has been achieved in   8 iterations

     Forces acting on atoms (cartesian axes, Ry/au):

     atom    1 type  1   force =     0.00000000    0.00000000    0.00000000
     atom    2 type  2   force =     0.00000000    0.00000000   -0.04767565
     atom    3 type  2   force =     0.00000000    0.00000000    0.04767565
     The non-local contrib.  to forces
     atom    1 type  1   force =     0.00000000    0.00000000    0.00000000
     atom    2 type  2   force =     0.00000000    0.00000000   -0.08721293
     atom    3 type  2   force =     0.00000000    0.00000000    0.08721293
     The ionic contribution  to forces
     atom    1 type  1   force =    -0.00000000    0.00000000    0.00000000
     atom    2 type  2   force =    -0.00000000   -0.00000000   -1.40740061
     atom    3 type  2   force =    -0.00000000   -0.00000000    1.40740061
     The local contribution  to forces
     atom    1 type  1   force =     0.00000000    0.00000000   -0.00000000
     atom    2 type  2   force =    -0.00000000   -0.00000000    1.44106247
     atom    3 type  2   force =     0.00000000    0.00000000   -1.44106247
     The core correction contribution to forces
     atom    1 type  1   force =     0.00000000    0.00000000    0.00000000
     atom    2 type  2   force =     0.00000000   -0.00000000    0.00596044
     atom    3 type  2   force =    -0.00000000    0.00000000   -0.00596044
     The Hubbard contrib.    to forces
     atom    1 type  1   force =     0.00000000    0.00000000    0.00000000
     atom    2 type  2   force =     0.00000000    0.00000000    0.00000000
     atom    3 type  2   force =     0.00000000    0.00000000    0.00000000
     The SCF correction term to forces
     atom    1 type  1   force =    -0.00000000   -0.00000000    0.00000000
     atom    2 type  2   force =    -0.00000000    0.00000000   -0.00008503
     atom    3 type  2   force =     0.00000000   -0.00000000    0.00008503

     Total force =     0.067424     Total SCF correction =     0.000120


     Computing stress (Cartesian axis) and pressure

          total   stress  (Ry/bohr**3)                   (kbar)     P=      273.09
   0.00234282   0.00000000   0.00000000          344.64        0.00        0.00
   0.00000000   0.00234282   0.00000000            0.00      344.64        0.00
   0.00000000   0.00000000   0.00088355            0.00        0.00      129.97

     Energy error            =      7.5E-02 Ry
     Gradient error          =      4.8E-02 Ry/Bohr
     Cell gradient error     =      3.7E+02 kbar

     number of scf cycles    =   2
     number of bfgs steps    =   1

     enthalpy           old  =     -30.3881100325 Ry
     enthalpy           new  =     -30.4631633262 Ry

     CASE: enthalpy          _new < enthalpy          _old

     new trust radius        =       0.1253504755 bohr
ibrav =      6
 celldm(1) =      4.32941697
 celldm(3) =      2.65163068
Input lattice vectors:
     0.97126872     0.00000000     0.00000000
     0.00000000     0.97126872     0.00000000
     0.00000000     0.00000000     2.57544594
New lattice vectors in INITIAL alat:
     0.97126872     0.00000000     0.00000000
     0.00000000     0.97126872     0.00000000
     0.00000000     0.00000000     2.57544594
New lattice vectors in NEW alat (for information only):
     1.00000000     0.00000000     0.00000000
     0.00000000     1.00000000     0.00000000
     0.00000000     0.00000000     2.65163068
Discrepancy in bohr =     0.000000    0.000000    0.000000
     new conv_thr            =       0.0000000048 Ry

     new unit-cell volume =    215.17969 a.u.^3 (    31.88634 Ang^3 )
     density =      3.28667 g/cm^3

CELL_PARAMETERS (alat=  4.45748624)
   0.971268723   0.000000000   0.000000000
   0.000000000   0.971268723   0.000000000
   0.000000000   0.000000000   2.575445941

ATOMIC_POSITIONS (crystal)
Li            0.5000000000        0.5000000000        0.5000000000
Si            0.0000000000        0.0000000000        0.2080726209
Si            0.0000000000        0.0000000000        0.7919273791



     Writing config-only to output data dir ./output/LiSi.save/
     NEW-OLD atomic charge density approx. for the potential
     extrapolated charge    9.93517, renormalised to   11.00000

     total cpu time spent up to now is       21.6 secs

     Self-consistent Calculation

     iteration #  1     ecut=   100.00 Ry     beta= 0.70
     Davidson diagonalization with overlap
     c_bands:  1 eigenvalues not converged
     ethr =  1.00E-06,  avg # of iterations =  9.5

     total cpu time spent up to now is       23.8 secs

     total energy              =     -31.15798834 Ry
     estimated scf accuracy    <       0.05510513 Ry

     iteration #  2     ecut=   100.00 Ry     beta= 0.70
     Davidson diagonalization with overlap
     ethr =  5.01E-04,  avg # of iterations =  3.0

     total cpu time spent up to now is       24.8 secs

     total energy              =     -31.17788542 Ry
     estimated scf accuracy    <       0.59807102 Ry

     iteration #  3     ecut=   100.00 Ry     beta= 0.70
     Davidson diagonalization with overlap
     ethr =  5.01E-04,  avg # of iterations =  2.2

     total cpu time spent up to now is       25.7 secs

     total energy              =     -31.21999987 Ry
     estimated scf accuracy    <       0.04105625 Ry

     iteration #  4     ecut=   100.00 Ry     beta= 0.70
     Davidson diagonalization with overlap
     ethr =  3.73E-04,  avg # of iterations =  1.5

     total cpu time spent up to now is       26.4 secs

     total energy              =     -31.22184237 Ry
     estimated scf accuracy    <       0.00526469 Ry

     iteration #  5     ecut=   100.00 Ry     beta= 0.70
     Davidson diagonalization with overlap
     ethr =  4.79E-05,  avg # of iterations =  2.5

     total cpu time spent up to now is       27.2 secs

     total energy              =     -31.22218130 Ry
     estimated scf accuracy    <       0.00065509 Ry

     iteration #  6     ecut=   100.00 Ry     beta= 0.70
     Davidson diagonalization with overlap
     ethr =  5.96E-06,  avg # of iterations =  3.7

     total cpu time spent up to now is       28.2 secs

     total energy              =     -31.22230393 Ry
     estimated scf accuracy    <       0.00000714 Ry

     iteration #  7     ecut=   100.00 Ry     beta= 0.70
     Davidson diagonalization with overlap
     ethr =  6.49E-08,  avg # of iterations =  3.0

     total cpu time spent up to now is       29.1 secs

     total energy              =     -31.22230509 Ry
     estimated scf accuracy    <       0.00000341 Ry

     iteration #  8     ecut=   100.00 Ry     beta= 0.70
     Davidson diagonalization with overlap
     ethr =  3.10E-08,  avg # of iterations =  1.4

     total cpu time spent up to now is       29.8 secs

     total energy              =     -31.22230556 Ry
     estimated scf accuracy    <       0.00000002 Ry

     iteration #  9     ecut=   100.00 Ry     beta= 0.70
     Davidson diagonalization with overlap
     ethr =  1.63E-10,  avg # of iterations =  3.8

     total cpu time spent up to now is       30.7 secs

     End of self-consistent calculation

     Number of k-points >= 100: set verbosity='high' to print the bands.

     the Fermi energy is    11.1325 ev

!    total energy              =     -31.22230558 Ry
     estimated scf accuracy    <          4.5E-09 Ry
     smearing contrib. (-TS)   =       0.00016535 Ry
     internal energy E=F+TS    =     -31.22247092 Ry

     The total energy is F=E-TS. E is the sum of the following terms:
     one-electron contribution =       3.19940697 Ry
     hartree contribution      =       3.36592229 Ry
     xc contribution           =     -10.07821644 Ry
     ewald contribution        =     -27.70958374 Ry

     convergence has been achieved in   9 iterations

     Forces acting on atoms (cartesian axes, Ry/au):

     atom    1 type  1   force =     0.00000000    0.00000000    0.00000000
     atom    2 type  2   force =     0.00000000    0.00000000   -0.04735436
     atom    3 type  2   force =     0.00000000    0.00000000    0.04735436
     The non-local contrib.  to forces
     atom    1 type  1   force =     0.00000000    0.00000000    0.00000000
     atom    2 type  2   force =     0.00000000    0.00000000   -0.08895529
     atom    3 type  2   force =     0.00000000    0.00000000    0.08895529
     The ionic contribution  to forces
     atom    1 type  1   force =     0.00000000    0.00000000    0.00000000
     atom    2 type  2   force =     0.00000000    0.00000000   -1.29292448
     atom    3 type  2   force =     0.00000000   -0.00000000    1.29292448
     The local contribution  to forces
     atom    1 type  1   force =     0.00000000    0.00000000    0.00000000
     atom    2 type  2   force =    -0.00000000   -0.00000000    1.32894991
     atom    3 type  2   force =     0.00000000   -0.00000000   -1.32894991
     The core correction contribution to forces
     atom    1 type  1   force =     0.00000000    0.00000000    0.00000000
     atom    2 type  2   force =    -0.00000000   -0.00000000    0.00568804
     atom    3 type  2   force =     0.00000000   -0.00000000   -0.00568804
     The Hubbard contrib.    to forces
     atom    1 type  1   force =     0.00000000    0.00000000    0.00000000
     atom    2 type  2   force =     0.00000000    0.00000000    0.00000000
     atom    3 type  2   force =     0.00000000    0.00000000    0.00000000
     The SCF correction term to forces
     atom    1 type  1   force =     0.00000000   -0.00000000    0.00000000
     atom    2 type  2   force =     0.00000000    0.00000000   -0.00011254
     atom    3 type  2   force =     0.00000000    0.00000000    0.00011254

     Total force =     0.066969     Total SCF correction =     0.000159


     Computing stress (Cartesian axis) and pressure

          total   stress  (Ry/bohr**3)                   (kbar)     P=      457.30
   0.00383872   0.00000000   0.00000000          564.70        0.00        0.00
   0.00000000   0.00383872   0.00000000            0.00      564.70        0.00
   0.00000000   0.00000000   0.00164852            0.00        0.00      242.51

     Energy error            =      2.8E-02 Ry
     Gradient error          =      4.7E-02 Ry/Bohr
     Cell gradient error     =      2.6E+02 kbar

     number of scf cycles    =   3
     number of bfgs steps    =   2

     enthalpy           old  =     -30.4631633262 Ry
     enthalpy           new  =     -30.4909246705 Ry

     CASE: enthalpy          _new < enthalpy          _old

     new trust radius        =       0.2458179287 bohr
ibrav =      6
 celldm(1) =      4.34428441
 celldm(3) =      2.42114096
Input lattice vectors:
     0.97460411     0.00000000     0.00000000
     0.00000000     0.97460411     0.00000000
     0.00000000     0.00000000     2.35965393
New lattice vectors in INITIAL alat:
     0.97460411     0.00000000     0.00000000
     0.00000000     0.97460411     0.00000000
     0.00000000     0.00000000     2.35965393
New lattice vectors in NEW alat (for information only):
     1.00000000     0.00000000     0.00000000
     0.00000000     1.00000000     0.00000000
     0.00000000     0.00000000     2.42114096
Discrepancy in bohr =     0.000000    0.000000    0.000000
     new conv_thr            =       0.0000000047 Ry

     new unit-cell volume =    198.50654 a.u.^3 (    29.41563 Ang^3 )
     density =      3.56273 g/cm^3

CELL_PARAMETERS (alat=  4.45748624)
   0.974604109   0.000000000   0.000000000
   0.000000000   0.974604109   0.000000000
   0.000000000   0.000000000   2.359653932

ATOMIC_POSITIONS (crystal)
Li            0.5000000000        0.5000000000        0.5000000000
Si            0.0000000000        0.0000000000        0.1985932007
Si            0.0000000000        0.0000000000        0.8014067993



     Writing config-only to output data dir ./output/LiSi.save/
     NEW-OLD atomic charge density approx. for the potential
     extrapolated charge   10.07656, renormalised to   11.00000

     total cpu time spent up to now is       32.4 secs

     Self-consistent Calculation

     iteration #  1     ecut=   100.00 Ry     beta= 0.70
     Davidson diagonalization with overlap
     c_bands:  1 eigenvalues not converged
     c_bands:  1 eigenvalues not converged
     c_bands:  1 eigenvalues not converged
     c_bands:  1 eigenvalues not converged
     c_bands:  1 eigenvalues not converged
     ethr =  1.00E-06,  avg # of iterations = 11.1

     total cpu time spent up to now is       34.7 secs

     total energy              =     -31.17123800 Ry
     estimated scf accuracy    <       0.01185076 Ry

     iteration #  2     ecut=   100.00 Ry     beta= 0.70
     Davidson diagonalization with overlap
     ethr =  1.08E-04,  avg # of iterations =  3.1

     total cpu time spent up to now is       35.7 secs

     total energy              =     -31.17948340 Ry
     estimated scf accuracy    <       0.08514663 Ry

     iteration #  3     ecut=   100.00 Ry     beta= 0.70
     Davidson diagonalization with overlap
     ethr =  1.08E-04,  avg # of iterations =  2.0

     total cpu time spent up to now is       36.5 secs

     total energy              =     -31.18529801 Ry
     estimated scf accuracy    <       0.00611590 Ry

     iteration #  4     ecut=   100.00 Ry     beta= 0.70
     Davidson diagonalization with overlap
     ethr =  5.56E-05,  avg # of iterations =  1.6

     total cpu time spent up to now is       37.2 secs

     total energy              =     -31.18581353 Ry
     estimated scf accuracy    <       0.00039318 Ry

     iteration #  5     ecut=   100.00 Ry     beta= 0.70
     Davidson diagonalization with overlap
     ethr =  3.57E-06,  avg # of iterations =  3.7

     total cpu time spent up to now is       38.1 secs

     total energy              =     -31.18591598 Ry
     estimated scf accuracy    <       0.00000266 Ry

     iteration #  6     ecut=   100.00 Ry     beta= 0.70
     Davidson diagonalization with overlap
     ethr =  2.41E-08,  avg # of iterations =  3.1

     total cpu time spent up to now is       38.9 secs

     total energy              =     -31.18591816 Ry
     estimated scf accuracy    <       0.00000002 Ry

     iteration #  7     ecut=   100.00 Ry     beta= 0.70
     Davidson diagonalization with overlap
     ethr =  2.19E-10,  avg # of iterations =  3.3

     total cpu time spent up to now is       39.8 secs

     total energy              =     -31.18591817 Ry
     estimated scf accuracy    <       0.00000003 Ry

     iteration #  8     ecut=   100.00 Ry     beta= 0.70
     Davidson diagonalization with overlap
     ethr =  2.19E-10,  avg # of iterations =  1.7

     total cpu time spent up to now is       40.5 secs

     End of self-consistent calculation

     Number of k-points >= 100: set verbosity='high' to print the bands.

     the Fermi energy is    12.3640 ev

!    total energy              =     -31.18591817 Ry
     estimated scf accuracy    <          1.9E-09 Ry
     smearing contrib. (-TS)   =      -0.00037568 Ry
     internal energy E=F+TS    =     -31.18554250 Ry

     The total energy is F=E-TS. E is the sum of the following terms:
     one-electron contribution =       4.68106397 Ry
     hartree contribution      =       3.08394009 Ry
     xc contribution           =     -10.21225907 Ry
     ewald contribution        =     -28.73828750 Ry

     convergence has been achieved in   8 iterations

     Forces acting on atoms (cartesian axes, Ry/au):

     atom    1 type  1   force =     0.00000000    0.00000000    0.00000000
     atom    2 type  2   force =     0.00000000    0.00000000    0.02191394
     atom    3 type  2   force =     0.00000000    0.00000000   -0.02191394
     The non-local contrib.  to forces
     atom    1 type  1   force =     0.00000000    0.00000000    0.00000000
     atom    2 type  2   force =     0.00000000    0.00000000   -0.00018117
     atom    3 type  2   force =     0.00000000    0.00000000    0.00018117
     The ionic contribution  to forces
     atom    1 type  1   force =     0.00000000    0.00000000   -0.00000000
     atom    2 type  2   force =    -0.00000000   -0.00000000   -0.60218651
     atom    3 type  2   force =     0.00000000    0.00000000    0.60218651
     The local contribution  to forces
     atom    1 type  1   force =     0.00000000    0.00000000    0.00000000
     atom    2 type  2   force =    -0.00000000   -0.00000000    0.62591614
     atom    3 type  2   force =    -0.00000000    0.00000000   -0.62591614
     The core correction contribution to forces
     atom    1 type  1   force =     0.00000000    0.00000000    0.00000000
     atom    2 type  2   force =     0.00000000   -0.00000000   -0.00156497
     atom    3 type  2   force =    -0.00000000   -0.00000000    0.00156497
     The Hubbard contrib.    to forces
     atom    1 type  1   force =     0.00000000    0.00000000    0.00000000
     atom    2 type  2   force =     0.00000000    0.00000000    0.00000000
     atom    3 type  2   force =     0.00000000    0.00000000    0.00000000
     The SCF correction term to forces
     atom    1 type  1   force =     0.00000000    0.00000000    0.00000000
     atom    2 type  2   force =     0.00000000   -0.00000000   -0.00006955
     atom    3 type  2   force =    -0.00000000   -0.00000000    0.00006955

     Total force =     0.030991     Total SCF correction =     0.000098


     Computing stress (Cartesian axis) and pressure

          total   stress  (Ry/bohr**3)                   (kbar)     P=      657.01
   0.00457880   0.00000000   0.00000000          673.57        0.00        0.00
   0.00000000   0.00457880   0.00000000            0.00      673.57        0.00
   0.00000000   0.00000000   0.00424128            0.00        0.00      623.91

     Energy error            =      2.0E-02 Ry
     Gradient error          =      2.2E-02 Ry/Bohr
     Cell gradient error     =      1.7E+02 kbar

     number of scf cycles    =   4
     number of bfgs steps    =   3

     enthalpy           old  =     -30.4909246705 Ry
     enthalpy           new  =     -30.5112081511 Ry

     CASE: enthalpy          _new < enthalpy          _old

     new trust radius        =       0.0598501101 bohr
ibrav =      6
 celldm(1) =      4.40265510
 celldm(3) =      2.43978374
Input lattice vectors:
     0.98769909     0.00000000     0.00000000
     0.00000000     0.98769909     0.00000000
     0.00000000     0.00000000     2.40977218
New lattice vectors in INITIAL alat:
     0.98769909     0.00000000     0.00000000
     0.00000000     0.98769909     0.00000000
     0.00000000     0.00000000     2.40977218
New lattice vectors in NEW alat (for information only):
     1.00000000     0.00000000     0.00000000
     0.00000000     1.00000000     0.00000000
     0.00000000     0.00000000     2.43978374
Discrepancy in bohr =     0.000000    0.000000    0.000000
     new conv_thr            =       0.0000000022 Ry

     new unit-cell volume =    208.20700 a.u.^3 (    30.85309 Ang^3 )
     density =      3.39674 g/cm^3

CELL_PARAMETERS (alat=  4.45748624)
   0.987699089   0.000000000   0.000000000
   0.000000000   0.987699089   0.000000000
   0.000000000   0.000000000   2.409772178

ATOMIC_POSITIONS (crystal)
Li            0.5000000000        0.5000000000        0.5000000000
Si            0.0000000000        0.0000000000        0.2008119666
Si            0.0000000000        0.0000000000        0.7991880334



     Writing config-only to output data dir ./output/LiSi.save/
     NEW-OLD atomic charge density approx. for the potential
     extrapolated charge   11.51223, renormalised to   11.00000

     total cpu time spent up to now is       42.3 secs

     Self-consistent Calculation

     iteration #  1     ecut=   100.00 Ry     beta= 0.70
     Davidson diagonalization with overlap
     c_bands:  1 eigenvalues not converged
     ethr =  1.00E-06,  avg # of iterations =  7.1

     total cpu time spent up to now is       44.1 secs

     total energy              =     -31.22096507 Ry
     estimated scf accuracy    <       0.00147295 Ry

     iteration #  2     ecut=   100.00 Ry     beta= 0.70
     Davidson diagonalization with overlap
     ethr =  1.34E-05,  avg # of iterations =  3.6

     total cpu time spent up to now is       45.1 secs

     total energy              =     -31.22378581 Ry
     estimated scf accuracy    <       0.01883716 Ry

     iteration #  3     ecut=   100.00 Ry     beta= 0.70
     Davidson diagonalization with overlap
     ethr =  1.34E-05,  avg # of iterations =  2.3

     total cpu time spent up to now is       45.9 secs

     total energy              =     -31.22432422 Ry
     estimated scf accuracy    <       0.00293295 Ry

     iteration #  4     ecut=   100.00 Ry     beta= 0.70
     Davidson diagonalization with overlap
     ethr =  1.34E-05,  avg # of iterations =  1.6

     total cpu time spent up to now is       46.6 secs

     total energy              =     -31.22423785 Ry
     estimated scf accuracy    <       0.00066327 Ry

     iteration #  5     ecut=   100.00 Ry     beta= 0.70
     Davidson diagonalization with overlap
     ethr =  6.03E-06,  avg # of iterations =  2.2

     total cpu time spent up to now is       47.4 secs

     total energy              =     -31.22433149 Ry
     estimated scf accuracy    <       0.00000735 Ry

     iteration #  6     ecut=   100.00 Ry     beta= 0.70
     Davidson diagonalization with overlap
     ethr =  6.68E-08,  avg # of iterations =  3.5

     total cpu time spent up to now is       48.2 secs

     total energy              =     -31.22433597 Ry
     estimated scf accuracy    <       0.00000038 Ry

     iteration #  7     ecut=   100.00 Ry     beta= 0.70
     Davidson diagonalization with overlap
     ethr =  3.45E-09,  avg # of iterations =  2.0

     total cpu time spent up to now is       49.0 secs

     total energy              =     -31.22433608 Ry
     estimated scf accuracy    <       0.00000028 Ry

     iteration #  8     ecut=   100.00 Ry     beta= 0.70
     Davidson diagonalization with overlap
     ethr =  2.51E-09,  avg # of iterations =  1.5

     total cpu time spent up to now is       49.7 secs

     total energy              =     -31.22433614 Ry
     estimated scf accuracy    <          2.6E-09 Ry

     iteration #  9     ecut=   100.00 Ry     beta= 0.70
     Davidson diagonalization with overlap
     ethr =  2.39E-11,  avg # of iterations =  2.7

     total cpu time spent up to now is       50.5 secs

     End of self-consistent calculation

     Number of k-points >= 100: set verbosity='high' to print the bands.

     the Fermi energy is    11.6663 ev

!    total energy              =     -31.22433614 Ry
     estimated scf accuracy    <          2.4E-11 Ry
     smearing contrib. (-TS)   =      -0.00019768 Ry
     internal energy E=F+TS    =     -31.22413846 Ry

     The total energy is F=E-TS. E is the sum of the following terms:
     one-electron contribution =       3.99948017 Ry
     hartree contribution      =       3.15427180 Ry
     xc contribution           =     -10.12554287 Ry
     ewald contribution        =     -28.25234756 Ry

     convergence has been achieved in   9 iterations

     Forces acting on atoms (cartesian axes, Ry/au):

     atom    1 type  1   force =     0.00000000    0.00000000    0.00000000
     atom    2 type  2   force =     0.00000000    0.00000000   -0.00361673
     atom    3 type  2   force =     0.00000000    0.00000000    0.00361673
     The non-local contrib.  to forces
     atom    1 type  1   force =     0.00000000    0.00000000    0.00000000
     atom    2 type  2   force =     0.00000000    0.00000000   -0.02377422
     atom    3 type  2   force =     0.00000000    0.00000000    0.02377422
     The ionic contribution  to forces
     atom    1 type  1   force =    -0.00000000   -0.00000000    0.00000000
     atom    2 type  2   force =    -0.00000000   -0.00000000   -0.72508885
     atom    3 type  2   force =    -0.00000000   -0.00000000    0.72508885
     The local contribution  to forces
     atom    1 type  1   force =     0.00000000    0.00000000    0.00000000
     atom    2 type  2   force =    -0.00000000   -0.00000000    0.74491923
     atom    3 type  2   force =    -0.00000000   -0.00000000   -0.74491923
     The core correction contribution to forces
     atom    1 type  1   force =     0.00000000    0.00000000    0.00000000
     atom    2 type  2   force =    -0.00000000   -0.00000000    0.00031962
     atom    3 type  2   force =     0.00000000   -0.00000000   -0.00031962
     The Hubbard contrib.    to forces
     atom    1 type  1   force =     0.00000000    0.00000000    0.00000000
     atom    2 type  2   force =     0.00000000    0.00000000    0.00000000
     atom    3 type  2   force =     0.00000000    0.00000000    0.00000000
     The SCF correction term to forces
     atom    1 type  1   force =     0.00000000    0.00000000    0.00000000
     atom    2 type  2   force =     0.00000000   -0.00000000    0.00000750
     atom    3 type  2   force =     0.00000000    0.00000000   -0.00000750

     Total force =     0.005115     Total SCF correction =     0.000011


     Computing stress (Cartesian axis) and pressure

          total   stress  (Ry/bohr**3)                   (kbar)     P=      516.07
   0.00370739   0.00000000   0.00000000          545.38        0.00        0.00
   0.00000000   0.00370739   0.00000000            0.00      545.38        0.00
   0.00000000   0.00000000   0.00310980            0.00        0.00      457.47

     Energy error            =      5.4E-03 Ry
     Gradient error          =      3.6E-03 Ry/Bohr
     Cell gradient error     =      4.5E+01 kbar

     number of scf cycles    =   5
     number of bfgs steps    =   4

     enthalpy           old  =     -30.5112081511 Ry
     enthalpy           new  =     -30.5166549281 Ry

     CASE: enthalpy          _new < enthalpy          _old

     new trust radius        =       0.0299057485 bohr
ibrav =      6
 celldm(1) =      4.44019816
 celldm(3) =      2.39408551
Input lattice vectors:
     0.99612156     0.00000000     0.00000000
     0.00000000     0.99612156     0.00000000
     0.00000000     0.00000000     2.38480020
New lattice vectors in INITIAL alat:
     0.99612156     0.00000000     0.00000000
     0.00000000     0.99612156     0.00000000
     0.00000000     0.00000000     2.38480020
New lattice vectors in NEW alat (for information only):
     1.00000000     0.00000000     0.00000000
     0.00000000     1.00000000     0.00000000
     0.00000000     0.00000000     2.39408551
Discrepancy in bohr =     0.000000    0.000000    0.000000
     new conv_thr            =       0.0000000004 Ry

     new unit-cell volume =    209.57849 a.u.^3 (    31.05633 Ang^3 )
     density =      3.37451 g/cm^3

CELL_PARAMETERS (alat=  4.45748624)
   0.996121563   0.000000000   0.000000000
   0.000000000   0.996121563   0.000000000
   0.000000000   0.000000000   2.384800196

ATOMIC_POSITIONS (crystal)
Li            0.5000000000        0.5000000000        0.5000000000
Si            0.0000000000        0.0000000000        0.2002906640
Si            0.0000000000        0.0000000000        0.7997093360



     Writing config-only to output data dir ./output/LiSi.save/
     NEW-OLD atomic charge density approx. for the potential
     extrapolated charge   11.07195, renormalised to   11.00000

     total cpu time spent up to now is       52.2 secs

     Self-consistent Calculation

     iteration #  1     ecut=   100.00 Ry     beta= 0.70
     Davidson diagonalization with overlap
     ethr =  1.00E-06,  avg # of iterations =  6.5

     total cpu time spent up to now is       53.8 secs

     total energy              =     -31.22979313 Ry
     estimated scf accuracy    <       0.00051806 Ry

     iteration #  2     ecut=   100.00 Ry     beta= 0.70
     Davidson diagonalization with overlap
     ethr =  4.71E-06,  avg # of iterations =  2.5

     total cpu time spent up to now is       54.7 secs

     total energy              =     -31.22982199 Ry
     estimated scf accuracy    <       0.00219118 Ry

     iteration #  3     ecut=   100.00 Ry     beta= 0.70
     Davidson diagonalization with overlap
     ethr =  4.71E-06,  avg # of iterations =  2.0

     total cpu time spent up to now is       55.5 secs

     total energy              =     -31.23011564 Ry
     estimated scf accuracy    <       0.00002018 Ry

     iteration #  4     ecut=   100.00 Ry     beta= 0.70
     Davidson diagonalization with overlap
     ethr =  1.83E-07,  avg # of iterations =  2.3

     total cpu time spent up to now is       56.3 secs

     total energy              =     -31.23012163 Ry
     estimated scf accuracy    <       0.00000132 Ry

     iteration #  5     ecut=   100.00 Ry     beta= 0.70
     Davidson diagonalization with overlap
     ethr =  1.20E-08,  avg # of iterations =  1.9

     total cpu time spent up to now is       57.0 secs

     total energy              =     -31.23012191 Ry
     estimated scf accuracy    <          6.4E-09 Ry

     iteration #  6     ecut=   100.00 Ry     beta= 0.70
     Davidson diagonalization with overlap
     ethr =  5.81E-11,  avg # of iterations =  4.0

     total cpu time spent up to now is       57.9 secs

     End of self-consistent calculation

     Number of k-points >= 100: set verbosity='high' to print the bands.

     the Fermi energy is    11.6011 ev

!    total energy              =     -31.23012192 Ry
     estimated scf accuracy    <          4.1E-11 Ry
     smearing contrib. (-TS)   =      -0.00028293 Ry
     internal energy E=F+TS    =     -31.22983898 Ry

     The total energy is F=E-TS. E is the sum of the following terms:
     one-electron contribution =       3.93362311 Ry
     hartree contribution      =       3.15177758 Ry
     xc contribution           =     -10.11352454 Ry
     ewald contribution        =     -28.20171513 Ry

     convergence has been achieved in   6 iterations

     Forces acting on atoms (cartesian axes, Ry/au):

     atom    1 type  1   force =     0.00000000    0.00000000    0.00000000
     atom    2 type  2   force =     0.00000000    0.00000000    0.00448737
     atom    3 type  2   force =     0.00000000    0.00000000   -0.00448737
     The non-local contrib.  to forces
     atom    1 type  1   force =     0.00000000    0.00000000    0.00000000
     atom    2 type  2   force =     0.00000000    0.00000000   -0.00748379
     atom    3 type  2   force =     0.00000000    0.00000000    0.00748379
     The ionic contribution  to forces
     atom    1 type  1   force =    -0.00000000   -0.00000000   -0.00000000
     atom    2 type  2   force =    -0.00000000   -0.00000000   -0.65124696
     atom    3 type  2   force =    -0.00000000   -0.00000000    0.65124696
     The local contribution  to forces
     atom    1 type  1   force =     0.00000000    0.00000000    0.00000000
     atom    2 type  2   force =     0.00000000    0.00000000    0.66412562
     atom    3 type  2   force =    -0.00000000    0.00000000   -0.66412562
     The core correction contribution to forces
     atom    1 type  1   force =     0.00000000    0.00000000    0.00000000
     atom    2 type  2   force =    -0.00000000    0.00000000   -0.00090093
     atom    3 type  2   force =    -0.00000000   -0.00000000    0.00090093
     The Hubbard contrib.    to forces
     atom    1 type  1   force =     0.00000000    0.00000000    0.00000000
     atom    2 type  2   force =     0.00000000    0.00000000    0.00000000
     atom    3 type  2   force =     0.00000000    0.00000000    0.00000000
     The SCF correction term to forces
     atom    1 type  1   force =     0.00000000   -0.00000000   -0.00000000
     atom    2 type  2   force =    -0.00000000    0.00000000   -0.00000657
     atom    3 type  2   force =     0.00000000    0.00000000    0.00000657

     Total force =     0.006346     Total SCF correction =     0.000009


     Computing stress (Cartesian axis) and pressure

          total   stress  (Ry/bohr**3)                   (kbar)     P=      500.19
   0.00347245   0.00000000   0.00000000          510.82        0.00        0.00
   0.00000000   0.00347245   0.00000000            0.00      510.82        0.00
   0.00000000   0.00000000   0.00325584            0.00        0.00      478.95

     Energy error            =      1.1E-03 Ry
     Gradient error          =      4.5E-03 Ry/Bohr
     Cell gradient error     =      2.1E+01 kbar

     number of scf cycles    =   6
     number of bfgs steps    =   5

     enthalpy           old  =     -30.5166549281 Ry
     enthalpy           new  =     -30.5177790953 Ry

     CASE: enthalpy          _new < enthalpy          _old

     new trust radius        =       0.0214590649 bohr
ibrav =      6
 celldm(1) =      4.45814677
 celldm(3) =      2.36677448
Input lattice vectors:
     1.00014818     0.00000000     0.00000000
     0.00000000     1.00014818     0.00000000
     0.00000000     0.00000000     2.36712520
New lattice vectors in INITIAL alat:
     1.00014818     0.00000000     0.00000000
     0.00000000     1.00014818     0.00000000
     0.00000000     0.00000000     2.36712520
New lattice vectors in NEW alat (for information only):
     1.00000000     0.00000000     0.00000000
     0.00000000     1.00000000     0.00000000
     0.00000000     0.00000000     2.36677448
Discrepancy in bohr =     0.000000    0.000000    0.000000
     new conv_thr            =       0.0000000004 Ry

     new unit-cell volume =    209.71040 a.u.^3 (    31.07587 Ang^3 )
     density =      3.37239 g/cm^3

CELL_PARAMETERS (alat=  4.45748624)
   1.000148185   0.000000000   0.000000000
   0.000000000   1.000148185   0.000000000
   0.000000000   0.000000000   2.367125196

ATOMIC_POSITIONS (crystal)
Li            0.5000000000        0.5000000000        0.5000000000
Si            0.0000000000        0.0000000000        0.2008308327
Si            0.0000000000        0.0000000000        0.7991691673



     Writing config-only to output data dir ./output/LiSi.save/
     NEW-OLD atomic charge density approx. for the potential
     extrapolated charge   11.00692, renormalised to   11.00000

     total cpu time spent up to now is       59.6 secs

     Self-consistent Calculation

     iteration #  1     ecut=   100.00 Ry     beta= 0.70
     Davidson diagonalization with overlap
     ethr =  1.00E-06,  avg # of iterations =  5.3

     total cpu time spent up to now is       60.9 secs

     total energy              =     -31.23082024 Ry
     estimated scf accuracy    <       0.00003995 Ry

     iteration #  2     ecut=   100.00 Ry     beta= 0.70
     Davidson diagonalization with overlap
     ethr =  3.63E-07,  avg # of iterations =  1.2

     total cpu time spent up to now is       61.5 secs

     total energy              =     -31.23082378 Ry
     estimated scf accuracy    <       0.00000093 Ry

     iteration #  3     ecut=   100.00 Ry     beta= 0.70
     Davidson diagonalization with overlap
     ethr =  8.43E-09,  avg # of iterations =  2.3

     total cpu time spent up to now is       62.3 secs

     total energy              =     -31.23082386 Ry
     estimated scf accuracy    <       0.00000031 Ry

     iteration #  4     ecut=   100.00 Ry     beta= 0.70
     Davidson diagonalization with overlap
     ethr =  2.82E-09,  avg # of iterations =  1.8

     total cpu time spent up to now is       63.0 secs

     total energy              =     -31.23082395 Ry
     estimated scf accuracy    <       0.00000031 Ry

     iteration #  5     ecut=   100.00 Ry     beta= 0.70
     Davidson diagonalization with overlap
     ethr =  2.82E-09,  avg # of iterations =  1.3

     total cpu time spent up to now is       63.7 secs

     End of self-consistent calculation

     Number of k-points >= 100: set verbosity='high' to print the bands.

     the Fermi energy is    11.6041 ev

!    total energy              =     -31.23082400 Ry
     estimated scf accuracy    <          3.0E-10 Ry
     smearing contrib. (-TS)   =      -0.00016090 Ry
     internal energy E=F+TS    =     -31.23066310 Ry

     The total energy is F=E-TS. E is the sum of the following terms:
     one-electron contribution =       3.90740877 Ry
     hartree contribution      =       3.16211633 Ry
     xc contribution           =     -10.11118018 Ry
     ewald contribution        =     -28.18900801 Ry

     convergence has been achieved in   5 iterations

     Forces acting on atoms (cartesian axes, Ry/au):

     atom    1 type  1   force =     0.00000000    0.00000000    0.00000000
     atom    2 type  2   force =     0.00000000    0.00000000    0.00540193
     atom    3 type  2   force =     0.00000000    0.00000000   -0.00540193
     The non-local contrib.  to forces
     atom    1 type  1   force =     0.00000000    0.00000000    0.00000000
     atom    2 type  2   force =     0.00000000    0.00000000   -0.00171288
     atom    3 type  2   force =     0.00000000    0.00000000    0.00171288
     The ionic contribution  to forces
     atom    1 type  1   force =    -0.00000000   -0.00000000   -0.00000000
     atom    2 type  2   force =    -0.00000000   -0.00000000   -0.65502071
     atom    3 type  2   force =    -0.00000000   -0.00000000    0.65502071
     The local contribution  to forces
     atom    1 type  1   force =     0.00000000    0.00000000    0.00000000
     atom    2 type  2   force =    -0.00000000   -0.00000000    0.66347245
     atom    3 type  2   force =     0.00000000   -0.00000000   -0.66347245
     The core correction contribution to forces
     atom    1 type  1   force =     0.00000000    0.00000000    0.00000000
     atom    2 type  2   force =     0.00000000    0.00000000   -0.00132119
     atom    3 type  2   force =     0.00000000    0.00000000    0.00132119
     The Hubbard contrib.    to forces
     atom    1 type  1   force =     0.00000000    0.00000000    0.00000000
     atom    2 type  2   force =     0.00000000    0.00000000    0.00000000
     atom    3 type  2   force =     0.00000000    0.00000000    0.00000000
     The SCF correction term to forces
     atom    1 type  1   force =     0.00000000    0.00000000   -0.00000000
     atom    2 type  2   force =    -0.00000000    0.00000000   -0.00001574
     atom    3 type  2   force =     0.00000000   -0.00000000    0.00001574

     Total force =     0.007639     Total SCF correction =     0.000022


     Computing stress (Cartesian axis) and pressure

          total   stress  (Ry/bohr**3)                   (kbar)     P=      497.92
   0.00339338   0.00000000   0.00000000          499.18        0.00        0.00
   0.00000000   0.00339338   0.00000000            0.00      499.18        0.00
   0.00000000   0.00000000   0.00336752            0.00        0.00      495.38

     Energy error            =      2.5E-04 Ry
     Gradient error          =      5.4E-03 Ry/Bohr
     Cell gradient error     =      4.6E+00 kbar

     number of scf cycles    =   7
     number of bfgs steps    =   6

     enthalpy           old  =     -30.5177790953 Ry
     enthalpy           new  =     -30.5180328407 Ry

     CASE: enthalpy          _new < enthalpy          _old

     new trust radius        =       0.0092681322 bohr
ibrav =      6
 celldm(1) =      4.46374258
 celldm(3) =      2.35624323
Input lattice vectors:
     1.00140356     0.00000000     0.00000000
     0.00000000     1.00140356     0.00000000
     0.00000000     0.00000000     2.35955036
New lattice vectors in INITIAL alat:
     1.00140356     0.00000000     0.00000000
     0.00000000     1.00140356     0.00000000
     0.00000000     0.00000000     2.35955036
New lattice vectors in NEW alat (for information only):
     1.00000000     0.00000000     0.00000000
     0.00000000     1.00000000     0.00000000
     0.00000000     0.00000000     2.35624323
Discrepancy in bohr =     0.000000    0.000000    0.000000
     new conv_thr            =       0.0000000003 Ry

     new unit-cell volume =    209.56442 a.u.^3 (    31.05424 Ang^3 )
     density =      3.37474 g/cm^3

CELL_PARAMETERS (alat=  4.45748624)
   1.001403558   0.000000000   0.000000000
   0.000000000   1.001403558   0.000000000
   0.000000000   0.000000000   2.359550355

ATOMIC_POSITIONS (crystal)
Li            0.5000000000        0.5000000000        0.5000000000
Si            0.0000000000        0.0000000000        0.2016130030
Si            0.0000000000        0.0000000000        0.7983869970



     Writing config-only to output data dir ./output/LiSi.save/
     NEW-OLD atomic charge density approx. for the potential
     extrapolated charge   10.99234, renormalised to   11.00000

     total cpu time spent up to now is       65.4 secs

     Self-consistent Calculation

     iteration #  1     ecut=   100.00 Ry     beta= 0.70
     Davidson diagonalization with overlap
     c_bands:  1 eigenvalues not converged
     ethr =  1.00E-06,  avg # of iterations =  3.7

     total cpu time spent up to now is       66.5 secs

     total energy              =     -31.23036925 Ry
     estimated scf accuracy    <       0.00004194 Ry

     iteration #  2     ecut=   100.00 Ry     beta= 0.70
     Davidson diagonalization with overlap
     c_bands:  1 eigenvalues not converged
     ethr =  3.81E-07,  avg # of iterations =  2.4

     total cpu time spent up to now is       67.2 secs

     total energy              =     -31.23037078 Ry
     estimated scf accuracy    <       0.00016913 Ry

     iteration #  3     ecut=   100.00 Ry     beta= 0.70
     Davidson diagonalization with overlap
     ethr =  3.81E-07,  avg # of iterations =  1.9

     total cpu time spent up to now is       67.9 secs

     total energy              =     -31.23039640 Ry
     estimated scf accuracy    <       0.00000036 Ry

     iteration #  4     ecut=   100.00 Ry     beta= 0.70
     Davidson diagonalization with overlap
     ethr =  3.30E-09,  avg # of iterations =  3.4

     total cpu time spent up to now is       68.8 secs

     total energy              =     -31.23039663 Ry
     estimated scf accuracy    <       0.00000007 Ry

     iteration #  5     ecut=   100.00 Ry     beta= 0.70
     Davidson diagonalization with overlap
     ethr =  5.95E-10,  avg # of iterations =  1.7

     total cpu time spent up to now is       69.5 secs

     total energy              =     -31.23039665 Ry
     estimated scf accuracy    <          4.2E-10 Ry

     iteration #  6     ecut=   100.00 Ry     beta= 0.70
     Davidson diagonalization with overlap
     ethr =  3.78E-12,  avg # of iterations =  3.4

     total cpu time spent up to now is       70.4 secs

     End of self-consistent calculation

     Number of k-points >= 100: set verbosity='high' to print the bands.

     the Fermi energy is    11.6172 ev

!    total energy              =     -31.23039665 Ry
     estimated scf accuracy    <          3.1E-12 Ry
     smearing contrib. (-TS)   =      -0.00011009 Ry
     internal energy E=F+TS    =     -31.23028656 Ry

     The total energy is F=E-TS. E is the sum of the following terms:
     one-electron contribution =       3.89082564 Ry
     hartree contribution      =       3.17459195 Ry
     xc contribution           =     -10.11107352 Ry
     ewald contribution        =     -28.18463062 Ry

     convergence has been achieved in   6 iterations

     Forces acting on atoms (cartesian axes, Ry/au):

     atom    1 type  1   force =     0.00000000    0.00000000    0.00000000
     atom    2 type  2   force =     0.00000000    0.00000000    0.00257430
     atom    3 type  2   force =     0.00000000    0.00000000   -0.00257430
     The non-local contrib.  to forces
     atom    1 type  1   force =     0.00000000    0.00000000    0.00000000
     atom    2 type  2   force =     0.00000000    0.00000000   -0.00304929
     atom    3 type  2   force =     0.00000000    0.00000000    0.00304929
     The ionic contribution  to forces
     atom    1 type  1   force =    -0.00000000   -0.00000000   -0.00000000
     atom    2 type  2   force =     0.00000000    0.00000000   -0.68812382
     atom    3 type  2   force =    -0.00000000   -0.00000000    0.68812382
     The local contribution  to forces
     atom    1 type  1   force =     0.00000000    0.00000000    0.00000000
     atom    2 type  2   force =     0.00000000   -0.00000000    0.69496427
     atom    3 type  2   force =     0.00000000    0.00000000   -0.69496427
     The core correction contribution to forces
     atom    1 type  1   force =     0.00000000    0.00000000    0.00000000
     atom    2 type  2   force =    -0.00000000    0.00000000   -0.00121581
     atom    3 type  2   force =    -0.00000000    0.00000000    0.00121581
     The Hubbard contrib.    to forces
     atom    1 type  1   force =     0.00000000    0.00000000    0.00000000
     atom    2 type  2   force =     0.00000000    0.00000000    0.00000000
     atom    3 type  2   force =     0.00000000    0.00000000    0.00000000
     The SCF correction term to forces
     atom    1 type  1   force =    -0.00000000   -0.00000000   -0.00000000
     atom    2 type  2   force =    -0.00000000    0.00000000   -0.00000106
     atom    3 type  2   force =    -0.00000000    0.00000000    0.00000106

     Total force =     0.003641     Total SCF correction =     0.000001


     Computing stress (Cartesian axis) and pressure

          total   stress  (Ry/bohr**3)                   (kbar)     P=      497.92
   0.00337719   0.00000000   0.00000000          496.80        0.00        0.00
   0.00000000   0.00337719   0.00000000            0.00      496.80        0.00
   0.00000000   0.00000000   0.00340001            0.00        0.00      500.16

     Energy error            =      6.9E-05 Ry
     Gradient error          =      2.6E-03 Ry/Bohr
     Cell gradient error     =      3.2E+00 kbar

     number of scf cycles    =   8
     number of bfgs steps    =   7

     enthalpy           old  =     -30.5180328407 Ry
     enthalpy           new  =     -30.5181016696 Ry

     CASE: enthalpy          _new < enthalpy          _old

     new trust radius        =       0.0047454143 bohr
ibrav =      6
 celldm(1) =      4.46293813
 celldm(3) =      2.35513062
Input lattice vectors:
     1.00122309     0.00000000     0.00000000
     0.00000000     1.00122309     0.00000000
     0.00000000     0.00000000     2.35801115
New lattice vectors in INITIAL alat:
     1.00122309     0.00000000     0.00000000
     0.00000000     1.00122309     0.00000000
     0.00000000     0.00000000     2.35801115
New lattice vectors in NEW alat (for information only):
     1.00000000     0.00000000     0.00000000
     0.00000000     1.00000000     0.00000000
     0.00000000     0.00000000     2.35513062
Discrepancy in bohr =     0.000000    0.000000    0.000000
     new conv_thr            =            1.0E-10 Ry

     new unit-cell volume =    209.35223 a.u.^3 (    31.02280 Ang^3 )
     density =      3.37816 g/cm^3

CELL_PARAMETERS (alat=  4.45748624)
   1.001223086   0.000000000   0.000000000
   0.000000000   1.001223086   0.000000000
   0.000000000   0.000000000   2.358011149

ATOMIC_POSITIONS (crystal)
Li            0.5000000000        0.5000000000        0.5000000000
Si            0.0000000000        0.0000000000        0.2020641883
Si            0.0000000000        0.0000000000        0.7979358117



     Writing config-only to output data dir ./output/LiSi.save/
     NEW-OLD atomic charge density approx. for the potential
     extrapolated charge   10.98886, renormalised to   11.00000

     total cpu time spent up to now is       72.0 secs

     Self-consistent Calculation

     iteration #  1     ecut=   100.00 Ry     beta= 0.70
     Davidson diagonalization with overlap
     ethr =  1.00E-06,  avg # of iterations =  2.7

     total cpu time spent up to now is       72.9 secs

     total energy              =     -31.22967101 Ry
     estimated scf accuracy    <       0.00002504 Ry

     iteration #  2     ecut=   100.00 Ry     beta= 0.70
     Davidson diagonalization with overlap
     ethr =  2.28E-07,  avg # of iterations =  2.3

     total cpu time spent up to now is       73.6 secs

     total energy              =     -31.22967330 Ry
     estimated scf accuracy    <       0.00011850 Ry

     iteration #  3     ecut=   100.00 Ry     beta= 0.70
     Davidson diagonalization with overlap
     ethr =  2.28E-07,  avg # of iterations =  1.8

     total cpu time spent up to now is       74.3 secs

     total energy              =     -31.22968936 Ry
     estimated scf accuracy    <       0.00000101 Ry

     iteration #  4     ecut=   100.00 Ry     beta= 0.70
     Davidson diagonalization with overlap
     ethr =  9.21E-09,  avg # of iterations =  2.6

     total cpu time spent up to now is       75.1 secs

     total energy              =     -31.22968966 Ry
     estimated scf accuracy    <       0.00000001 Ry

     iteration #  5     ecut=   100.00 Ry     beta= 0.70
     Davidson diagonalization with overlap
     ethr =  9.29E-11,  avg # of iterations =  3.3

     total cpu time spent up to now is       75.9 secs

     total energy              =     -31.22968966 Ry
     estimated scf accuracy    <          9.6E-10 Ry

     iteration #  6     ecut=   100.00 Ry     beta= 0.70
     Davidson diagonalization with overlap
     ethr =  8.70E-12,  avg # of iterations =  1.9

     total cpu time spent up to now is       76.6 secs

     End of self-consistent calculation

     Number of k-points >= 100: set verbosity='high' to print the bands.

     the Fermi energy is    11.6329 ev

!    total energy              =     -31.22968966 Ry
     estimated scf accuracy    <          1.1E-11 Ry
     smearing contrib. (-TS)   =      -0.00011453 Ry
     internal energy E=F+TS    =     -31.22957513 Ry

     The total energy is F=E-TS. E is the sum of the following terms:
     one-electron contribution =       3.88885569 Ry
     hartree contribution      =       3.18125229 Ry
     xc contribution           =     -10.11215484 Ry
     ewald contribution        =     -28.18752827 Ry

     convergence has been achieved in   6 iterations

     Forces acting on atoms (cartesian axes, Ry/au):

     atom    1 type  1   force =     0.00000000    0.00000000    0.00000000
     atom    2 type  2   force =     0.00000000    0.00000000    0.00020586
     atom    3 type  2   force =     0.00000000    0.00000000   -0.00020586
     The non-local contrib.  to forces
     atom    1 type  1   force =     0.00000000    0.00000000    0.00000000
     atom    2 type  2   force =     0.00000000    0.00000000   -0.00554308
     atom    3 type  2   force =     0.00000000    0.00000000    0.00554308
     The ionic contribution  to forces
     atom    1 type  1   force =    -0.00000000   -0.00000000   -0.00000000
     atom    2 type  2   force =    -0.00000000   -0.00000000   -0.71228098
     atom    3 type  2   force =    -0.00000000   -0.00000000    0.71228098
     The local contribution  to forces
     atom    1 type  1   force =     0.00000000    0.00000000    0.00000000
     atom    2 type  2   force =    -0.00000000    0.00000000    0.71906480
     atom    3 type  2   force =     0.00000000   -0.00000000   -0.71906480
     The core correction contribution to forces
     atom    1 type  1   force =     0.00000000    0.00000000    0.00000000
     atom    2 type  2   force =     0.00000000    0.00000000   -0.00103037
     atom    3 type  2   force =    -0.00000000    0.00000000    0.00103037
     The Hubbard contrib.    to forces
     atom    1 type  1   force =     0.00000000    0.00000000    0.00000000
     atom    2 type  2   force =     0.00000000    0.00000000    0.00000000
     atom    3 type  2   force =     0.00000000    0.00000000    0.00000000
     The SCF correction term to forces
     atom    1 type  1   force =    -0.00000000    0.00000000    0.00000000
     atom    2 type  2   force =     0.00000000   -0.00000000   -0.00000451
     atom    3 type  2   force =     0.00000000    0.00000000    0.00000451

     Total force =     0.000291     Total SCF correction =     0.000006


     Computing stress (Cartesian axis) and pressure

          total   stress  (Ry/bohr**3)                   (kbar)     P=      499.33
   0.00339238   0.00000000   0.00000000          499.04        0.00        0.00
   0.00000000   0.00339238   0.00000000            0.00      499.04        0.00
   0.00000000   0.00000000   0.00339831            0.00        0.00      499.91

     Energy error            =      1.4E-05 Ry
     Gradient error          =      2.1E-04 Ry/Bohr
     Cell gradient error     =      9.6E-01 kbar
ibrav =      6
 celldm(1) =      4.46293813
 celldm(3) =      2.35513062
Input lattice vectors:
     1.00122309     0.00000000     0.00000000
     0.00000000     1.00122309     0.00000000
     0.00000000     0.00000000     2.35801115
New lattice vectors in INITIAL alat:
     1.00122309     0.00000000     0.00000000
     0.00000000     1.00122309     0.00000000
     0.00000000     0.00000000     2.35801115
New lattice vectors in NEW alat (for information only):
     1.00000000     0.00000000     0.00000000
     0.00000000     1.00000000     0.00000000
     0.00000000     0.00000000     2.35513062
Discrepancy in bohr =     0.000000    0.000000    0.000000

     bfgs converged in   9 scf cycles and   8 bfgs steps
     (criteria: energy <  1.0E-04 Ry, force <  1.0E-03 Ry/Bohr, cell <  1.0E+00 kbar)

     End of BFGS Geometry Optimization

     Final enthalpy           =     -30.5181158841 Ry

     File ./output/LiSi.bfgs deleted, as requested
Begin final coordinates
     new unit-cell volume =    209.35223 a.u.^3 (    31.02280 Ang^3 )
     density =      3.37816 g/cm^3

CELL_PARAMETERS (alat=  4.45748624)
   1.001223086   0.000000000   0.000000000
   0.000000000   1.001223086   0.000000000
   0.000000000   0.000000000   2.358011149

ATOMIC_POSITIONS (crystal)
Li            0.5000000000        0.5000000000        0.5000000000
Si            0.0000000000        0.0000000000        0.2020641883
Si            0.0000000000        0.0000000000        0.7979358117
End final coordinates



     Writing config-only to output data dir ./output/LiSi.save/

     Final scf calculation at the relaxed structure.
     The G-vectors are recalculated for the final unit cell
     Results may differ from those at the preceding step.

     Parallelization info
     --------------------
     sticks:   dense  smooth     PW     G-vecs:    dense   smooth      PW
     Min          79      79     23                 3525     3525     577
     Max          80      80     24                 3530     3530     584
     Sum         633     633    185                28219    28219    4629

     Using Slab Decomposition



     bravais-lattice index     =            6
     lattice parameter (alat)  =       4.4575  a.u.
     unit-cell volume          =     209.3522 (a.u.)^3
     number of atoms/cell      =            3
     number of atomic types    =            2
     number of electrons       =        11.00
     number of Kohn-Sham states=           10
     kinetic-energy cutoff     =     100.0000  Ry
     charge density cutoff     =     400.0000  Ry
     scf convergence threshold =      1.0E-10
     mixing beta               =       0.7000
     number of iterations used =            8  plain     mixing
     press convergence thresh. =      1.0E+00
     Exchange-correlation= PBE
                           (   1   4   3   4   0   0   0)

     celldm(1)=   4.457486  celldm(2)=   0.000000  celldm(3)=   2.342410
     celldm(4)=   0.000000  celldm(5)=   0.000000  celldm(6)=   0.000000

     crystal axes: (cart. coord. in units of alat)
               a(1) = (   1.001223   0.000000   0.000000 )  
               a(2) = (   0.000000   1.001223   0.000000 )  
               a(3) = (   0.000000   0.000000   2.358011 )  

     reciprocal axes: (cart. coord. in units 2 pi/alat)
               b(1) = (  0.998778  0.000000  0.000000 )  
               b(2) = (  0.000000  0.998778  0.000000 )  
               b(3) = (  0.000000  0.000000  0.424086 )  


     PseudoPot. # 1 for Li read from file:
     ../pseudo/Li_ONCV_PBE_sr.upf
     MD5 check sum: 50ff420e78310ffa21704f3361e624a4
     Pseudo is Norm-conserving, Zval =  3.0
     Generated using ONCVPSP code by D. R. Hamann
     Using radial grid of 1944 points,  4 beta functions with: 
                l(1) =   0
                l(2) =   0
                l(3) =   1
                l(4) =   1

     PseudoPot. # 2 for Si read from file:
     ../pseudo/Si_ONCV_PBE_sr.upf
     MD5 check sum: e543d271109d17c80368dfa7c482276d
     Pseudo is Norm-conserving + core correction, Zval =  4.0
     Generated using ONCVPSP code by D. R. Hamann
     Using radial grid of 1510 points,  6 beta functions with: 
                l(1) =   0
                l(2) =   0
                l(3) =   1
                l(4) =   1
                l(5) =   2
                l(6) =   2

     atomic species   valence    mass     pseudopotential
        Li             3.00     6.94100     Li( 1.00)
        Si             4.00    28.08550     Si( 1.00)

     16 Sym. Ops., with inversion, found



   Cartesian axes

     site n.     atom                  positions (alat units)
         1           Li  tau(   1) = (   0.5006115   0.5006115   1.1790056  )
         2           Si  tau(   2) = (   0.0000000   0.0000000   0.4764696  )
         3           Si  tau(   3) = (   0.0000000   0.0000000   1.8815415  )

     number of k points=   105  Marzari-Vanderbilt smearing, width (Ry)=  0.0200

     Number of k-points >= 100: set verbosity='high' to print them.

     Dense  grid:    28219 G-vectors     FFT dimensions: (  30,  30,  72)

     Estimated max dynamical RAM per process >      22.75 MB

     Estimated total dynamical RAM >     182.01 MB

     Initial potential from superposition of free atoms

     starting charge      10.9942, renormalised to      11.0000
     Starting wfcs are   10 randomized atomic wfcs

     total cpu time spent up to now is       78.5 secs

     Self-consistent Calculation

     iteration #  1     ecut=   100.00 Ry     beta= 0.70
     Davidson diagonalization with overlap
     c_bands:  2 eigenvalues not converged
     c_bands:  1 eigenvalues not converged
     c_bands:  1 eigenvalues not converged
     c_bands:  1 eigenvalues not converged
     c_bands:  1 eigenvalues not converged
     c_bands:  1 eigenvalues not converged
     c_bands:  1 eigenvalues not converged
     c_bands:  1 eigenvalues not converged
     c_bands:  1 eigenvalues not converged
     c_bands:  1 eigenvalues not converged
     c_bands:  2 eigenvalues not converged
     c_bands:  1 eigenvalues not converged
     c_bands:  1 eigenvalues not converged
     c_bands:  1 eigenvalues not converged
     c_bands:  1 eigenvalues not converged
     c_bands:  1 eigenvalues not converged
     c_bands:  1 eigenvalues not converged
     c_bands:  1 eigenvalues not converged
     c_bands:  2 eigenvalues not converged
     c_bands:  1 eigenvalues not converged
     c_bands:  1 eigenvalues not converged
     c_bands:  1 eigenvalues not converged
     c_bands:  1 eigenvalues not converged
     c_bands:  1 eigenvalues not converged
     c_bands:  1 eigenvalues not converged
     c_bands:  1 eigenvalues not converged
     c_bands:  1 eigenvalues not converged
     c_bands:  1 eigenvalues not converged
     c_bands:  1 eigenvalues not converged
     c_bands:  1 eigenvalues not converged
     c_bands:  1 eigenvalues not converged
     c_bands:  1 eigenvalues not converged
     c_bands:  1 eigenvalues not converged
     c_bands:  1 eigenvalues not converged
     c_bands:  1 eigenvalues not converged
     c_bands:  1 eigenvalues not converged
     c_bands:  1 eigenvalues not converged
     c_bands:  1 eigenvalues not converged
     c_bands:  1 eigenvalues not converged
     c_bands:  1 eigenvalues not converged
     c_bands:  1 eigenvalues not converged
     c_bands:  1 eigenvalues not converged
     c_bands:  1 eigenvalues not converged
     c_bands:  2 eigenvalues not converged
     c_bands:  1 eigenvalues not converged
     c_bands:  2 eigenvalues not converged
     c_bands:  2 eigenvalues not converged
     c_bands:  2 eigenvalues not converged
     c_bands:  1 eigenvalues not converged
     c_bands:  2 eigenvalues not converged
     c_bands:  2 eigenvalues not converged
     c_bands:  1 eigenvalues not converged
     c_bands:  1 eigenvalues not converged
     c_bands:  2 eigenvalues not converged
     c_bands:  2 eigenvalues not converged
     c_bands:  1 eigenvalues not converged
     ethr =  1.00E-06,  avg # of iterations = 18.8

     total cpu time spent up to now is       81.8 secs

     total energy              =     -31.14006796 Ry
     estimated scf accuracy    <       0.16290931 Ry

     iteration #  2     ecut=   100.00 Ry     beta= 0.70
     Davidson diagonalization with overlap
     ethr =  1.48E-03,  avg # of iterations =  2.5

     total cpu time spent up to now is       82.6 secs

     total energy              =     -31.15003444 Ry
     estimated scf accuracy    <       0.49153556 Ry

     iteration #  3     ecut=   100.00 Ry     beta= 0.70
     Davidson diagonalization with overlap
     ethr =  1.48E-03,  avg # of iterations =  2.0

     total cpu time spent up to now is       83.4 secs

     total energy              =     -31.22895983 Ry
     estimated scf accuracy    <       0.00115045 Ry

     iteration #  4     ecut=   100.00 Ry     beta= 0.70
     Davidson diagonalization with overlap
     ethr =  1.05E-05,  avg # of iterations =  5.2

     total cpu time spent up to now is       84.4 secs

     total energy              =     -31.22959509 Ry
     estimated scf accuracy    <       0.00083698 Ry

     iteration #  5     ecut=   100.00 Ry     beta= 0.70
     Davidson diagonalization with overlap
     ethr =  7.61E-06,  avg # of iterations =  1.2

     total cpu time spent up to now is       85.1 secs

     total energy              =     -31.22967948 Ry
     estimated scf accuracy    <       0.00002633 Ry

     iteration #  6     ecut=   100.00 Ry     beta= 0.70
     Davidson diagonalization with overlap
     ethr =  2.39E-07,  avg # of iterations =  2.7

     total cpu time spent up to now is       85.9 secs

     total energy              =     -31.22968921 Ry
     estimated scf accuracy    <       0.00000555 Ry

     iteration #  7     ecut=   100.00 Ry     beta= 0.70
     Davidson diagonalization with overlap
     ethr =  5.04E-08,  avg # of iterations =  1.3

     total cpu time spent up to now is       86.6 secs

     total energy              =     -31.22968996 Ry
     estimated scf accuracy    <       0.00000009 Ry

     iteration #  8     ecut=   100.00 Ry     beta= 0.70
     Davidson diagonalization with overlap
     ethr =  8.58E-10,  avg # of iterations =  3.1

     total cpu time spent up to now is       87.4 secs

     total energy              =     -31.22969000 Ry
     estimated scf accuracy    <          1.4E-09 Ry

     iteration #  9     ecut=   100.00 Ry     beta= 0.70
     Davidson diagonalization with overlap
     ethr =  1.27E-11,  avg # of iterations =  3.2

     total cpu time spent up to now is       88.3 secs

     total energy              =     -31.22969000 Ry
     estimated scf accuracy    <          4.3E-10 Ry

     iteration # 10     ecut=   100.00 Ry     beta= 0.70
     Davidson diagonalization with overlap
     ethr =  3.89E-12,  avg # of iterations =  1.5

     total cpu time spent up to now is       89.0 secs

     End of self-consistent calculation

     Number of k-points >= 100: set verbosity='high' to print the bands.

     the Fermi energy is    11.6329 ev

!    total energy              =     -31.22969000 Ry
     estimated scf accuracy    <          1.7E-12 Ry
     smearing contrib. (-TS)   =      -0.00011452 Ry
     internal energy E=F+TS    =     -31.22957548 Ry

     The total energy is F=E-TS. E is the sum of the following terms:
     one-electron contribution =       3.88885676 Ry
     hartree contribution      =       3.18125119 Ry
     xc contribution           =     -10.11215516 Ry
     ewald contribution        =     -28.18752827 Ry

     convergence has been achieved in  10 iterations

     Forces acting on atoms (cartesian axes, Ry/au):

     atom    1 type  1   force =     0.00000000    0.00000000    0.00000000
     atom    2 type  2   force =     0.00000000    0.00000000    0.00020634
     atom    3 type  2   force =     0.00000000    0.00000000   -0.00020634
     The non-local contrib.  to forces
     atom    1 type  1   force =     0.00000000    0.00000000    0.00000000
     atom    2 type  2   force =     0.00000000    0.00000000   -0.00554312
     atom    3 type  2   force =     0.00000000    0.00000000    0.00554312
     The ionic contribution  to forces
     atom    1 type  1   force =    -0.00000000   -0.00000000   -0.00000000
     atom    2 type  2   force =    -0.00000000   -0.00000000   -0.71228098
     atom    3 type  2   force =    -0.00000000   -0.00000000    0.71228098
     The local contribution  to forces
     atom    1 type  1   force =     0.00000000    0.00000000    0.00000000
     atom    2 type  2   force =     0.00000000    0.00000000    0.71906279
     atom    3 type  2   force =     0.00000000    0.00000000   -0.71906279
     The core correction contribution to forces
     atom    1 type  1   force =     0.00000000    0.00000000    0.00000000
     atom    2 type  2   force =    -0.00000000    0.00000000   -0.00103035
     atom    3 type  2   force =     0.00000000    0.00000000    0.00103035
     The Hubbard contrib.    to forces
     atom    1 type  1   force =     0.00000000    0.00000000    0.00000000
     atom    2 type  2   force =     0.00000000    0.00000000    0.00000000
     atom    3 type  2   force =     0.00000000    0.00000000    0.00000000
     The SCF correction term to forces
     atom    1 type  1   force =    -0.00000000    0.00000000    0.00000000
     atom    2 type  2   force =     0.00000000    0.00000000   -0.00000201
     atom    3 type  2   force =     0.00000000   -0.00000000    0.00000201

     Total force =     0.000292     Total SCF correction =     0.000003


     Computing stress (Cartesian axis) and pressure

          total   stress  (Ry/bohr**3)                   (kbar)     P=      499.32
   0.00339237   0.00000000   0.00000000          499.03        0.00        0.00
   0.00000000   0.00339237   0.00000000            0.00      499.03        0.00
   0.00000000   0.00000000   0.00339829            0.00        0.00      499.91


     Writing all to output data dir ./output/LiSi.save/

     init_run     :      1.23s CPU      1.81s WALL (       2 calls)
     electrons    :     65.73s CPU     72.00s WALL (      10 calls)
     update_pot   :      2.45s CPU      2.50s WALL (       8 calls)
     forces       :      2.36s CPU      2.46s WALL (      10 calls)
     stress       :     10.73s CPU     11.19s WALL (      10 calls)

     Called by init_run:
     wfcinit      :      0.51s CPU      0.54s WALL (       2 calls)
     potinit      :      0.29s CPU      0.67s WALL (       2 calls)
     hinit0       :      0.39s CPU      0.51s WALL (       2 calls)

     Called by electrons:
     c_bands      :     57.40s CPU     62.78s WALL (      75 calls)
     sum_band     :      7.64s CPU      7.97s WALL (      75 calls)
     v_of_rho     :      0.72s CPU      1.55s WALL (      84 calls)
     mix_rho      :      0.05s CPU      0.09s WALL (      75 calls)

     Called by c_bands:
     init_us_2    :      2.02s CPU      2.21s WALL (   18060 calls)
     init_us_2:cp :      1.99s CPU      2.19s WALL (   18060 calls)
     cegterg      :     52.72s CPU     55.16s WALL (    7875 calls)

     Called by *egterg:
     cdiaghg      :      4.13s CPU      4.39s WALL (   32941 calls)
     h_psi        :     43.19s CPU     45.03s WALL (   34096 calls)
     g_psi        :      0.26s CPU      0.27s WALL (   26011 calls)

     Called by h_psi:
     h_psi:calbec :      3.17s CPU      3.30s WALL (   34096 calls)
     vloc_psi     :     37.59s CPU     39.17s WALL (   34096 calls)
     add_vuspsi   :      2.19s CPU      2.28s WALL (   34096 calls)

     General routines
     calbec       :      3.88s CPU      4.05s WALL (   39346 calls)
     fft          :      0.87s CPU      1.91s WALL (    1089 calls)
     ffts         :      0.04s CPU      0.07s WALL (      75 calls)
     fftw         :     38.59s CPU     40.13s WALL (  541708 calls)

     Parallel routines

     PWSCF        :   1m22.80s CPU   1m30.66s WALL


   This run was terminated on:  22: 1:49  10Jan2025            

=------------------------------------------------------------------------------=
   JOB DONE.
=------------------------------------------------------------------------------=
