
     Program PWSCF v.7.2 starts on 28Dec2024 at 19: 2: 1 

     This program is part of the open-source Quantum ESPRESSO suite
     for quantum simulation of materials; please cite
         "P. Giannozzi et al., J. Phys.:Condens. Matter 21 395502 (2009);
         "P. Giannozzi et al., J. Phys.:Condens. Matter 29 465901 (2017);
         "P. Giannozzi et al., J. Chem. Phys. 152 154105 (2020);
          URL http://www.quantum-espresso.org", 
     in publications or presentations arising from this work. More details at
     http://www.quantum-espresso.org/quote

     Parallel version (MPI & OpenMP), running on       8 processor cores
     Number of MPI processes:                 8
     Threads/MPI process:                     1

     MPI processes distributed on     1 nodes
     482130 MiB available memory on the printing compute node when the environment starts

     Waiting for input...
     Reading input from standard input

     Current dimensions of program PWSCF are:
     Max number of different atomic species (ntypx) = 10
     Max number of k-points (npk) =  40000
     Max angular momentum in pseudopotentials (lmaxx) =  4

     R & G space division:  proc/nbgrp/npool/nimage =       8
     Subspace diagonalization in iterative solution of the eigenvalue problem:
     a serial algorithm will be used


     Parallelization info
     --------------------
     sticks:   dense  smooth     PW     G-vecs:    dense   smooth      PW
     Min         133     133     37                 5185     5185     803
     Max         134     134     39                 5187     5187     805
     Sum        1069    1069    305                41487    41487    6431

     Using Slab Decomposition



     bravais-lattice index     =            6
     lattice parameter (alat)  =       6.4675  a.u.
     unit-cell volume          =     429.1945 (a.u.)^3
     number of atoms/cell      =            6
     number of atomic types    =            2
     number of electrons       =        22.00
     number of Kohn-Sham states=           15
     kinetic-energy cutoff     =      80.0000  Ry
     charge density cutoff     =     320.0000  Ry
     scf convergence threshold =      1.0E-08
     mixing beta               =       0.7000
     number of iterations used =            8  plain     mixing
     energy convergence thresh.=      1.0E-04
     force convergence thresh. =      1.0E-03
     press convergence thresh. =      1.0E+00
     Exchange-correlation= PBE
                           (   1   4   3   4   0   0   0)
     nstep                     =           50


     celldm(1)=   6.467528  celldm(2)=   0.000000  celldm(3)=   1.586497
     celldm(4)=   0.000000  celldm(5)=   0.000000  celldm(6)=   0.000000

     crystal axes: (cart. coord. in units of alat)
               a(1) = (   1.000000   0.000000   0.000000 )  
               a(2) = (   0.000000   1.000000   0.000000 )  
               a(3) = (   0.000000   0.000000   1.586497 )  

     reciprocal axes: (cart. coord. in units 2 pi/alat)
               b(1) = (  1.000000  0.000000  0.000000 )  
               b(2) = (  0.000000  1.000000  0.000000 )  
               b(3) = (  0.000000  0.000000  0.630320 )  


     PseudoPot. # 1 for Li read from file:
     ../pseudo/Li_ONCV_PBE_sr.upf
     MD5 check sum: 50ff420e78310ffa21704f3361e624a4
     Pseudo is Norm-conserving, Zval =  3.0
     Generated using ONCVPSP code by D. R. Hamann
     Using radial grid of 1944 points,  4 beta functions with: 
                l(1) =   0
                l(2) =   0
                l(3) =   1
                l(4) =   1

     PseudoPot. # 2 for Si read from file:
     ../pseudo/Si_ONCV_PBE_sr.upf
     MD5 check sum: e543d271109d17c80368dfa7c482276d
     Pseudo is Norm-conserving + core correction, Zval =  4.0
     Generated using ONCVPSP code by D. R. Hamann
     Using radial grid of 1510 points,  6 beta functions with: 
                l(1) =   0
                l(2) =   0
                l(3) =   1
                l(4) =   1
                l(5) =   2
                l(6) =   2

     atomic species   valence    mass     pseudopotential
        Li             3.00     6.94100     Li( 1.00)
        Si             4.00    28.08550     Si( 1.00)

     16 Sym. Ops., with inversion, found ( 8 have fractional translation)



   Cartesian axes

     site n.     atom                  positions (alat units)
         1           Li  tau(   1) = (   0.0000000   0.5000000   0.4060083  )
         2           Li  tau(   2) = (   0.5000000   0.0000000   1.1804885  )
         3           Si  tau(   3) = (   0.0000000   0.0000000   0.7932484  )
         4           Si  tau(   4) = (   0.5000000   0.5000000   0.7932484  )
         5           Si  tau(   5) = (   0.0000000   0.5000000   1.3547667  )
         6           Si  tau(   6) = (   0.5000000   0.0000000   0.2317301  )

     number of k points=    60  Marzari-Vanderbilt smearing, width (Ry)=  0.0200
                       cart. coord. in units 2pi/alat
        k(    1) = (   0.0000000   0.0000000   0.0000000), wk =   0.0041152
        k(    2) = (   0.0000000   0.0000000   0.1050533), wk =   0.0082305
        k(    3) = (   0.0000000   0.0000000   0.2101065), wk =   0.0082305
        k(    4) = (   0.0000000   0.0000000  -0.3151598), wk =   0.0041152
        k(    5) = (   0.0000000   0.1111111   0.0000000), wk =   0.0164609
        k(    6) = (   0.0000000   0.1111111   0.1050533), wk =   0.0329218
        k(    7) = (   0.0000000   0.1111111   0.2101065), wk =   0.0329218
        k(    8) = (   0.0000000   0.1111111  -0.3151598), wk =   0.0164609
        k(    9) = (   0.0000000   0.2222222   0.0000000), wk =   0.0164609
        k(   10) = (   0.0000000   0.2222222   0.1050533), wk =   0.0329218
        k(   11) = (   0.0000000   0.2222222   0.2101065), wk =   0.0329218
        k(   12) = (   0.0000000   0.2222222  -0.3151598), wk =   0.0164609
        k(   13) = (   0.0000000   0.3333333   0.0000000), wk =   0.0164609
        k(   14) = (   0.0000000   0.3333333   0.1050533), wk =   0.0329218
        k(   15) = (   0.0000000   0.3333333   0.2101065), wk =   0.0329218
        k(   16) = (   0.0000000   0.3333333  -0.3151598), wk =   0.0164609
        k(   17) = (   0.0000000   0.4444444   0.0000000), wk =   0.0164609
        k(   18) = (   0.0000000   0.4444444   0.1050533), wk =   0.0329218
        k(   19) = (   0.0000000   0.4444444   0.2101065), wk =   0.0329218
        k(   20) = (   0.0000000   0.4444444  -0.3151598), wk =   0.0164609
        k(   21) = (   0.1111111   0.1111111   0.0000000), wk =   0.0164609
        k(   22) = (   0.1111111   0.1111111   0.1050533), wk =   0.0329218
        k(   23) = (   0.1111111   0.1111111   0.2101065), wk =   0.0329218
        k(   24) = (   0.1111111   0.1111111  -0.3151598), wk =   0.0164609
        k(   25) = (   0.1111111   0.2222222   0.0000000), wk =   0.0329218
        k(   26) = (   0.1111111   0.2222222   0.1050533), wk =   0.0658436
        k(   27) = (   0.1111111   0.2222222   0.2101065), wk =   0.0658436
        k(   28) = (   0.1111111   0.2222222  -0.3151598), wk =   0.0329218
        k(   29) = (   0.1111111   0.3333333   0.0000000), wk =   0.0329218
        k(   30) = (   0.1111111   0.3333333   0.1050533), wk =   0.0658436
        k(   31) = (   0.1111111   0.3333333   0.2101065), wk =   0.0658436
        k(   32) = (   0.1111111   0.3333333  -0.3151598), wk =   0.0329218
        k(   33) = (   0.1111111   0.4444444   0.0000000), wk =   0.0329218
        k(   34) = (   0.1111111   0.4444444   0.1050533), wk =   0.0658436
        k(   35) = (   0.1111111   0.4444444   0.2101065), wk =   0.0658436
        k(   36) = (   0.1111111   0.4444444  -0.3151598), wk =   0.0329218
        k(   37) = (   0.2222222   0.2222222   0.0000000), wk =   0.0164609
        k(   38) = (   0.2222222   0.2222222   0.1050533), wk =   0.0329218
        k(   39) = (   0.2222222   0.2222222   0.2101065), wk =   0.0329218
        k(   40) = (   0.2222222   0.2222222  -0.3151598), wk =   0.0164609
        k(   41) = (   0.2222222   0.3333333   0.0000000), wk =   0.0329218
        k(   42) = (   0.2222222   0.3333333   0.1050533), wk =   0.0658436
        k(   43) = (   0.2222222   0.3333333   0.2101065), wk =   0.0658436
        k(   44) = (   0.2222222   0.3333333  -0.3151598), wk =   0.0329218
        k(   45) = (   0.2222222   0.4444444   0.0000000), wk =   0.0329218
        k(   46) = (   0.2222222   0.4444444   0.1050533), wk =   0.0658436
        k(   47) = (   0.2222222   0.4444444   0.2101065), wk =   0.0658436
        k(   48) = (   0.2222222   0.4444444  -0.3151598), wk =   0.0329218
        k(   49) = (   0.3333333   0.3333333   0.0000000), wk =   0.0164609
        k(   50) = (   0.3333333   0.3333333   0.1050533), wk =   0.0329218
        k(   51) = (   0.3333333   0.3333333   0.2101065), wk =   0.0329218
        k(   52) = (   0.3333333   0.3333333  -0.3151598), wk =   0.0164609
        k(   53) = (   0.3333333   0.4444444   0.0000000), wk =   0.0329218
        k(   54) = (   0.3333333   0.4444444   0.1050533), wk =   0.0658436
        k(   55) = (   0.3333333   0.4444444   0.2101065), wk =   0.0658436
        k(   56) = (   0.3333333   0.4444444  -0.3151598), wk =   0.0329218
        k(   57) = (   0.4444444   0.4444444   0.0000000), wk =   0.0164609
        k(   58) = (   0.4444444   0.4444444   0.1050533), wk =   0.0329218
        k(   59) = (   0.4444444   0.4444444   0.2101065), wk =   0.0329218
        k(   60) = (   0.4444444   0.4444444  -0.3151598), wk =   0.0164609

     Dense  grid:    41487 G-vectors     FFT dimensions: (  40,  40,  60)

     Estimated max dynamical RAM per process >      25.26 MB

     Estimated total dynamical RAM >     202.04 MB

     Initial potential from superposition of free atoms

     starting charge      21.9884, renormalised to      22.0000
     Starting wfcs are   20 randomized atomic wfcs

     total cpu time spent up to now is        1.8 secs

     Self-consistent Calculation

     iteration #  1     ecut=    80.00 Ry     beta= 0.70
     Davidson diagonalization with overlap
     ethr =  1.00E-02,  avg # of iterations =  5.3

     Threshold (ethr) on eigenvalues was too large:
     Diagonalizing with lowered threshold

     Davidson diagonalization with overlap
     ethr =  5.42E-04,  avg # of iterations =  4.2

     total cpu time spent up to now is        4.7 secs

     total energy              =     -62.25019689 Ry
     estimated scf accuracy    <       0.13531022 Ry

     iteration #  2     ecut=    80.00 Ry     beta= 0.70
     Davidson diagonalization with overlap
     ethr =  6.15E-04,  avg # of iterations =  3.4

     total cpu time spent up to now is        5.9 secs

     total energy              =     -62.24009933 Ry
     estimated scf accuracy    <       0.46555342 Ry

     iteration #  3     ecut=    80.00 Ry     beta= 0.70
     Davidson diagonalization with overlap
     ethr =  6.15E-04,  avg # of iterations =  2.3

     total cpu time spent up to now is        7.0 secs

     total energy              =     -62.31771509 Ry
     estimated scf accuracy    <       0.00111214 Ry

     iteration #  4     ecut=    80.00 Ry     beta= 0.70
     Davidson diagonalization with overlap
     ethr =  5.06E-06,  avg # of iterations =  7.3

     total cpu time spent up to now is        8.8 secs

     total energy              =     -62.31827172 Ry
     estimated scf accuracy    <       0.00059035 Ry

     iteration #  5     ecut=    80.00 Ry     beta= 0.70
     Davidson diagonalization with overlap
     ethr =  2.68E-06,  avg # of iterations =  1.8

     total cpu time spent up to now is        9.7 secs

     total energy              =     -62.31834120 Ry
     estimated scf accuracy    <       0.00001112 Ry

     iteration #  6     ecut=    80.00 Ry     beta= 0.70
     Davidson diagonalization with overlap
     ethr =  5.05E-08,  avg # of iterations =  4.2

     total cpu time spent up to now is       11.0 secs

     total energy              =     -62.31834740 Ry
     estimated scf accuracy    <       0.00000557 Ry

     iteration #  7     ecut=    80.00 Ry     beta= 0.70
     Davidson diagonalization with overlap
     ethr =  2.53E-08,  avg # of iterations =  2.0

     total cpu time spent up to now is       12.0 secs

     total energy              =     -62.31834819 Ry
     estimated scf accuracy    <       0.00000004 Ry

     iteration #  8     ecut=    80.00 Ry     beta= 0.70
     Davidson diagonalization with overlap
     ethr =  1.85E-10,  avg # of iterations =  4.4

     total cpu time spent up to now is       13.4 secs

     total energy              =     -62.31834823 Ry
     estimated scf accuracy    <       0.00000001 Ry

     iteration #  9     ecut=    80.00 Ry     beta= 0.70
     Davidson diagonalization with overlap
     ethr =  4.98E-11,  avg # of iterations =  1.5

     total cpu time spent up to now is       14.3 secs

     End of self-consistent calculation

          k = 0.0000 0.0000 0.0000 (  5201 PWs)   bands (ev):

   -34.6067 -34.5987  -3.2421   1.6768   2.2009   6.8017   6.8017   9.4508
    11.4716  12.2017  12.2017  12.5559  12.5559  13.0490  13.2951

          k = 0.0000 0.0000 0.1051 (  5173 PWs)   bands (ev):

   -34.6062 -34.5991  -3.1840   0.7303   3.4390   6.8674   6.8674   9.5275
    11.1091  11.1091  11.4647  11.8284  12.9322  13.3849  13.9441

          k = 0.0000 0.0000 0.2101 (  5153 PWs)   bands (ev):

   -34.6050 -34.6003  -3.0503  -0.0748   5.1375   7.0188   7.0188   9.5508
     9.7101  10.2368  10.2368  11.4565  12.3193  13.3057  15.7320

          k = 0.0000 0.0000-0.3152 (  5118 PWs)   bands (ev):

   -34.6041 -34.6012  -2.9711  -0.3804   6.5844   7.1085   7.1085   7.8885
     9.8237   9.9046   9.9046  11.4511  12.0316  13.2856  17.4449

          k = 0.0000 0.1111 0.0000 (  5191 PWs)   bands (ev):

   -34.6060 -34.5985  -3.1089   1.8219   2.2234   5.7528   6.9425  10.1552
    10.7288  10.8574  12.3105  12.3320  12.6903  13.9358  14.1896

          k = 0.0000 0.1111 0.1051 (  5185 PWs)   bands (ev):

   -34.6056 -34.5989  -3.0508   0.8392   3.4797   5.8300   7.0080   9.5950
    10.3210  11.2469  11.7989  12.0876  12.5427  14.0605  14.3161

          k = 0.0000 0.1111 0.2101 (  5183 PWs)   bands (ev):

   -34.6045 -34.6000  -2.9170   0.0364   5.0578   6.0762   7.1591   8.6590
    10.0185  10.3772  10.4414  12.1562  12.6914  14.0246  15.2166

          k = 0.0000 0.1111-0.3152 (  5176 PWs)   bands (ev):

   -34.6036 -34.6009  -2.8378  -0.2681   5.7924   6.8895   7.2486   7.6313
     9.0650  10.0458  10.5088  12.2620  12.5847  13.9720  16.6837

          k = 0.0000 0.2222 0.0000 (  5200 PWs)   bands (ev):

   -34.6043 -34.5981  -2.7104   2.0726   2.2549   4.4770   7.3646   8.7682
     8.9770  11.0138  12.6417  13.0893  13.9251  14.3533  14.3781

          k = 0.0000 0.2222 0.1051 (  5173 PWs)   bands (ev):

   -34.6039 -34.5985  -2.6527   1.1014   3.2599   4.7724   7.4298   7.7747
    10.0991  11.0983  11.6453  12.5908  13.7685  14.3546  14.5615

          k = 0.0000 0.2222 0.2101 (  5179 PWs)   bands (ev):

   -34.6030 -34.5994  -2.5196   0.3352   3.9049   5.7763   7.0506   7.5799
    10.3564  10.7920  10.8607  11.6641  13.9646  14.3468  14.6130

          k = 0.0000 0.2222-0.3152 (  5176 PWs)   bands (ev):

   -34.6023 -34.6001  -2.4406   0.0412   4.0968   6.3179   7.2604   7.6688
     8.9931  10.4647  10.9419  12.1478  14.0531  14.6119  14.9584

          k = 0.0000 0.3333 0.0000 (  5202 PWs)   bands (ev):

   -34.6020 -34.5980  -2.0514   1.2029   2.9649   4.2435   7.0482   7.4399
     8.0677  11.5346  11.7941  13.6339  13.7317  14.0987  14.9972

          k = 0.0000 0.3333 0.1051 (  5193 PWs)   bands (ev):

   -34.6018 -34.5982  -1.9957   0.9965   2.7564   4.8602   6.2697   8.1323
     8.5797  11.5364  11.7665  12.5869  13.1947  14.0079  14.9476

          k = 0.0000 0.3333 0.2101 (  5183 PWs)   bands (ev):

   -34.6012 -34.5988  -1.8669   0.5743   2.7020   4.9998   6.7935   8.2807
     9.9870  11.0478  11.3816  11.5271  12.2633  13.7543  15.0064

          k = 0.0000 0.3333-0.3152 (  5176 PWs)   bands (ev):

   -34.6007 -34.5993  -1.7903   0.3637   2.7442   4.7705   7.9112   8.3684
     9.5477  11.1064  11.1554  11.2304  12.2971  13.7925  13.9743

          k = 0.0000 0.4444 0.0000 (  5190 PWs)   bands (ev):

   -34.5999 -34.5985  -1.1438  -0.0201   3.9045   4.5742   5.7999   6.2048
     9.0502  10.3060  12.1994  13.0539  14.4079  14.4831  15.8251

          k = 0.0000 0.4444 0.1051 (  5194 PWs)   bands (ev):

   -34.5998 -34.5986  -1.0957  -0.0060   3.3157   4.3391   6.1878   7.2199
     9.1135  10.3649  12.1532  12.9082  13.4032  14.3277  14.4939

          k = 0.0000 0.4444 0.2101 (  5199 PWs)   bands (ev):

   -34.5996 -34.5988  -0.9862   0.0108   2.7430   3.7076   7.6067   8.7192
     9.2587  10.4963  11.7386  11.9207  12.5855  13.2524  13.7361

          k = 0.0000 0.4444-0.3152 (  5218 PWs)   bands (ev):

   -34.5994 -34.5989  -0.9222   0.0099   2.5512   3.4432   8.7996   9.3441
     9.8160  10.5195  10.5698  11.1791  12.2763  12.9891  13.4849

          k = 0.1111 0.1111 0.0000 (  5195 PWs)   bands (ev):

   -34.6054 -34.5983  -2.9753   1.9671   2.2669   5.4645   6.3641  10.4020
    10.4887  11.2169  11.4691  11.7268  12.7009  14.1593  15.0869

          k = 0.1111 0.1111 0.1051 (  5171 PWs)   bands (ev):

   -34.6050 -34.5987  -2.9173   0.9506   3.5494   5.5350   6.4319   9.6181
     9.8098  11.3610  11.9386  12.6710  12.7410  12.8883  14.4909

          k = 0.1111 0.1111 0.2101 (  5178 PWs)   bands (ev):

   -34.6039 -34.5998  -2.7835   0.1500   5.1147   5.6994   6.6368   8.7808
     8.8179  10.5187  11.5291  12.5891  13.4419  13.8248  14.4640

          k = 0.1111 0.1111-0.3152 (  5180 PWs)   bands (ev):

   -34.6031 -34.6006  -2.7042  -0.1536   5.7985   6.0386   7.2619   7.6215
     8.4477   9.7683  11.6252  12.5879  13.7607  13.8795  14.6157

          k = 0.1111 0.2222 0.0000 (  5187 PWs)   bands (ev):

   -34.6037 -34.5979  -2.5759   2.1848   2.4002   4.3872   6.5027   8.9303
     8.9707  11.2679  11.6550  12.2698  12.7437  14.5147  15.3586

          k = 0.1111 0.2222 0.1051 (  5182 PWs)   bands (ev):

   -34.6033 -34.5982  -2.5182   1.2233   3.4036   4.6583   6.5606   7.9026
     9.7502  10.8430  12.1608  12.3718  12.7459  13.9030  14.6344

          k = 0.1111 0.2222 0.2101 (  5169 PWs)   bands (ev):

   -34.6025 -34.5991  -2.3850   0.4571   4.0199   5.6329   6.6415   7.2664
     9.1791  10.6659  11.9106  12.4301  13.0080  14.5307  14.6779

          k = 0.1111 0.2222-0.3152 (  5178 PWs)   bands (ev):

   -34.6018 -34.5998  -2.3059   0.1632   4.1946   6.3671   6.4511   7.6025
     8.3984   9.8671  12.2856  12.6969  13.1934  14.5374  14.7187

          k = 0.1111 0.3333 0.0000 (  5179 PWs)   bands (ev):

   -34.6015 -34.5977  -1.9153   1.3500   3.1102   4.1957   6.8332   7.4601
     7.4713  10.3681  12.2765  12.6079  12.8523  15.3117  15.9322

          k = 0.1111 0.3333 0.1051 (  5187 PWs)   bands (ev):

   -34.6013 -34.5979  -1.8594   1.1426   2.8622   4.8707   6.2503   7.2307
     8.6416  10.2588  11.5025  12.8206  13.4013  14.1283  15.1207

          k = 0.1111 0.3333 0.2101 (  5184 PWs)   bands (ev):

   -34.6007 -34.5985  -1.7304   0.7157   2.7966   5.1165   6.5461   7.4733
     9.5715  10.3292  10.5827  12.4467  12.7954  13.7019  15.1186

          k = 0.1111 0.3333-0.3152 (  5194 PWs)   bands (ev):

   -34.6002 -34.5989  -1.6536   0.5028   2.8376   4.8892   7.0526   8.1740
     9.0717   9.8767  11.0458  12.4525  12.4736  13.0720  15.1917

          k = 0.1111 0.4444 0.0000 (  5192 PWs)   bands (ev):

   -34.5995 -34.5982  -1.0052   0.1225   4.0482   4.6362   5.8205   6.2017
     8.0287   9.1030  13.0473  13.2193  13.6333  14.5495  14.7280

          k = 0.1111 0.4444 0.1051 (  5198 PWs)   bands (ev):

   -34.5994 -34.5982  -0.9567   0.1378   3.4198   4.4508   6.1561   7.2007
     8.1085   9.1305  12.1409  13.0555  13.7193  14.1337  14.6715

          k = 0.1111 0.4444 0.2101 (  5200 PWs)   bands (ev):

   -34.5992 -34.5984  -0.8463   0.1570   2.8385   3.8157   7.4570   8.1687
     8.7742   9.1901  11.0913  12.1607  12.9645  13.1301  14.8480

          k = 0.1111 0.4444-0.3152 (  5192 PWs)   bands (ev):

   -34.5990 -34.5986  -0.7817   0.1571   2.6449   3.5507   7.9970   8.9362
     9.1185   9.7555  10.1698  11.3249  12.4193  12.7722  14.6377

          k = 0.2222 0.2222 0.0000 (  5149 PWs)   bands (ev):

   -34.6021 -34.5974  -2.1737   2.3963   2.8333   3.8255   5.8109   8.6997
     8.8810   9.5000  10.1937  11.6565  14.5185  14.7739  15.3914

          k = 0.2222 0.2222 0.1051 (  5185 PWs)   bands (ev):

   -34.6018 -34.5977  -2.1162   1.5419   3.8132   3.8980   5.9621   7.9683
     8.3438  10.0687  11.2090  11.5909  13.9293  14.5734  14.8868

          k = 0.2222 0.2222 0.2101 (  5181 PWs)   bands (ev):

   -34.6011 -34.5984  -1.9833   0.7950   4.0676   4.7494   6.4839   7.1329
     7.8540  10.2726  11.2505  12.9061  13.1502  14.2015  14.6842

          k = 0.2222 0.2222-0.3152 (  5166 PWs)   bands (ev):

   -34.6006 -34.5989  -1.9042   0.5066   4.1704   5.0691   6.7963   6.8784
     7.9152   9.5508  11.3314  13.0783  14.0699  14.4413  14.4818

          k = 0.2222 0.3333 0.0000 (  5187 PWs)   bands (ev):

   -34.6001 -34.5971  -1.5083   1.7892   3.5430   3.7492   5.9422   7.4007
     7.6347   8.4683  10.4007  11.4394  14.0615  14.2299  15.5436

          k = 0.2222 0.3333 0.1051 (  5186 PWs)   bands (ev):

   -34.5999 -34.5972  -1.4523   1.5748   3.0878   4.5316   5.9467   6.7718
     8.2241   8.4954  10.5027  11.8849  13.0493  14.8791  15.3430

          k = 0.2222 0.3333 0.2101 (  5183 PWs)   bands (ev):

   -34.5995 -34.5977  -1.3229   1.1280   3.0198   5.1731   5.5153   7.1942
     7.8893   9.0495  10.7846  11.9913  12.6565  14.2854  15.1463

          k = 0.2222 0.3333-0.3152 (  5194 PWs)   bands (ev):

   -34.5991 -34.5980  -1.2457   0.9080   3.0672   5.2286   5.3977   7.4151
     8.4235   8.7402  10.7944  11.5523  13.1480  14.2089  15.0955

          k = 0.2222 0.4444 0.0000 (  5202 PWs)   bands (ev):

   -34.5984 -34.5973  -0.5908   0.5488   4.4735   4.5523   5.7745   5.9722
     6.9602   7.5979  11.2233  11.7758  12.8686  13.1776  16.1744

          k = 0.2222 0.4444 0.1051 (  5185 PWs)   bands (ev):

   -34.5983 -34.5974  -0.5414   0.5675   3.6637   4.7400   5.6355   6.6918
     7.2509   7.8040  10.7091  11.5679  13.0168  14.0499  15.8151

          k = 0.2222 0.4444 0.2101 (  5194 PWs)   bands (ev):

   -34.5981 -34.5975  -0.4286   0.5938   3.0850   4.1143   6.0900   7.1656
     7.9016   8.5492  10.3241  10.8974  13.2454  14.0907  15.3870

          k = 0.2222 0.4444-0.3152 (  5184 PWs)   bands (ev):

   -34.5980 -34.5976  -0.3624   0.5972   2.8939   3.8526   6.2247   7.2236
     8.5443   8.8956  10.4149  10.4389  12.8805  13.4294  15.9128

          k = 0.3333 0.3333 0.0000 (  5189 PWs)   bands (ev):

   -34.5985 -34.5964  -0.8350   2.4337   2.6688   4.2505   5.8484   6.3621
     7.5510   7.7658   9.1333  10.7658  12.4805  13.0083  17.6491

          k = 0.3333 0.3333 0.1051 (  5192 PWs)   bands (ev):

   -34.5983 -34.5966  -0.7799   2.1592   2.7418   4.3116   5.9883   6.4996
     6.8300   7.9029  10.1502  10.7841  11.8513  13.8949  16.0987

          k = 0.3333 0.3333 0.2101 (  5186 PWs)   bands (ev):

   -34.5980 -34.5969  -0.6522   1.6935   2.9126   4.4141   5.8233   5.9935
     7.2212   8.2620  10.5842  11.4581  11.9046  14.1744  15.5834

          k = 0.3333 0.3333-0.3152 (  5190 PWs)   bands (ev):

   -34.5978 -34.5971  -0.5761   1.4784   3.0161   4.4665   5.6553   5.7125
     7.5741   8.6096  10.4639  11.0994  13.5311  13.9676  14.5032

          k = 0.3333 0.4444 0.0000 (  5182 PWs)   bands (ev):

   -34.5971 -34.5964   0.0937   1.2517   3.5522   4.8201   5.2217   5.9883
     6.9679   7.0997   9.5342  10.3844  11.5530  11.9775  18.5396

          k = 0.3333 0.4444 0.1051 (  5192 PWs)   bands (ev):

   -34.5970 -34.5964   0.1440   1.2769   3.4154   4.6876   5.0156   5.9366
     6.9734   7.5221   9.8166  10.2300  11.7557  12.6611  16.8522

          k = 0.3333 0.4444 0.2101 (  5192 PWs)   bands (ev):

   -34.5969 -34.5965   0.2592   1.3155   3.1638   4.3657   4.8809   5.6857
     7.2555   7.9136  10.1478  10.6995  12.5420  13.6190  15.2475

          k = 0.3333 0.4444-0.3152 (  5180 PWs)   bands (ev):

   -34.5968 -34.5966   0.3269   1.3236   3.0588   4.1861   4.8638   5.5893
     7.3087   8.0505  10.5011  11.0776  13.1973  13.8242  14.4808

          k = 0.4444 0.4444 0.0000 (  5189 PWs)   bands (ev):

   -34.5961 -34.5959   1.0350   2.0798   2.3816   3.4703   6.0780   6.4266
     6.9747   7.0902   8.5818   9.1681  10.9726  11.1732  19.6262

          k = 0.4444 0.4444 0.1051 (  5191 PWs)   bands (ev):

   -34.5961 -34.5959   1.0845   2.1529   2.3563   3.4804   5.5518   6.2555
     6.5909   7.1279   9.5643   9.6001  11.1410  11.5719  17.7103

          k = 0.4444 0.4444 0.2101 (  5173 PWs)   bands (ev):

   -34.5960 -34.5959   1.1967   2.2941   2.3238   3.5087   4.9675   5.4180
     6.5958   7.0709  10.5424  11.3663  11.5350  12.5101  15.5785

          k = 0.4444 0.4444-0.3152 (  5160 PWs)   bands (ev):

   -34.5960 -34.5959   1.2619   2.2546   2.4272   3.5295   4.7346   5.0794
     6.5811   7.0165  11.2180  11.6974  12.9983  13.6526  14.0472

     the Fermi energy is    11.5041 ev

!    total energy              =     -62.31834823 Ry
     estimated scf accuracy    <          6.1E-10 Ry
     smearing contrib. (-TS)   =      -0.00052650 Ry
     internal energy E=F+TS    =     -62.31782172 Ry

     The total energy is F=E-TS. E is the sum of the following terms:
     one-electron contribution =       5.68365814 Ry
     hartree contribution      =       7.17611544 Ry
     xc contribution           =     -20.07200663 Ry
     ewald contribution        =     -55.10558868 Ry

     convergence has been achieved in   9 iterations

     Forces acting on atoms (cartesian axes, Ry/au):

     atom    1 type  1   force =     0.00000000    0.00000000   -0.08760827
     atom    2 type  1   force =     0.00000000    0.00000000    0.08760827
     atom    3 type  2   force =     0.00000000    0.00000000    0.00000000
     atom    4 type  2   force =     0.00000000    0.00000000    0.00000000
     atom    5 type  2   force =     0.00000000    0.00000000    0.01362299
     atom    6 type  2   force =     0.00000000    0.00000000   -0.01362299
     The non-local contrib.  to forces
     atom    1 type  1   force =     0.00000000    0.00000000   -0.00110391
     atom    2 type  1   force =     0.00000000    0.00000000    0.00110391
     atom    3 type  2   force =     0.00000000    0.00000000   -0.00000000
     atom    4 type  2   force =     0.00000000    0.00000000    0.00000000
     atom    5 type  2   force =     0.00000000    0.00000000   -0.03418877
     atom    6 type  2   force =     0.00000000    0.00000000    0.03418877
     The ionic contribution  to forces
     atom    1 type  1   force =     0.00000000   -0.00000000   -1.29589554
     atom    2 type  1   force =    -0.00000000   -0.00000000    1.29589554
     atom    3 type  2   force =    -0.00000000   -0.00000000   -0.00000000
     atom    4 type  2   force =     0.00000000    0.00000000   -0.00000000
     atom    5 type  2   force =    -0.00000000    0.00000000    1.07184958
     atom    6 type  2   force =     0.00000000    0.00000000   -1.07184958
     The local contribution  to forces
     atom    1 type  1   force =     0.00000000    0.00000000    1.20941530
     atom    2 type  1   force =     0.00000000    0.00000000   -1.20941530
     atom    3 type  2   force =     0.00000000   -0.00000000   -0.00000000
     atom    4 type  2   force =    -0.00000000   -0.00000000    0.00000000
     atom    5 type  2   force =     0.00000000    0.00000000   -1.02424902
     atom    6 type  2   force =     0.00000000   -0.00000000    1.02424902
     The core correction contribution to forces
     atom    1 type  1   force =     0.00000000    0.00000000    0.00000000
     atom    2 type  1   force =     0.00000000    0.00000000    0.00000000
     atom    3 type  2   force =     0.00000000   -0.00000000   -0.00000000
     atom    4 type  2   force =    -0.00000000   -0.00000000   -0.00000000
     atom    5 type  2   force =    -0.00000000   -0.00000000    0.00019063
     atom    6 type  2   force =    -0.00000000   -0.00000000   -0.00019063
     The Hubbard contrib.    to forces
     atom    1 type  1   force =     0.00000000    0.00000000    0.00000000
     atom    2 type  1   force =     0.00000000    0.00000000    0.00000000
     atom    3 type  2   force =     0.00000000    0.00000000    0.00000000
     atom    4 type  2   force =     0.00000000    0.00000000    0.00000000
     atom    5 type  2   force =     0.00000000    0.00000000    0.00000000
     atom    6 type  2   force =     0.00000000    0.00000000    0.00000000
     The SCF correction term to forces
     atom    1 type  1   force =     0.00000000    0.00000000   -0.00002412
     atom    2 type  1   force =     0.00000000   -0.00000000    0.00002412
     atom    3 type  2   force =    -0.00000000    0.00000000   -0.00000000
     atom    4 type  2   force =     0.00000000   -0.00000000   -0.00000000
     atom    5 type  2   force =     0.00000000   -0.00000000    0.00002057
     atom    6 type  2   force =    -0.00000000    0.00000000   -0.00002057

     Total force =     0.125386     Total SCF correction =     0.000045


     Computing stress (Cartesian axis) and pressure

          total   stress  (Ry/bohr**3)                   (kbar)     P=      398.86
   0.00217329   0.00000000   0.00000000          319.70        0.00        0.00
   0.00000000   0.00217329   0.00000000            0.00      319.70        0.00
   0.00000000   0.00000000   0.00378764            0.00        0.00      557.18


     BFGS Geometry Optimization
     Energy error            =      0.0E+00 Ry
     Gradient error          =      8.8E-02 Ry/Bohr
     Cell gradient error     =      1.8E+02 kbar

     number of scf cycles    =   1
     number of bfgs steps    =   0

     enthalpy           new  =     -60.8595458981 Ry

     new trust radius        =       0.1269581504 bohr
ibrav =      6
 celldm(1) =      6.26935603
 celldm(3) =      1.65254965
Input lattice vectors:
     0.96935896     0.00000000     0.00000000
     0.00000000     0.96935896     0.00000000
     0.00000000     0.00000000     1.60191380
New lattice vectors in INITIAL alat:
     0.96935896     0.00000000     0.00000000
     0.00000000     0.96935896     0.00000000
     0.00000000     0.00000000     1.60191380
New lattice vectors in NEW alat (for information only):
     1.00000000     0.00000000     0.00000000
     0.00000000     1.00000000     0.00000000
     0.00000000     0.00000000     1.65254965
Discrepancy in bohr =     0.000000    0.000000    0.000000
     new conv_thr            =       0.0000000100 Ry

     new unit-cell volume =    407.21458 a.u.^3 (    60.34297 Ang^3 )
     density =      3.47348 g/cm^3

CELL_PARAMETERS (alat=  6.46752782)
   0.969358958   0.000000000   0.000000000
   0.000000000   0.969358958   0.000000000
   0.000000000   0.000000000   1.601913803

ATOMIC_POSITIONS (crystal)
Li            0.0000000000        0.5000000000        0.2473767744
Li            0.5000000000        0.0000000000        0.7526232256
Si            0.0000000000        0.0000000000        0.5000000000
Si            0.5000000000        0.5000000000        0.5000000000
Si            0.0000000000        0.5000000000        0.8552636850
Si            0.5000000000        0.0000000000        0.1447363150



     Writing config-only to output data dir ./output/LiSi.save/
     NEW-OLD atomic charge density approx. for the potential
     extrapolated charge   20.81315, renormalised to   22.00000

     total cpu time spent up to now is       17.4 secs

     Self-consistent Calculation

     iteration #  1     ecut=    80.00 Ry     beta= 0.70
     Davidson diagonalization with overlap
     c_bands:  1 eigenvalues not converged
     ethr =  1.00E-06,  avg # of iterations = 11.7

     total cpu time spent up to now is       20.4 secs

     total energy              =     -62.25191124 Ry
     estimated scf accuracy    <       0.02410655 Ry

     iteration #  2     ecut=    80.00 Ry     beta= 0.70
     Davidson diagonalization with overlap
     ethr =  1.10E-04,  avg # of iterations =  5.2

     total cpu time spent up to now is       21.9 secs

     total energy              =     -62.26495717 Ry
     estimated scf accuracy    <       0.25388247 Ry

     iteration #  3     ecut=    80.00 Ry     beta= 0.70
     Davidson diagonalization with overlap
     ethr =  1.10E-04,  avg # of iterations =  3.4

     total cpu time spent up to now is       23.0 secs

     total energy              =     -62.28245672 Ry
     estimated scf accuracy    <       0.02005166 Ry

     iteration #  4     ecut=    80.00 Ry     beta= 0.70
     Davidson diagonalization with overlap
     ethr =  9.11E-05,  avg # of iterations =  1.7

     total cpu time spent up to now is       23.9 secs

     total energy              =     -62.28228102 Ry
     estimated scf accuracy    <       0.00418730 Ry

     iteration #  5     ecut=    80.00 Ry     beta= 0.70
     Davidson diagonalization with overlap
     ethr =  1.90E-05,  avg # of iterations =  4.2

     total cpu time spent up to now is       25.1 secs

     total energy              =     -62.28307687 Ry
     estimated scf accuracy    <       0.00001612 Ry

     iteration #  6     ecut=    80.00 Ry     beta= 0.70
     Davidson diagonalization with overlap
     ethr =  7.33E-08,  avg # of iterations =  5.5

     total cpu time spent up to now is       26.6 secs

     total energy              =     -62.28312111 Ry
     estimated scf accuracy    <       0.00001661 Ry

     iteration #  7     ecut=    80.00 Ry     beta= 0.70
     Davidson diagonalization with overlap
     ethr =  7.33E-08,  avg # of iterations =  2.0

     total cpu time spent up to now is       27.7 secs

     total energy              =     -62.28312521 Ry
     estimated scf accuracy    <       0.00000172 Ry

     iteration #  8     ecut=    80.00 Ry     beta= 0.70
     Davidson diagonalization with overlap
     ethr =  7.80E-09,  avg # of iterations =  1.5

     total cpu time spent up to now is       28.6 secs

     total energy              =     -62.28312540 Ry
     estimated scf accuracy    <       0.00000008 Ry

     iteration #  9     ecut=    80.00 Ry     beta= 0.70
     Davidson diagonalization with overlap
     ethr =  3.68E-10,  avg # of iterations =  3.4

     total cpu time spent up to now is       29.8 secs

     End of self-consistent calculation

          k = 0.0000 0.0000 0.0000 (  5201 PWs)   bands (ev):

   -33.8661 -33.8572  -2.9501   1.8413   2.5739   7.6891   7.6891  10.7182
    12.0744  13.0198  13.0198  13.2701  13.2701  14.2797  14.3766

          k = 0.0000 0.0000 0.1040 (  5173 PWs)   bands (ev):

   -33.8656 -33.8578  -2.8974   1.0104   3.6928   7.7533   7.7533  10.8061
    11.9043  11.9043  11.9645  12.2142  13.8986  14.6046  14.6808

          k = 0.0000 0.0000 0.2081 (  5153 PWs)   bands (ev):

   -33.8640 -33.8594  -2.7774   0.2490   5.3287   7.9013   7.9013   9.7650
    11.0249  11.0472  11.0472  12.0802  13.2440  14.5996  16.4577

          k = 0.0000 0.0000-0.3121 (  5118 PWs)   bands (ev):

   -33.8623 -33.8610  -2.7077  -0.0389   6.6702   7.9890   7.9890   8.1909
    10.7215  10.7215  11.1724  12.0744  12.9214  14.5937  18.2516

          k = 0.0000 0.1146 0.0000 (  5191 PWs)   bands (ev):

   -33.8653 -33.8569  -2.8080   1.9948   2.6142   6.5622   7.8374  11.0462
    11.4645  11.8986  13.1509  13.1654  13.4139  14.3746  15.2994

          k = 0.0000 0.1146 0.1040 (  5185 PWs)   bands (ev):

   -33.8647 -33.8574  -2.7551   1.1317   3.7550   6.6301   7.9015  10.3048
    11.4327  12.0529  12.3521  12.6804  13.3827  14.8159  15.3201

          k = 0.0000 0.1146 0.2081 (  5183 PWs)   bands (ev):

   -33.8632 -33.8589  -2.6348   0.3691   5.3431   6.8066   8.0491   9.2567
    10.3510  11.1977  11.5978  13.0218  13.7237  15.1011  16.1240

          k = 0.0000 0.1146-0.3121 (  5176 PWs)   bands (ev):

   -33.8616 -33.8605  -2.5648   0.0813   6.4264   7.1611   8.0484   8.1365
     9.6891  10.8727  11.6473  13.1773  13.6136  15.1306  17.4917

          k = 0.0000 0.2292 0.0000 (  5200 PWs)   bands (ev):

   -33.8629 -33.8561  -2.3829   2.4524   2.5443   5.1005   8.2824   9.3354
     9.6178  12.1620  13.5567  13.8425  14.7763  15.1044  15.3372

          k = 0.0000 0.2292 0.1040 (  5173 PWs)   bands (ev):

   -33.8625 -33.8565  -2.3301   1.4439   3.6776   5.3009   8.3460   8.3957
    10.6750  12.2241  12.4899  12.8719  14.9156  15.3621  15.4261

          k = 0.0000 0.2292 0.2081 (  5179 PWs)   bands (ev):

   -33.8613 -33.8577  -2.2094   0.6984   4.5217   6.1048   7.6248   8.4924
    10.5657  11.6450  11.7191  12.6042  15.1858  15.3644  15.9071

          k = 0.0000 0.2292-0.3121 (  5176 PWs)   bands (ev):

   -33.8600 -33.8590  -2.1389   0.4166   4.7678   6.9037   7.3928   8.5790
     9.3530  11.3229  11.8915  13.0320  15.2721  15.8606  15.8888

          k = 0.0000 0.3439 0.0000 (  5202 PWs)   bands (ev):

   -33.8600 -33.8555  -1.6805   1.7466   3.2032   4.7012   7.5290   8.0034
     9.0236  12.6670  12.9508  14.5364  14.5406  15.1233  15.7934

          k = 0.0000 0.3439 0.1040 (  5193 PWs)   bands (ev):

   -33.8597 -33.8558  -1.6289   1.4802   3.1560   5.2296   6.7914   9.0725
     9.0864  12.6331  12.8738  13.4945  13.5032  15.3807  15.8603

          k = 0.0000 0.3439 0.2081 (  5183 PWs)   bands (ev):

   -33.8589 -33.8566  -1.5110   1.0112   3.2202   5.5052   7.0965   9.2308
    10.3859  11.4222  12.3308  12.5230  13.3455  15.0258  15.8821

          k = 0.0000 0.3439-0.3121 (  5176 PWs)   bands (ev):

   -33.8580 -33.8574  -1.4417   0.7953   3.2895   5.3158   8.0739   9.3160
     9.8517  11.7693  12.0218  12.0378  13.3994  14.7660  15.2290

          k = 0.0000 0.4585 0.0000 (  5190 PWs)   bands (ev):

   -33.8574 -33.8558  -0.7144   0.4766   4.1996   4.9650   6.2467   6.7100
    10.0598  11.3847  13.3612  14.2446  15.3995  15.4063  16.5187

          k = 0.0000 0.4585 0.1040 (  5194 PWs)   bands (ev):

   -33.8573 -33.8559  -0.6700   0.4844   3.6946   4.7569   6.5903   7.6485
    10.1213  11.4420  13.2400  13.8001  14.3390  15.1815  15.5222

          k = 0.0000 0.4585 0.2081 (  5199 PWs)   bands (ev):

   -33.8570 -33.8562  -0.5694   0.4874   3.1777   4.1778   7.9167   9.0848
    10.2621  11.5696  12.1363  12.6503  13.5295  14.5446  14.8001

          k = 0.0000 0.4585-0.3121 (  5218 PWs)   bands (ev):

   -33.8567 -33.8565  -0.5111   0.4795   3.0058   3.9293   9.0211  10.0681
    10.3448  11.0018  11.6410  11.6810  13.2249  14.2679  14.5248

          k = 0.1146 0.1146 0.0000 (  5195 PWs)   bands (ev):

   -33.8644 -33.8565  -2.6654   2.1483   2.6713   6.3335   7.0964  11.1344
    11.2629  12.0549  12.2262  12.8350  13.6115  14.8106  15.8454

          k = 0.1146 0.1146 0.1040 (  5171 PWs)   bands (ev):

   -33.8639 -33.8570  -2.6125   1.2549   3.8374   6.4061   7.1483  10.3208
    10.5916  12.2851  12.5979  13.4249  13.4551  13.8099  15.7622

          k = 0.1146 0.1146 0.2081 (  5178 PWs)   bands (ev):

   -33.8625 -33.8584  -2.4918   0.4914   5.4105   6.5773   7.2827   9.3884
     9.4800  10.9452  12.8481  13.4107  14.4870  14.7013  15.7545

          k = 0.1146 0.1146-0.3121 (  5180 PWs)   bands (ev):

   -33.8610 -33.8599  -2.4215   0.2037   6.5344   6.6823   7.5860   8.0630
     9.1437  10.4561  12.9651  13.4120  14.8816  14.9115  15.8830

          k = 0.1146 0.2292 0.0000 (  5187 PWs)   bands (ev):

   -33.8621 -33.8557  -2.2394   2.6064   2.6601   5.0718   7.2378   9.5858
     9.6197  12.1934  12.3325  13.4978  13.6125  15.5883  15.9108

          k = 0.1146 0.2292 0.1040 (  5182 PWs)   bands (ev):

   -33.8617 -33.8561  -2.1864   1.5752   3.8257   5.2599   7.2782   8.5593
    10.4964  11.4788  12.8859  13.3836  13.5793  14.7317  15.8515

          k = 0.1146 0.2292 0.2081 (  5169 PWs)   bands (ev):

   -33.8606 -33.8573  -2.0653   0.8284   4.6613   6.0675   7.3142   7.8626
     9.8641  11.0071  12.7065  13.6030  14.0534  15.3347  15.9009

          k = 0.1146 0.2292-0.3121 (  5178 PWs)   bands (ev):

   -33.8593 -33.8585  -1.9945   0.5463   4.8898   7.0364   7.0511   7.8506
     8.9239  10.5159  13.3398  13.6726  14.1808  15.5919  15.9030

          k = 0.1146 0.3439 0.0000 (  5179 PWs)   bands (ev):

   -33.8593 -33.8551  -1.5352   1.9028   3.3578   4.6977   7.3796   8.0396
     8.2534  11.4421  13.0258  13.3392  14.0708  15.9912  16.7843

          k = 0.1146 0.3439 0.1040 (  5187 PWs)   bands (ev):

   -33.8590 -33.8554  -1.4835   1.6344   3.2818   5.2772   6.7898   8.0029
     9.2169  11.3028  12.1853  13.8823  14.0128  14.9410  15.9891

          k = 0.1146 0.3439 0.2081 (  5184 PWs)   bands (ev):

   -33.8582 -33.8561  -1.3649   1.1600   3.3322   5.6374   7.0112   8.1352
    10.3358  10.8017  11.3082  13.1823  13.8618  14.6333  15.9903

          k = 0.1146 0.3439-0.3121 (  5194 PWs)   bands (ev):

   -33.8575 -33.8569  -1.2953   0.9418   3.3993   5.4452   7.7862   8.4364
     9.5927  10.5859  11.8435  13.1579  13.2332  14.2304  16.1934

          k = 0.1146 0.4585 0.0000 (  5192 PWs)   bands (ev):

   -33.8568 -33.8553  -0.5664   0.6290   4.3549   5.0643   6.2673   6.7283
     8.9320  10.0834  13.9132  14.1039  14.8568  15.3100  15.6612

          k = 0.1146 0.4585 0.1040 (  5198 PWs)   bands (ev):

   -33.8567 -33.8554  -0.5215   0.6380   3.8150   4.8865   6.5896   7.6563
     8.9954  10.1021  12.9428  14.0628  14.6370  14.7276  15.6825

          k = 0.1146 0.4585 0.2081 (  5200 PWs)   bands (ev):

   -33.8564 -33.8557  -0.4198   0.6436   3.2859   4.2982   7.8995   8.8055
     9.3691  10.1169  11.7046  12.9244  13.5768  13.9610  16.0165

          k = 0.1146 0.4585-0.3121 (  5192 PWs)   bands (ev):

   -33.8561 -33.8559  -0.3607   0.6367   3.1111   4.0476   8.8250   9.2279
     9.9419  10.2387  10.7488  11.9593  13.1470  13.6558  15.9370

          k = 0.2292 0.2292 0.0000 (  5149 PWs)   bands (ev):

   -33.8600 -33.8548  -1.8103   2.8908   3.0655   4.6171   6.3221   9.3244
     9.6487  10.5038  10.6881  12.3324  15.8918  16.0007  16.1300

          k = 0.2292 0.2292 0.1040 (  5185 PWs)   bands (ev):

   -33.8597 -33.8552  -1.7572   1.9295   4.1964   4.6932   6.4263   8.5687
     9.1629  11.0584  11.7207  12.0580  14.6545  15.7614  16.0434

          k = 0.2292 0.2292 0.2081 (  5181 PWs)   bands (ev):

   -33.8588 -33.8561  -1.6355   1.1931   4.8742   5.2607   6.8662   7.7222
     8.5592  10.8480  11.9435  13.4194  14.0896  15.0707  16.0518

          k = 0.2292 0.2292-0.3121 (  5166 PWs)   bands (ev):

   -33.8578 -33.8571  -1.5641   0.9140   4.9868   5.6334   7.3775   7.5783
     8.0690  10.0778  12.2685  14.0773  14.8316  15.0543  15.3450

          k = 0.2292 0.3439 0.0000 (  5187 PWs)   bands (ev):

   -33.8574 -33.8540  -1.1010   2.3679   3.8185   4.4052   6.4237   8.0647
     8.2735   9.3597  10.9995  12.0747  14.8588  15.2143  16.6956

          k = 0.2292 0.3439 0.1040 (  5186 PWs)   bands (ev):

   -33.8572 -33.8542  -1.0488   2.0883   3.6044   5.0796   6.4084   7.3544
     9.0289   9.2944  11.0412  12.4497  13.8997  15.3755  16.5494

          k = 0.2292 0.3439 0.2081 (  5183 PWs)   bands (ev):

   -33.8566 -33.8548  -0.9290   1.5936   3.6276   5.8276   6.0685   7.5767
     8.6791   9.8396  11.1120  12.8574  13.1548  14.8921  16.0536

          k = 0.2292 0.3439-0.3121 (  5194 PWs)   bands (ev):

   -33.8560 -33.8555  -0.8584   1.3685   3.6951   5.8135   6.0673   8.1869
     8.6504   9.3972  11.3395  12.3836  13.6934  14.7832  15.7312

          k = 0.2292 0.4585 0.0000 (  5202 PWs)   bands (ev):

   -33.8552 -33.8540  -0.1242   1.0844   4.8172   5.1690   6.1819   6.6186
     7.6438   8.3531  11.9043  12.4939  13.5939  13.9795  17.4281

          k = 0.2292 0.4585 0.1040 (  5185 PWs)   bands (ev):

   -33.8551 -33.8541  -0.0780   1.0972   4.1287   5.2491   6.2227   7.2569
     7.9558   8.4493  11.3723  12.3407  13.6247  14.7028  16.5350

          k = 0.2292 0.4585 0.2081 (  5194 PWs)   bands (ev):

   -33.8549 -33.8543   0.0269   1.1102   3.5799   4.6394   6.8151   7.9207
     8.4167   9.1698  10.7690  11.6020  13.6830  14.5520  16.1319

          k = 0.2292 0.4585-0.3121 (  5184 PWs)   bands (ev):

   -33.8547 -33.8545   0.0881   1.1064   3.4027   4.3855   6.9698   8.0583
     9.2569   9.3624  10.7120  10.9482  13.4103  13.9527  16.6143

          k = 0.3439 0.3439 0.0000 (  5189 PWs)   bands (ev):

   -33.8552 -33.8530  -0.3831   3.0149   3.3959   4.5726   6.2409   7.2609
     8.1023   8.4860   9.5579  11.3576  13.2038  13.8117  17.9293

          k = 0.3439 0.3439 0.1040 (  5192 PWs)   bands (ev):

   -33.8550 -33.8531  -0.3312   2.6933   3.4730   4.7243   6.5195   7.2139
     7.3578   8.6453  10.5893  11.3462  12.5702  14.5630  16.5278

          k = 0.3439 0.3439 0.2081 (  5186 PWs)   bands (ev):

   -33.8546 -33.8535  -0.2116   2.1954   3.6566   4.8877   6.5082   6.6555
     7.7058   8.9264  11.1745  11.9404  12.3322  14.6622  16.2930

          k = 0.3439 0.3439-0.3121 (  5190 PWs)   bands (ev):

   -33.8542 -33.8539  -0.1410   1.9760   3.7710   4.9434   6.1606   6.5923
     8.2092   9.0649  11.0268  11.5321  13.9657  14.5010  14.8765

          k = 0.3439 0.4585 0.0000 (  5182 PWs)   bands (ev):

   -33.8534 -33.8526   0.6065   1.8366   4.2685   5.5649   5.6467   6.3755
     7.5549   7.6412  10.0666  10.9789  12.2164  12.6866  18.9516

          k = 0.3439 0.4585 0.1040 (  5192 PWs)   bands (ev):

   -33.8533 -33.8527   0.6542   1.8562   4.0881   5.3970   5.5108   6.4371
     7.4727   8.1361  10.3104  10.8341  12.3458  13.2886  17.2421

          k = 0.3439 0.4585 0.2081 (  5192 PWs)   bands (ev):

   -33.8532 -33.8528   0.7629   1.8810   3.7968   5.0218   5.4272   6.3164
     7.8444   8.5872  10.5812  11.1082  12.9911  14.1039  15.7840

          k = 0.3439 0.4585-0.3121 (  5180 PWs)   bands (ev):

   -33.8530 -33.8529   0.8265   1.8811   3.6871   4.8236   5.4186   6.2539
     7.9769   8.7841  10.7566  11.3990  13.6275  14.2332  14.9801

          k = 0.4585 0.4585 0.0000 (  5189 PWs)   bands (ev):

   -33.8521 -33.8518   1.6125   2.7724   2.9812   4.1874   6.5526   6.8934
     7.4891   7.7020   8.9700   9.6497  11.6070  11.8251  19.9464

          k = 0.4585 0.4585 0.1040 (  5191 PWs)   bands (ev):

   -33.8521 -33.8518   1.6599   2.8497   2.9505   4.1994   6.0190   6.7464
     7.1356   7.7455  10.0022  10.0229  11.7199  12.1588  18.0623

          k = 0.4585 0.4585 0.2081 (  5173 PWs)   bands (ev):

   -33.8520 -33.8519   1.7670   2.8780   3.0338   4.2399   5.4297   5.8954
     7.2229   7.7397  10.9225  11.7552  11.9823  12.9869  15.9662

          k = 0.4585 0.4585-0.3121 (  5160 PWs)   bands (ev):

   -33.8520 -33.8519   1.8290   2.8338   3.1485   4.2752   5.1848   5.5469
     7.2378   7.7141  11.5179  12.0744  13.3858  14.1287  14.3317

     the Fermi energy is    12.2250 ev

!    total energy              =     -62.28312542 Ry
     estimated scf accuracy    <          8.8E-10 Ry
     smearing contrib. (-TS)   =      -0.00053495 Ry
     internal energy E=F+TS    =     -62.28259047 Ry

     The total energy is F=E-TS. E is the sum of the following terms:
     one-electron contribution =       7.29255235 Ry
     hartree contribution      =       6.96745463 Ry
     xc contribution           =     -20.24571673 Ry
     ewald contribution        =     -56.29688073 Ry

     convergence has been achieved in   9 iterations

     Forces acting on atoms (cartesian axes, Ry/au):

     atom    1 type  1   force =     0.00000000    0.00000000   -0.07185471
     atom    2 type  1   force =     0.00000000    0.00000000    0.07185471
     atom    3 type  2   force =     0.00000000    0.00000000    0.00000000
     atom    4 type  2   force =     0.00000000    0.00000000    0.00000000
     atom    5 type  2   force =     0.00000000    0.00000000    0.01791505
     atom    6 type  2   force =     0.00000000    0.00000000   -0.01791505
     The non-local contrib.  to forces
     atom    1 type  1   force =     0.00000000    0.00000000    0.00006660
     atom    2 type  1   force =     0.00000000    0.00000000   -0.00006660
     atom    3 type  2   force =     0.00000000    0.00000000    0.00000000
     atom    4 type  2   force =     0.00000000    0.00000000   -0.00000000
     atom    5 type  2   force =     0.00000000    0.00000000   -0.02061174
     atom    6 type  2   force =     0.00000000    0.00000000    0.02061174
     The ionic contribution  to forces
     atom    1 type  1   force =    -0.00000000   -0.00000000   -1.24491726
     atom    2 type  1   force =    -0.00000000   -0.00000000    1.24491726
     atom    3 type  2   force =    -0.00000000   -0.00000000   -0.00000000
     atom    4 type  2   force =     0.00000000    0.00000000   -0.00000000
     atom    5 type  2   force =    -0.00000000    0.00000000    1.02821434
     atom    6 type  2   force =    -0.00000000   -0.00000000   -1.02821434
     The local contribution  to forces
     atom    1 type  1   force =     0.00000000    0.00000000    1.17297699
     atom    2 type  1   force =     0.00000000    0.00000000   -1.17297699
     atom    3 type  2   force =    -0.00000000   -0.00000000    0.00000000
     atom    4 type  2   force =     0.00000000   -0.00000000   -0.00000000
     atom    5 type  2   force =     0.00000000    0.00000000   -0.98905138
     atom    6 type  2   force =     0.00000000    0.00000000    0.98905138
     The core correction contribution to forces
     atom    1 type  1   force =     0.00000000    0.00000000    0.00000000
     atom    2 type  1   force =     0.00000000    0.00000000    0.00000000
     atom    3 type  2   force =    -0.00000000   -0.00000000    0.00000000
     atom    4 type  2   force =     0.00000000   -0.00000000   -0.00000000
     atom    5 type  2   force =     0.00000000   -0.00000000   -0.00061431
     atom    6 type  2   force =     0.00000000    0.00000000    0.00061431
     The Hubbard contrib.    to forces
     atom    1 type  1   force =     0.00000000    0.00000000    0.00000000
     atom    2 type  1   force =     0.00000000    0.00000000    0.00000000
     atom    3 type  2   force =     0.00000000    0.00000000    0.00000000
     atom    4 type  2   force =     0.00000000    0.00000000    0.00000000
     atom    5 type  2   force =     0.00000000    0.00000000    0.00000000
     atom    6 type  2   force =     0.00000000    0.00000000    0.00000000
     The SCF correction term to forces
     atom    1 type  1   force =    -0.00000000    0.00000000    0.00001895
     atom    2 type  1   force =     0.00000000    0.00000000   -0.00001895
     atom    3 type  2   force =    -0.00000000   -0.00000000    0.00000000
     atom    4 type  2   force =     0.00000000    0.00000000    0.00000000
     atom    5 type  2   force =     0.00000000    0.00000000   -0.00002185
     atom    6 type  2   force =    -0.00000000    0.00000000    0.00002185

     Total force =     0.104729     Total SCF correction =     0.000041


     Computing stress (Cartesian axis) and pressure

          total   stress  (Ry/bohr**3)                   (kbar)     P=      497.26
   0.00296304   0.00000000   0.00000000          435.88        0.00        0.00
   0.00000000   0.00296304   0.00000000            0.00      435.88        0.00
   0.00000000   0.00000000   0.00421486            0.00        0.00      620.03

     Energy error            =      3.9E-02 Ry
     Gradient error          =      7.2E-02 Ry/Bohr
     Cell gradient error     =      1.2E+02 kbar

     number of scf cycles    =   2
     number of bfgs steps    =   1

     enthalpy           old  =     -60.8595458981 Ry
     enthalpy           new  =     -60.8990312018 Ry

     CASE: enthalpy          _new < enthalpy          _old

     new trust radius        =       0.1403308795 bohr
ibrav =      6
 celldm(1) =      6.09197670
 celldm(3) =      1.75360204
Input lattice vectors:
     0.94193282     0.00000000     0.00000000
     0.00000000     0.94193282     0.00000000
     0.00000000     0.00000000     1.65177531
New lattice vectors in INITIAL alat:
     0.94193282     0.00000000     0.00000000
     0.00000000     0.94193282     0.00000000
     0.00000000     0.00000000     1.65177531
New lattice vectors in NEW alat (for information only):
     1.00000000     0.00000000     0.00000000
     0.00000000     1.00000000     0.00000000
     0.00000000     0.00000000     1.75360204
Discrepancy in bohr =     0.000000    0.000000    0.000000
     new conv_thr            =       0.0000000072 Ry

     new unit-cell volume =    396.46581 a.u.^3 (    58.75017 Ang^3 )
     density =      3.56765 g/cm^3

CELL_PARAMETERS (alat=  6.46752782)
   0.941932816   0.000000000   0.000000000
   0.000000000   0.941932816   0.000000000
   0.000000000   0.000000000   1.651775306

ATOMIC_POSITIONS (crystal)
Li            0.0000000000        0.5000000000        0.2338318746
Li            0.5000000000        0.0000000000        0.7661681254
Si            0.0000000000        0.0000000000        0.5000000000
Si            0.5000000000        0.5000000000        0.5000000000
Si            0.0000000000        0.5000000000        0.8583252709
Si            0.5000000000        0.0000000000        0.1416747291



     Writing config-only to output data dir ./output/LiSi.save/
     NEW-OLD atomic charge density approx. for the potential
     extrapolated charge   21.40386, renormalised to   22.00000

     total cpu time spent up to now is       32.7 secs

     Self-consistent Calculation

     iteration #  1     ecut=    80.00 Ry     beta= 0.70
     Davidson diagonalization with overlap
     c_bands:  1 eigenvalues not converged
     ethr =  1.00E-06,  avg # of iterations = 12.2

     total cpu time spent up to now is       35.7 secs

     total energy              =     -62.27064475 Ry
     estimated scf accuracy    <       0.00108942 Ry

     iteration #  2     ecut=    80.00 Ry     beta= 0.70
     Davidson diagonalization with overlap
     ethr =  4.95E-06,  avg # of iterations =  2.9

     total cpu time spent up to now is       36.9 secs

     total energy              =     -62.27190536 Ry
     estimated scf accuracy    <       0.00269624 Ry

     iteration #  3     ecut=    80.00 Ry     beta= 0.70
     Davidson diagonalization with overlap
     ethr =  4.95E-06,  avg # of iterations =  1.8

     total cpu time spent up to now is       37.8 secs

     total energy              =     -62.27198478 Ry
     estimated scf accuracy    <       0.00049209 Ry

     iteration #  4     ecut=    80.00 Ry     beta= 0.70
     Davidson diagonalization with overlap
     ethr =  2.24E-06,  avg # of iterations =  1.1

     total cpu time spent up to now is       38.6 secs

     total energy              =     -62.27177914 Ry
     estimated scf accuracy    <       0.00070926 Ry

     iteration #  5     ecut=    80.00 Ry     beta= 0.70
     Davidson diagonalization with overlap
     ethr =  2.24E-06,  avg # of iterations =  2.0

     total cpu time spent up to now is       39.6 secs

     total energy              =     -62.27189268 Ry
     estimated scf accuracy    <       0.00000253 Ry

     iteration #  6     ecut=    80.00 Ry     beta= 0.70
     Davidson diagonalization with overlap
     ethr =  1.15E-08,  avg # of iterations =  4.5

     total cpu time spent up to now is       40.9 secs

     total energy              =     -62.27189444 Ry
     estimated scf accuracy    <       0.00000244 Ry

     iteration #  7     ecut=    80.00 Ry     beta= 0.70
     Davidson diagonalization with overlap
     ethr =  1.11E-08,  avg # of iterations =  1.6

     total cpu time spent up to now is       41.8 secs

     total energy              =     -62.27189473 Ry
     estimated scf accuracy    <       0.00000003 Ry

     iteration #  8     ecut=    80.00 Ry     beta= 0.70
     Davidson diagonalization with overlap
     ethr =  1.31E-10,  avg # of iterations =  4.0

     total cpu time spent up to now is       43.0 secs

     End of self-consistent calculation

          k = 0.0000 0.0000 0.0000 (  5201 PWs)   bands (ev):

   -33.4716 -33.4627  -2.8182   1.6675   2.7090   8.5110   8.5110  11.8163
    12.3276  13.5659  13.5659  13.6895  13.6895  13.6898  14.5843

          k = 0.0000 0.0000 0.1009 (  5173 PWs)   bands (ev):

   -33.4710 -33.4632  -2.7744   1.0200   3.6291   8.5712   8.5712  11.4929
    11.9099  12.4656  12.4656  12.5058  14.6914  15.0698  15.0698

          k = 0.0000 0.0000 0.2018 (  5153 PWs)   bands (ev):

   -33.4695 -33.4647  -2.6765   0.3520   5.1165   8.7101   8.7101   9.3525
    11.6590  11.6590  12.1536  12.4458  14.0091  15.6325  16.7490

          k = 0.0000 0.0000-0.3027 (  5118 PWs)   bands (ev):

   -33.4682 -33.4660  -2.6210   0.0989   6.3039   7.9354   8.7925   8.7925
    11.3528  11.3528  12.3347  12.4393  13.6545  15.6308  18.3810

          k = 0.0000 0.1180 0.0000 (  5191 PWs)   bands (ev):

   -33.4705 -33.4621  -2.6651   1.8270   2.7748   7.2459   8.6663  11.4770
    11.9711  12.7554  13.6217  13.7186  13.8483  14.0128  15.0147

          k = 0.0000 0.1180 0.1009 (  5185 PWs)   bands (ev):

   -33.4699 -33.4626  -2.6210   1.1559   3.7150   7.3022   8.7263  10.7082
    11.6631  12.5448  12.6237  13.3510  13.9411  15.2202  16.0709

          k = 0.0000 0.1180 0.2018 (  5183 PWs)   bands (ev):

   -33.4686 -33.4640  -2.5224   0.4829   5.1964   7.4319   8.8647   9.2185
    10.5067  11.8188  12.4334  13.8185  14.4476  15.8499  16.7369

          k = 0.0000 0.1180-0.3027 (  5176 PWs)   bands (ev):

   -33.4673 -33.4652  -2.4663   0.2287   6.3776   7.5270   7.8846   8.9467
    10.1560  11.5133  12.4535  14.0308  14.4156  15.9942  17.6278

          k = 0.0000 0.2359 0.0000 (  5200 PWs)   bands (ev):

   -33.4676 -33.4608  -2.2076   2.3029   2.8244   5.5248   9.1322   9.5585
    10.0359  12.9898  14.1748  14.2995  14.4275  15.1496  16.1996

          k = 0.0000 0.2359 0.1009 (  5173 PWs)   bands (ev):

   -33.4672 -33.4612  -2.1629   1.5298   3.7968   5.6309   8.7478   9.1917
    10.9041  12.4421  13.0936  13.1599  15.6028  16.0334  16.2926

          k = 0.0000 0.2359 0.2018 (  5179 PWs)   bands (ev):

   -33.4660 -33.4623  -2.0626   0.8516   4.8938   6.0776   7.9265   9.3284
    10.2731  12.2253  12.2956  13.2656  16.0345  16.2819  17.0614

          k = 0.0000 0.2359-0.3027 (  5176 PWs)   bands (ev):

   -33.4650 -33.4633  -2.0053   0.5977   5.2723   7.0633   7.1062   9.3572
     9.4093  11.9926  12.5774  13.5169  16.2381  16.3689  16.5522

          k = 0.0000 0.3539 0.0000 (  5202 PWs)   bands (ev):

   -33.4640 -33.4596  -1.4521   2.1755   3.0826   4.8512   7.6854   8.3399
     9.9084  13.5344  14.0116  14.9250  14.9855  15.2863  15.9465

          k = 0.0000 0.3539 0.1009 (  5193 PWs)   bands (ev):

   -33.4637 -33.4599  -1.4077   1.7931   3.2874   5.2350   7.0700   9.2494
     9.9669  13.0223  13.6050  13.7527  14.3046  16.4113  16.4737

          k = 0.0000 0.3539 0.2018 (  5183 PWs)   bands (ev):

   -33.4630 -33.4606  -1.3076   1.2764   3.5237   5.6508   7.0797  10.1010
    10.3160  11.3625  13.0609  13.1851  14.3396  15.7638  16.5428

          k = 0.0000 0.3539-0.3027 (  5176 PWs)   bands (ev):

   -33.4623 -33.4612  -1.2500   1.0621   3.6292   5.5709   7.7682   9.7099
    10.1799  11.9381  12.4583  12.7717  14.4023  15.3114  16.3027

          k = 0.0000 0.4718 0.0000 (  5190 PWs)   bands (ev):

   -33.4610 -33.4595  -0.4146   0.8590   4.1139   4.9659   6.4532   6.9883
    10.9935  12.3810  14.2600  14.9926  15.9098  16.1937  16.8027

          k = 0.0000 0.4718 0.1009 (  5194 PWs)   bands (ev):

   -33.4609 -33.4596  -0.3759   0.8588   3.7433   4.8148   6.7238   7.7726
    11.0504  12.4335  13.7744  14.0389  15.0206  16.0012  16.2771

          k = 0.0000 0.4718 0.2018 (  5199 PWs)   bands (ev):

   -33.4606 -33.4598  -0.2890   0.8454   3.3278   4.3542   7.8455   9.0610
    11.1803  11.9927  12.5501  12.8459  14.2644  15.4347  15.6352

          k = 0.0000 0.4718-0.3027 (  5218 PWs)   bands (ev):

   -33.4604 -33.4600  -0.2394   0.8296   3.1897   4.1421   8.7824   9.8752
    11.0314  11.2564  11.7621  12.6146  13.9803  15.2804  15.3600

          k = 0.1180 0.1180 0.0000 (  5195 PWs)   bands (ev):

   -33.4694 -33.4615  -2.5117   1.9870   2.8524   7.1165   7.6624  11.7047
    11.7097  12.3134  12.5733  13.9446  13.9626  14.7346  15.3987

          k = 0.1180 0.1180 0.1009 (  5171 PWs)   bands (ev):

   -33.4689 -33.4620  -2.4673   1.2931   3.8131   7.1881   7.6975  10.8193
    10.9405  12.0623  13.3206  13.9278  14.1440  14.4495  16.8424

          k = 0.1180 0.1180 0.2018 (  5178 PWs)   bands (ev):

   -33.4676 -33.4633  -2.3680   0.6156   5.2937   7.3591   7.7743   9.2766
     9.9950  11.2458  13.9456  14.0594  15.1444  15.1719  16.8769

          k = 0.1180 0.1180-0.3027 (  5180 PWs)   bands (ev):

   -33.4664 -33.4645  -2.3114   0.3605   6.4807   7.4660   7.8485   7.9156
     9.6660  10.9845  14.0657  14.1007  15.6283  15.7131  17.0132

          k = 0.1180 0.2359 0.0000 (  5187 PWs)   bands (ev):

   -33.4666 -33.4602  -2.0534   2.4638   2.9453   5.5724   7.8265   9.9017
    10.0656  12.6183  12.7560  14.1848  14.3730  15.4023  16.0679

          k = 0.1180 0.2359 0.1009 (  5182 PWs)   bands (ev):

   -33.4662 -33.4606  -2.0084   1.6723   3.9418   5.6779   7.8525   8.9704
    10.9649  11.5891  12.8907  14.0113  14.5563  15.3509  16.8056

          k = 0.1180 0.2359 0.2018 (  5169 PWs)   bands (ev):

   -33.4651 -33.4616  -1.9074   0.9907   5.0521   6.1337   7.8296   8.2529
     9.9707  11.2247  13.1028  14.5066  14.9260  15.7965  16.7555

          k = 0.1180 0.2359-0.3027 (  5178 PWs)   bands (ev):

   -33.4642 -33.4626  -1.8496   0.7358   5.4171   7.1129   7.2710   8.1165
     9.0447  11.0286  14.0895  14.1396  15.0959  16.1752  16.7977

          k = 0.1180 0.3539 0.0000 (  5179 PWs)   bands (ev):

   -33.4631 -33.4589  -1.2965   2.3403   3.2450   4.9035   7.6191   8.3997
     8.8955  12.4138  13.3684  13.6849  15.0279  16.0992  16.1289

          k = 0.1180 0.3539 0.1009 (  5187 PWs)   bands (ev):

   -33.4628 -33.4592  -1.2517   1.9540   3.4348   5.3235   7.0949   8.6139
     9.5188  12.1442  12.4454  13.9146  14.9062  15.4528  16.5084

          k = 0.1180 0.3539 0.2018 (  5184 PWs)   bands (ev):

   -33.4622 -33.4599  -1.1507   1.4317   3.6566   5.8008   7.1021   8.7263
    10.5631  10.7976  12.0061  13.6873  14.4276  15.3665  16.4516

          k = 0.1180 0.3539-0.3027 (  5194 PWs)   bands (ev):

   -33.4615 -33.4605  -1.0925   1.2153   3.7584   5.7165   7.8573   8.7769
     9.5616  11.1287  12.3585  13.4118  13.7629  15.1856  16.7811

          k = 0.1180 0.4718 0.0000 (  5192 PWs)   bands (ev):

   -33.4602 -33.4588  -0.2565   1.0212   4.2789   5.1027   6.4844   7.0346
     9.7203  10.9583  14.3489  14.6419  15.5730  15.8547  16.1331

          k = 0.1180 0.4718 0.1009 (  5198 PWs)   bands (ev):

   -33.4601 -33.4589  -0.2173   1.0224   3.8825   4.9637   6.7564   7.8158
     9.7626  10.9611  13.3345  14.5678  14.7281  15.1698  16.4099

          k = 0.1180 0.4718 0.2018 (  5200 PWs)   bands (ev):

   -33.4599 -33.4591  -0.1290   1.0114   3.4522   4.4909   7.9050   9.0368
     9.8849  10.8807  11.9007  13.1599  13.8703  14.5452  16.9345

          k = 0.1180 0.4718-0.3027 (  5192 PWs)   bands (ev):

   -33.4597 -33.4593  -0.0785   0.9965   3.3102   4.2751   8.9098   9.6591
     9.9853  10.5262  11.3243  12.1497  13.5986  14.3153  16.9838

          k = 0.2359 0.2359 0.0000 (  5149 PWs)   bands (ev):

   -33.4640 -33.4588  -1.5926   2.9433   3.2104   5.3174   6.5689   9.7905
    10.1086  10.7580  11.2653  12.7084  15.6053  16.2332  17.2883

          k = 0.2359 0.2359 0.1009 (  5185 PWs)   bands (ev):

   -33.4636 -33.4591  -1.5470   2.0722   4.2917   5.3940   6.6186   8.9722
     9.6727  11.7512  11.8372  12.1514  14.7962  16.4058  17.2781

          k = 0.2359 0.2359 0.2018 (  5181 PWs)   bands (ev):

   -33.4628 -33.4599  -1.4442   1.3879   5.4982   5.5793   6.8590   8.1318
     8.8836  10.9202  12.6081  13.4906  14.6161  15.6352  16.8779

          k = 0.2359 0.2359-0.3027 (  5166 PWs)   bands (ev):

   -33.4620 -33.4607  -1.3851   1.1325   5.6979   6.0069   7.7494   7.7564
     7.7885  10.3966  13.0283  14.7470  15.1600  15.1637  15.4766

          k = 0.2359 0.3539 0.0000 (  5187 PWs)   bands (ev):

   -33.4608 -33.4574  -0.8313   2.8286   3.7287   4.8586   6.6671   8.5078
     8.5934  10.1878  11.2184  12.3300  15.1724  15.7986  16.5299

          k = 0.2359 0.3539 0.1009 (  5186 PWs)   bands (ev):

   -33.4606 -33.4576  -0.7858   2.4257   3.8583   5.3710   6.6197   7.7288
     9.4869  10.0201  11.2060  12.5649  14.3501  15.3400  17.0516

          k = 0.2359 0.3539 0.2018 (  5183 PWs)   bands (ev):

   -33.4600 -33.4582  -0.6825   1.8851   4.0365   6.1944   6.4204   7.6293
     9.2551  10.3483  11.0692  13.1289  13.5052  14.9942  16.3574

          k = 0.2359 0.3539-0.3027 (  5194 PWs)   bands (ev):

   -33.4595 -33.4586  -0.6228   1.6625   4.1310   6.1337   6.6055   8.4048
     8.5724   9.8608  11.6279  12.8956  13.7836  14.8172  15.9174

          k = 0.2359 0.4718 0.0000 (  5202 PWs)   bands (ev):

   -33.4582 -33.4570   0.2158   1.5061   4.7696   5.4374   6.3828   7.0651
     8.1446   9.0073  12.1947  12.8580  13.8996  14.4431  17.5333

          k = 0.2359 0.4718 0.1009 (  5185 PWs)   bands (ev):

   -33.4581 -33.4571   0.2566   1.5112   4.2737   5.3982   6.5960   7.5955
     8.4109   9.0109  11.6732  12.7658  13.7691  14.8370  16.5629

          k = 0.2359 0.4718 0.2018 (  5194 PWs)   bands (ev):

   -33.4579 -33.4573   0.3486   1.5073   3.8059   4.8862   7.3777   8.2294
     8.9077   9.4431  10.8274  11.9833  13.6331  14.4719  16.4224

          k = 0.2359 0.4718-0.3027 (  5184 PWs)   bands (ev):

   -33.4577 -33.4574   0.4016   1.4952   3.6560   4.6608   7.5887   8.7623
     9.3140   9.6467  10.5633  11.2170  13.4779  13.9954  16.8502

          k = 0.3539 0.3539 0.0000 (  5189 PWs)   bands (ev):

   -33.4580 -33.4558  -0.0626   3.4752   4.0307   4.5190   6.3135   8.0689
     8.4936   8.9263   9.5549  11.5424  13.5054  14.2886  17.2882

          k = 0.3539 0.3539 0.1009 (  5192 PWs)   bands (ev):

   -33.4578 -33.4559  -0.0165   3.0635   4.1087   4.8386   6.5630   7.6904
     7.9452   9.1211  10.6264  11.4678  12.9401  14.7332  16.4111

          k = 0.3539 0.3539 0.2018 (  5186 PWs)   bands (ev):

   -33.4575 -33.4563   0.0883   2.5327   4.2979   5.1201   6.8444   7.0664
     8.0320   9.2936  11.2928  12.1509  12.3127  14.6129  16.5551

          k = 0.3539 0.3539-0.3027 (  5190 PWs)   bands (ev):

   -33.4571 -33.4566   0.1493   2.3148   4.4197   5.1964   6.4968   7.1845
     8.5920   9.0155  11.3562  11.5963  13.9538  14.5029  14.6202

          k = 0.3539 0.4718 0.0000 (  5182 PWs)   bands (ev):

   -33.4558 -33.4550   0.9963   2.3077   4.8745   5.5545   6.3386   6.4181
     7.8764   8.0090  10.2163  11.1675  12.5063  13.0543  18.3124

          k = 0.3539 0.4718 0.1009 (  5192 PWs)   bands (ev):

   -33.4558 -33.4551   1.0391   2.3191   4.5730   5.6408   5.9701   6.7472
     7.7352   8.4838  10.4084  11.0543  12.5462  13.5047  16.9574

          k = 0.3539 0.4718 0.2018 (  5192 PWs)   bands (ev):

   -33.4556 -33.4552   1.1359   2.3256   4.2185   5.4105   5.8176   6.8526
     8.0810   8.9792  10.5841  11.1405  12.9710  14.0606  15.7979

          k = 0.3539 0.4718-0.3027 (  5180 PWs)   bands (ev):

   -33.4555 -33.4553   1.1921   2.3159   4.1031   5.2174   5.8246   6.8350
     8.3128   9.2180  10.5720  11.2933  13.5414  14.0455  14.9804

          k = 0.4718 0.4718 0.0000 (  5189 PWs)   bands (ev):

   -33.4542 -33.4539   2.0717   3.3727   3.4509   4.7872   6.6596   7.0564
     7.8428   8.0773   8.9303   9.7131  11.8693  12.1149  19.3484

          k = 0.4718 0.4718 0.1009 (  5191 PWs)   bands (ev):

   -33.4541 -33.4539   2.1145   3.4155   3.4510   4.7991   6.2076   7.0426
     7.3085   8.1007  10.0011  10.0684  11.9152  12.3586  17.6857

          k = 0.4718 0.4718 0.2018 (  5173 PWs)   bands (ev):

   -33.4541 -33.4539   2.2109   3.3346   3.6411   4.8505   5.6664   6.1945
     7.4793   8.1090  10.8720  11.6961  12.0177  13.0155  15.7375

          k = 0.4718 0.4718-0.3027 (  5160 PWs)   bands (ev):

   -33.4540 -33.4540   2.2665   3.2871   3.7634   4.9107   5.4170   5.8456
     7.5311   8.1027  11.3722  12.0275  13.3294  14.0708  14.1770

     the Fermi energy is    12.5738 ev

!    total energy              =     -62.27189474 Ry
     estimated scf accuracy    <          4.0E-09 Ry
     smearing contrib. (-TS)   =      -0.00037785 Ry
     internal energy E=F+TS    =     -62.27151689 Ry

     The total energy is F=E-TS. E is the sum of the following terms:
     one-electron contribution =       8.55656605 Ry
     hartree contribution      =       6.65322900 Ry
     xc contribution           =     -20.32841042 Ry
     ewald contribution        =     -57.15290152 Ry

     convergence has been achieved in   8 iterations

     Forces acting on atoms (cartesian axes, Ry/au):

     atom    1 type  1   force =     0.00000000    0.00000000   -0.02549691
     atom    2 type  1   force =     0.00000000    0.00000000    0.02549691
     atom    3 type  2   force =     0.00000000    0.00000000    0.00000000
     atom    4 type  2   force =     0.00000000    0.00000000    0.00000000
     atom    5 type  2   force =     0.00000000    0.00000000    0.00899961
     atom    6 type  2   force =     0.00000000    0.00000000   -0.00899961
     The non-local contrib.  to forces
     atom    1 type  1   force =     0.00000000    0.00000000    0.01015318
     atom    2 type  1   force =     0.00000000    0.00000000   -0.01015318
     atom    3 type  2   force =     0.00000000    0.00000000    0.00000000
     atom    4 type  2   force =     0.00000000    0.00000000    0.00000000
     atom    5 type  2   force =     0.00000000    0.00000000   -0.02279462
     atom    6 type  2   force =     0.00000000    0.00000000    0.02279462
     The ionic contribution  to forces
     atom    1 type  1   force =    -0.00000000    0.00000000   -1.02055453
     atom    2 type  1   force =     0.00000000   -0.00000000    1.02055453
     atom    3 type  2   force =    -0.00000000   -0.00000000    0.00000000
     atom    4 type  2   force =     0.00000000    0.00000000    0.00000000
     atom    5 type  2   force =    -0.00000000    0.00000000    0.83734392
     atom    6 type  2   force =     0.00000000   -0.00000000   -0.83734392
     The local contribution  to forces
     atom    1 type  1   force =     0.00000000    0.00000000    0.98484256
     atom    2 type  1   force =     0.00000000    0.00000000   -0.98484256
     atom    3 type  2   force =    -0.00000000   -0.00000000   -0.00000000
     atom    4 type  2   force =    -0.00000000   -0.00000000   -0.00000000
     atom    5 type  2   force =     0.00000000   -0.00000000   -0.80545168
     atom    6 type  2   force =     0.00000000   -0.00000000    0.80545168
     The core correction contribution to forces
     atom    1 type  1   force =     0.00000000    0.00000000    0.00000000
     atom    2 type  1   force =     0.00000000    0.00000000    0.00000000
     atom    3 type  2   force =     0.00000000   -0.00000000   -0.00000000
     atom    4 type  2   force =    -0.00000000   -0.00000000   -0.00000000
     atom    5 type  2   force =    -0.00000000   -0.00000000   -0.00003802
     atom    6 type  2   force =    -0.00000000   -0.00000000    0.00003802
     The Hubbard contrib.    to forces
     atom    1 type  1   force =     0.00000000    0.00000000    0.00000000
     atom    2 type  1   force =     0.00000000    0.00000000    0.00000000
     atom    3 type  2   force =     0.00000000    0.00000000    0.00000000
     atom    4 type  2   force =     0.00000000    0.00000000    0.00000000
     atom    5 type  2   force =     0.00000000    0.00000000    0.00000000
     atom    6 type  2   force =     0.00000000    0.00000000    0.00000000
     The SCF correction term to forces
     atom    1 type  1   force =     0.00000000   -0.00000000    0.00006187
     atom    2 type  1   force =    -0.00000000    0.00000000   -0.00006187
     atom    3 type  2   force =    -0.00000000    0.00000000    0.00000000
     atom    4 type  2   force =     0.00000000   -0.00000000    0.00000000
     atom    5 type  2   force =    -0.00000000   -0.00000000   -0.00005999
     atom    6 type  2   force =    -0.00000000   -0.00000000    0.00005999

     Total force =     0.038238     Total SCF correction =     0.000122


     Computing stress (Cartesian axis) and pressure

          total   stress  (Ry/bohr**3)                   (kbar)     P=      555.68
   0.00368677   0.00000000   0.00000000          542.34        0.00        0.00
   0.00000000   0.00368677   0.00000000            0.00      542.34        0.00
   0.00000000   0.00000000   0.00395880            0.00        0.00      582.36

     Energy error            =      2.5E-02 Ry
     Gradient error          =      2.5E-02 Ry/Bohr
     Cell gradient error     =      8.2E+01 kbar

     number of scf cycles    =   3
     number of bfgs steps    =   2

     enthalpy           old  =     -60.8990312018 Ry
     enthalpy           new  =     -60.9243348398 Ry

     CASE: enthalpy          _new < enthalpy          _old

     new trust radius        =       0.0674339851 bohr
ibrav =      6
 celldm(1) =      6.08775018
 celldm(3) =      1.78453469
Input lattice vectors:
     0.94127932     0.00000000     0.00000000
     0.00000000     0.94127932     0.00000000
     0.00000000     0.00000000     1.67974559
New lattice vectors in INITIAL alat:
     0.94127932     0.00000000     0.00000000
     0.00000000     0.94127932     0.00000000
     0.00000000     0.00000000     1.67974559
New lattice vectors in NEW alat (for information only):
     1.00000000     0.00000000     0.00000000
     0.00000000     1.00000000     0.00000000
     0.00000000     0.00000000     1.78453469
Discrepancy in bohr =     0.000000    0.000000    0.000000
     new conv_thr            =       0.0000000025 Ry

     new unit-cell volume =    402.62011 a.u.^3 (    59.66214 Ang^3 )
     density =      3.51311 g/cm^3

CELL_PARAMETERS (alat=  6.46752782)
   0.941279318   0.000000000   0.000000000
   0.000000000   0.941279318   0.000000000
   0.000000000   0.000000000   1.679745594

ATOMIC_POSITIONS (crystal)
Li            0.0000000000        0.5000000000        0.2281996150
Li            0.5000000000        0.0000000000        0.7718003850
Si            0.0000000000        0.0000000000        0.5000000000
Si            0.5000000000        0.5000000000        0.5000000000
Si            0.0000000000        0.5000000000        0.8598031893
Si            0.5000000000        0.0000000000        0.1401968107



     Writing config-only to output data dir ./output/LiSi.save/
     NEW-OLD atomic charge density approx. for the potential
     extrapolated charge   22.33611, renormalised to   22.00000

     total cpu time spent up to now is       45.9 secs

     Self-consistent Calculation

     iteration #  1     ecut=    80.00 Ry     beta= 0.70
     Davidson diagonalization with overlap
     c_bands:  1 eigenvalues not converged
     ethr =  1.00E-06,  avg # of iterations =  9.1

     total cpu time spent up to now is       48.2 secs

     total energy              =     -62.28347979 Ry
     estimated scf accuracy    <       0.01664036 Ry

     iteration #  2     ecut=    80.00 Ry     beta= 0.70
     Davidson diagonalization with overlap
     ethr =  7.56E-05,  avg # of iterations =  4.1

     total cpu time spent up to now is       49.4 secs

     total energy              =     -62.27841561 Ry
     estimated scf accuracy    <       0.17019876 Ry

     iteration #  3     ecut=    80.00 Ry     beta= 0.70
     Davidson diagonalization with overlap
     ethr =  7.56E-05,  avg # of iterations =  3.6

     total cpu time spent up to now is       50.6 secs

     total energy              =     -62.29685114 Ry
     estimated scf accuracy    <       0.00189863 Ry

     iteration #  4     ecut=    80.00 Ry     beta= 0.70
     Davidson diagonalization with overlap
     ethr =  8.63E-06,  avg # of iterations =  3.6

     total cpu time spent up to now is       51.6 secs

     total energy              =     -62.29702197 Ry
     estimated scf accuracy    <       0.00025954 Ry

     iteration #  5     ecut=    80.00 Ry     beta= 0.70
     Davidson diagonalization with overlap
     ethr =  1.18E-06,  avg # of iterations =  3.1

     total cpu time spent up to now is       52.6 secs

     total energy              =     -62.29704426 Ry
     estimated scf accuracy    <       0.00003022 Ry

     iteration #  6     ecut=    80.00 Ry     beta= 0.70
     Davidson diagonalization with overlap
     ethr =  1.37E-07,  avg # of iterations =  3.3

     total cpu time spent up to now is       53.7 secs

     total energy              =     -62.29705211 Ry
     estimated scf accuracy    <       0.00000045 Ry

     iteration #  7     ecut=    80.00 Ry     beta= 0.70
     Davidson diagonalization with overlap
     ethr =  2.03E-09,  avg # of iterations =  3.9

     total cpu time spent up to now is       54.8 secs

     total energy              =     -62.29705235 Ry
     estimated scf accuracy    <       0.00000003 Ry

     iteration #  8     ecut=    80.00 Ry     beta= 0.70
     Davidson diagonalization with overlap
     ethr =  1.53E-10,  avg # of iterations =  2.6

     total cpu time spent up to now is       55.8 secs

     total energy              =     -62.29705235 Ry
     estimated scf accuracy    <          6.9E-09 Ry

     iteration #  9     ecut=    80.00 Ry     beta= 0.70
     Davidson diagonalization with overlap
     ethr =  3.13E-11,  avg # of iterations =  2.6

     total cpu time spent up to now is       56.8 secs

     End of self-consistent calculation

          k = 0.0000 0.0000 0.0000 (  5201 PWs)   bands (ev):

   -33.6569 -33.6486  -2.9344   1.4252   2.5454   8.4813   8.4813  11.7631
    12.0886  13.1523  13.2741  13.2741  13.6068  13.6068  14.0605

          k = 0.0000 0.0000 0.0992 (  5173 PWs)   bands (ev):

   -33.6564 -33.6490  -2.8938   0.8355   3.4003   8.5392   8.5392  10.9918
    11.8529  12.3080  12.3080  12.3298  14.5948  14.8429  14.8429

          k = 0.0000 0.0000 0.1984 (  5153 PWs)   bands (ev):

   -33.6553 -33.6502  -2.8039   0.2053   4.8268   8.6725   8.6725   8.9149
    11.5335  11.5335  12.0857  12.2834  13.9237  15.4960  16.4556

          k = 0.0000 0.0000-0.2977 (  5118 PWs)   bands (ev):

   -33.6544 -33.6510  -2.7533  -0.0340   5.9718   7.5457   8.7515   8.7515
    11.2390  11.2390  12.2566  12.2776  13.5810  15.4966  17.9473

          k = 0.0000 0.1180 0.0000 (  5191 PWs)   bands (ev):

   -33.6558 -33.6480  -2.7793   1.5837   2.6191   7.1771   8.6367  11.2860
    11.8183  12.5391  13.3981  13.4272  13.5451  13.7657  14.5917

          k = 0.0000 0.1180 0.0992 (  5185 PWs)   bands (ev):

   -33.6554 -33.6484  -2.7385   0.9736   3.4919   7.2294   8.6943  10.4818
    11.2884  12.3975  12.4661  13.1914  13.7751  14.9940  15.9101

          k = 0.0000 0.1180 0.1984 (  5183 PWs)   bands (ev):

   -33.6543 -33.6495  -2.6477   0.3379   4.9180   7.3481   8.8271   8.8338
    10.3372  11.6934  12.3214  13.7326  14.2740  15.7002  16.4998

          k = 0.0000 0.1180-0.2977 (  5176 PWs)   bands (ev):

   -33.6535 -33.6503  -2.5966   0.0974   6.0756   7.4224   7.5087   8.9057
    10.0343  11.3996  12.3358  13.9435  14.2996  15.8591  17.1852

          k = 0.0000 0.2361 0.0000 (  5200 PWs)   bands (ev):

   -33.6530 -33.6467  -2.3162   2.0561   2.7060   5.3915   9.1027   9.3349
     9.8960  12.8012  13.8846  13.9459  14.2186  14.6464  16.1643

          k = 0.0000 0.2361 0.0992 (  5173 PWs)   bands (ev):

   -33.6527 -33.6470  -2.2746   1.3594   3.6120   5.4771   8.5745   9.1597
    10.6798  12.0183  12.9365  13.0192  15.3944  15.8246  16.2393

[...]
     estimated scf accuracy    <       0.00000003 Ry

     iteration #  7     ecut=    80.00 Ry     beta= 0.70
     Davidson diagonalization with overlap
     ethr =  1.37E-10,  avg # of iterations =  3.7

     total cpu time spent up to now is       94.4 secs

     total energy              =     -62.30765657 Ry
     estimated scf accuracy    <          4.2E-09 Ry

     iteration #  8     ecut=    80.00 Ry     beta= 0.70
     Davidson diagonalization with overlap
     ethr =  1.90E-11,  avg # of iterations =  2.3

     total cpu time spent up to now is       95.3 secs

     total energy              =     -62.30765657 Ry
     estimated scf accuracy    <          6.9E-10 Ry

     iteration #  9     ecut=    80.00 Ry     beta= 0.70
     Davidson diagonalization with overlap
     ethr =  3.14E-12,  avg # of iterations =  2.0

     total cpu time spent up to now is       96.1 secs

     End of self-consistent calculation

          k = 0.0000 0.0000 0.0000 (  4943 PWs)   bands (ev):

   -33.7508 -33.7428  -2.9811   1.3309   2.4799   8.4269   8.4269  11.6847
    11.9855  12.9715  13.1396  13.1396  13.5394  13.5394  13.8866

          k = 0.0000 0.0000 0.0987 (  4907 PWs)   bands (ev):

   -33.7504 -33.7432  -2.9411   0.7579   3.3159   8.4842   8.4842  10.8231
    11.7728  12.2132  12.2132  12.2493  14.5154  14.7326  14.7326

          k = 0.0000 0.0000 0.1975 (  4943 PWs)   bands (ev):

   -33.7493 -33.7443  -2.8526   0.1379   4.7262   8.6161   8.6161   8.7640
    11.4487  11.4487  12.0002  12.2069  13.8493  15.3753  16.3242

          k = 0.0000 0.0000-0.2962 (  4944 PWs)   bands (ev):

   -33.7486 -33.7450  -2.8029  -0.0981   5.8648   7.4029   8.6943   8.6943
    11.1576  11.1576  12.1655  12.2013  13.5126  15.3768  17.7747

          k = 0.0000 0.1179 0.0000 (  4925 PWs)   bands (ev):

   -33.7498 -33.7422  -2.8260   1.4888   2.5551   7.1165   8.5819  11.1885
    11.7321  12.4106  13.2842  13.2923  13.3854  13.6978  14.4542

          k = 0.0000 0.1179 0.0987 (  4910 PWs)   bands (ev):

   -33.7494 -33.7426  -2.7857   0.8963   3.4082   7.1678   8.6390  10.3694
    11.1546  12.3121  12.3708  13.0860  13.6838  14.8834  15.8036

          k = 0.0000 0.1179 0.1975 (  4910 PWs)   bands (ev):

   -33.7484 -33.7436  -2.6964   0.2708   4.8191   7.2842   8.6926   8.7704
    10.2498  11.6082  12.2408  13.6531  14.1675  15.6049  16.3629

          k = 0.0000 0.1179-0.2962 (  4908 PWs)   bands (ev):

   -33.7477 -33.7443  -2.6461   0.0336   5.9731   7.3554   7.3687   8.8481
     9.9559  11.3178  12.2543  13.8629  14.2067  15.7603  17.0075

          k = 0.0000 0.2358 0.0000 (  4921 PWs)   bands (ev):

   -33.7471 -33.7409  -2.3626   1.9593   2.6496   5.3210   9.0469   9.2296
     9.8207  12.6873  13.7487  13.7788  14.1490  14.4743  16.0735

          k = 0.0000 0.2358 0.0987 (  4908 PWs)   bands (ev):

   -33.7467 -33.7413  -2.3217   1.2847   3.5347   5.4026   8.4852   9.1033
    10.5782  11.8694  12.8399  12.9228  15.2847  15.7039  16.1639

          k = 0.0000 0.2358 0.1975 (  4898 PWs)   bands (ev):

   -33.7459 -33.7421  -2.2303   0.6488   4.6758   5.7303   7.6402   9.2331
     9.7895  11.9659  12.0842  12.9858  15.6859  16.1518  16.8964

          k = 0.0000 0.2358-0.2962 (  4900 PWs)   bands (ev):

   -33.7454 -33.7426  -2.1787   0.4105   5.1156   6.6105   6.7384   9.0109
     9.3097  11.7965  12.3808  13.1800  15.6383  16.2463  16.3276

          k = 0.0000 0.3537 0.0000 (  4890 PWs)   bands (ev):

   -33.7437 -33.7397  -1.5975   2.0681   2.7291   4.5482   7.3745   8.1235
     9.8215  13.2842  13.9100  14.3731  14.5003  15.1303  15.2046

          k = 0.0000 0.3537 0.0987 (  4902 PWs)   bands (ev):

   -33.7435 -33.7399  -1.5564   1.6322   3.0280   4.8784   6.8294   8.9504
     9.8769  12.4291  13.3805  13.5391  14.1503  16.0841  16.1281

          k = 0.0000 0.3537 0.1975 (  4902 PWs)   bands (ev):

   -33.7430 -33.7404  -1.4644   1.1125   3.3123   5.3121   6.7623   9.8969
    10.0039  10.9113  12.8525  12.9358  14.2227  15.2585  16.3397

          k = 0.0000 0.3537-0.2962 (  4880 PWs)   bands (ev):

   -33.7426 -33.7408  -1.4119   0.9041   3.4254   5.2919   7.3186   9.2762
    10.0785  11.5416  12.1796  12.5763  14.2845  14.8417  16.1487

          k = 0.0000 0.4716 0.0000 (  4894 PWs)   bands (ev):

   -33.7409 -33.7395  -0.5464   0.7442   3.7430   4.5942   6.2166   6.7711
    10.9041  12.2880  14.0400  14.6527  15.4977  15.9763  16.1032

          k = 0.0000 0.4716 0.0987 (  4905 PWs)   bands (ev):

   -33.7408 -33.7396  -0.5101   0.7425   3.4242   4.4700   6.4601   7.4809
    10.9579  12.3372  13.2587  13.7322  14.7506  15.6392  15.9881

          k = 0.0000 0.4716 0.1975 (  4901 PWs)   bands (ev):

   -33.7406 -33.7398  -0.4292   0.7264   3.0517   4.0716   7.4803   8.6923
    11.0806  11.4869  12.4297  12.4456  14.0448  15.1180  15.4042

          k = 0.0000 0.4716-0.2962 (  4906 PWs)   bands (ev):

   -33.7405 -33.7399  -0.3831   0.7096   2.9269   3.8802   8.3447   9.4470
    10.5902  11.1522  11.3552  12.5050  13.7784  15.0125  15.1480

          k = 0.1179 0.1179 0.0000 (  4917 PWs)   bands (ev):

   -33.7488 -33.7417  -2.6707   1.6471   2.6401   7.0236   7.4936  11.3871
    11.5533  11.9132  12.1828  13.3988  13.7774  14.2553  14.9744

          k = 0.1179 0.1179 0.0987 (  4914 PWs)   bands (ev):

   -33.7484 -33.7421  -2.6302   1.0359   3.5105   7.0917   7.5242  10.5012
    10.6061  11.6196  13.0179  13.6619  13.9240  14.1604  16.4731

          k = 0.1179 0.1179 0.1975 (  4911 PWs)   bands (ev):

   -33.7475 -33.7430  -2.5400   0.4053   4.9242   7.2541   7.5895   8.7405
     9.8069  10.9871  13.7688  13.8969  14.7989  14.8176  16.4844

          k = 0.1179 0.1179-0.2962 (  4916 PWs)   bands (ev):

   -33.7468 -33.7436  -2.4891   0.1670   6.0945   7.3553   7.3994   7.6331
     9.4907  10.7685  13.9050  13.9260  15.3328  15.4733  16.8772

          k = 0.1179 0.2358 0.0000 (  4896 PWs)   bands (ev):

   -33.7461 -33.7404  -2.2068   2.1188   2.7715   5.3913   7.6746   9.5668
     9.8684  12.2165  12.4526  13.8907  13.9539  14.8895  15.6750

          k = 0.1179 0.2358 0.0987 (  4902 PWs)   bands (ev):

   -33.7458 -33.7407  -2.1655   1.4287   3.6763   5.4741   7.6983   8.7180
    10.7097  11.1254  12.4542  13.7407  14.3639  15.1005  16.4547

          k = 0.1179 0.2358 0.1975 (  4901 PWs)   bands (ev):

   -33.7451 -33.7414  -2.0733   0.7891   4.8336   5.8087   7.6377   8.0124
     9.5442  10.9638  12.7667  14.3021  14.7215  15.4741  16.3464

          k = 0.1179 0.2358-0.2962 (  4900 PWs)   bands (ev):

   -33.7445 -33.7419  -2.0211   0.5496   5.2635   6.7049   6.9012   7.9381
     8.7262  10.8138  13.7902  13.8663  14.9307  15.7214  16.4929

          k = 0.1179 0.3537 0.0000 (  4915 PWs)   bands (ev):

   -33.7429 -33.7391  -1.4405   2.2328   2.8907   4.6186   7.3446   8.1930
     8.7167  12.3055  12.9615  13.3235  14.7048  15.5039  15.5961

          k = 0.1179 0.3537 0.0987 (  4906 PWs)   bands (ev):

   -33.7427 -33.7393  -1.3991   1.7922   3.1793   4.9785   6.8682   8.4514
     9.2402  11.8357  12.1604  13.4828  14.6473  15.1520  16.1563

          k = 0.1179 0.3537 0.1975 (  4898 PWs)   bands (ev):

   -33.7422 -33.7398  -1.3061   1.2673   3.4501   5.4650   6.8097   8.5695
    10.1189  10.4603  11.8074  13.4077  14.0670  15.1029  16.0701

          k = 0.1179 0.3537-0.2962 (  4882 PWs)   bands (ev):

   -33.7418 -33.7401  -1.2531   1.0569   3.5593   5.4430   7.4378   8.6202
     9.1392  10.8837  12.0995  12.9961  13.4932  14.9856  16.3649

          k = 0.1179 0.4716 0.0000 (  4905 PWs)   bands (ev):

   -33.7401 -33.7388  -0.3874   0.9068   3.9078   4.7385   6.2566   6.8276
     9.5882  10.8403  13.9441  14.3253  15.0968  15.5538  15.8963

          k = 0.1179 0.4716 0.0987 (  4902 PWs)   bands (ev):

   -33.7401 -33.7389  -0.3506   0.9064   3.5675   4.6226   6.5043   7.5367
     9.6239  10.8376  12.9314  14.0786  14.3499  14.7978  16.1845

          k = 0.1179 0.4716 0.1975 (  4905 PWs)   bands (ev):

   -33.7399 -33.7391  -0.2683   0.8925   3.1807   4.2131   7.5544   8.7143
     9.7080  10.6994  11.5039  12.7023  13.5276  14.2815  16.6547

          k = 0.1179 0.4716-0.2962 (  4898 PWs)   bands (ev):

   -33.7398 -33.7392  -0.2215   0.8766   3.0520   4.0178   8.4848   9.5185
     9.5691  10.2024  11.1173  11.7089  13.3004  14.0769  16.7216

          k = 0.2358 0.2358 0.0000 (  4884 PWs)   bands (ev):

   -33.7437 -33.7390  -1.7409   2.5941   3.0493   5.2220   6.3050   9.6323
     9.8029  10.3260  11.0454  12.4244  14.8381  15.6640  17.0411

          k = 0.2358 0.2358 0.0987 (  4899 PWs)   bands (ev):

   -33.7434 -33.7392  -1.6989   1.8385   4.0210   5.2948   6.3396   8.7673
     9.3721  11.4013  11.4433  11.8905  14.3172  16.0708  17.0471

          k = 0.2358 0.2358 0.1975 (  4905 PWs)   bands (ev):

   -33.7428 -33.7398  -1.6047   1.1922   5.2441   5.4708   6.5040   7.9486
     8.5001  10.5783  12.4029  13.0512  14.2474  15.3119  16.4816

          k = 0.2358 0.2358-0.2962 (  4908 PWs)   bands (ev):

   -33.7423 -33.7403  -1.5510   0.9513   5.5829   5.8255   7.2964   7.2993
     7.6182  10.1538  12.8316  14.4115  14.7180  14.7711  14.9415

          k = 0.2358 0.3537 0.0000 (  4905 PWs)   bands (ev):

   -33.7406 -33.7376  -0.9712   2.7208   3.3717   4.6646   6.4276   8.2751
     8.3320  10.0776  10.8227  11.9784  14.6926  15.3919  15.8885

          k = 0.2358 0.3537 0.0987 (  4901 PWs)   bands (ev):

   -33.7405 -33.7377  -0.9289   2.2616   3.6217   5.1116   6.3795   7.5062
     9.2296   9.8508  10.8373  12.1522  13.9253  14.8766  16.5490

          k = 0.2358 0.3537 0.1975 (  4905 PWs)   bands (ev):

   -33.7401 -33.7381  -0.8336   1.7200   3.8497   5.8845   6.2591   7.3229
     8.9982  10.1098  10.6913  12.6804  13.1823  14.5165  15.9119

          k = 0.2358 0.3537-0.2962 (  4904 PWs)   bands (ev):

   -33.7398 -33.7384  -0.7790   1.5039   3.9498   5.8825   6.4583   7.9605
     8.2365   9.6824  11.3205  12.5502  13.3323  14.3139  15.4856

          k = 0.2358 0.4716 0.0000 (  4902 PWs)   bands (ev):

   -33.7382 -33.7371   0.0877   1.3930   4.3983   5.1242   6.1784   6.8997
     7.9332   8.8587  11.7957  12.5164  13.4919  14.1409  16.7073

          k = 0.2358 0.4716 0.0987 (  4910 PWs)   bands (ev):

   -33.7381 -33.7372   0.1260   1.3963   3.9774   5.0713   6.4073   7.3891
     8.1621   8.8512  11.3060  12.4202  13.3260  14.3710  16.0224

          k = 0.2358 0.4716 0.1975 (  4898 PWs)   bands (ev):

   -33.7380 -33.7373   0.2120   1.3891   3.5516   4.6254   7.2139   7.9420
     8.7420   9.1293  10.4213  11.6396  13.1354  13.9409  16.0037

          k = 0.2358 0.4716-0.2962 (  4906 PWs)   bands (ev):

   -33.7379 -33.7374   0.2611   1.3757   3.4141   4.4194   7.4545   8.6369
     8.9056   9.3275  10.1397  10.8508  13.0106  13.5166  16.4158

          k = 0.3537 0.3537 0.0000 (  4900 PWs)   bands (ev):

   -33.7380 -33.7360  -0.1956   3.3656   3.9350   4.1577   5.9907   7.9675
     8.3340   8.6477   9.1188  11.1569  13.0864  13.9980  16.4844

          k = 0.3537 0.3537 0.0987 (  4890 PWs)   bands (ev):

   -33.7379 -33.7361  -0.1526   2.9086   4.0092   4.5547   6.2021   7.4873
     7.8266   8.8583  10.2248  11.0661  12.5758  14.2864  15.8449

          k = 0.3537 0.3537 0.1975 (  4892 PWs)   bands (ev):

   -33.7376 -33.7364  -0.0553   2.3765   4.1888   4.8860   6.6623   6.6980
     7.8561   9.0029  10.8913  11.7858  11.8637  14.0932  15.8291

          k = 0.3537 0.3537-0.2962 (  4878 PWs)   bands (ev):

   -33.7374 -33.7365   0.0009   2.1641   4.3038   4.9736   6.3276   6.8847
     8.3882   8.6081  11.0263  11.2034  13.5065  13.9931  14.0012

          k = 0.3537 0.4716 0.0000 (  4885 PWs)   bands (ev):

   -33.7360 -33.7353   0.8731   2.1970   4.7716   5.1916   6.0709   6.2285
     7.6128   7.8233   9.8185  10.7611  12.1537  12.7432  17.4754

          k = 0.3537 0.4716 0.0987 (  4897 PWs)   bands (ev):

   -33.7359 -33.7353   0.9133   2.2063   4.3941   5.4156   5.7120   6.5514
     7.4851   8.2281  10.0018  10.6673  12.1737  13.1187  16.2974

          k = 0.3537 0.4716 0.1975 (  4886 PWs)   bands (ev):

   -33.7358 -33.7354   1.0041   2.2086   4.0251   5.2041   5.6236   6.7166
     7.7588   8.7040  10.1552  10.7438  12.5043  13.5486  15.2761

          k = 0.3537 0.4716-0.2962 (  4896 PWs)   bands (ev):

   -33.7358 -33.7354   1.0564   2.1973   3.9093   5.0146   5.6531   6.7106
     7.9927   8.9367  10.1177  10.8655  13.0196  13.4595  14.4988

          k = 0.4716 0.4716 0.0000 (  4914 PWs)   bands (ev):

   -33.7344 -33.7341   1.9559   3.2770   3.3336   4.6857   6.2802   6.7360
     7.6825   7.8495   8.4933   9.2825  11.5237  11.7819  18.4973

          k = 0.4716 0.4716 0.0987 (  4897 PWs)   bands (ev):

   -33.7344 -33.7341   1.9962   3.2981   3.3515   4.6946   5.9086   6.8397
     6.9424   7.8377   9.5974   9.6488  11.5543  11.9937  16.9764

          k = 0.4716 0.4716 0.1975 (  4881 PWs)   bands (ev):

   -33.7343 -33.7342   2.0868   3.2173   3.5319   4.7394   5.4267   6.0126
     7.1146   7.8119  10.4427  11.2451  11.6174  12.5755  15.1346

          k = 0.4716 0.4716-0.2962 (  4880 PWs)   bands (ev):

   -33.7343 -33.7342   2.1388   3.1703   3.6474   4.7982   5.1963   5.6768
     7.1720   7.7979  10.9294  11.6048  12.8810  13.4367  13.4619

     the Fermi energy is    12.2861 ev

!    total energy              =     -62.30765657 Ry
     estimated scf accuracy    <          1.7E-12 Ry
     smearing contrib. (-TS)   =      -0.00072634 Ry
     internal energy E=F+TS    =     -62.30693023 Ry

     The total energy is F=E-TS. E is the sum of the following terms:
     one-electron contribution =       8.28511403 Ry
     hartree contribution      =       6.52946901 Ry
     xc contribution           =     -20.24097609 Ry
     ewald contribution        =     -56.88053717 Ry

     convergence has been achieved in   9 iterations

     Forces acting on atoms (cartesian axes, Ry/au):

     atom    1 type  1   force =     0.00000000    0.00000000    0.00068394
     atom    2 type  1   force =     0.00000000    0.00000000   -0.00068394
     atom    3 type  2   force =     0.00000000    0.00000000    0.00000000
     atom    4 type  2   force =     0.00000000    0.00000000    0.00000000
     atom    5 type  2   force =     0.00000000    0.00000000    0.00099362
     atom    6 type  2   force =     0.00000000    0.00000000   -0.00099362
     The non-local contrib.  to forces
     atom    1 type  1   force =     0.00000000    0.00000000    0.01824973
     atom    2 type  1   force =     0.00000000    0.00000000   -0.01824973
     atom    3 type  2   force =     0.00000000    0.00000000   -0.00000000
     atom    4 type  2   force =     0.00000000    0.00000000   -0.00000000
     atom    5 type  2   force =     0.00000000    0.00000000   -0.03338093
     atom    6 type  2   force =     0.00000000    0.00000000    0.03338093
     The ionic contribution  to forces
     atom    1 type  1   force =     0.00000000   -0.00000000   -0.83228245
     atom    2 type  1   force =     0.00000000   -0.00000000    0.83228245
     atom    3 type  2   force =     0.00000000    0.00000000    0.00000000
     atom    4 type  2   force =     0.00000000    0.00000000   -0.00000000
     atom    5 type  2   force =    -0.00000000   -0.00000000    0.66865154
     atom    6 type  2   force =    -0.00000000   -0.00000000   -0.66865154
     The local contribution  to forces
     atom    1 type  1   force =     0.00000000    0.00000000    0.81471566
     atom    2 type  1   force =    -0.00000000    0.00000000   -0.81471566
     atom    3 type  2   force =     0.00000000    0.00000000    0.00000000
     atom    4 type  2   force =    -0.00000000   -0.00000000    0.00000000
     atom    5 type  2   force =    -0.00000000    0.00000000   -0.63527645
     atom    6 type  2   force =     0.00000000   -0.00000000    0.63527645
     The core correction contribution to forces
     atom    1 type  1   force =     0.00000000    0.00000000    0.00000000
     atom    2 type  1   force =     0.00000000    0.00000000    0.00000000
     atom    3 type  2   force =    -0.00000000   -0.00000000   -0.00000000
     atom    4 type  2   force =    -0.00000000   -0.00000000   -0.00000000
     atom    5 type  2   force =    -0.00000000    0.00000000    0.00100034
     atom    6 type  2   force =     0.00000000   -0.00000000   -0.00100034
     The Hubbard contrib.    to forces
     atom    1 type  1   force =     0.00000000    0.00000000    0.00000000
     atom    2 type  1   force =     0.00000000    0.00000000    0.00000000
     atom    3 type  2   force =     0.00000000    0.00000000    0.00000000
     atom    4 type  2   force =     0.00000000    0.00000000    0.00000000
     atom    5 type  2   force =     0.00000000    0.00000000    0.00000000
     atom    6 type  2   force =     0.00000000    0.00000000    0.00000000
     The SCF correction term to forces
     atom    1 type  1   force =    -0.00000000    0.00000000    0.00000099
     atom    2 type  1   force =    -0.00000000    0.00000000   -0.00000099
     atom    3 type  2   force =    -0.00000000   -0.00000000    0.00000000
     atom    4 type  2   force =     0.00000000    0.00000000    0.00000000
     atom    5 type  2   force =    -0.00000000    0.00000000   -0.00000088
     atom    6 type  2   force =     0.00000000   -0.00000000    0.00000088

     Total force =     0.001706     Total SCF correction =     0.000002


     Computing stress (Cartesian axis) and pressure

          total   stress  (Ry/bohr**3)                   (kbar)     P=      500.04
   0.00339587   0.00000000   0.00000000          499.55        0.00        0.00
   0.00000000   0.00339587   0.00000000            0.00      499.55        0.00
   0.00000000   0.00000000   0.00340580            0.00        0.00      501.01


     Writing all to output data dir ./output/LiSi.save/

     init_run     :      1.92s CPU      2.40s WALL (       2 calls)
     electrons    :     71.47s CPU     76.18s WALL (       7 calls)
     update_pot   :      2.22s CPU      2.27s WALL (       5 calls)
     forces       :      2.58s CPU      2.68s WALL (       7 calls)
     stress       :     13.82s CPU     14.31s WALL (       7 calls)

     Called by init_run:
     wfcinit      :      0.83s CPU      0.85s WALL (       2 calls)
     potinit      :      0.39s CPU      0.65s WALL (       2 calls)
     hinit0       :      0.65s CPU      0.76s WALL (       2 calls)

     Called by electrons:
     c_bands      :     63.62s CPU     67.21s WALL (      62 calls)
     sum_band     :      7.22s CPU      7.74s WALL (      62 calls)
     v_of_rho     :      0.63s CPU      1.40s WALL (      67 calls)
     mix_rho      :      0.05s CPU      0.08s WALL (      62 calls)

     Called by c_bands:
     init_us_2    :      1.71s CPU      1.94s WALL (    8400 calls)
     init_us_2:cp :      1.70s CPU      1.93s WALL (    8400 calls)
     cegterg      :     58.20s CPU     59.92s WALL (    3720 calls)

     Called by *egterg:
     cdiaghg      :      4.53s CPU      4.71s WALL (   17475 calls)
     h_psi        :     46.94s CPU     48.32s WALL (   18015 calls)
     g_psi        :      0.27s CPU      0.28s WALL (   14175 calls)

     Called by h_psi:
     h_psi:calbec :      5.24s CPU      5.38s WALL (   18015 calls)
     vloc_psi     :     37.11s CPU     38.23s WALL (   18015 calls)
     add_vuspsi   :      4.37s CPU      4.48s WALL (   18015 calls)

     General routines
     calbec       :      6.20s CPU      6.36s WALL (   20115 calls)
     fft          :      0.95s CPU      2.04s WALL (     845 calls)
     ffts         :      0.03s CPU      0.09s WALL (      62 calls)
     fftw         :     37.48s CPU     38.57s WALL (  394984 calls)

     Parallel routines

     PWSCF        :   1m32.41s CPU   1m38.72s WALL


   This run was terminated on:  19: 3:39  28Dec2024            

=------------------------------------------------------------------------------=
   JOB DONE.
=------------------------------------------------------------------------------=
