
     Program PWSCF v.7.2 starts on 26Dec2024 at 16:47:34 

     This program is part of the open-source Quantum ESPRESSO suite
     for quantum simulation of materials; please cite
         "P. Giannozzi et al., J. Phys.:Condens. Matter 21 395502 (2009);
         "P. Giannozzi et al., J. Phys.:Condens. Matter 29 465901 (2017);
         "P. Giannozzi et al., J. Chem. Phys. 152 154105 (2020);
          URL http://www.quantum-espresso.org", 
     in publications or presentations arising from this work. More details at
     http://www.quantum-espresso.org/quote

     Parallel version (MPI & OpenMP), running on       8 processor cores
     Number of MPI processes:                 8
     Threads/MPI process:                     1

     MPI processes distributed on     1 nodes
     482371 MiB available memory on the printing compute node when the environment starts

     Waiting for input...
     Reading input from standard input

     Current dimensions of program PWSCF are:
     Max number of different atomic species (ntypx) = 10
     Max number of k-points (npk) =  40000
     Max angular momentum in pseudopotentials (lmaxx) =  4

     R & G space division:  proc/nbgrp/npool/nimage =       8
     Subspace diagonalization in iterative solution of the eigenvalue problem:
     a serial algorithm will be used


     Parallelization info
     --------------------
     sticks:   dense  smooth     PW     G-vecs:    dense   smooth      PW
     Min         125     125     37                 2602     2602     422
     Max         126     126     38                 2605     2605     423
     Sum        1003    1003    301                20827    20827    3383

     Using Slab Decomposition



     bravais-lattice index     =            2
     lattice parameter (alat)  =       9.5151  a.u.
     unit-cell volume          =     215.3706 (a.u.)^3
     number of atoms/cell      =            3
     number of atomic types    =            2
     number of electrons       =        10.00
     number of Kohn-Sham states=            9
     kinetic-energy cutoff     =      80.0000  Ry
     charge density cutoff     =     320.0000  Ry
     scf convergence threshold =      1.0E-08
     mixing beta               =       0.7000
     number of iterations used =            8  plain     mixing
     energy convergence thresh.=      1.0E-04
     force convergence thresh. =      1.0E-03
     press convergence thresh. =      1.0E+00
     Exchange-correlation= PBE
                           (   1   4   3   4   0   0   0)
     nstep                     =           50


     celldm(1)=   9.515146  celldm(2)=   0.000000  celldm(3)=   0.000000
     celldm(4)=   0.000000  celldm(5)=   0.000000  celldm(6)=   0.000000

     crystal axes: (cart. coord. in units of alat)
               a(1) = (  -0.500000   0.000000   0.500000 )  
               a(2) = (   0.000000   0.500000   0.500000 )  
               a(3) = (  -0.500000   0.500000   0.000000 )  

     reciprocal axes: (cart. coord. in units 2 pi/alat)
               b(1) = ( -1.000000 -1.000000  1.000000 )  
               b(2) = (  1.000000  1.000000  1.000000 )  
               b(3) = ( -1.000000  1.000000 -1.000000 )  


     PseudoPot. # 1 for Si read from file:
     ../pseudo/Si_ONCV_PBE_sr.upf
     MD5 check sum: e543d271109d17c80368dfa7c482276d
     Pseudo is Norm-conserving + core correction, Zval =  4.0
     Generated using ONCVPSP code by D. R. Hamann
     Using radial grid of 1510 points,  6 beta functions with: 
                l(1) =   0
                l(2) =   0
                l(3) =   1
                l(4) =   1
                l(5) =   2
                l(6) =   2

     PseudoPot. # 2 for Li read from file:
     ../pseudo/Li_ONCV_PBE_sr.upf
     MD5 check sum: 50ff420e78310ffa21704f3361e624a4
     Pseudo is Norm-conserving, Zval =  3.0
     Generated using ONCVPSP code by D. R. Hamann
     Using radial grid of 1944 points,  4 beta functions with: 
                l(1) =   0
                l(2) =   0
                l(3) =   1
                l(4) =   1

     atomic species   valence    mass     pseudopotential
        Si             4.00    28.08550     Si( 1.00)
        Li             3.00     6.94100     Li( 1.00)

     24 Sym. Ops. (no inversion) found



   Cartesian axes

     site n.     atom                  positions (alat units)
         1           Si  tau(   1) = (   0.0000000   0.0000000   0.0000000  )
         2           Li  tau(   2) = (   0.0000000   0.0000000   0.5000000  )
         3           Li  tau(   3) = (   0.2500000   0.2500000   0.7500000  )

     number of k points=    16  Marzari-Vanderbilt smearing, width (Ry)=  0.0200
                       cart. coord. in units 2pi/alat
        k(    1) = (   0.0000000   0.0000000   0.0000000), wk =   0.0092593
        k(    2) = (  -0.1666667   0.1666667  -0.1666667), wk =   0.0740741
        k(    3) = (  -0.3333333   0.3333333  -0.3333333), wk =   0.0740741
        k(    4) = (   0.5000000  -0.5000000   0.5000000), wk =   0.0370370
        k(    5) = (   0.0000000   0.3333333   0.0000000), wk =   0.0555556
        k(    6) = (  -0.1666667   0.5000000  -0.1666667), wk =   0.2222222
        k(    7) = (   0.6666667  -0.3333333   0.6666667), wk =   0.2222222
        k(    8) = (   0.5000000  -0.1666667   0.5000000), wk =   0.2222222
        k(    9) = (   0.3333333   0.0000000   0.3333333), wk =   0.1111111
        k(   10) = (   0.0000000   0.6666667   0.0000000), wk =   0.0555556
        k(   11) = (   0.8333333  -0.1666667   0.8333333), wk =   0.2222222
        k(   12) = (   0.6666667  -0.0000000   0.6666667), wk =   0.1111111
        k(   13) = (   0.0000000  -1.0000000   0.0000000), wk =   0.0277778
        k(   14) = (   0.6666667  -0.3333333   1.0000000), wk =   0.2222222
        k(   15) = (   0.5000000  -0.1666667   0.8333333), wk =   0.2222222
        k(   16) = (  -0.3333333  -1.0000000   0.0000000), wk =   0.1111111

     Dense  grid:    20827 G-vectors     FFT dimensions: (  40,  40,  40)

     Estimated max dynamical RAM per process >      14.33 MB

     Estimated total dynamical RAM >     114.61 MB

     Initial potential from superposition of free atoms

     starting charge       9.9903, renormalised to      10.0000
     Starting wfcs are    8 randomized atomic wfcs +    1 random wfcs

     total cpu time spent up to now is        1.1 secs

     Self-consistent Calculation

     iteration #  1     ecut=    80.00 Ry     beta= 0.70
     Davidson diagonalization with overlap
     ethr =  1.00E-02,  avg # of iterations =  6.3

     Threshold (ethr) on eigenvalues was too large:
     Diagonalizing with lowered threshold

     Davidson diagonalization with overlap
     ethr =  9.21E-05,  avg # of iterations =  4.1

     total cpu time spent up to now is        1.4 secs

     total energy              =     -37.11530580 Ry
     estimated scf accuracy    <       0.00950986 Ry

     iteration #  2     ecut=    80.00 Ry     beta= 0.70
     Davidson diagonalization with overlap
     ethr =  9.51E-05,  avg # of iterations =  1.0

     total cpu time spent up to now is        1.6 secs

     total energy              =     -37.11558045 Ry
     estimated scf accuracy    <       0.00048992 Ry

     iteration #  3     ecut=    80.00 Ry     beta= 0.70
     Davidson diagonalization with overlap
     ethr =  4.90E-06,  avg # of iterations =  3.1

     total cpu time spent up to now is        1.7 secs

     total energy              =     -37.11560937 Ry
     estimated scf accuracy    <       0.00000768 Ry

     iteration #  4     ecut=    80.00 Ry     beta= 0.70
     Davidson diagonalization with overlap
     ethr =  7.68E-08,  avg # of iterations =  2.2

     total cpu time spent up to now is        1.9 secs

     total energy              =     -37.11561070 Ry
     estimated scf accuracy    <       0.00000005 Ry

     iteration #  5     ecut=    80.00 Ry     beta= 0.70
     Davidson diagonalization with overlap
     ethr =  4.69E-10,  avg # of iterations =  3.1

     total cpu time spent up to now is        2.0 secs

     End of self-consistent calculation

          k = 0.0000 0.0000 0.0000 (  2637 PWs)   bands (ev):

   -38.7400 -38.3737  -2.7276   9.3920   9.3920   9.3920  12.0076  12.0076
    12.0076

          k =-0.1667 0.1667-0.1667 (  2631 PWs)   bands (ev):

   -38.7209 -38.3910  -2.4309   6.9966   8.8573   8.8573  12.6764  12.6764
    13.4192

          k =-0.3333 0.3333-0.3333 (  2593 PWs)   bands (ev):

   -38.6748 -38.4335  -1.6349   4.1931   8.3441   8.3441  11.6547  11.6547
    13.5295

          k = 0.5000-0.5000 0.5000 (  2608 PWs)   bands (ev):

   -38.6441 -38.4624  -1.0043   2.8551   8.2191   8.2191  10.9891  10.9891
    13.4061

          k = 0.0000 0.3333 0.0000 (  2609 PWs)   bands (ev):

   -38.7141 -38.3972  -2.3222   7.5788   7.5788   8.4142  11.5464  12.9768
    14.5098

          k =-0.1667 0.5000-0.1667 (  2594 PWs)   bands (ev):

   -38.6749 -38.4334  -1.6524   5.1399   6.8834   7.6176  11.2553  13.2872
    14.4646

          k = 0.6667-0.3333 0.6667 (  2608 PWs)   bands (ev):

   -38.6317 -38.4742  -0.8023   3.1910   6.6144   6.9889  11.1354  13.0766
    15.0196

          k = 0.5000-0.1667 0.5000 (  2604 PWs)   bands (ev):

   -38.6443 -38.4622  -1.0633   3.6907   6.1049   7.8605  11.6676  12.3655
    15.4364

          k = 0.3333 0.0000 0.3333 (  2617 PWs)   bands (ev):

   -38.6918 -38.4177  -1.9486   5.9285   6.4773   9.1154  12.1657  12.6566
    14.0965

          k = 0.0000 0.6667 0.0000 (  2626 PWs)   bands (ev):

   -38.6445 -38.4620  -1.1060   5.2419   5.9066   5.9066  10.8044  11.8398
    17.7285

          k = 0.8333-0.1667 0.8333 (  2606 PWs)   bands (ev):

   -38.5979 -38.5068  -0.2480   3.5850   5.0372   5.7583  11.0195  12.8470
    16.7925

          k = 0.6667-0.0000 0.6667 (  2592 PWs)   bands (ev):

   -38.5978 -38.5069  -0.2176   3.4416   4.4556   6.4581  11.2404  15.0567
    15.8626

          k = 0.0000-1.0000 0.0000 (  2586 PWs)   bands (ev):

   -38.5538 -38.5504   0.1981   2.9793   5.3278   5.3278  10.6814  11.5703
    20.7962

          k = 0.6667-0.3333 1.0000 (  2612 PWs)   bands (ev):

   -38.6319 -38.4740  -0.8550   4.3044   5.2056   6.5399  12.1706  13.0346
    14.5839

          k = 0.5000-0.1667 0.8333 (  2594 PWs)   bands (ev):

   -38.5978 -38.5069  -0.2152   3.2865   4.9881   5.8893  12.3867  13.5142
    15.7066

          k =-0.3333-1.0000 0.0000 (  2590 PWs)   bands (ev):

   -38.5538 -38.5503   0.1963   3.1759   4.8074   5.0909  12.2106  13.0842
    16.0802

     the Fermi energy is     6.5425 ev

!    total energy              =     -37.11561074 Ry
     estimated scf accuracy    <          2.0E-09 Ry
     smearing contrib. (-TS)   =      -0.00102070 Ry
     internal energy E=F+TS    =     -37.11459004 Ry

     The total energy is F=E-TS. E is the sum of the following terms:
     one-electron contribution =     -10.86106024 Ry
     hartree contribution      =       6.54670818 Ry
     xc contribution           =     -10.12899246 Ry
     ewald contribution        =     -22.67124552 Ry

     convergence has been achieved in   5 iterations

     Forces acting on atoms (cartesian axes, Ry/au):

     atom    1 type  1   force =     0.00000000    0.00000000   -0.00000000
     atom    2 type  2   force =     0.00000000    0.00000000    0.00000000
     atom    3 type  2   force =     0.00000000    0.00000000    0.00000000
     The non-local contrib.  to forces
     atom    1 type  1   force =     0.00000000    0.00000000    0.00000000
     atom    2 type  2   force =    -0.00000000   -0.00000000    0.00000000
     atom    3 type  2   force =     0.00000000    0.00000000   -0.00000000
     The ionic contribution  to forces
     atom    1 type  1   force =     0.00000000    0.00000000   -0.00000000
     atom    2 type  2   force =    -0.00000000   -0.00000000    0.00000000
     atom    3 type  2   force =     0.00000000    0.00000000    0.00000000
     The local contribution  to forces
     atom    1 type  1   force =    -0.00000000    0.00000000    0.00000000
     atom    2 type  2   force =     0.00000000    0.00000000    0.00000000
     atom    3 type  2   force =     0.00000000    0.00000000    0.00000000
     The core correction contribution to forces
     atom    1 type  1   force =    -0.00000000   -0.00000000    0.00000000
     atom    2 type  2   force =     0.00000000    0.00000000    0.00000000
     atom    3 type  2   force =     0.00000000    0.00000000    0.00000000
     The Hubbard contrib.    to forces
     atom    1 type  1   force =     0.00000000    0.00000000    0.00000000
     atom    2 type  2   force =     0.00000000    0.00000000    0.00000000
     atom    3 type  2   force =     0.00000000    0.00000000    0.00000000
     The SCF correction term to forces
     atom    1 type  1   force =    -0.00000000    0.00000000   -0.00000000
     atom    2 type  2   force =    -0.00000000   -0.00000000    0.00000000
     atom    3 type  2   force =     0.00000000   -0.00000000    0.00000000

     Total force =     0.000000     Total SCF correction =     0.000000


     Computing stress (Cartesian axis) and pressure

          total   stress  (Ry/bohr**3)                   (kbar)     P=      361.06
   0.00245441   0.00000000   0.00000000          361.06        0.00        0.00
   0.00000000   0.00245441  -0.00000000            0.00      361.06       -0.00
   0.00000000  -0.00000000   0.00245441            0.00       -0.00      361.06


     BFGS Geometry Optimization
     Energy error            =      0.0E+00 Ry
     Gradient error          =      6.6E-32 Ry/Bohr
     Cell gradient error     =      1.4E+02 kbar

     number of scf cycles    =   1
     number of bfgs steps    =   0

     enthalpy           new  =     -36.3835810183 Ry

     new trust radius        =       0.0693064207 bohr
ibrav =      2
 celldm(1) =      9.29046528
Input lattice vectors:
    -0.48819352    -0.00000000     0.48819352
     0.00000000     0.48819352     0.48819352
    -0.48819352     0.48819352    -0.00000000
New lattice vectors in INITIAL alat:
    -0.48819352     0.00000000     0.48819352
     0.00000000     0.48819352     0.48819352
    -0.48819352     0.48819352     0.00000000
New lattice vectors in NEW alat (for information only):
    -0.50000000     0.00000000     0.50000000
     0.00000000     0.50000000     0.50000000
    -0.50000000     0.50000000     0.00000000
Discrepancy in bohr =     0.000000    0.000000    0.000000
     new conv_thr            =       0.0000000100 Ry

     new unit-cell volume =    200.47139 a.u.^3 (    29.70680 Ang^3 )
     density =      2.34588 g/cm^3

CELL_PARAMETERS (alat=  9.51514597)
  -0.488193524   0.000000000   0.488193524
   0.000000000   0.488193524   0.488193524
  -0.488193524   0.488193524   0.000000000

ATOMIC_POSITIONS (crystal)
Si           -0.0000000000       -0.0000000000        0.0000000000
Li            0.5000000000        0.5000000000       -0.5000000000
Li            0.2500000000        1.2500000000       -0.7500000000



     Writing config-only to output data dir ./output/SiLi.save/
     NEW-OLD atomic charge density approx. for the potential
     extrapolated charge    9.25752, renormalised to   10.00000

     total cpu time spent up to now is        2.8 secs

     Self-consistent Calculation

     iteration #  1     ecut=    80.00 Ry     beta= 0.70
     Davidson diagonalization with overlap
     ethr =  1.00E-06,  avg # of iterations =  6.8

     total cpu time spent up to now is        3.2 secs

     total energy              =     -37.06334744 Ry
     estimated scf accuracy    <       0.00328051 Ry

     iteration #  2     ecut=    80.00 Ry     beta= 0.70
     Davidson diagonalization with overlap
     ethr =  3.28E-05,  avg # of iterations =  3.0

     total cpu time spent up to now is        3.3 secs

     total energy              =     -37.07388890 Ry
     estimated scf accuracy    <       0.00283244 Ry

     iteration #  3     ecut=    80.00 Ry     beta= 0.70
     Davidson diagonalization with overlap
     ethr =  2.83E-05,  avg # of iterations =  1.0

     total cpu time spent up to now is        3.5 secs

     total energy              =     -37.07351102 Ry
     estimated scf accuracy    <       0.00081423 Ry

     iteration #  4     ecut=    80.00 Ry     beta= 0.70
     Davidson diagonalization with overlap
     ethr =  8.14E-06,  avg # of iterations =  1.6

     total cpu time spent up to now is        3.7 secs

     total energy              =     -37.07355349 Ry
     estimated scf accuracy    <       0.00004563 Ry

     iteration #  5     ecut=    80.00 Ry     beta= 0.70
     Davidson diagonalization with overlap
     c_bands:  1 eigenvalues not converged
     ethr =  4.56E-07,  avg # of iterations =  3.1

     total cpu time spent up to now is        3.8 secs

     total energy              =     -37.07356060 Ry
     estimated scf accuracy    <       0.00000061 Ry

     iteration #  6     ecut=    80.00 Ry     beta= 0.70
     Davidson diagonalization with overlap
     ethr =  6.14E-09,  avg # of iterations =  2.9

     total cpu time spent up to now is        3.9 secs

     total energy              =     -37.07356086 Ry
     estimated scf accuracy    <       0.00000008 Ry

     iteration #  7     ecut=    80.00 Ry     beta= 0.70
     Davidson diagonalization with overlap
     ethr =  7.56E-10,  avg # of iterations =  1.3

     total cpu time spent up to now is        4.1 secs

     total energy              =     -37.07356085 Ry
     estimated scf accuracy    <       0.00000002 Ry

     iteration #  8     ecut=    80.00 Ry     beta= 0.70
     Davidson diagonalization with overlap
     ethr =  1.63E-10,  avg # of iterations =  2.0

     total cpu time spent up to now is        4.1 secs

     End of self-consistent calculation

          k = 0.0000 0.0000 0.0000 (  2637 PWs)   bands (ev):

   -38.1116 -37.6463  -2.2628  10.3186  10.3186  10.3186  12.7674  12.7674
    12.7674

          k =-0.1707 0.1707-0.1707 (  2631 PWs)   bands (ev):

   -38.0887 -37.6667  -1.9588   7.7412   9.7063   9.7063  13.5424  13.5424
    14.4336

          k =-0.3414 0.3414-0.3414 (  2593 PWs)   bands (ev):

   -38.0344 -37.7160  -1.1409   4.8207   9.1561   9.1561  12.4496  12.4496
    14.6448

          k = 0.5121-0.5121 0.5121 (  2608 PWs)   bands (ev):

   -37.9997 -37.7483  -0.4886   3.4307   9.0329   9.0329  11.7332  11.7332
    14.5295

          k = 0.0000 0.3414 0.0000 (  2609 PWs)   bands (ev):

   -38.0806 -37.6740  -1.8459   8.3141   8.3141   9.3551  12.3355  13.7909
    15.5192

          k =-0.1707 0.5121-0.1707 (  2594 PWs)   bands (ev):

   -38.0346 -37.7159  -1.1534   5.7982   7.5733   8.4295  12.0684  14.1737
    15.4564

          k = 0.6828-0.3414 0.6828 (  2608 PWs)   bands (ev):

   -37.9863 -37.7609  -0.2668   3.7628   7.3412   7.6878  11.9604  13.9810
    16.1316

          k = 0.5121-0.1707 0.5121 (  2604 PWs)   bands (ev):

   -38.0000 -37.7481  -0.5422   4.2867   6.7947   8.6234  12.5294  13.2308
    16.6037

          k = 0.3414 0.0000 0.3414 (  2617 PWs)   bands (ev):

   -38.0542 -37.6979  -1.4620   6.6359   7.1652  10.0043  12.9982  13.5801
    14.9386

          k = 0.0000 0.6828 0.0000 (  2626 PWs)   bands (ev):

   -38.0003 -37.7479  -0.5745   5.9465   6.5369   6.5369  11.7028  12.6687
    18.9457

          k = 0.8535-0.1707 0.8535 (  2606 PWs)   bands (ev):

   -37.9533 -37.7925   0.3470   4.1314   5.6710   6.3804  11.9317  13.7462
    17.9090

          k = 0.6828-0.0000 0.6828 (  2592 PWs)   bands (ev):

   -37.9532 -37.7925   0.3728   3.9502   5.1105   7.1215  12.1226  16.1147
    16.8947

          k = 0.0000-1.0242 0.0000 (  2586 PWs)   bands (ev):

   -37.9302 -37.8148   0.8588   3.4718   5.9256   5.9256  11.6565  12.3944
    21.9826

          k = 0.6828-0.3414 1.0242 (  2612 PWs)   bands (ev):

   -37.9866 -37.7608  -0.3147   4.9089   5.8485   7.2334  13.0908  13.9277
    15.6003

          k = 0.5121-0.1707 0.8535 (  2594 PWs)   bands (ev):

   -37.9532 -37.7925   0.3758   3.8060   5.6420   6.5419  13.2694  14.5301
    16.7354

          k =-0.3414-1.0242 0.0000 (  2590 PWs)   bands (ev):

   -37.9302 -37.8147   0.8494   3.6334   5.4458   5.7103  13.2104  13.9331
    17.2385

     the Fermi energy is     7.2391 ev

!    total energy              =     -37.07356085 Ry
     estimated scf accuracy    <          1.1E-09 Ry
     smearing contrib. (-TS)   =      -0.00100012 Ry
     internal energy E=F+TS    =     -37.07256073 Ry

     The total energy is F=E-TS. E is the sum of the following terms:
     one-electron contribution =     -10.09082254 Ry
     hartree contribution      =       6.44068183 Ry
     xc contribution           =     -10.20289291 Ry
     ewald contribution        =     -23.21952710 Ry

     convergence has been achieved in   8 iterations

     Forces acting on atoms (cartesian axes, Ry/au):

     atom    1 type  1   force =    -0.00000000   -0.00000000   -0.00000000
     atom    2 type  2   force =    -0.00000000   -0.00000000    0.00000000
     atom    3 type  2   force =    -0.00000000   -0.00000000   -0.00000000
     The non-local contrib.  to forces
     atom    1 type  1   force =     0.00000000    0.00000000   -0.00000000
     atom    2 type  2   force =     0.00000000   -0.00000000    0.00000000
     atom    3 type  2   force =     0.00000000    0.00000000   -0.00000000
     The ionic contribution  to forces
     atom    1 type  1   force =     0.00000000    0.00000000   -0.00000000
     atom    2 type  2   force =    -0.00000000    0.00000000    0.00000000
     atom    3 type  2   force =    -0.00000000   -0.00000000   -0.00000000
     The local contribution  to forces
     atom    1 type  1   force =     0.00000000   -0.00000000    0.00000000
     atom    2 type  2   force =     0.00000000    0.00000000    0.00000000
     atom    3 type  2   force =    -0.00000000   -0.00000000    0.00000000
     The core correction contribution to forces
     atom    1 type  1   force =    -0.00000000    0.00000000    0.00000000
     atom    2 type  2   force =     0.00000000    0.00000000    0.00000000
     atom    3 type  2   force =     0.00000000    0.00000000    0.00000000
     The Hubbard contrib.    to forces
     atom    1 type  1   force =     0.00000000    0.00000000    0.00000000
     atom    2 type  2   force =     0.00000000    0.00000000    0.00000000
     atom    3 type  2   force =     0.00000000    0.00000000    0.00000000
     The SCF correction term to forces
     atom    1 type  1   force =     0.00000000   -0.00000000    0.00000000
     atom    2 type  2   force =     0.00000000    0.00000000    0.00000000
     atom    3 type  2   force =     0.00000000   -0.00000000    0.00000000

     Total force =     0.000000     Total SCF correction =     0.000000


     Computing stress (Cartesian axis) and pressure

          total   stress  (Ry/bohr**3)                   (kbar)     P=      474.42
   0.00322508   0.00000000  -0.00000000          474.42        0.00       -0.00
   0.00000000   0.00322508  -0.00000000            0.00      474.42       -0.00
  -0.00000000  -0.00000000   0.00322508           -0.00       -0.00      474.42

     Energy error            =      8.6E-03 Ry
     Gradient error          =      2.2E-31 Ry/Bohr
     Cell gradient error     =      2.6E+01 kbar

     number of scf cycles    =   2
     number of bfgs steps    =   1

     enthalpy           old  =     -36.3835810183 Ry
     enthalpy           new  =     -36.3921724445 Ry

     CASE: enthalpy          _new < enthalpy          _old

     new trust radius        =       0.0145748810 bohr
ibrav =      2
 celldm(1) =      9.24264785
Input lattice vectors:
    -0.48568082    -0.00000000     0.48568082
     0.00000000     0.48568082     0.48568082
    -0.48568082     0.48568082     0.00000000
New lattice vectors in INITIAL alat:
    -0.48568082     0.00000000     0.48568082
     0.00000000     0.48568082     0.48568082
    -0.48568082     0.48568082     0.00000000
New lattice vectors in NEW alat (for information only):
    -0.50000000     0.00000000     0.50000000
     0.00000000     0.50000000     0.50000000
    -0.50000000     0.50000000     0.00000000
Discrepancy in bohr =     0.000000    0.000000    0.000000
     new conv_thr            =            1.0E-10 Ry

     new unit-cell volume =    197.39185 a.u.^3 (    29.25046 Ang^3 )
     density =      2.38248 g/cm^3

CELL_PARAMETERS (alat=  9.51514597)
  -0.485680823   0.000000000   0.485680823
   0.000000000   0.485680823   0.485680823
  -0.485680823   0.485680823   0.000000000

ATOMIC_POSITIONS (crystal)
Si            0.0000000000       -0.0000000000        0.0000000000
Li            0.5000000000        0.5000000000       -0.5000000000
Li            0.2500000000        1.2500000000       -0.7500000000



     Writing config-only to output data dir ./output/SiLi.save/
     NEW-OLD atomic charge density approx. for the potential
     extrapolated charge    9.84414, renormalised to   10.00000

     total cpu time spent up to now is        4.9 secs

     Self-consistent Calculation

     iteration #  1     ecut=    80.00 Ry     beta= 0.70
     Davidson diagonalization with overlap
     ethr =  1.00E-06,  avg # of iterations =  4.1

     total cpu time spent up to now is        5.1 secs

     total energy              =     -37.06289358 Ry
     estimated scf accuracy    <       0.00013058 Ry

     iteration #  2     ecut=    80.00 Ry     beta= 0.70
     Davidson diagonalization with overlap
     ethr =  1.31E-06,  avg # of iterations =  2.8

     total cpu time spent up to now is        5.2 secs

     total energy              =     -37.06335909 Ry
     estimated scf accuracy    <       0.00012660 Ry

     iteration #  3     ecut=    80.00 Ry     beta= 0.70
     Davidson diagonalization with overlap
     ethr =  1.27E-06,  avg # of iterations =  1.0

     total cpu time spent up to now is        5.3 secs

     total energy              =     -37.06334198 Ry
     estimated scf accuracy    <       0.00003862 Ry

     iteration #  4     ecut=    80.00 Ry     beta= 0.70
     Davidson diagonalization with overlap
     ethr =  3.86E-07,  avg # of iterations =  1.4

     total cpu time spent up to now is        5.4 secs

     total energy              =     -37.06334234 Ry
     estimated scf accuracy    <       0.00000376 Ry

     iteration #  5     ecut=    80.00 Ry     beta= 0.70
     Davidson diagonalization with overlap
     ethr =  3.76E-08,  avg # of iterations =  2.0

     total cpu time spent up to now is        5.5 secs

     total energy              =     -37.06334288 Ry
     estimated scf accuracy    <       0.00000004 Ry

     iteration #  6     ecut=    80.00 Ry     beta= 0.70
     Davidson diagonalization with overlap
     ethr =  3.94E-10,  avg # of iterations =  2.8

     total cpu time spent up to now is        5.6 secs

     total energy              =     -37.06334290 Ry
     estimated scf accuracy    <          3.0E-09 Ry

     iteration #  7     ecut=    80.00 Ry     beta= 0.70
     Davidson diagonalization with overlap
     ethr =  2.98E-11,  avg # of iterations =  1.9

     total cpu time spent up to now is        5.7 secs

     total energy              =     -37.06334290 Ry
     estimated scf accuracy    <          1.9E-10 Ry

     iteration #  8     ecut=    80.00 Ry     beta= 0.70
     Davidson diagonalization with overlap
     ethr =  1.85E-12,  avg # of iterations =  2.0

     total cpu time spent up to now is        5.8 secs

     End of self-consistent calculation

          k = 0.0000 0.0000 0.0000 (  2637 PWs)   bands (ev):

   -37.9766 -37.4848  -2.1564  10.5265  10.5265  10.5265  12.9368  12.9368
    12.9368

          k =-0.1716 0.1716-0.1716 (  2631 PWs)   bands (ev):

   -37.9529 -37.5059  -1.8511   7.9078   9.8959   9.8959  13.7366  13.7366
    14.6606

          k =-0.3432 0.3432-0.3432 (  2593 PWs)   bands (ev):

   -37.8972 -37.5565  -1.0293   4.9626   9.3376   9.3376  12.6277  12.6277
    14.8939

          k = 0.5147-0.5147 0.5147 (  2608 PWs)   bands (ev):

   -37.8618 -37.5892  -0.3734   3.5624   9.2151   9.2151  11.8997  11.8997
    14.7803

          k =-0.0000 0.3432-0.0000 (  2609 PWs)   bands (ev):

   -37.9446 -37.5134  -1.7374   8.4784   8.4784   9.5667  12.5116  13.9726
    15.7453

          k =-0.1716 0.5147-0.1716 (  2594 PWs)   bands (ev):

   -37.8973 -37.5563  -1.0405   5.9461   7.7277   8.6117  12.2503  14.3719
    15.6781

          k = 0.6863-0.3432 0.6863 (  2608 PWs)   bands (ev):

   -37.8484 -37.6018  -0.1470   3.8930   7.5044   7.8442  12.1451  14.1834
    16.3784

          k = 0.5147-0.1716 0.5147 (  2604 PWs)   bands (ev):

   -37.8621 -37.5889  -0.4253   4.4218   6.9498   8.7939  12.7221  13.4246
    16.8638

          k = 0.3432-0.0000 0.3432 (  2617 PWs)   bands (ev):

   -37.9174 -37.5379  -1.3516   6.7941   7.3200  10.2032  13.1849  13.7866
    15.1263

          k =-0.0000 0.6863-0.0000 (  2626 PWs)   bands (ev):

   -37.8624 -37.5887  -0.4546   6.1048   6.6782   6.6782  11.9040  12.8555
    19.2173

          k = 0.8579-0.1716 0.8579 (  2606 PWs)   bands (ev):

   -37.8159 -37.6326   0.4803   4.2546   5.8142   6.5199  12.1357  13.9485
    18.1579

          k = 0.6863-0.0000 0.6863 (  2592 PWs)   bands (ev):

   -37.8158 -37.6327   0.5046   4.0655   5.2589   7.2700  12.3200  16.3514
    17.1254

          k = 0.0000-1.0295 0.0000 (  2586 PWs)   bands (ev):

   -37.7944 -37.6533   1.0074   3.5828   6.0598   6.0598  11.8758  12.5796
    22.2474

          k = 0.6863-0.3432 1.0295 (  2612 PWs)   bands (ev):

   -37.8486 -37.6016  -0.1935   5.0446   5.9939   7.3892  13.2959  14.1280
    15.8275

          k = 0.5147-0.1716 0.8579 (  2594 PWs)   bands (ev):

   -37.8158 -37.6327   0.5076   3.9238   5.7897   6.6887  13.4663  14.7570
    16.9659

          k =-0.3432-1.0295 0.0000 (  2590 PWs)   bands (ev):

   -37.7944 -37.6533   0.9959   3.7360   5.5902   5.8498  13.4345  14.1228
    17.4972

     the Fermi energy is     7.3953 ev

!    total energy              =     -37.06334290 Ry
     estimated scf accuracy    <          1.5E-11 Ry
     smearing contrib. (-TS)   =      -0.00098124 Ry
     internal energy E=F+TS    =     -37.06236166 Ry

     The total energy is F=E-TS. E is the sum of the following terms:
     one-electron contribution =      -9.92151498 Ry
     hartree contribution      =       6.41816680 Ry
     xc contribution           =     -10.21935866 Ry
     ewald contribution        =     -23.33965483 Ry

     convergence has been achieved in   8 iterations

     Forces acting on atoms (cartesian axes, Ry/au):

     atom    1 type  1   force =    -0.00000000   -0.00000000   -0.00000000
     atom    2 type  2   force =     0.00000000   -0.00000000    0.00000000
     atom    3 type  2   force =    -0.00000000    0.00000000   -0.00000000
     The non-local contrib.  to forces
     atom    1 type  1   force =     0.00000000   -0.00000000    0.00000000
     atom    2 type  2   force =     0.00000000    0.00000000    0.00000000
     atom    3 type  2   force =     0.00000000    0.00000000   -0.00000000
     The ionic contribution  to forces
     atom    1 type  1   force =     0.00000000    0.00000000   -0.00000000
     atom    2 type  2   force =     0.00000000   -0.00000000    0.00000000
     atom    3 type  2   force =     0.00000000    0.00000000    0.00000000
     The local contribution  to forces
     atom    1 type  1   force =     0.00000000   -0.00000000   -0.00000000
     atom    2 type  2   force =     0.00000000    0.00000000    0.00000000
     atom    3 type  2   force =    -0.00000000   -0.00000000    0.00000000
     The core correction contribution to forces
     atom    1 type  1   force =     0.00000000   -0.00000000   -0.00000000
     atom    2 type  2   force =     0.00000000    0.00000000    0.00000000
     atom    3 type  2   force =     0.00000000    0.00000000    0.00000000
     The Hubbard contrib.    to forces
     atom    1 type  1   force =     0.00000000    0.00000000    0.00000000
     atom    2 type  2   force =     0.00000000    0.00000000    0.00000000
     atom    3 type  2   force =     0.00000000    0.00000000    0.00000000
     The SCF correction term to forces
     atom    1 type  1   force =    -0.00000000   -0.00000000   -0.00000000
     atom    2 type  2   force =     0.00000000   -0.00000000    0.00000000
     atom    3 type  2   force =    -0.00000000   -0.00000000   -0.00000000

     Total force =     0.000000     Total SCF correction =     0.000000


     Computing stress (Cartesian axis) and pressure

          total   stress  (Ry/bohr**3)                   (kbar)     P=      502.03
   0.00341270  -0.00000000   0.00000000          502.03       -0.00        0.00
  -0.00000000   0.00341270  -0.00000000           -0.00      502.03       -0.00
   0.00000000  -0.00000000   0.00341270            0.00       -0.00      502.03

     Energy error            =      2.5E-04 Ry
     Gradient error          =      1.8E-31 Ry/Bohr
     Cell gradient error     =      2.0E+00 kbar

     number of scf cycles    =   3
     number of bfgs steps    =   2

     enthalpy           old  =     -36.3921724445 Ry
     enthalpy           new  =     -36.3924216211 Ry

     CASE: enthalpy          _new < enthalpy          _old

     new trust radius        =       0.0010565007 bohr
ibrav =      2
 celldm(1) =      9.24612298
Input lattice vectors:
    -0.48586343     0.00000000     0.48586343
    -0.00000000     0.48586343     0.48586343
    -0.48586343     0.48586343    -0.00000000
New lattice vectors in INITIAL alat:
    -0.48586343     0.00000000     0.48586343
     0.00000000     0.48586343     0.48586343
    -0.48586343     0.48586343     0.00000000
New lattice vectors in NEW alat (for information only):
    -0.50000000     0.00000000     0.50000000
     0.00000000     0.50000000     0.50000000
    -0.50000000     0.50000000     0.00000000
Discrepancy in bohr =     0.000000    0.000000    0.000000
     new conv_thr            =            1.0E-10 Ry

     new unit-cell volume =    197.61459 a.u.^3 (    29.28346 Ang^3 )
     density =      2.37980 g/cm^3

CELL_PARAMETERS (alat=  9.51514597)
  -0.485863433   0.000000000   0.485863433
   0.000000000   0.485863433   0.485863433
  -0.485863433   0.485863433   0.000000000

ATOMIC_POSITIONS (crystal)
Si            0.0000000000       -0.0000000000        0.0000000000
Li            0.5000000000        0.5000000000       -0.5000000000
Li            0.2500000000        1.2500000000       -0.7500000000



     Writing config-only to output data dir ./output/SiLi.save/
     NEW-OLD atomic charge density approx. for the potential
     extrapolated charge   10.01126, renormalised to   10.00000

     total cpu time spent up to now is        6.5 secs

     Self-consistent Calculation

     iteration #  1     ecut=    80.00 Ry     beta= 0.70
     Davidson diagonalization with overlap
     ethr =  1.00E-06,  avg # of iterations =  1.9

     Threshold (ethr) on eigenvalues was too large:
     Diagonalizing with lowered threshold

     Davidson diagonalization with overlap
     ethr =  6.22E-09,  avg # of iterations =  2.4

     total cpu time spent up to now is        6.7 secs

     total energy              =     -37.06409914 Ry
     estimated scf accuracy    <       0.00000066 Ry

     iteration #  2     ecut=    80.00 Ry     beta= 0.70
     Davidson diagonalization with overlap
     ethr =  6.59E-09,  avg # of iterations =  2.8

     total cpu time spent up to now is        6.9 secs

     total energy              =     -37.06410156 Ry
     estimated scf accuracy    <       0.00000066 Ry

     iteration #  3     ecut=    80.00 Ry     beta= 0.70
     Davidson diagonalization with overlap
     ethr =  6.59E-09,  avg # of iterations =  1.0

     total cpu time spent up to now is        6.9 secs

     total energy              =     -37.06410148 Ry
     estimated scf accuracy    <       0.00000020 Ry

     iteration #  4     ecut=    80.00 Ry     beta= 0.70
     Davidson diagonalization with overlap
     ethr =  2.04E-09,  avg # of iterations =  1.0

     total cpu time spent up to now is        7.0 secs

     total energy              =     -37.06410147 Ry
     estimated scf accuracy    <       0.00000003 Ry

     iteration #  5     ecut=    80.00 Ry     beta= 0.70
     Davidson diagonalization with overlap
     ethr =  3.01E-10,  avg # of iterations =  2.0

     total cpu time spent up to now is        7.1 secs

     End of self-consistent calculation

          k = 0.0000 0.0000 0.0000 (  2637 PWs)   bands (ev):

   -37.9865 -37.4968  -2.1643  10.5113  10.5113  10.5113  12.9244  12.9244
    12.9244

          k =-0.1715 0.1715-0.1715 (  2631 PWs)   bands (ev):

   -37.9629 -37.5178  -1.8590   7.8956   9.8821   9.8821  13.7224  13.7224
    14.6440

          k =-0.3430 0.3430-0.3430 (  2593 PWs)   bands (ev):

   -37.9073 -37.5682  -1.0375   4.9522   9.3243   9.3243  12.6146  12.6146
    14.8756

          k = 0.5145-0.5145 0.5145 (  2608 PWs)   bands (ev):

   -37.8720 -37.6009  -0.3818   3.5527   9.2017   9.2017  11.8875  11.8875
    14.7619

          k = 0.0000 0.3430 0.0000 (  2609 PWs)   bands (ev):

   -37.9546 -37.5253  -1.7453   8.4664   8.4664   9.5512  12.4987  13.9593
    15.7287

          k =-0.1715 0.5145-0.1715 (  2594 PWs)   bands (ev):

   -37.9074 -37.5681  -1.0488   5.9353   7.7164   8.5984  12.2370  14.3574
    15.6619

          k = 0.6861-0.3430 0.6861 (  2608 PWs)   bands (ev):

   -37.8585 -37.6135  -0.1558   3.8834   7.4924   7.8327  12.1316  14.1685
    16.3603

          k = 0.5145-0.1715 0.5145 (  2604 PWs)   bands (ev):

   -37.8723 -37.6007  -0.4339   4.4118   6.9384   8.7814  12.7080  13.4104
    16.8448

          k = 0.3430 0.0000 0.3430 (  2617 PWs)   bands (ev):

   -37.9275 -37.5497  -1.3597   6.7825   7.3086  10.1886  13.1712  13.7714
    15.1126

          k = 0.0000 0.6861 0.0000 (  2626 PWs)   bands (ev):

   -37.8726 -37.6005  -0.4634   6.0932   6.6679   6.6679  11.8892  12.8418
    19.1974

          k = 0.8576-0.1715 0.8576 (  2606 PWs)   bands (ev):

   -37.8260 -37.6444   0.4705   4.2456   5.8037   6.5096  12.1208  13.9337
    18.1397

          k = 0.6861 0.0000 0.6861 (  2592 PWs)   bands (ev):

   -37.8259 -37.6445   0.4949   4.0570   5.2480   7.2591  12.3055  16.3340
    17.1085

          k = 0.0000-1.0291 0.0000 (  2586 PWs)   bands (ev):

   -37.8044 -37.6652   0.9965   3.5746   6.0500   6.0500  11.8597  12.5660
    22.2279

          k = 0.6861-0.3430 1.0291 (  2612 PWs)   bands (ev):

   -37.8588 -37.6133  -0.2023   5.0346   5.9832   7.3777  13.2809  14.1133
    15.8109

          k = 0.5145-0.1715 0.8576 (  2594 PWs)   bands (ev):

   -37.8259 -37.6445   0.4980   3.9151   5.7789   6.6779  13.4519  14.7403
    16.9490

          k =-0.3430-1.0291 0.0000 (  2590 PWs)   bands (ev):

   -37.8044 -37.6652   0.9852   3.7285   5.5796   5.8396  13.4181  14.1089
    17.4782

     the Fermi energy is     7.3838 ev

!    total energy              =     -37.06410148 Ry
     estimated scf accuracy    <          4.6E-11 Ry
     smearing contrib. (-TS)   =      -0.00098276 Ry
     internal energy E=F+TS    =     -37.06311872 Ry

     The total energy is F=E-TS. E is the sum of the following terms:
     one-electron contribution =      -9.93389617 Ry
     hartree contribution      =       6.41981386 Ry
     xc contribution           =     -10.21815375 Ry
     ewald contribution        =     -23.33088267 Ry

     convergence has been achieved in   5 iterations

     Forces acting on atoms (cartesian axes, Ry/au):

     atom    1 type  1   force =    -0.00000000    0.00000000    0.00000000
     atom    2 type  2   force =     0.00000000   -0.00000000    0.00000000
     atom    3 type  2   force =     0.00000000    0.00000000    0.00000000
     The non-local contrib.  to forces
     atom    1 type  1   force =    -0.00000000   -0.00000000    0.00000000
     atom    2 type  2   force =    -0.00000000    0.00000000   -0.00000000
     atom    3 type  2   force =    -0.00000000    0.00000000   -0.00000000
     The ionic contribution  to forces
     atom    1 type  1   force =    -0.00000000   -0.00000000   -0.00000000
     atom    2 type  2   force =     0.00000000   -0.00000000   -0.00000000
     atom    3 type  2   force =    -0.00000000   -0.00000000   -0.00000000
     The local contribution  to forces
     atom    1 type  1   force =     0.00000000    0.00000000    0.00000000
     atom    2 type  2   force =    -0.00000000    0.00000000    0.00000000
     atom    3 type  2   force =    -0.00000000    0.00000000    0.00000000
     The core correction contribution to forces
     atom    1 type  1   force =     0.00000000   -0.00000000    0.00000000
     atom    2 type  2   force =     0.00000000    0.00000000    0.00000000
     atom    3 type  2   force =     0.00000000    0.00000000    0.00000000
     The Hubbard contrib.    to forces
     atom    1 type  1   force =     0.00000000    0.00000000    0.00000000
     atom    2 type  2   force =     0.00000000    0.00000000    0.00000000
     atom    3 type  2   force =     0.00000000    0.00000000    0.00000000
     The SCF correction term to forces
     atom    1 type  1   force =    -0.00000000   -0.00000000   -0.00000000
     atom    2 type  2   force =     0.00000000   -0.00000000    0.00000000
     atom    3 type  2   force =    -0.00000000   -0.00000000   -0.00000000

     Total force =     0.000000     Total SCF correction =     0.000000


     Computing stress (Cartesian axis) and pressure

          total   stress  (Ry/bohr**3)                   (kbar)     P=      499.98
   0.00339877  -0.00000000   0.00000000          499.98       -0.00        0.00
  -0.00000000   0.00339877   0.00000000           -0.00      499.98        0.00
  -0.00000000   0.00000000   0.00339877           -0.00        0.00      499.98

     Energy error            =      1.5E-06 Ry
     Gradient error          =      5.0E-32 Ry/Bohr
     Cell gradient error     =      2.3E-02 kbar
ibrav =      2
 celldm(1) =      9.24612298
Input lattice vectors:
    -0.48586343     0.00000000     0.48586343
     0.00000000     0.48586343     0.48586343
    -0.48586343     0.48586343     0.00000000
New lattice vectors in INITIAL alat:
    -0.48586343     0.00000000     0.48586343
     0.00000000     0.48586343     0.48586343
    -0.48586343     0.48586343     0.00000000
New lattice vectors in NEW alat (for information only):
    -0.50000000     0.00000000     0.50000000
     0.00000000     0.50000000     0.50000000
    -0.50000000     0.50000000     0.00000000
Discrepancy in bohr =     0.000000    0.000000    0.000000

     bfgs converged in   4 scf cycles and   3 bfgs steps
     (criteria: energy <  1.0E-04 Ry, force <  1.0E-03 Ry/Bohr, cell <  1.0E+00 kbar)

     End of BFGS Geometry Optimization

     Final enthalpy           =     -36.3924231361 Ry

     File ./output/SiLi.bfgs deleted, as requested
Begin final coordinates
     new unit-cell volume =    197.61459 a.u.^3 (    29.28346 Ang^3 )
     density =      2.37980 g/cm^3

CELL_PARAMETERS (alat=  9.51514597)
  -0.485863433   0.000000000   0.485863433
   0.000000000   0.485863433   0.485863433
  -0.485863433   0.485863433   0.000000000

ATOMIC_POSITIONS (crystal)
Si            0.0000000000       -0.0000000000        0.0000000000
Li            0.5000000000        0.5000000000       -0.5000000000
Li            0.2500000000        1.2500000000       -0.7500000000
End final coordinates



     Writing config-only to output data dir ./output/SiLi.save/

     Final scf calculation at the relaxed structure.
     The G-vectors are recalculated for the final unit cell
     Results may differ from those at the preceding step.

     Parallelization info
     --------------------
     sticks:   dense  smooth     PW     G-vecs:    dense   smooth      PW
     Min         119     119     35                 2398     2398     389
     Max         120     120     36                 2400     2400     391
     Sum         955     955    283                19195    19195    3119

     Using Slab Decomposition



     bravais-lattice index     =            2
     lattice parameter (alat)  =       9.5151  a.u.
     unit-cell volume          =     197.6146 (a.u.)^3
     number of atoms/cell      =            3
     number of atomic types    =            2
     number of electrons       =        10.00
     number of Kohn-Sham states=            9
     kinetic-energy cutoff     =      80.0000  Ry
     charge density cutoff     =     320.0000  Ry
     scf convergence threshold =      1.0E-10
     mixing beta               =       0.7000
     number of iterations used =            8  plain     mixing
     press convergence thresh. =      1.0E+00
     Exchange-correlation= PBE
                           (   1   4   3   4   0   0   0)

     celldm(1)=   9.515146  celldm(2)=   0.000000  celldm(3)=   0.000000
     celldm(4)=   0.000000  celldm(5)=   0.000000  celldm(6)=   0.000000

     crystal axes: (cart. coord. in units of alat)
               a(1) = (  -0.485863   0.000000   0.485863 )  
               a(2) = (   0.000000   0.485863   0.485863 )  
               a(3) = (  -0.485863   0.485863   0.000000 )  

     reciprocal axes: (cart. coord. in units 2 pi/alat)
               b(1) = ( -1.029096 -1.029096  1.029096 )  
               b(2) = (  1.029096  1.029096  1.029096 )  
               b(3) = ( -1.029096  1.029096 -1.029096 )  


     PseudoPot. # 1 for Si read from file:
     ../pseudo/Si_ONCV_PBE_sr.upf
     MD5 check sum: e543d271109d17c80368dfa7c482276d
     Pseudo is Norm-conserving + core correction, Zval =  4.0
     Generated using ONCVPSP code by D. R. Hamann
     Using radial grid of 1510 points,  6 beta functions with: 
                l(1) =   0
                l(2) =   0
                l(3) =   1
                l(4) =   1
                l(5) =   2
                l(6) =   2

     PseudoPot. # 2 for Li read from file:
     ../pseudo/Li_ONCV_PBE_sr.upf
     MD5 check sum: 50ff420e78310ffa21704f3361e624a4
     Pseudo is Norm-conserving, Zval =  3.0
     Generated using ONCVPSP code by D. R. Hamann
     Using radial grid of 1944 points,  4 beta functions with: 
                l(1) =   0
                l(2) =   0
                l(3) =   1
                l(4) =   1

     atomic species   valence    mass     pseudopotential
        Si             4.00    28.08550     Si( 1.00)
        Li             3.00     6.94100     Li( 1.00)

     24 Sym. Ops. (no inversion) found



   Cartesian axes

     site n.     atom                  positions (alat units)
         1           Si  tau(   1) = (  -0.0000000  -0.0000000  -0.0000000  )
         2           Li  tau(   2) = (   0.0000000   0.0000000   0.4858634  )
         3           Li  tau(   3) = (   0.2429317   0.2429317   0.7287952  )

     number of k points=    16  Marzari-Vanderbilt smearing, width (Ry)=  0.0200
                       cart. coord. in units 2pi/alat
        k(    1) = (   0.0000000   0.0000000   0.0000000), wk =   0.0092593
        k(    2) = (  -0.1715160   0.1715160  -0.1715160), wk =   0.0740741
        k(    3) = (  -0.3430319   0.3430319  -0.3430319), wk =   0.0740741
        k(    4) = (   0.5145479  -0.5145479   0.5145479), wk =   0.0370370
        k(    5) = (   0.0000000   0.3430319   0.0000000), wk =   0.0555556
        k(    6) = (  -0.1715160   0.5145479  -0.1715160), wk =   0.2222222
        k(    7) = (   0.6860638  -0.3430319   0.6860638), wk =   0.2222222
        k(    8) = (   0.5145479  -0.1715160   0.5145479), wk =   0.2222222
        k(    9) = (   0.3430319   0.0000000   0.3430319), wk =   0.1111111
        k(   10) = (   0.0000000   0.6860638   0.0000000), wk =   0.0555556
        k(   11) = (   0.8575798  -0.1715160   0.8575798), wk =   0.2222222
        k(   12) = (   0.6860638   0.0000000   0.6860638), wk =   0.1111111
        k(   13) = (   0.0000000  -1.0290958   0.0000000), wk =   0.0277778
        k(   14) = (   0.6860638  -0.3430319   1.0290958), wk =   0.2222222
        k(   15) = (   0.5145479  -0.1715160   0.8575798), wk =   0.2222222
        k(   16) = (  -0.3430319  -1.0290958   0.0000000), wk =   0.1111111

     Dense  grid:    19195 G-vectors     FFT dimensions: (  40,  40,  40)

     Estimated max dynamical RAM per process >      14.18 MB

     Estimated total dynamical RAM >     113.46 MB

     Initial potential from superposition of free atoms

     starting charge       9.9903, renormalised to      10.0000
     Starting wfcs are    8 randomized atomic wfcs +    1 random wfcs

     total cpu time spent up to now is        7.9 secs

     Self-consistent Calculation

     iteration #  1     ecut=    80.00 Ry     beta= 0.70
     Davidson diagonalization with overlap
     c_bands:  1 eigenvalues not converged
     c_bands:  1 eigenvalues not converged
     ethr =  1.00E-06,  avg # of iterations = 15.8

     total cpu time spent up to now is        8.2 secs

     total energy              =     -37.06379805 Ry
     estimated scf accuracy    <       0.00965569 Ry

     iteration #  2     ecut=    80.00 Ry     beta= 0.70
     Davidson diagonalization with overlap
     ethr =  9.66E-05,  avg # of iterations =  1.0

     total cpu time spent up to now is        8.3 secs

     total energy              =     -37.06406503 Ry
     estimated scf accuracy    <       0.00051185 Ry

     iteration #  3     ecut=    80.00 Ry     beta= 0.70
     Davidson diagonalization with overlap
     ethr =  5.12E-06,  avg # of iterations =  1.8

     total cpu time spent up to now is        8.4 secs

     total energy              =     -37.06409299 Ry
     estimated scf accuracy    <       0.00000785 Ry

     iteration #  4     ecut=    80.00 Ry     beta= 0.70
     Davidson diagonalization with overlap
     ethr =  7.85E-08,  avg # of iterations =  2.4

     total cpu time spent up to now is        8.5 secs

     total energy              =     -37.06409525 Ry
     estimated scf accuracy    <       0.00000020 Ry

     iteration #  5     ecut=    80.00 Ry     beta= 0.70
     Davidson diagonalization with overlap
     ethr =  2.00E-09,  avg # of iterations =  2.2

     total cpu time spent up to now is        8.6 secs

     total energy              =     -37.06409530 Ry
     estimated scf accuracy    <          3.9E-09 Ry

     iteration #  6     ecut=    80.00 Ry     beta= 0.70
     Davidson diagonalization with overlap
     ethr =  3.89E-11,  avg # of iterations =  2.8

     total cpu time spent up to now is        8.8 secs

     total energy              =     -37.06409530 Ry
     estimated scf accuracy    <          1.5E-10 Ry

     iteration #  7     ecut=    80.00 Ry     beta= 0.70
     Davidson diagonalization with overlap
     ethr =  1.54E-12,  avg # of iterations =  1.9

     total cpu time spent up to now is        8.9 secs

     End of self-consistent calculation

          k = 0.0000 0.0000 0.0000 (  2421 PWs)   bands (ev):

   -37.9865 -37.4967  -2.1643  10.5113  10.5113  10.5113  12.9244  12.9244
    12.9244

          k =-0.1715 0.1715-0.1715 (  2385 PWs)   bands (ev):

   -37.9629 -37.5177  -1.8590   7.8956   9.8820   9.8820  13.7224  13.7224
    14.6440

          k =-0.3430 0.3430-0.3430 (  2382 PWs)   bands (ev):

   -37.9072 -37.5682  -1.0375   4.9522   9.3243   9.3243  12.6146  12.6146
    14.8756

          k = 0.5145-0.5145 0.5145 (  2392 PWs)   bands (ev):

   -37.8719 -37.6008  -0.3818   3.5527   9.2017   9.2017  11.8875  11.8875
    14.7619

          k = 0.0000 0.3430 0.0000 (  2381 PWs)   bands (ev):

   -37.9545 -37.5252  -1.7454   8.4664   8.4664   9.5512  12.4987  13.9593
    15.7287

          k =-0.1715 0.5145-0.1715 (  2386 PWs)   bands (ev):

   -37.9074 -37.5681  -1.0488   5.9353   7.7164   8.5984  12.2370  14.3574
    15.6618

          k = 0.6861-0.3430 0.6861 (  2390 PWs)   bands (ev):

   -37.8585 -37.6135  -0.1558   3.8834   7.4924   7.8327  12.1316  14.1685
    16.3603

          k = 0.5145-0.1715 0.5145 (  2397 PWs)   bands (ev):

   -37.8722 -37.6006  -0.4339   4.4118   6.9384   8.7814  12.7080  13.4104
    16.8448

          k = 0.3430 0.0000 0.3430 (  2391 PWs)   bands (ev):

   -37.9275 -37.5497  -1.3597   6.7825   7.3086  10.1886  13.1712  13.7714
    15.1126

          k = 0.0000 0.6861 0.0000 (  2397 PWs)   bands (ev):

   -37.8725 -37.6004  -0.4634   6.0932   6.6679   6.6679  11.8892  12.8418
    19.1974

          k = 0.8576-0.1715 0.8576 (  2380 PWs)   bands (ev):

   -37.8260 -37.6444   0.4705   4.2456   5.8037   6.5096  12.1207  13.9336
    18.1397

          k = 0.6861 0.0000 0.6861 (  2381 PWs)   bands (ev):

   -37.8259 -37.6444   0.4949   4.0570   5.2480   7.2591  12.3055  16.3340
    17.1085

          k = 0.0000-1.0291 0.0000 (  2402 PWs)   bands (ev):

   -37.8044 -37.6652   0.9965   3.5746   6.0500   6.0500  11.8597  12.5660
    22.2277

          k = 0.6861-0.3430 1.0291 (  2391 PWs)   bands (ev):

   -37.8588 -37.6133  -0.2023   5.0346   5.9832   7.3777  13.2809  14.1133
    15.8109

          k = 0.5145-0.1715 0.8576 (  2384 PWs)   bands (ev):

   -37.8259 -37.6444   0.4980   3.9151   5.7789   6.6779  13.4518  14.7403
    16.9490

          k =-0.3430-1.0291 0.0000 (  2382 PWs)   bands (ev):

   -37.8044 -37.6651   0.9852   3.7285   5.5796   5.8396  13.4181  14.1089
    17.4782

     the Fermi energy is     7.3838 ev

!    total energy              =     -37.06409530 Ry
     estimated scf accuracy    <          2.0E-12 Ry
     smearing contrib. (-TS)   =      -0.00098275 Ry
     internal energy E=F+TS    =     -37.06311255 Ry

     The total energy is F=E-TS. E is the sum of the following terms:
     one-electron contribution =      -9.93388761 Ry
     hartree contribution      =       6.41980665 Ry
     xc contribution           =     -10.21814891 Ry
     ewald contribution        =     -23.33088267 Ry

     convergence has been achieved in   7 iterations

     Forces acting on atoms (cartesian axes, Ry/au):

     atom    1 type  1   force =     0.00000000    0.00000000    0.00000000
     atom    2 type  2   force =    -0.00000000   -0.00000000   -0.00000000
     atom    3 type  2   force =     0.00000000   -0.00000000    0.00000000
     The non-local contrib.  to forces
     atom    1 type  1   force =     0.00000000    0.00000000   -0.00000000
     atom    2 type  2   force =     0.00000000    0.00000000   -0.00000000
     atom    3 type  2   force =    -0.00000000   -0.00000000    0.00000000
     The ionic contribution  to forces
     atom    1 type  1   force =     0.00000000    0.00000000   -0.00000000
     atom    2 type  2   force =    -0.00000000   -0.00000000    0.00000000
     atom    3 type  2   force =    -0.00000000    0.00000000    0.00000000
     The local contribution  to forces
     atom    1 type  1   force =    -0.00000000    0.00000000   -0.00000000
     atom    2 type  2   force =     0.00000000    0.00000000   -0.00000000
     atom    3 type  2   force =    -0.00000000    0.00000000    0.00000000
     The core correction contribution to forces
     atom    1 type  1   force =     0.00000000   -0.00000000    0.00000000
     atom    2 type  2   force =     0.00000000    0.00000000    0.00000000
     atom    3 type  2   force =     0.00000000    0.00000000    0.00000000
     The Hubbard contrib.    to forces
     atom    1 type  1   force =     0.00000000    0.00000000    0.00000000
     atom    2 type  2   force =     0.00000000    0.00000000    0.00000000
     atom    3 type  2   force =     0.00000000    0.00000000    0.00000000
     The SCF correction term to forces
     atom    1 type  1   force =     0.00000000   -0.00000000   -0.00000000
     atom    2 type  2   force =    -0.00000000   -0.00000000    0.00000000
     atom    3 type  2   force =    -0.00000000    0.00000000   -0.00000000

     Total force =     0.000000     Total SCF correction =     0.000000


     Computing stress (Cartesian axis) and pressure

          total   stress  (Ry/bohr**3)                   (kbar)     P=      499.95
   0.00339862  -0.00000000  -0.00000000          499.95       -0.00       -0.00
  -0.00000000   0.00339862  -0.00000000           -0.00      499.95       -0.00
  -0.00000000  -0.00000000   0.00339862           -0.00       -0.00      499.95


     Writing all to output data dir ./output/SiLi.save/

     init_run     :      0.70s CPU      0.91s WALL (       2 calls)
     electrons    :      3.77s CPU      4.78s WALL (       5 calls)
     update_pot   :      0.73s CPU      0.76s WALL (       3 calls)
     forces       :      0.65s CPU      0.70s WALL (       5 calls)
     stress       :      1.62s CPU      1.76s WALL (       5 calls)

     Called by init_run:
     wfcinit      :      0.07s CPU      0.08s WALL (       2 calls)
     potinit      :      0.23s CPU      0.36s WALL (       2 calls)
     hinit0       :      0.38s CPU      0.44s WALL (       2 calls)

     Called by electrons:
     c_bands      :      2.89s CPU      3.31s WALL (      35 calls)
     sum_band     :      0.49s CPU      0.60s WALL (      35 calls)
     v_of_rho     :      0.43s CPU      0.99s WALL (      38 calls)
     mix_rho      :      0.06s CPU      0.08s WALL (      35 calls)

     Called by c_bands:
     init_us_2    :      0.11s CPU      0.12s WALL (    1312 calls)
     init_us_2:cp :      0.10s CPU      0.12s WALL (    1312 calls)
     cegterg      :      2.68s CPU      2.83s WALL (     560 calls)

     Called by *egterg:
     cdiaghg      :      0.20s CPU      0.21s WALL (    2053 calls)
     h_psi        :      2.29s CPU      2.41s WALL (    2165 calls)
     g_psi        :      0.01s CPU      0.01s WALL (    1573 calls)

     Called by h_psi:
     h_psi:calbec :      0.13s CPU      0.13s WALL (    2165 calls)
     vloc_psi     :      2.07s CPU      2.18s WALL (    2165 calls)
     add_vuspsi   :      0.08s CPU      0.09s WALL (    2165 calls)

     General routines
     calbec       :      0.16s CPU      0.17s WALL (    2565 calls)
     fft          :      0.73s CPU      1.52s WALL (     505 calls)
     ffts         :      0.04s CPU      0.08s WALL (      35 calls)
     fftw         :      2.12s CPU      2.23s WALL (   32722 calls)

     Parallel routines

     PWSCF        :      7.79s CPU      9.44s WALL


   This run was terminated on:  16:47:43  26Dec2024            

=------------------------------------------------------------------------------=
   JOB DONE.
=------------------------------------------------------------------------------=
