
     Program PWSCF v.7.2 starts on 10Jan2025 at 22: 9: 6 

     This program is part of the open-source Quantum ESPRESSO suite
     for quantum simulation of materials; please cite
         "P. Giannozzi et al., J. Phys.:Condens. Matter 21 395502 (2009);
         "P. Giannozzi et al., J. Phys.:Condens. Matter 29 465901 (2017);
         "P. Giannozzi et al., J. Chem. Phys. 152 154105 (2020);
          URL http://www.quantum-espresso.org", 
     in publications or presentations arising from this work. More details at
     http://www.quantum-espresso.org/quote

     Parallel version (MPI & OpenMP), running on       8 processor cores
     Number of MPI processes:                 8
     Threads/MPI process:                     1

     MPI processes distributed on     1 nodes
     482064 MiB available memory on the printing compute node when the environment starts

     Waiting for input...
     Reading input from standard input

     Current dimensions of program PWSCF are:
     Max number of different atomic species (ntypx) = 10
     Max number of k-points (npk) =  40000
     Max angular momentum in pseudopotentials (lmaxx) =  4

     R & G space division:  proc/nbgrp/npool/nimage =       8
     Subspace diagonalization in iterative solution of the eigenvalue problem:
     a serial algorithm will be used


     Parallelization info
     --------------------
     sticks:   dense  smooth     PW     G-vecs:    dense   smooth      PW
     Min         187     187     61                 3092     3092     580
     Max         188     188     62                 3094     3094     581
     Sum        1497    1497    493                24743    24743    4645

     Using Slab Decomposition



     bravais-lattice index     =            5
     lattice parameter (alat)  =      10.6572  a.u.
     unit-cell volume          =     183.4815 (a.u.)^3
     number of atoms/cell      =            3
     number of atomic types    =            2
     number of electrons       =        10.00
     number of Kohn-Sham states=            9
     kinetic-energy cutoff     =     100.0000  Ry
     charge density cutoff     =     400.0000  Ry
     scf convergence threshold =      1.0E-08
     mixing beta               =       0.7000
     number of iterations used =            8  plain     mixing
     energy convergence thresh.=      1.0E-04
     force convergence thresh. =      1.0E-03
     press convergence thresh. =      1.0E+00
     Exchange-correlation= PBE
                           (   1   4   3   4   0   0   0)
     nstep                     =           50


     celldm(1)=  10.657185  celldm(2)=   0.000000  celldm(3)=   0.000000
     celldm(4)=   0.909722  celldm(5)=   0.000000  celldm(6)=   0.000000

     crystal axes: (cart. coord. in units of alat)
               a(1) = (   0.212460  -0.122664   0.969440 )  
               a(2) = (   0.000000   0.245327   0.969440 )  
               a(3) = (  -0.212460  -0.122664   0.969440 )  

     reciprocal axes: (cart. coord. in units 2 pi/alat)
               b(1) = (  2.353388 -1.358729  0.343841 )  
               b(2) = (  0.000000  2.717458  0.343841 )  
               b(3) = ( -2.353388 -1.358729  0.343841 )  


     PseudoPot. # 1 for Si read from file:
     ../pseudo/Si_ONCV_PBE_sr.upf
     MD5 check sum: e543d271109d17c80368dfa7c482276d
     Pseudo is Norm-conserving + core correction, Zval =  4.0
     Generated using ONCVPSP code by D. R. Hamann
     Using radial grid of 1510 points,  6 beta functions with: 
                l(1) =   0
                l(2) =   0
                l(3) =   1
                l(4) =   1
                l(5) =   2
                l(6) =   2

     PseudoPot. # 2 for Li read from file:
     ../pseudo/Li_ONCV_PBE_sr.upf
     MD5 check sum: 50ff420e78310ffa21704f3361e624a4
     Pseudo is Norm-conserving, Zval =  3.0
     Generated using ONCVPSP code by D. R. Hamann
     Using radial grid of 1944 points,  4 beta functions with: 
                l(1) =   0
                l(2) =   0
                l(3) =   1
                l(4) =   1

     atomic species   valence    mass     pseudopotential
        Si             4.00    28.08550     Si( 1.00)
        Li             3.00     6.94100     Li( 1.00)

     12 Sym. Ops., with inversion, found



   Cartesian axes

     site n.     atom                  positions (alat units)
         1           Si  tau(   1) = (  -0.0000000  -0.0000000   1.4541605  )
         2           Li  tau(   2) = (   0.0000000  -0.0000000   0.1862687  )
         3           Li  tau(   3) = (   0.0000000  -0.0000000   2.7220522  )

     number of k points=    65  Marzari-Vanderbilt smearing, width (Ry)=  0.0200
                       cart. coord. in units 2pi/alat
        k(    1) = (   0.0000000   0.0000000   0.0000000), wk =   0.0039062
        k(    2) = (  -0.2941735  -0.1698411   0.0429801), wk =   0.0234375
        k(    3) = (  -0.5883470  -0.3396823   0.0859603), wk =   0.0234375
        k(    4) = (  -0.8825204  -0.5095234   0.1289404), wk =   0.0234375
        k(    5) = (   1.1766939   0.6793646  -0.1719205), wk =   0.0117188
        k(    6) = (  -0.2941735   0.1698411   0.0859603), wk =   0.0234375
        k(    7) = (  -0.5883470   0.0000000   0.1289404), wk =   0.0468750
        k(    8) = (  -0.8825204  -0.1698411   0.1719205), wk =   0.0468750
        k(    9) = (   1.1766939   1.0190468  -0.1289404), wk =   0.0468750
        k(   10) = (   0.8825204   0.8492057  -0.0859603), wk =   0.0468750
        k(   11) = (   0.5883470   0.6793646  -0.0429801), wk =   0.0468750
        k(   12) = (   0.2941735   0.5095234   0.0000000), wk =   0.0234375
        k(   13) = (  -0.5883470   0.3396823   0.1719205), wk =   0.0234375
        k(   14) = (  -0.8825204   0.1698411   0.2149006), wk =   0.0468750
        k(   15) = (   1.1766939   1.3587291  -0.0859603), wk =   0.0468750
        k(   16) = (   0.8825204   1.1888880  -0.0429801), wk =   0.0468750
        k(   17) = (   0.5883470   1.0190468   0.0000000), wk =   0.0234375
        k(   18) = (  -0.8825204   0.5095234   0.2578808), wk =   0.0234375
        k(   19) = (   1.1766939   1.6984114  -0.0429801), wk =   0.0468750
        k(   20) = (   0.8825204   1.5285703   0.0000000), wk =   0.0234375
        k(   21) = (   1.1766939  -0.6793646  -0.3438410), wk =   0.0117188
        k(   22) = (   0.0000000   0.0000000   0.1289404), wk =   0.0078125
        k(   23) = (  -0.2941735  -0.1698411   0.1719205), wk =   0.0234375
        k(   24) = (  -0.5883470  -0.3396823   0.2149006), wk =   0.0234375
        k(   25) = (   1.4708674   0.8492057  -0.0859603), wk =   0.0234375
        k(   26) = (   1.1766939   0.6793646  -0.0429801), wk =   0.0234375
        k(   27) = (   0.8825204   0.5095234   0.0000000), wk =   0.0234375
        k(   28) = (   0.5883470   0.3396823   0.0429801), wk =   0.0234375
        k(   29) = (  -0.2941735   0.1698411   0.2149006), wk =   0.0234375
        k(   30) = (  -0.5883470  -0.0000000   0.2578808), wk =   0.0468750
        k(   31) = (   1.4708674   1.1888880  -0.0429801), wk =   0.0468750
        k(   32) = (   1.1766939   1.0190468   0.0000000), wk =   0.0468750
        k(   33) = (   0.8825204   0.8492057   0.0429801), wk =   0.0468750
        k(   34) = (   0.5883470   0.6793646   0.0859603), wk =   0.0468750
        k(   35) = (  -0.5883470   0.3396823   0.3008609), wk =   0.0234375
        k(   36) = (   1.4708674   1.5285703   0.0000000), wk =   0.0468750
        k(   37) = (   1.1766939   1.3587291   0.0429801), wk =   0.0468750
        k(   38) = (   0.8825204   1.1888880   0.0859603), wk =   0.0468750
        k(   39) = (   0.5883470   1.0190468   0.1289404), wk =   0.0468750
        k(   40) = (   1.4708674  -0.8492057  -0.3008609), wk =   0.0234375
        k(   41) = (   1.1766939  -1.0190468  -0.2578808), wk =   0.0468750
        k(   42) = (   0.8825204  -1.1888880  -0.2149006), wk =   0.0468750
        k(   43) = (   0.5883470  -1.3587291  -0.1719205), wk =   0.0234375
        k(   44) = (   1.1766939  -0.6793646  -0.2149006), wk =   0.0234375
        k(   45) = (   0.8825204  -0.8492057  -0.1719205), wk =   0.0468750
        k(   46) = (   0.8825204  -0.5095234  -0.1289404), wk =   0.0234375
        k(   47) = (   0.0000000   0.0000000   0.2578808), wk =   0.0078125
        k(   48) = (  -0.2941735  -0.1698411   0.3008609), wk =   0.0234375
        k(   49) = (   1.7650409   1.0190468   0.0000000), wk =   0.0234375
        k(   50) = (   1.4708674   0.8492057   0.0429801), wk =   0.0234375
        k(   51) = (   1.1766939   0.6793646   0.0859603), wk =   0.0234375
        k(   52) = (  -0.2941735   0.1698411   0.3438410), wk =   0.0234375
        k(   53) = (   1.7650409   1.3587291   0.0429801), wk =   0.0468750
        k(   54) = (   1.4708674   1.1888880   0.0859603), wk =   0.0468750
        k(   55) = (   1.1766939   1.0190468   0.1289404), wk =   0.0468750
        k(   56) = (   1.7650409  -1.0190468  -0.2578808), wk =   0.0234375
        k(   57) = (   1.4708674  -1.1888880  -0.2149006), wk =   0.0468750
        k(   58) = (   1.1766939  -1.3587291  -0.1719205), wk =   0.0234375
        k(   59) = (   1.4708674  -0.8492057  -0.1719205), wk =   0.0234375
        k(   60) = (   0.0000000  -0.0000000   0.3868211), wk =   0.0078125
        k(   61) = (   2.0592144   1.1888880   0.0859603), wk =   0.0234375
        k(   62) = (   1.7650409   1.0190468   0.1289404), wk =   0.0234375
        k(   63) = (   2.0592144  -1.1888880  -0.2149006), wk =   0.0234375
        k(   64) = (   1.7650409  -1.3587291  -0.1719205), wk =   0.0234375
        k(   65) = (   0.0000000   0.0000000  -0.5157615), wk =   0.0039062

     Dense  grid:    24743 G-vectors     FFT dimensions: (  72,  72,  72)

     Estimated max dynamical RAM per process >      21.37 MB

     Estimated total dynamical RAM >     170.94 MB

     Initial potential from superposition of free atoms

     starting charge       9.9903, renormalised to      10.0000
     Starting wfcs are    8 randomized atomic wfcs +    1 random wfcs

     total cpu time spent up to now is        3.2 secs

     Self-consistent Calculation

     iteration #  1     ecut=   100.00 Ry     beta= 0.70
     Davidson diagonalization with overlap
     ethr =  1.00E-02,  avg # of iterations =  6.0

     Threshold (ethr) on eigenvalues was too large:
     Diagonalizing with lowered threshold

     Davidson diagonalization with overlap
     ethr =  1.94E-04,  avg # of iterations =  3.1

     total cpu time spent up to now is        7.1 secs

     total energy              =     -37.09427830 Ry
     estimated scf accuracy    <       0.01943510 Ry

     iteration #  2     ecut=   100.00 Ry     beta= 0.70
     Davidson diagonalization with overlap
     ethr =  1.94E-04,  avg # of iterations =  2.0

     total cpu time spent up to now is        8.6 secs

     total energy              =     -37.09167431 Ry
     estimated scf accuracy    <       0.02760552 Ry

     iteration #  3     ecut=   100.00 Ry     beta= 0.70
     Davidson diagonalization with overlap
     ethr =  1.94E-04,  avg # of iterations =  1.7

     total cpu time spent up to now is       10.0 secs

     total energy              =     -37.09824998 Ry
     estimated scf accuracy    <       0.00322181 Ry

     iteration #  4     ecut=   100.00 Ry     beta= 0.70
     Davidson diagonalization with overlap
     ethr =  3.22E-05,  avg # of iterations =  1.1

     total cpu time spent up to now is       11.4 secs

     total energy              =     -37.09869663 Ry
     estimated scf accuracy    <       0.00001415 Ry

     iteration #  5     ecut=   100.00 Ry     beta= 0.70
     Davidson diagonalization with overlap
     c_bands:  1 eigenvalues not converged
     ethr =  1.41E-07,  avg # of iterations =  3.8

     total cpu time spent up to now is       13.1 secs

     total energy              =     -37.09870331 Ry
     estimated scf accuracy    <       0.00000251 Ry

     iteration #  6     ecut=   100.00 Ry     beta= 0.70
     Davidson diagonalization with overlap
     ethr =  2.51E-08,  avg # of iterations =  1.4

     total cpu time spent up to now is       14.5 secs

     total energy              =     -37.09870378 Ry
     estimated scf accuracy    <       0.00000001 Ry

     iteration #  7     ecut=   100.00 Ry     beta= 0.70
     Davidson diagonalization with overlap
     ethr =  1.26E-10,  avg # of iterations =  3.1

     total cpu time spent up to now is       16.0 secs

     End of self-consistent calculation

          k = 0.0000 0.0000 0.0000 (  3111 PWs)   bands (ev):

   -36.9015 -36.7711  -5.3160   3.3856   5.9075  15.4895  18.1725  24.2771
    24.2771

          k =-0.2942-0.1698 0.0430 (  3101 PWs)   bands (ev):

   -36.8753 -36.7479  -4.8209   3.7474   6.2469  15.4079  17.3685  19.5708
    20.6580

          k =-0.5883-0.3397 0.0860 (  3091 PWs)   bands (ev):

   -36.8119 -36.6918  -3.3486   4.8038   7.1890  12.1273  15.7388  18.5452
    18.8429

          k =-0.8825-0.5095 0.1289 (  3090 PWs)   bands (ev):

   -36.7481 -36.6353  -0.9402   5.8484   7.1279   9.5067  14.2442  16.8124
    17.2713

          k = 1.1767 0.6794-0.1719 (  3090 PWs)   bands (ev):

   -36.7216 -36.6118   1.9794   2.7471   8.2910   9.5984  13.6097  14.6785
    16.8466

          k =-0.2942 0.1698 0.0860 (  3101 PWs)   bands (ev):

   -36.8751 -36.7481  -4.8206   3.7249   6.3006  15.0040  18.0543  19.3043
    20.6319

          k =-0.5883 0.0000 0.1289 (  3099 PWs)   bands (ev):

   -36.8302 -36.7086  -3.8360   4.4041   7.0419  14.1174  14.8754  17.7422
    19.6858

          k =-0.8825-0.1698 0.1719 (  3088 PWs)   bands (ev):

   -36.7666 -36.6521  -1.8915   5.6813   8.0755  10.3389  13.1654  15.7111
    18.1359

          k = 1.1767 1.0190-0.1289 (  3095 PWs)   bands (ev):

   -36.7216 -36.6119   0.9471   4.6156   7.8967  10.3189  12.3860  13.6157
    15.6645

          k = 0.8825 0.8492-0.0860 (  3100 PWs)   bands (ev):

   -36.7218 -36.6118   0.9323   4.6812   8.0501   9.7910  12.3273  13.8176
    16.1358

          k = 0.5883 0.6794-0.0430 (  3089 PWs)   bands (ev):

   -36.7671 -36.6517  -1.8966   5.8972   7.7836  10.0725  13.4714  15.9901
    18.7146

          k = 0.2942 0.5095 0.0000 (  3093 PWs)   bands (ev):

   -36.8307 -36.7081  -3.8377   4.4904   6.8525  14.5519  14.7682  18.3826
    18.7210

          k =-0.5883 0.3397 0.1719 (  3099 PWs)   bands (ev):

   -36.8114 -36.6923  -3.3461   4.6844   7.5173  11.6181  16.1554  18.4860
    18.7186

          k =-0.8825 0.1698 0.2149 (  3088 PWs)   bands (ev):

   -36.7664 -36.6524  -1.8889   5.6039   8.5312   9.6856  13.4687  16.0917
    17.2345

          k = 1.1767 1.3587-0.0860 (  3102 PWs)   bands (ev):

   -36.7216 -36.6122   0.4997   6.7736   8.0643   8.4021  11.5543  14.0709
    15.8370

          k = 0.8825 1.1889-0.0430 (  3104 PWs)   bands (ev):

   -36.7032 -36.5954   3.3699   4.1542   7.7356   9.1492  11.3085  12.8666
    15.3527

          k = 0.5883 1.0190 0.0000 (  3101 PWs)   bands (ev):

   -36.7220 -36.6117   0.4802   7.1974   8.0370   8.1941  10.9011  13.6078
    17.5181

          k =-0.8825 0.5095 0.2579 (  3109 PWs)   bands (ev):

   -36.7476 -36.6358  -0.9300   5.8741   6.8950   9.7863  14.5252  16.1131
    17.1829

          k = 1.1767 1.6984-0.0430 (  3099 PWs)   bands (ev):

   -36.7213 -36.6123   0.9553   4.7868   7.2088  10.9574  12.0150  14.2661
    16.8834

          k = 0.8825 1.5286 0.0000 (  3115 PWs)   bands (ev):

   -36.7030 -36.5956   3.3621   4.2572   7.6322   8.5192  11.9292  13.8633
    15.7019

          k = 1.1767-0.6794-0.3438 (  3096 PWs)   bands (ev):

   -36.7211 -36.6123   1.9566   2.8971   7.1710  11.0564  14.1760  14.5416
    16.3799

          k = 0.0000 0.0000 0.1289 (  3084 PWs)   bands (ev):

   -36.9009 -36.7718  -5.3151   3.3322   6.0386  14.7680  19.1006  23.0839
    23.0839

          k =-0.2942-0.1698 0.1719 (  3107 PWs)   bands (ev):

   -36.8744 -36.7489  -4.8192   3.6497   6.4834  14.4523  17.7096  20.4996
    20.6687

          k =-0.5883-0.3397 0.2149 (  3094 PWs)   bands (ev):

   -36.8111 -36.6926  -3.3446   4.6201   7.5877  12.2440  14.5516  18.5497
    19.2356

          k = 1.4709 0.8492-0.0860 (  3097 PWs)   bands (ev):

   -36.7476 -36.6358  -0.9296   5.6084   7.1797  10.2314  13.6313  16.3891
    17.2663

          k = 1.1767 0.6794-0.0430 (  3108 PWs)   bands (ev):

   -36.7215 -36.6119   1.9755   2.7688   8.0229   9.9207  13.6030  14.7439
    16.8312

          k = 0.8825 0.5095 0.0000 (  3107 PWs)   bands (ev):

   -36.7483 -36.6351  -0.9447   6.0968   6.9486   9.1766  14.5416  17.1024
    17.2479

          k = 0.5883 0.3397 0.0430 (  3090 PWs)   bands (ev):

   -36.8120 -36.6916  -3.3493   4.8363   7.1516  11.9032  16.6606  18.3714
    18.5184

          k =-0.2942 0.1698 0.2149 (  3103 PWs)   bands (ev):

   -36.8740 -36.7493  -4.8183   3.6028   6.6142  13.9297  18.5249  20.2443
    20.6063

          k =-0.5883-0.0000 0.2579 (  3095 PWs)   bands (ev):

   -36.8291 -36.7097  -3.8321   4.2284   7.5001  13.3037  14.9358  17.3135
    20.7187

          k = 1.4709 1.1889-0.0430 (  3087 PWs)   bands (ev):

   -36.7659 -36.6529  -1.8833   5.4237   8.5258  10.6865  12.6453  15.3217
    17.8968

          k = 1.1767 1.0190 0.0000 (  3106 PWs)   bands (ev):

   -36.7213 -36.6122   0.9646   4.5945   7.5921  11.1379  12.3230  13.3858
    15.5171

          k = 0.8825 0.8492 0.0430 (  3098 PWs)   bands (ev):

   -36.7218 -36.6118   0.9286   4.7588   7.8153   9.8757  12.1814  14.0705
    16.6792

          k = 0.5883 0.6794 0.0860 (  3090 PWs)   bands (ev):

   -36.7670 -36.6518  -1.8955   5.8516   7.9429   9.8684  13.5485  16.2278
    17.9301

          k =-0.5883 0.3397 0.3009 (  3092 PWs)   bands (ev):

   -36.8104 -36.6933  -3.3411   4.4872   8.0987  11.3062  15.1912  18.4666
    18.9437

          k = 1.4709 1.5286 0.0000 (  3087 PWs)   bands (ev):

   -36.7657 -36.6531  -1.8807   5.3672   9.2946   9.5346  13.2177  15.3229
    17.4461

          k = 1.1767 1.3587 0.0430 (  3101 PWs)   bands (ev):

   -36.7213 -36.6125   0.5137   6.5660   8.0584   8.4735  12.2779  14.5089
    14.7174

          k = 0.8825 1.1889 0.0860 (  3108 PWs)   bands (ev):

   -36.7031 -36.5954   3.3660   4.1970   7.6910   8.8446  11.6952  13.0341
    15.8081

          k = 0.5883 1.0190 0.1289 (  3098 PWs)   bands (ev):

   -36.7219 -36.6119   0.4859   7.0446   8.0606   8.2705  11.0680  13.7310
    16.9347

          k = 1.4709-0.8492-0.3009 (  3115 PWs)   bands (ev):

   -36.7471 -36.6363  -0.9193   5.6071   7.0096  10.5037  13.8889  15.6401
    17.1784

          k = 1.1767-1.0190-0.2579 (  3111 PWs)   bands (ev):

   -36.7211 -36.6125   0.9705   4.7113   7.1802  11.5038  12.1105  13.7834
    16.3484

          k = 0.8825-1.1889-0.2149 (  3117 PWs)   bands (ev):

   -36.7030 -36.5955   3.3631   4.2396   7.6489   8.6064  11.8940  13.4941
    16.1987

          k = 0.5883-1.3587-0.1719 (  3106 PWs)   bands (ev):

   -36.7032 -36.5953   3.3719   4.1364   7.7548   9.3141  11.0892  12.8412
    15.1973

          k = 1.1767-0.6794-0.2149 (  3103 PWs)   bands (ev):

   -36.7212 -36.6122   1.9594   2.8747   7.2831  10.9041  13.8935  14.7707
    16.7605

          k = 0.8825-0.8492-0.1719 (  3098 PWs)   bands (ev):

   -36.7216 -36.6120   0.9380   4.8055   7.4430  10.3560  12.0550  14.2869
    17.0345

          k = 0.8825-0.5095-0.1289 (  3106 PWs)   bands (ev):

   -36.7481 -36.6353  -0.9405   6.1361   6.8097   9.3020  14.6291  16.8814
    17.2112

          k = 0.0000 0.0000 0.2579 (  3078 PWs)   bands (ev):

   -36.8994 -36.7733  -5.3129   3.2171   6.3587  13.6561  20.8359  23.0617
    23.0617

          k =-0.2942-0.1698 0.3009 (  3111 PWs)   bands (ev):

   -36.8730 -36.7504  -4.8164   3.5126   6.8805  13.3566  18.0279  20.6572
    21.8763

          k = 1.7650 1.0190 0.0000 (  3088 PWs)   bands (ev):

   -36.8100 -36.6937  -3.3395   4.4346   8.1392  12.0307  13.8320  18.5290
    19.3653

          k = 1.4709 0.8492 0.0430 (  3109 PWs)   bands (ev):

   -36.7471 -36.6363  -0.9190   5.4659   7.1547  11.1079  12.8682  16.0032
    17.2362

          k = 1.1767 0.6794 0.0860 (  3099 PWs)   bands (ev):

   -36.7213 -36.6120   1.9669   2.8214   7.5952  10.4765  13.6593  14.8439
    16.7952

          k =-0.2942 0.1698 0.3438 (  3099 PWs)   bands (ev):

   -36.8725 -36.7508  -4.8155   3.4729   7.0212  12.9815  18.4703  20.5955
    21.8402

          k = 1.7650 1.3587 0.0430 (  3104 PWs)   bands (ev):

   -36.8280 -36.7108  -3.8282   4.0826   8.0000  12.5260  14.9649  17.1008
    21.3365

          k = 1.4709 1.1889 0.0860 (  3094 PWs)   bands (ev):

   -36.7654 -36.6534  -1.8767   5.2624   8.9282  10.8281  12.3023  14.9772
    17.9561

          k = 1.1767 1.0190 0.1289 (  3100 PWs)   bands (ev):

   -36.7211 -36.6124   0.9744   4.6314   7.3270  11.6852  12.2823  13.2435
    15.8060

          k = 1.7650-1.0190-0.2579 (  3094 PWs)   bands (ev):

   -36.8095 -36.6942  -3.3370   4.3560   8.5928  11.1346  14.3912  18.4708
    19.1061

          k = 1.4709-1.1889-0.2149 (  3088 PWs)   bands (ev):

   -36.7653 -36.6535  -1.8756   5.2424   9.2302  10.2296  12.7057  14.9081
    17.8009

          k = 1.1767-1.3587-0.1719 (  3102 PWs)   bands (ev):

   -36.7211 -36.6127   0.5195   6.4907   8.0555   8.4921  12.8393  14.0169
    14.7564

          k = 1.4709-0.8492-0.1719 (  3109 PWs)   bands (ev):

   -36.7469 -36.6365  -0.9147   5.4620   7.0954  11.2468  12.9157  15.7143
    17.1999

          k = 0.0000-0.0000 0.3868 (  3075 PWs)   bands (ev):

   -36.8978 -36.7749  -5.3108   3.1167   6.6963  12.8125  22.6803  23.0404
    23.0405

          k = 2.0592 1.1889 0.0860 (  3109 PWs)   bands (ev):

   -36.8718 -36.7516  -4.8141   3.4170   7.2265  12.6139  18.2174  20.6308
    22.9773

          k = 1.7650 1.0190 0.1289 (  3101 PWs)   bands (ev):

   -36.8094 -36.6943  -3.3364   4.3364   8.5926  11.4404  13.8830  18.4962
    19.2793

          k = 2.0592-1.1889-0.2149 (  3097 PWs)   bands (ev):

   -36.8716 -36.7518  -4.8137   3.4020   7.2907  12.4729  18.3562  20.6055
    22.9622

          k = 1.7650-1.3587-0.1719 (  3102 PWs)   bands (ev):

   -36.8276 -36.7112  -3.8266   4.0284   8.2354  12.1887  14.9747  17.0344
    21.5673

          k = 0.0000 0.0000-0.5158 (  3074 PWs)   bands (ev):

   -36.8972 -36.7756  -5.3099   3.0784   6.8456  12.4934  23.0318  23.7641
    24.3119

     the Fermi energy is     8.5752 ev

!    total energy              =     -37.09870379 Ry
     estimated scf accuracy    <          1.3E-09 Ry
     smearing contrib. (-TS)   =       0.00037487 Ry
     internal energy E=F+TS    =     -37.09907866 Ry

     The total energy is F=E-TS. E is the sum of the following terms:
     one-electron contribution =      -9.30727196 Ry
     hartree contribution      =       6.41390064 Ry
     xc contribution           =     -10.38923939 Ry
     ewald contribution        =     -23.81646795 Ry

     convergence has been achieved in   7 iterations

     Forces acting on atoms (cartesian axes, Ry/au):

     atom    1 type  1   force =    -0.00000000   -0.00000000    0.00000000
     atom    2 type  2   force =     0.00000000    0.00000000   -0.08415129
     atom    3 type  2   force =    -0.00000000   -0.00000000    0.08415129
     The non-local contrib.  to forces
     atom    1 type  1   force =    -0.00000000   -0.00000000    0.00000000
     atom    2 type  2   force =     0.00000000   -0.00000000   -0.05119576
     atom    3 type  2   force =     0.00000000   -0.00000000    0.05119576
     The ionic contribution  to forces
     atom    1 type  1   force =    -0.00000000    0.00000000   -0.00000000
     atom    2 type  2   force =     0.00000000    0.00000000   -1.57238999
     atom    3 type  2   force =    -0.00000000   -0.00000000    1.57238999
     The local contribution  to forces
     atom    1 type  1   force =     0.00000000    0.00000000    0.00000000
     atom    2 type  2   force =     0.00000000   -0.00000000    1.53947430
     atom    3 type  2   force =    -0.00000000    0.00000000   -1.53947430
     The core correction contribution to forces
     atom    1 type  1   force =    -0.00000000    0.00000000   -0.00000000
     atom    2 type  2   force =     0.00000000    0.00000000    0.00000000
     atom    3 type  2   force =     0.00000000    0.00000000    0.00000000
     The Hubbard contrib.    to forces
     atom    1 type  1   force =     0.00000000    0.00000000    0.00000000
     atom    2 type  2   force =     0.00000000    0.00000000    0.00000000
     atom    3 type  2   force =     0.00000000    0.00000000    0.00000000
     The SCF correction term to forces
     atom    1 type  1   force =     0.00000000   -0.00000000   -0.00000000
     atom    2 type  2   force =    -0.00000000    0.00000000   -0.00003984
     atom    3 type  2   force =    -0.00000000   -0.00000000    0.00003984

     Total force =     0.119008     Total SCF correction =     0.000056


     Computing stress (Cartesian axis) and pressure

          total   stress  (Ry/bohr**3)                   (kbar)     P=      612.84
   0.00369600   0.00000000   0.00000000          543.70        0.00        0.00
   0.00000000   0.00369600   0.00000000            0.00      543.70        0.00
  -0.00000000   0.00000000   0.00510611           -0.00        0.00      751.13


     BFGS Geometry Optimization
     Energy error            =      0.0E+00 Ry
     Gradient error          =      8.4E-02 Ry/Bohr
     Cell gradient error     =      2.5E+02 kbar

     number of scf cycles    =   1
     number of bfgs steps    =   0

     enthalpy           new  =     -36.4750630113 Ry

     new trust radius        =       0.1156232821 bohr
ibrav =      5
 celldm(1) =     11.08977641
 celldm(4) =      0.91538463
Input lattice vectors:
     0.21403753    -0.12357463     1.01081553
     0.00000000     0.24714926     1.01081553
    -0.21403753    -0.12357463     1.01081553
New lattice vectors in INITIAL alat:
     0.21403753    -0.12357463     1.01081553
     0.00000000     0.24714926     1.01081553
    -0.21403753    -0.12357463     1.01081553
New lattice vectors in NEW alat (for information only):
     0.20568832    -0.11875421     0.97138548
     0.00000000     0.23750842     0.97138548
    -0.20568832    -0.11875421     0.97138548
Discrepancy in bohr =     0.000000    0.000000    0.000000
     new conv_thr            =       0.0000000100 Ry

     new unit-cell volume =    194.16452 a.u.^3 (    28.77221 Ang^3 )
     density =      2.42208 g/cm^3

CELL_PARAMETERS (alat= 10.65718468)
   0.214037534  -0.123574628   1.010815530
   0.000000000   0.247149256   1.010815530
  -0.214037534  -0.123574628   1.010815530

ATOMIC_POSITIONS (crystal)
Si            0.5000000000        0.5000000000        0.5000000000
Li            0.0613317916        0.0613317916        0.0613317916
Li            0.9386682084        0.9386682084        0.9386682084



     Writing config-only to output data dir ./output/SiLi.save/
     NEW-OLD atomic charge density approx. for the potential
     extrapolated charge   10.54967, renormalised to   10.00000

     total cpu time spent up to now is       17.3 secs

     Self-consistent Calculation

     iteration #  1     ecut=   100.00 Ry     beta= 0.70
     Davidson diagonalization with overlap
     ethr =  1.00E-06,  avg # of iterations =  8.7

     total cpu time spent up to now is       20.7 secs

     total energy              =     -37.10770600 Ry
     estimated scf accuracy    <       0.05107218 Ry

     iteration #  2     ecut=   100.00 Ry     beta= 0.70
     Davidson diagonalization with overlap
     ethr =  5.11E-04,  avg # of iterations =  2.9

     total cpu time spent up to now is       22.4 secs

     total energy              =     -37.10151065 Ry
     estimated scf accuracy    <       0.42159274 Ry

     iteration #  3     ecut=   100.00 Ry     beta= 0.70
     Davidson diagonalization with overlap
     ethr =  5.11E-04,  avg # of iterations =  1.9

     total cpu time spent up to now is       23.9 secs

     total energy              =     -37.15252561 Ry
     estimated scf accuracy    <       0.00399987 Ry

     iteration #  4     ecut=   100.00 Ry     beta= 0.70
     Davidson diagonalization with overlap
     ethr =  4.00E-05,  avg # of iterations =  2.2

     total cpu time spent up to now is       25.2 secs

     total energy              =     -37.15227212 Ry
     estimated scf accuracy    <       0.00104087 Ry

     iteration #  5     ecut=   100.00 Ry     beta= 0.70
     Davidson diagonalization with overlap
     ethr =  1.04E-05,  avg # of iterations =  2.8

     total cpu time spent up to now is       26.7 secs

     total energy              =     -37.15247274 Ry
     estimated scf accuracy    <       0.00003162 Ry

     iteration #  6     ecut=   100.00 Ry     beta= 0.70
     Davidson diagonalization with overlap
     ethr =  3.16E-07,  avg # of iterations =  1.8

     total cpu time spent up to now is       28.0 secs

     total energy              =     -37.15247938 Ry
     estimated scf accuracy    <       0.00000074 Ry

     iteration #  7     ecut=   100.00 Ry     beta= 0.70
     Davidson diagonalization with overlap
     ethr =  7.37E-09,  avg # of iterations =  1.9

     total cpu time spent up to now is       29.3 secs

     total energy              =     -37.15247928 Ry
     estimated scf accuracy    <       0.00000038 Ry

     iteration #  8     ecut=   100.00 Ry     beta= 0.70
     Davidson diagonalization with overlap
     ethr =  3.80E-09,  avg # of iterations =  1.2

     total cpu time spent up to now is       30.5 secs

     End of self-consistent calculation

          k = 0.0000 0.0000 0.0000 (  3111 PWs)   bands (ev):

   -37.4472 -37.3179  -5.6541   2.6454   5.3518  13.8671  16.9747  23.6112
    23.6112

          k =-0.2920-0.1686 0.0412 (  3101 PWs)   bands (ev):

   -37.4235 -37.2968  -5.1583   3.0321   5.6843  13.9628  16.5773  18.5248
    20.1735

          k =-0.5840-0.3372 0.0824 (  3091 PWs)   bands (ev):

   -37.3659 -37.2456  -3.6831   4.1683   6.6209  11.6354  14.6447  17.7498
    18.0779

          k =-0.8760-0.5058 0.1237 (  3090 PWs)   bands (ev):

   -37.3082 -37.1941  -1.2678   5.5456   6.5469   8.8071  13.5974  15.9594
    17.1229

          k = 1.1680 0.6744-0.1649 (  3090 PWs)   bands (ev):

   -37.2841 -37.1727   1.6650   2.4417   7.8552   8.9017  12.6750  14.0385
    16.3978

          k =-0.2920 0.1686 0.0824 (  3101 PWs)   bands (ev):

   -37.4234 -37.2969  -5.1580   3.0153   5.7288  13.6831  17.0780  18.3395
    20.1529

          k =-0.5840-0.0000 0.1237 (  3099 PWs)   bands (ev):

   -37.3827 -37.2607  -4.1719   3.7522   6.4482  13.2923  14.3554  16.7580
    18.4140

          k =-0.8760-0.1686 0.1649 (  3088 PWs)   bands (ev):

   -37.3251 -37.2093  -2.2233   5.1572   7.5369   9.7895  12.6216  15.0356
    17.1629

          k = 1.1680 1.0115-0.1237 (  3095 PWs)   bands (ev):

   -37.2842 -37.1728   0.6237   4.3316   7.3724   9.6692  11.9684  12.8744
    14.8293

          k = 0.8760 0.8429-0.0824 (  3100 PWs)   bands (ev):

   -37.2843 -37.1727   0.6122   4.3837   7.5474   9.1357  11.9144  13.1185
    15.2173

          k = 0.5840 0.6744-0.0412 (  3089 PWs)   bands (ev):

   -37.3253 -37.2091  -2.2272   5.3330   7.2770   9.5693  12.9459  15.4040
    17.4778

          k = 0.2920 0.5058 0.0000 (  3093 PWs)   bands (ev):

   -37.3829 -37.2605  -4.1731   3.8188   6.2891  13.8378  14.1533  17.2105
    17.5272

          k =-0.5840 0.3372 0.1649 (  3099 PWs)   bands (ev):

   -37.3657 -37.2458  -3.6812   4.0706   6.9005  11.1433  14.9195  18.0052
    18.0309

          k =-0.8760 0.1686 0.2061 (  3088 PWs)   bands (ev):

   -37.3250 -37.2094  -2.2212   5.0796   7.9625   9.1993  12.9395  15.2213
    16.3769

          k = 1.1680 1.3487-0.0824 (  3102 PWs)   bands (ev):

   -37.2842 -37.1730   0.1720   6.4754   7.5726   8.0156  10.7825  13.5440
    15.0371

          k = 0.8760 1.1801-0.0412 (  3104 PWs)   bands (ev):

   -37.2674 -37.1578   3.0574   3.8375   7.3822   8.7578  10.6674  12.2937
    14.3095

          k = 0.5840 1.0115 0.0000 (  3101 PWs)   bands (ev):

   -37.2844 -37.1728   0.1567   6.9064   7.6442   7.6648  10.1873  13.1171
    16.7824

          k =-0.8760 0.5058 0.2473 (  3109 PWs)   bands (ev):

   -37.3079 -37.1943  -1.2597   5.4969   6.4456   9.0495  13.8538  15.1077
    16.7472

          k = 1.1680 1.6859-0.0412 (  3099 PWs)   bands (ev):

   -37.2841 -37.1730   0.6308   4.4752   6.7631  10.2971  11.6260  13.3818
    15.9121

          k = 0.8760 1.5173 0.0000 (  3115 PWs)   bands (ev):

   -37.2673 -37.1578   3.0516   3.9205   7.3048   8.1364  11.3298  13.1997
    14.7243

          k = 1.1680-0.6744-0.3298 (  3096 PWs)   bands (ev):

   -37.2839 -37.1729   1.6482   2.5622   6.7679  10.3898  13.3585  13.6388
    15.3162

          k = 0.0000 0.0000 0.1237 (  3084 PWs)   bands (ev):

   -37.4469 -37.3182  -5.6534   2.6061   5.4601  13.3136  17.7258  22.6818
    22.6818

          k =-0.2920-0.1686 0.1649 (  3107 PWs)   bands (ev):

   -37.4231 -37.2972  -5.1569   2.9585   5.8817  13.1570  17.0912  19.1207
    20.1822

          k =-0.5840-0.3372 0.2061 (  3094 PWs)   bands (ev):

   -37.3656 -37.2460  -3.6800   4.0216   6.9648  11.7070  13.5759  18.0816
    18.3601

          k = 1.4600 0.8429-0.0824 (  3097 PWs)   bands (ev):

   -37.3079 -37.1943  -1.2596   5.3072   6.6096   9.4640  12.9491  15.6149
    16.7774

          k = 1.1680 0.6744-0.0412 (  3108 PWs)   bands (ev):

   -37.2841 -37.1727   1.6622   2.4591   7.5778   9.2392  12.6842  14.0729
    16.3857

          k = 0.8760 0.5058 0.0000 (  3107 PWs)   bands (ev):

   -37.3082 -37.1940  -1.2712   5.7783   6.3984   8.4905  13.9341  16.1242
    16.7992

          k = 0.5840 0.3372 0.0412 (  3090 PWs)   bands (ev):

   -37.3660 -37.2455  -3.6836   4.1922   6.5898  11.4289  15.4170  17.2989
    18.0566

          k =-0.2920 0.1686 0.2061 (  3103 PWs)   bands (ev):

   -37.4228 -37.2974  -5.1562   2.9222   5.9919  12.7443  17.8899  18.8387
    20.1328

          k =-0.5840-0.0000 0.2473 (  3095 PWs)   bands (ev):

   -37.3822 -37.2612  -4.1688   3.6117   6.8406  12.4260  14.4743  16.4821
    19.6803

          k = 1.4600 1.1801-0.0412 (  3087 PWs)   bands (ev):

   -37.3247 -37.2097  -2.2169   4.9348   7.9760  10.0393  12.0927  14.6097
    17.0996

          k = 1.1680 1.0115 0.0000 (  3106 PWs)   bands (ev):

   -37.2841 -37.1729   0.6374   4.3170   7.0790  10.4982  11.9034  12.5343
    14.7471

          k = 0.8760 0.8429 0.0412 (  3098 PWs)   bands (ev):

   -37.2843 -37.1727   0.6096   4.4471   7.3504   9.2034  11.7835  13.3470
    15.6740

          k = 0.5840 0.6744 0.0824 (  3090 PWs)   bands (ev):

   -37.3252 -37.2092  -2.2263   5.2897   7.4270   9.3820  13.0336  15.6402
    16.6892

          k =-0.5840 0.3372 0.2885 (  3092 PWs)   bands (ev):

   -37.3653 -37.2463  -3.6772   3.9085   7.4003  10.8155  14.1107  18.0156
    18.3833

          k = 1.4600 1.5173 0.0000 (  3087 PWs)   bands (ev):

   -37.3246 -37.2098  -2.2148   4.8763   8.6994   9.0006  12.6254  14.4934
    16.6911

          k = 1.1680 1.3487 0.0412 (  3101 PWs)   bands (ev):

   -37.2841 -37.1731   0.1829   6.2730   7.5655   8.1036  11.4341  13.9524
    13.9884

          k = 0.8760 1.1801 0.0824 (  3108 PWs)   bands (ev):

   -37.2674 -37.1578   3.0546   3.8719   7.3487   8.4525  11.0766  12.4036
    14.7677

          k = 0.5840 1.0115 0.1237 (  3098 PWs)   bands (ev):

   -37.2844 -37.1728   0.1612   6.7468   7.5889   7.8389  10.3382  13.2298
    16.1352

          k = 1.4600-0.8429-0.2885 (  3115 PWs)   bands (ev):

   -37.3077 -37.1946  -1.2514   5.2585   6.5327   9.7222  13.0758  14.8774
    16.7436

          k = 1.1680-1.0115-0.2473 (  3111 PWs)   bands (ev):

   -37.2840 -37.1730   0.6425   4.4160   6.7164  10.9172  11.6769  12.8061
    15.4955

          k = 0.8760-1.1801-0.2061 (  3117 PWs)   bands (ev):

   -37.2674 -37.1578   3.0524   3.9062   7.3172   8.2205  11.2917  12.8231
    15.1925

          k = 0.5840-1.3487-0.1649 (  3106 PWs)   bands (ev):

   -37.2674 -37.1577   3.0587   3.8232   7.3966   8.9309  10.4337  12.2947
    14.1440

          k = 1.1680-0.6744-0.2061 (  3103 PWs)   bands (ev):

   -37.2840 -37.1729   1.6503   2.5442   6.8718  10.2328  13.0201  13.9574
    15.4814

          k = 0.8760-0.8429-0.1649 (  3098 PWs)   bands (ev):

   -37.2842 -37.1728   0.6172   4.4871   6.9978   9.6800  11.6696  13.4991
    15.9746

          k = 0.8760-0.5058-0.1237 (  3106 PWs)   bands (ev):

   -37.3082 -37.1941  -1.2679   5.7627   6.3423   8.5947  14.0334  15.7856
    16.7699

          k = 0.0000 0.0000 0.2473 (  3078 PWs)   bands (ev):

   -37.4462 -37.3189  -5.6517   2.5191   5.7286  12.3776  19.2639  22.6638
    22.6638

          k =-0.2920-0.1686 0.2885 (  3111 PWs)   bands (ev):

   -37.4224 -37.2979  -5.1547   2.8515   6.2188  12.2024  17.5102  20.1735
    20.2988

          k = 1.7520 1.0115 0.0000 (  3088 PWs)   bands (ev):

   -37.3651 -37.2464  -3.6760   3.8673   7.4494  11.4108  12.9963  18.0653
    18.6239

          k = 1.4600 0.8429 0.0412 (  3109 PWs)   bands (ev):

   -37.3077 -37.1946  -1.2513   5.1584   6.6122  10.2272  12.2061  15.2857
    16.7681

          k = 1.1680 0.6744 0.0824 (  3099 PWs)   bands (ev):

   -37.2840 -37.1728   1.6559   2.5013   7.1645   9.7990  12.7648  14.1073
    16.0174

          k =-0.2920 0.1686 0.3298 (  3099 PWs)   bands (ev):

   -37.4222 -37.2981  -5.1540   2.8197   6.3386  11.8911  17.9142  20.1245
    20.3675

          k = 1.7520 1.3487 0.0412 (  3104 PWs)   bands (ev):

   -37.3817 -37.2617  -4.1658   3.4916   7.2724  11.6686  14.5235  16.3492
    20.7065

          k = 1.4600 1.1801 0.0824 (  3094 PWs)   bands (ev):

   -37.3245 -37.2099  -2.2118   4.7908   8.3998  10.0715  11.7523  14.2966
    17.1889

          k = 1.1680 1.0115 0.1237 (  3100 PWs)   bands (ev):

   -37.2840 -37.1730   0.6453   4.3499   6.8377  11.1690  11.8244  12.2337
    15.0275

          k = 1.7520-1.0115-0.2473 (  3094 PWs)   bands (ev):

   -37.3649 -37.2467  -3.6741   3.7988   7.8268  10.6091  13.4694  18.0190
    18.5163

          k = 1.4600-1.1801-0.2061 (  3088 PWs)   bands (ev):

   -37.3244 -37.2100  -2.2109   4.7699   8.7328   9.5099  12.0842  14.2093
    17.0303

          k = 1.1680-1.3487-0.1649 (  3102 PWs)   bands (ev):

   -37.2840 -37.1732   0.1874   6.2003   7.5633   8.1266  11.8912  13.3836
    14.2074

          k = 1.4600-0.8429-0.1649 (  3109 PWs)   bands (ev):

   -37.3076 -37.1947  -1.2479   5.1387   6.5852  10.3725  12.1860  15.0170
    16.9620

          k = 0.0000-0.0000 0.3710 (  3075 PWs)   bands (ev):

   -37.4455 -37.3196  -5.6500   2.4407   6.0155  11.6438  20.9947  22.6466
    22.6466

          k = 2.0440 1.1801 0.0824 (  3109 PWs)   bands (ev):

   -37.4218 -37.2984  -5.1530   2.7748   6.5148  11.5497  17.7112  20.1529
    21.5856

          k = 1.7520 1.0115 0.1237 (  3101 PWs)   bands (ev):

   -37.3648 -37.2467  -3.6736   3.7834   7.8397  10.8384  13.0667  18.0393
    18.6285

          k = 2.0440-1.1801-0.2061 (  3097 PWs)   bands (ev):

   -37.4217 -37.2985  -5.1527   2.7627   6.5695  11.4311  17.8317  20.1327
    21.7111

          k = 1.7520-1.3487-0.1649 (  3102 PWs)   bands (ev):

   -37.3815 -37.2620  -4.1645   3.4462   7.4747  11.3528  14.5378  16.3074
    21.0355

          k = 0.0000 0.0000-0.4947 (  3074 PWs)   bands (ev):

   -37.4452 -37.3199  -5.6493   2.4103   6.1428  11.3645  22.1099  22.6396
    23.6371

     the Fermi energy is     8.1017 ev

!    total energy              =     -37.15247934 Ry
     estimated scf accuracy    <          1.4E-09 Ry
     smearing contrib. (-TS)   =       0.00032166 Ry
     internal energy E=F+TS    =     -37.15280100 Ry

     The total energy is F=E-TS. E is the sum of the following terms:
     one-electron contribution =      -9.57027426 Ry
     hartree contribution      =       6.31703366 Ry
     xc contribution           =     -10.30930529 Ry
     ewald contribution        =     -23.59025511 Ry

     convergence has been achieved in   8 iterations

     Forces acting on atoms (cartesian axes, Ry/au):

     atom    1 type  1   force =     0.00000000    0.00000000    0.00000000
     atom    2 type  2   force =    -0.00000000   -0.00000000   -0.03921235
     atom    3 type  2   force =     0.00000000    0.00000000    0.03921235
     The non-local contrib.  to forces
     atom    1 type  1   force =    -0.00000000    0.00000000    0.00000000
     atom    2 type  2   force =     0.00000000   -0.00000000   -0.04085310
     atom    3 type  2   force =     0.00000000    0.00000000    0.04085310
     The ionic contribution  to forces
     atom    1 type  1   force =     0.00000000    0.00000000   -0.00000000
     atom    2 type  2   force =     0.00000000    0.00000000   -1.24417498
     atom    3 type  2   force =     0.00000000   -0.00000000    1.24417498
     The local contribution  to forces
     atom    1 type  1   force =    -0.00000000   -0.00000000   -0.00000000
     atom    2 type  2   force =    -0.00000000   -0.00000000    1.24578225
     atom    3 type  2   force =    -0.00000000    0.00000000   -1.24578225
     The core correction contribution to forces
     atom    1 type  1   force =    -0.00000000   -0.00000000   -0.00000000
     atom    2 type  2   force =     0.00000000    0.00000000    0.00000000
     atom    3 type  2   force =     0.00000000    0.00000000    0.00000000
     The Hubbard contrib.    to forces
     atom    1 type  1   force =     0.00000000    0.00000000    0.00000000
     atom    2 type  2   force =     0.00000000    0.00000000    0.00000000
     atom    3 type  2   force =     0.00000000    0.00000000    0.00000000
     The SCF correction term to forces
     atom    1 type  1   force =     0.00000000   -0.00000000   -0.00000000
     atom    2 type  2   force =     0.00000000   -0.00000000    0.00003348
     atom    3 type  2   force =    -0.00000000    0.00000000   -0.00003348

     Total force =     0.055455     Total SCF correction =     0.000047


     Computing stress (Cartesian axis) and pressure

          total   stress  (Ry/bohr**3)                   (kbar)     P=      461.88
   0.00290648  -0.00000000  -0.00000000          427.56       -0.00       -0.00
  -0.00000000   0.00290648   0.00000000           -0.00      427.56        0.00
  -0.00000000   0.00000000   0.00360641           -0.00        0.00      530.52

     Energy error            =      1.7E-02 Ry
     Gradient error          =      3.9E-02 Ry/Bohr
     Cell gradient error     =      7.2E+01 kbar

     number of scf cycles    =   2
     number of bfgs steps    =   1

     enthalpy           old  =     -36.4750630113 Ry
     enthalpy           new  =     -36.4925275316 Ry

     CASE: enthalpy          _new < enthalpy          _old

     new trust radius        =       0.0801978707 bohr
ibrav =      5
 celldm(1) =     11.26470498
 celldm(4) =      0.92046460
Input lattice vectors:
     0.21078639    -0.12169758     1.02860092
    -0.00000000     0.24339516     1.02860092
    -0.21078639    -0.12169758     1.02860092
New lattice vectors in INITIAL alat:
     0.21078639    -0.12169758     1.02860092
     0.00000000     0.24339516     1.02860092
    -0.21078639    -0.12169758     1.02860092
New lattice vectors in NEW alat (for information only):
     0.19941841    -0.11513427     0.97312712
     0.00000000     0.23026854     0.97312712
    -0.19941841    -0.11513427     0.97312712
Discrepancy in bohr =     0.000000    0.000000    0.000000
     new conv_thr            =       0.0000000039 Ry

     new unit-cell volume =    191.62411 a.u.^3 (    28.39576 Ang^3 )
     density =      2.45419 g/cm^3

CELL_PARAMETERS (alat= 10.65718468)
   0.210786394  -0.121697581   1.028600919
   0.000000000   0.243395162   1.028600919
  -0.210786394  -0.121697581   1.028600919

ATOMIC_POSITIONS (crystal)
Si            0.5000000000        0.5000000000        0.5000000000
Li            0.0588502178        0.0588502178        0.0588502178
Li            0.9411497822        0.9411497822        0.9411497822



     Writing config-only to output data dir ./output/SiLi.save/
     NEW-OLD atomic charge density approx. for the potential
     extrapolated charge    9.86756, renormalised to   10.00000

     total cpu time spent up to now is       31.7 secs

     Self-consistent Calculation

     iteration #  1     ecut=   100.00 Ry     beta= 0.70
     Davidson diagonalization with overlap
     ethr =  1.00E-06,  avg # of iterations =  7.6

     total cpu time spent up to now is       34.6 secs

     total energy              =     -37.14906872 Ry
     estimated scf accuracy    <       0.00283434 Ry

     iteration #  2     ecut=   100.00 Ry     beta= 0.70
     Davidson diagonalization with overlap
     ethr =  2.83E-05,  avg # of iterations =  2.4

     total cpu time spent up to now is       36.2 secs

     total energy              =     -37.14896148 Ry
     estimated scf accuracy    <       0.00573003 Ry

     iteration #  3     ecut=   100.00 Ry     beta= 0.70
     Davidson diagonalization with overlap
     ethr =  2.83E-05,  avg # of iterations =  1.8

     total cpu time spent up to now is       37.5 secs

     total energy              =     -37.15025213 Ry
     estimated scf accuracy    <       0.00030434 Ry

     iteration #  4     ecut=   100.00 Ry     beta= 0.70
     Davidson diagonalization with overlap
     ethr =  3.04E-06,  avg # of iterations =  1.1

     total cpu time spent up to now is       38.6 secs

     total energy              =     -37.15029358 Ry
     estimated scf accuracy    <       0.00000242 Ry

     iteration #  5     ecut=   100.00 Ry     beta= 0.70
     Davidson diagonalization with overlap
     ethr =  2.42E-08,  avg # of iterations =  2.2

     total cpu time spent up to now is       39.9 secs

     total energy              =     -37.15029415 Ry
     estimated scf accuracy    <       0.00000007 Ry

     iteration #  6     ecut=   100.00 Ry     beta= 0.70
     Davidson diagonalization with overlap
     ethr =  7.06E-10,  avg # of iterations =  2.2

     total cpu time spent up to now is       41.2 secs

     total energy              =     -37.15029416 Ry
     estimated scf accuracy    <       0.00000001 Ry

     iteration #  7     ecut=   100.00 Ry     beta= 0.70
     Davidson diagonalization with overlap
     ethr =  1.09E-10,  avg # of iterations =  1.7

     total cpu time spent up to now is       42.4 secs

     End of self-consistent calculation

          k = 0.0000 0.0000 0.0000 (  3111 PWs)   bands (ev):

   -37.3312 -37.1757  -5.7620   2.4771   5.4772  13.1958  16.9519  24.7124
    24.7127

          k =-0.2965-0.1712 0.0405 (  3101 PWs)   bands (ev):

   -37.3043 -37.1519  -5.2474   2.8938   5.8032  13.4121  16.7308  18.8515
    20.9712

          k =-0.5930-0.3424 0.0810 (  3091 PWs)   bands (ev):

   -37.2390 -37.0940  -3.7176   4.1222   6.7272  12.0147  14.4218  17.5854
    18.8595

          k =-0.8895-0.5136 0.1215 (  3090 PWs)   bands (ev):

   -37.1733 -37.0359  -1.2179   5.7793   6.6961   8.8848  13.8226  15.9961
    17.1491

          k = 1.1860 0.6848-0.1620 (  3090 PWs)   bands (ev):

   -37.1459 -37.0117   1.7289   2.7470   8.1410   8.9150  12.5683  14.4550
    17.1605

          k =-0.2965 0.1712 0.0810 (  3101 PWs)   bands (ev):

   -37.3042 -37.1519  -5.2472   2.8817   5.8400  13.2100  17.0878  18.7470
    20.9537

          k =-0.5930-0.0000 0.1215 (  3099 PWs)   bands (ev):

   -37.2581 -37.1111  -4.2244   3.6844   6.5402  13.1908  14.7751  17.1400
    18.2635

          k =-0.8895-0.1712 0.1620 (  3088 PWs)   bands (ev):

   -37.1925 -37.0531  -2.2062   5.2215   7.6658  10.0713  12.9645  15.3042
    17.3614

          k = 1.1860 1.0271-0.1215 (  3095 PWs)   bands (ev):

   -37.1460 -37.0118   0.7277   4.6209   7.5501   9.7556  12.4333  13.0374
    15.0625

          k = 0.8895 0.8559-0.0810 (  3100 PWs)   bands (ev):

   -37.1461 -37.0117   0.7178   4.6687   7.7474   9.1921  12.3720  13.3904
    15.3637

          k = 0.5930 0.6848-0.0405 (  3089 PWs)   bands (ev):

   -37.1927 -37.0529  -2.2095   5.3724   7.4199   9.8778  13.3765  15.7273
    17.3823

          k = 0.2965 0.5136 0.0000 (  3093 PWs)   bands (ev):

   -37.2582 -37.1110  -4.2255   3.7358   6.4039  13.6971  14.6078  17.4307
    17.5156

          k =-0.5930 0.3424 0.1620 (  3099 PWs)   bands (ev):

   -37.2388 -37.0942  -3.7160   4.0431   6.9711  11.4708  14.6981  18.1017
    18.8179

          k =-0.8895 0.1712 0.2025 (  3088 PWs)   bands (ev):

   -37.1925 -37.0531  -2.2045   5.1494   8.0525   9.5147  13.2914  15.3717
    16.7042

          k = 1.1860 1.3695-0.0810 (  3102 PWs)   bands (ev):

   -37.1461 -37.0119   0.2659   6.7295   7.7487   8.4547  10.8998  13.9167
    15.1630

          k = 0.8895 1.1983-0.0405 (  3104 PWs)   bands (ev):

   -37.1270 -36.9948   3.1684   4.1357   7.7981   9.1159  10.8178  12.5325
    14.2762

          k = 0.5930 1.0271 0.0000 (  3101 PWs)   bands (ev):

   -37.1463 -37.0118   0.2529   7.1682   7.7988   8.0222  10.4379  13.4807
    17.1055

          k =-0.8895 0.5136 0.2430 (  3109 PWs)   bands (ev):

   -37.1731 -37.0360  -1.2111   5.6732   6.7158   9.0451  14.1141  15.0545
    17.5215

          k = 1.1860 1.7119-0.0405 (  3099 PWs)   bands (ev):

   -37.1460 -37.0119   0.7331   4.7629   6.9656  10.3421  12.0971  13.5330
    15.9857

          k = 0.8895 1.5407 0.0000 (  3115 PWs)   bands (ev):

   -37.1269 -36.9948   3.1642   4.2096   7.7521   8.4466  11.4853  13.4316
    14.8298

          k = 1.1860-0.6848-0.3241 (  3096 PWs)   bands (ev):

   -37.1458 -37.0118   1.7158   2.8604   6.9945  10.4446  13.2399  14.0276
    15.2346

          k = 0.0000 0.0000 0.1215 (  3084 PWs)   bands (ev):

   -37.3310 -37.1759  -5.7613   2.4499   5.5654  12.7734  17.5731  23.3502
    23.3503

          k =-0.2965-0.1712 0.1620 (  3107 PWs)   bands (ev):

   -37.3040 -37.1522  -5.2463   2.8402   5.9676  12.7466  17.3951  19.1557
    20.9784

          k =-0.5930-0.3424 0.2025 (  3094 PWs)   bands (ev):

   -37.2387 -37.0943  -3.7150   4.0035   7.0311  12.0296  13.4908  18.3550
    18.8627

          k = 1.4825 0.8559-0.0810 (  3097 PWs)   bands (ev):

   -37.1731 -37.0360  -1.2109   5.5339   6.7822   9.5041  13.0758  15.7307
    16.9163

          k = 1.1860 0.6848-0.0405 (  3108 PWs)   bands (ev):

   -37.1459 -37.0117   1.7268   2.7632   7.8204   9.2943  12.5922  14.4702
    17.1494

          k = 0.8895 0.5136 0.0000 (  3107 PWs)   bands (ev):

   -37.1733 -37.0358  -1.2209   6.0019   6.5667   8.5644  14.2621  16.0547
    17.5686

          k = 0.5930 0.3424 0.0405 (  3090 PWs)   bands (ev):

   -37.2390 -37.0940  -3.7180   4.1409   6.7000  11.7987  15.0858  17.2279
    18.8407

          k =-0.2965 0.1712 0.2025 (  3103 PWs)   bands (ev):

   -37.3039 -37.1523  -5.2457   2.8133   6.0604  12.4088  18.2092  18.8305
    20.9364

          k =-0.5930-0.0000 0.2430 (  3095 PWs)   bands (ev):

   -37.2577 -37.1114  -4.2219   3.5725   6.8821  12.3257  14.9149  17.0061
    19.4857

          k = 1.4825 1.1983-0.0405 (  3087 PWs)   bands (ev):

   -37.1923 -37.0533  -2.2008   5.0233   8.1052  10.2598  12.3301  14.9405
    17.4188

          k = 1.1860 1.0271 0.0000 (  3106 PWs)   bands (ev):

   -37.1460 -37.0119   0.7392   4.6101   7.2556  10.6113  12.3769  12.5565
    15.0462

          k = 0.8895 0.8559 0.0405 (  3098 PWs)   bands (ev):

   -37.1461 -37.0117   0.7154   4.7296   7.5641   9.2401  12.2478  13.6493
    15.7449

          k = 0.5930 0.6848 0.0810 (  3090 PWs)   bands (ev):

   -37.1926 -37.0529  -2.2088   5.3339   7.5575   9.6979  13.4696  15.9926
    16.6296

          k =-0.5930 0.3424 0.2836 (  3092 PWs)   bands (ev):

   -37.2385 -37.0945  -3.7126   3.9084   7.4135  11.0819  14.0601  18.8043
    18.8890

          k = 1.4825 1.5407 0.0000 (  3087 PWs)   bands (ev):

   -37.1923 -37.0533  -2.1991   4.9675   8.7161   9.3382  12.8305  14.8049
    17.0678

          k = 1.1860 1.3695 0.0405 (  3101 PWs)   bands (ev):

   -37.1460 -37.0120   0.2752   6.5275   7.7415   8.5909  11.4454  14.1244
    14.3554

          k = 0.8895 1.1983 0.0810 (  3108 PWs)   bands (ev):

   -37.1269 -36.9948   3.1664   4.1662   7.7760   8.7839  11.2377  12.6282
    14.7399

          k = 0.5930 1.0271 0.1215 (  3098 PWs)   bands (ev):

   -37.1462 -37.0118   0.2567   7.0043   7.7664   8.2087  10.5487  13.5956
    16.3127

          k = 1.4825-0.8559-0.2836 (  3115 PWs)   bands (ev):

   -37.1730 -37.0362  -1.2041   5.4524   6.7884   9.6848  13.1596  15.0524
    17.5182

          k = 1.1860-1.0271-0.2430 (  3111 PWs)   bands (ev):

   -37.1459 -37.0119   0.7430   4.7085   6.9099  11.0122  12.1135  12.8413
    15.7243

          k = 0.8895-1.1983-0.2025 (  3117 PWs)   bands (ev):

   -37.1269 -36.9948   3.1648   4.1968   7.7579   8.5366  11.4492  13.0459
    15.2073

          k = 0.5930-1.3695-0.1620 (  3106 PWs)   bands (ev):

   -37.1270 -36.9948   3.1693   4.1231   7.8082   9.3160  10.5621  12.5453
    14.1021

          k = 1.1860-0.6848-0.2025 (  3103 PWs)   bands (ev):

   -37.1459 -37.0118   1.7176   2.8433   7.0980  10.2922  12.9765  14.2925
    15.3966

          k = 0.8895-0.8559-0.1620 (  3098 PWs)   bands (ev):

   -37.1460 -37.0118   0.7217   4.7705   7.2072   9.7156  12.1419  13.7633
    15.9997

          k = 0.8895-0.5136-0.1215 (  3106 PWs)   bands (ev):

   -37.1733 -37.0359  -1.2181   5.9356   6.5934   8.6300  14.4142  15.6030
    17.5421

          k = 0.0000 0.0000 0.2430 (  3078 PWs)   bands (ev):

   -37.3306 -37.1764  -5.7599   2.3879   5.7868  11.9910  18.9644  23.3367
    23.3367

          k =-0.2965-0.1712 0.2836 (  3111 PWs)   bands (ev):

   -37.3036 -37.1526  -5.2444   2.7599   6.2527  11.9126  18.0409  20.0161
    20.9709

          k = 1.7791 1.0271 0.0000 (  3088 PWs)   bands (ev):

   -37.2384 -37.0946  -3.7116   3.8742   7.4662  11.5796  13.1163  18.8439
    18.8483

          k = 1.4825 0.8559 0.0405 (  3109 PWs)   bands (ev):

   -37.1730 -37.0362  -1.2039   5.3771   6.8151  10.1950  12.3110  15.4688
    16.9383

          k = 1.1860 0.6848 0.0810 (  3099 PWs)   bands (ev):

   -37.1459 -37.0117   1.7220   2.8028   7.3917   9.8648  12.7039  14.4688
    15.9705

          k =-0.2965 0.1712 0.3241 (  3099 PWs)   bands (ev):

   -37.3034 -37.1528  -5.2438   2.7355   6.3545  11.6456  18.4838  20.0933
    20.9291

          k = 1.7791 1.3695 0.0405 (  3104 PWs)   bands (ev):

   -37.2574 -37.1118  -4.2193   3.4739   7.2620  11.5937  14.9733  16.9368
    20.8370

          k = 1.4825 1.1983 0.0810 (  3094 PWs)   bands (ev):

   -37.1922 -37.0534  -2.1965   4.8921   8.5548  10.2072  11.9397  14.7039
    17.5312

          k = 1.1860 1.0271 0.1215 (  3100 PWs)   bands (ev):

   -37.1459 -37.0119   0.7456   4.6445   7.0217  11.3801  12.0728  12.3276
    15.3235

          k = 1.7791-1.0271-0.2430 (  3094 PWs)   bands (ev):

   -37.2383 -37.0948  -3.7100   3.8153   7.7936  10.8159  13.5618  18.8073
    18.9852

          k = 1.4825-1.1983-0.2025 (  3088 PWs)   bands (ev):

   -37.1921 -37.0535  -2.1958   4.8719   8.8969   9.6503  12.2345  14.6285
    17.3911

          k = 1.1860-1.3695-0.1620 (  3102 PWs)   bands (ev):

   -37.1460 -37.0121   0.2790   6.4555   7.7394   8.6291  11.8129  13.5986
    14.6147

          k = 1.4825-0.8559-0.1620 (  3109 PWs)   bands (ev):

   -37.1729 -37.0362  -1.2011   5.3472   6.8165  10.2985  12.2872  15.2315
    17.1153

          k = 0.0000 0.0000 0.3646 (  3075 PWs)   bands (ev):

   -37.3301 -37.1769  -5.7584   2.3304   6.0256  11.3528  20.6376  23.3235
    23.3235

          k = 2.0756 1.1983 0.0810 (  3109 PWs)   bands (ev):

   -37.3032 -37.1530  -5.2429   2.7007   6.5046  11.3329  18.3057  20.9532
    21.3290

          k = 1.7791 1.0271 0.1215 (  3101 PWs)   bands (ev):

   -37.2382 -37.0948  -3.7096   3.8023   7.8124  10.9881  13.2357  18.8253
    19.0013

          k = 2.0756-1.1983-0.2025 (  3097 PWs)   bands (ev):

   -37.3031 -37.1531  -5.2426   2.6912   6.5510  11.2302  18.4254  20.9360
    21.5889

          k = 1.7791-1.3695-0.1620 (  3102 PWs)   bands (ev):

   -37.2573 -37.1119  -4.2182   3.4362   7.4395  11.2954  14.9893  16.9133
    21.6310

          k =-0.0000 0.0000-0.4861 (  3074 PWs)   bands (ev):

   -37.3299 -37.1771  -5.7578   2.3077   6.1317  11.1079  21.8567  23.3181
    23.8025

     the Fermi energy is     8.4352 ev

!    total energy              =     -37.15029416 Ry
     estimated scf accuracy    <          1.9E-09 Ry
     smearing contrib. (-TS)   =       0.00007435 Ry
     internal energy E=F+TS    =     -37.15036851 Ry

     The total energy is F=E-TS. E is the sum of the following terms:
     one-electron contribution =      -9.11371140 Ry
     hartree contribution      =       6.14049649 Ry
     xc contribution           =     -10.31692576 Ry
     ewald contribution        =     -23.86022784 Ry

     convergence has been achieved in   7 iterations

     Forces acting on atoms (cartesian axes, Ry/au):

     atom    1 type  1   force =     0.00000000   -0.00000000    0.00000000
     atom    2 type  2   force =    -0.00000000   -0.00000000   -0.01517897
     atom    3 type  2   force =     0.00000000    0.00000000    0.01517897
     The non-local contrib.  to forces
     atom    1 type  1   force =     0.00000000   -0.00000000    0.00000000
     atom    2 type  2   force =    -0.00000000    0.00000000   -0.02887623
     atom    3 type  2   force =     0.00000000   -0.00000000    0.02887623
     The ionic contribution  to forces
     atom    1 type  1   force =    -0.00000000    0.00000000    0.00000000
     atom    2 type  2   force =     0.00000000    0.00000000   -0.98720128
     atom    3 type  2   force =    -0.00000000   -0.00000000    0.98720128
     The local contribution  to forces
     atom    1 type  1   force =     0.00000000   -0.00000000    0.00000000
     atom    2 type  2   force =     0.00000000    0.00000000    1.00084588
     atom    3 type  2   force =    -0.00000000   -0.00000000   -1.00084588
     The core correction contribution to forces
     atom    1 type  1   force =     0.00000000   -0.00000000   -0.00000000
     atom    2 type  2   force =     0.00000000    0.00000000    0.00000000
     atom    3 type  2   force =     0.00000000    0.00000000    0.00000000
     The Hubbard contrib.    to forces
     atom    1 type  1   force =     0.00000000    0.00000000    0.00000000
     atom    2 type  2   force =     0.00000000    0.00000000    0.00000000
     atom    3 type  2   force =     0.00000000    0.00000000    0.00000000
     The SCF correction term to forces
     atom    1 type  1   force =    -0.00000000   -0.00000000    0.00000000
     atom    2 type  2   force =     0.00000000    0.00000000    0.00005266
     atom    3 type  2   force =    -0.00000000    0.00000000   -0.00005266

     Total force =     0.021466     Total SCF correction =     0.000074


     Computing stress (Cartesian axis) and pressure

          total   stress  (Ry/bohr**3)                   (kbar)     P=      466.43
   0.00319294   0.00000000   0.00000000          469.70        0.00        0.00
   0.00000000   0.00319294   0.00000000            0.00      469.70        0.00
   0.00000000   0.00000000   0.00312630            0.00        0.00      459.89

     Energy error            =      6.4E-03 Ry
     Gradient error          =      1.5E-02 Ry/Bohr
     Cell gradient error     =      4.0E+01 kbar

     number of scf cycles    =   3
     number of bfgs steps    =   2

     enthalpy           old  =     -36.4925275316 Ry
     enthalpy           new  =     -36.4989770460 Ry

     CASE: enthalpy          _new < enthalpy          _old

     new trust radius        =       0.0440121918 bohr
ibrav =      5
 celldm(1) =     11.24269679
 celldm(4) =      0.92144136
Input lattice vectors:
     0.20907880    -0.12071170     1.02694421
     0.00000000     0.24142340     1.02694421
    -0.20907880    -0.12071170     1.02694421
New lattice vectors in INITIAL alat:
     0.20907880    -0.12071170     1.02694421
     0.00000000     0.24142340     1.02694421
    -0.20907880    -0.12071170     1.02694421
New lattice vectors in NEW alat (for information only):
     0.19819011    -0.11442512     0.97346164
     0.00000000     0.22885023     0.97346164
    -0.19819011    -0.11442512     0.97346164
Discrepancy in bohr =     0.000000    0.000000    0.000000
     new conv_thr            =       0.0000000015 Ry

     new unit-cell volume =    188.22831 a.u.^3 (    27.89256 Ang^3 )
     density =      2.49847 g/cm^3

CELL_PARAMETERS (alat= 10.65718468)
   0.209078797  -0.120711700   1.026944210
   0.000000000   0.241423400   1.026944210
  -0.209078797  -0.120711700   1.026944210

ATOMIC_POSITIONS (crystal)
Si            0.5000000000        0.5000000000        0.5000000000
Li            0.0575118905        0.0575118905        0.0575118905
Li            0.9424881095        0.9424881095        0.9424881095



     Writing config-only to output data dir ./output/SiLi.save/
     NEW-OLD atomic charge density approx. for the potential
     extrapolated charge    9.81977, renormalised to   10.00000

     total cpu time spent up to now is       43.5 secs

     Self-consistent Calculation

     iteration #  1     ecut=   100.00 Ry     beta= 0.70
     Davidson diagonalization with overlap
     ethr =  1.00E-06,  avg # of iterations =  5.6

     total cpu time spent up to now is       46.0 secs

     total energy              =     -37.13960105 Ry
     estimated scf accuracy    <       0.00028494 Ry

     iteration #  2     ecut=   100.00 Ry     beta= 0.70
     Davidson diagonalization with overlap
     ethr =  2.85E-06,  avg # of iterations =  2.0

     total cpu time spent up to now is       47.6 secs

     total energy              =     -37.13997326 Ry
     estimated scf accuracy    <       0.00006003 Ry

     iteration #  3     ecut=   100.00 Ry     beta= 0.70
     Davidson diagonalization with overlap
     ethr =  6.00E-07,  avg # of iterations =  1.0

     total cpu time spent up to now is       48.7 secs

     total energy              =     -37.13997015 Ry
     estimated scf accuracy    <       0.00000880 Ry

     iteration #  4     ecut=   100.00 Ry     beta= 0.70
     Davidson diagonalization with overlap
     ethr =  8.80E-08,  avg # of iterations =  1.8

     total cpu time spent up to now is       49.9 secs

     total energy              =     -37.13996999 Ry
     estimated scf accuracy    <       0.00000943 Ry

     iteration #  5     ecut=   100.00 Ry     beta= 0.70
     Davidson diagonalization with overlap
     ethr =  8.80E-08,  avg # of iterations =  1.1

     total cpu time spent up to now is       51.1 secs

     total energy              =     -37.13997087 Ry
     estimated scf accuracy    <       0.00000031 Ry

     iteration #  6     ecut=   100.00 Ry     beta= 0.70
     Davidson diagonalization with overlap
     ethr =  3.10E-09,  avg # of iterations =  1.6

     total cpu time spent up to now is       52.2 secs

     total energy              =     -37.13997094 Ry
     estimated scf accuracy    <       0.00000001 Ry

     iteration #  7     ecut=   100.00 Ry     beta= 0.70
     Davidson diagonalization with overlap
     ethr =  1.18E-10,  avg # of iterations =  1.7

     total cpu time spent up to now is       53.4 secs

     End of self-consistent calculation

          k = 0.0000 0.0000 0.0000 (  3111 PWs)   bands (ev):

   -37.1744 -36.9873  -5.7227   2.5348   5.6808  13.1601  17.2954  23.7775
    25.3832

          k =-0.2989-0.1726 0.0406 (  3101 PWs)   bands (ev):

   -37.1453 -36.9618  -5.1992   2.9634   5.9986  13.4141  17.0780  19.2113
    21.4656

          k =-0.5979-0.3452 0.0811 (  3091 PWs)   bands (ev):

   -37.0749 -36.9002  -3.6432   4.2281   6.9004  12.3121  14.5546  17.8026
    19.3485

          k =-0.8968-0.5178 0.1217 (  3090 PWs)   bands (ev):

   -37.0040 -36.8381  -1.1039   5.9723   6.8901   9.0511  14.0906  16.1873
    17.3922

          k = 1.1957 0.6904-0.1623 (  3090 PWs)   bands (ev):

   -36.9745 -36.8123   1.8508   2.9785   8.3962   9.0255  12.6791  14.8176
    17.6405

          k =-0.2989 0.1726 0.0811 (  3101 PWs)   bands (ev):

   -37.1453 -36.9619  -5.1989   2.9523   6.0339  13.2338  17.4007  19.1243
    21.4479

          k =-0.5979-0.0000 0.1217 (  3099 PWs)   bands (ev):

   -37.0955 -36.9183  -4.1586   3.7798   6.7177  13.3242  15.0972  17.5339
    18.5161

          k =-0.8968-0.1726 0.1623 (  3088 PWs)   bands (ev):

   -37.0248 -36.8564  -2.1072   5.3643   7.8353  10.3317  13.2534  15.6189
    17.6276

          k = 1.1957 1.0355-0.1217 (  3095 PWs)   bands (ev):

   -36.9746 -36.8124   0.8668   4.8432   7.7462   9.9150  12.7427  13.2874
    15.3277

          k = 0.8968 0.8629-0.0811 (  3100 PWs)   bands (ev):

   -36.9747 -36.8123   0.8568   4.8926   7.9626   9.3219  12.6841  13.6757
    15.6067

          k = 0.5979 0.6904-0.0406 (  3089 PWs)   bands (ev):

   -37.0249 -36.8563  -2.1106   5.5141   7.5868  10.1434  13.7008  16.0311
    17.5784

          k = 0.2989 0.5178 0.0000 (  3093 PWs)   bands (ev):

   -37.0956 -36.9182  -4.1597   3.8284   6.5854  13.8090  14.9430  17.7033
    17.8949

          k =-0.5979 0.3452 0.1623 (  3099 PWs)   bands (ev):

   -37.0747 -36.9003  -3.6416   4.1520   7.1386  11.7441  14.8394  18.3712
    19.3057

          k =-0.8968 0.1726 0.2029 (  3088 PWs)   bands (ev):

   -37.0248 -36.8565  -2.1055   5.2921   8.2141   9.7804  13.5698  15.6685
    17.0271

          k = 1.1957 1.3807-0.0811 (  3102 PWs)   bands (ev):

   -36.9747 -36.8125   0.4013   6.9289   7.9420   8.7584  11.1066  14.2000
    15.4097

          k = 0.8968 1.2081-0.0406 (  3104 PWs)   bands (ev):

   -36.9540 -36.7943   3.3123   4.3629   8.0941   9.3818  11.0121  12.7463
    14.4346

          k = 0.5979 1.0355 0.0000 (  3101 PWs)   bands (ev):

   -36.9748 -36.8124   0.3882   7.3890   7.9900   8.2639  10.7032  13.7434
    17.4386

          k =-0.8968 0.5178 0.2434 (  3109 PWs)   bands (ev):

   -37.0039 -36.8382  -1.0971   5.8452   6.9527   9.1798  14.3983  15.2420
    18.0014

          k = 1.1957 1.7259-0.0406 (  3099 PWs)   bands (ev):

   -36.9746 -36.8125   0.8721   4.9940   7.1459  10.4952  12.4122  13.7803
    16.2076

          k = 0.8968 1.5533 0.0000 (  3115 PWs)   bands (ev):

   -36.9540 -36.7943   3.3085   4.4382   8.0618   8.6663  11.6834  13.6817
    15.0417

          k = 1.1957-0.6904-0.3246 (  3096 PWs)   bands (ev):

   -36.9744 -36.8124   1.8382   3.0976   7.1738  10.6143  13.3735  14.3376
    15.4459

          k =-0.0000-0.0000 0.1217 (  3084 PWs)   bands (ev):

   -37.1742 -36.9875  -5.7221   2.5103   5.7645  12.7789  17.8783  23.7721
    23.7721

          k =-0.2989-0.1726 0.1623 (  3107 PWs)   bands (ev):

   -37.1451 -36.9621  -5.1980   2.9142   6.1562  12.7977  17.7439  19.4662
    21.4728

          k =-0.5979-0.3452 0.2029 (  3094 PWs)   bands (ev):

   -37.0746 -36.9004  -3.6405   4.1138   7.1981  12.3006  13.6799  18.5754
    19.3518

          k = 1.4947 0.8629-0.0811 (  3097 PWs)   bands (ev):

   -37.0039 -36.8382  -1.0968   5.7171   6.9870   9.6693  13.3094  15.9450
    17.1825

          k = 1.1957 0.6904-0.0406 (  3108 PWs)   bands (ev):

   -36.9745 -36.8123   1.8487   2.9954   8.0327   9.4469  12.7061  14.8290
    17.6289

          k = 0.8968 0.5178 0.0000 (  3107 PWs)   bands (ev):

   -37.0041 -36.8380  -1.1070   6.1991   6.7626   8.7223  14.5625  16.2282
    18.0503

          k = 0.5979 0.3452 0.0406 (  3090 PWs)   bands (ev):

   -37.0749 -36.9001  -3.6437   4.2460   6.8737  12.0912  15.1774  17.4970
    19.3292

          k =-0.2989 0.1726 0.2029 (  3103 PWs)   bands (ev):

   -37.1449 -36.9622  -5.1973   2.8893   6.2454  12.4814  18.5131  19.1802
    21.4303

          k =-0.5979-0.0000 0.2434 (  3095 PWs)   bands (ev):

   -37.0952 -36.9187  -4.1559   3.6732   7.0508  12.4711  15.2373  17.4380
    19.7012

          k = 1.4947 1.2081-0.0406 (  3087 PWs)   bands (ev):

   -37.0246 -36.8566  -2.1017   5.1668   8.2820  10.5076  12.5783  15.2845
    17.7195

          k = 1.1957 1.0355 0.0000 (  3106 PWs)   bands (ev):

   -36.9746 -36.8125   0.8784   4.8329   7.4404  10.7988  12.6297  12.8126
    15.3305

          k = 0.8968 0.8629 0.0406 (  3098 PWs)   bands (ev):

   -36.9747 -36.8123   0.8543   4.9565   7.7730   9.3681  12.5614  13.9478
    15.9708

          k = 0.5979 0.6904 0.0811 (  3090 PWs)   bands (ev):

   -37.0249 -36.8563  -2.1099   5.4756   7.7226   9.9643  13.7898  16.2944
    16.8760

          k =-0.5979 0.3452 0.2840 (  3092 PWs)   bands (ev):

   -37.0745 -36.9006  -3.6381   4.0216   7.5721  11.3298  14.2601  19.2466
    19.2916

          k = 1.4947 1.5533 0.0000 (  3087 PWs)   bands (ev):

   -37.0246 -36.8567  -2.1000   5.1107   8.8662   9.6093  13.0615  15.1529
    17.4010

          k = 1.1957 1.3807 0.0406 (  3101 PWs)   bands (ev):

   -36.9747 -36.8126   0.4108   6.7207   7.9347   8.9226  11.6103  14.3694
    14.6654

          k = 0.8968 1.2081 0.0811 (  3108 PWs)   bands (ev):

   -36.9540 -36.7943   3.3105   4.3939   8.0757   9.0259  11.4461  12.8424
    14.9035

          k = 0.5979 1.0355 0.1217 (  3098 PWs)   bands (ev):

   -36.9748 -36.8124   0.3920   7.2151   7.9592   8.4722  10.7964  13.8638
    16.5839

          k = 1.4947-0.8629-0.2840 (  3115 PWs)   bands (ev):

   -37.0038 -36.8384  -1.0899   5.6232   7.0226   9.8184  13.3910  15.2949
    17.9980

          k = 1.1957-1.0355-0.2434 (  3111 PWs)   bands (ev):

   -36.9745 -36.8125   0.8822   4.9373   7.0873  11.1871  12.4122  13.0553
    15.9877

          k = 0.8968-1.2081-0.2029 (  3117 PWs)   bands (ev):

   -36.9540 -36.7943   3.3090   4.4252   8.0638   8.7630  11.6516  13.2781
    15.3800

          k = 0.5979-1.3807-0.1623 (  3106 PWs)   bands (ev):

   -36.9540 -36.7942   3.3131   4.3501   8.1030   9.6051  10.7347  12.7632
    14.2561

          k = 1.1957-0.6904-0.2029 (  3103 PWs)   bands (ev):

   -36.9744 -36.8124   1.8398   3.0796   7.2802  10.4637  13.1121  14.6184
    15.5920

          k = 0.8968-0.8629-0.1623 (  3098 PWs)   bands (ev):

   -36.9746 -36.8124   0.8605   5.0005   7.3977   9.8566  12.4570  14.0501
    16.2162

          k = 0.8968-0.5178-0.1217 (  3106 PWs)   bands (ev):

   -37.0040 -36.8381  -1.1041   6.1147   6.8185   8.7734  14.7373  15.7516
    18.0227

          k =-0.0000-0.0000 0.2434 (  3078 PWs)   bands (ev):

   -37.1738 -36.9879  -5.7205   2.4542   5.9755  12.0468  19.2301  23.7592
    23.7592

          k =-0.2989-0.1726 0.2840 (  3111 PWs)   bands (ev):

   -37.1446 -36.9625  -5.1959   2.8398   6.4306  12.0019  18.4352  20.2554
    21.4651

          k = 1.7936 1.0355 0.0000 (  3088 PWs)   bands (ev):

   -37.0744 -36.9007  -3.6371   3.9884   7.6257  11.7970  13.3706  19.1197
    19.3369

          k = 1.4947 0.8629 0.0406 (  3109 PWs)   bands (ev):

   -37.0037 -36.8384  -1.0897   5.5534   7.0312  10.3463  12.5334  15.7054
    17.2072

          k = 1.1957 0.6904 0.0811 (  3099 PWs)   bands (ev):

   -36.9745 -36.8123   1.8441   3.0369   7.5832  10.0346  12.8269  14.8183
    16.1633

          k =-0.2989 0.1726 0.3246 (  3099 PWs)   bands (ev):

   -37.1445 -36.9627  -5.1953   2.8170   6.5288  11.7465  18.8772  20.3520
    21.4229

          k = 1.7936 1.3807 0.0406 (  3104 PWs)   bands (ev):

   -37.0949 -36.9190  -4.1533   3.5787   7.4218  11.7470  15.2969  17.3818
    21.0746

          k = 1.4947 1.2081 0.0811 (  3094 PWs)   bands (ev):

   -37.0245 -36.8568  -2.0973   5.0357   8.7425  10.4349  12.1687  15.0669
    17.8515

          k = 1.1957 1.0355 0.1217 (  3100 PWs)   bands (ev):

   -36.9745 -36.8125   0.8848   4.8698   7.2011  11.6175  12.1920  12.6541
    15.6105

          k = 1.7936-1.0355-0.2434 (  3094 PWs)   bands (ev):

   -37.0742 -36.9008  -3.6354   3.9310   7.9451  11.0425  13.8037  19.2946
    19.3359

          k = 1.4947-1.2081-0.2029 (  3088 PWs)   bands (ev):

   -37.0244 -36.8568  -2.0966   5.0154   9.0805   9.8814  12.4546  14.9959
    17.7218

          k = 1.1957-1.3807-0.1623 (  3102 PWs)   bands (ev):

   -36.9746 -36.8126   0.4147   6.6468   7.9325   8.9693  11.9492  13.8604
    14.9448

          k = 1.4947-0.8629-0.1623 (  3109 PWs)   bands (ev):

   -37.0037 -36.8384  -1.0868   5.5195   7.0425  10.4321  12.5151  15.4796
    17.3755

          k = 0.0000 0.0000 0.3652 (  3075 PWs)   bands (ev):

   -37.1733 -36.9884  -5.7188   2.4016   6.2039  11.4373  20.9074  23.7465
    23.7465

          k = 2.0925 1.2081 0.0811 (  3109 PWs)   bands (ev):

   -37.1443 -36.9629  -5.1943   2.7846   6.6737  11.4421  18.7124  21.4471
    21.5899

          k = 1.7936 1.0355 0.1217 (  3101 PWs)   bands (ev):

   -37.0742 -36.9009  -3.6349   3.9183   7.9650  11.2001  13.4991  19.3132
    19.3245

          k = 2.0925-1.2081-0.2029 (  3097 PWs)   bands (ev):

   -37.1443 -36.9629  -5.1940   2.7756   6.7185  11.3432  18.8284  21.4298
    21.9121

          k = 1.7936-1.3807-0.1623 (  3102 PWs)   bands (ev):

   -37.0948 -36.9191  -4.1522   3.5423   7.5952  11.4523  15.3132  17.3616
    22.0185

          k = 0.0000 0.0000-0.4869 (  3074 PWs)   bands (ev):

   -37.1731 -36.9886  -5.7182   2.3808   6.3056  11.2018  22.2340  23.7413
    23.7600

     the Fermi energy is     8.6699 ev

!    total energy              =     -37.13997095 Ry
     estimated scf accuracy    <          4.5E-11 Ry
     smearing contrib. (-TS)   =       0.00003094 Ry
     internal energy E=F+TS    =     -37.14000188 Ry

     The total energy is F=E-TS. E is the sum of the following terms:
     one-electron contribution =      -8.76350938 Ry
     hartree contribution      =       6.03744025 Ry
     xc contribution           =     -10.33331368 Ry
     ewald contribution        =     -24.08061907 Ry

     convergence has been achieved in   7 iterations

     Forces acting on atoms (cartesian axes, Ry/au):

     atom    1 type  1   force =    -0.00000000    0.00000000   -0.00000000
     atom    2 type  2   force =     0.00000000    0.00000000   -0.00484683
     atom    3 type  2   force =    -0.00000000   -0.00000000    0.00484683
     The non-local contrib.  to forces
     atom    1 type  1   force =     0.00000000    0.00000000   -0.00000000
     atom    2 type  2   force =     0.00000000   -0.00000000   -0.02580883
     atom    3 type  2   force =    -0.00000000   -0.00000000    0.02580883
     The ionic contribution  to forces
     atom    1 type  1   force =    -0.00000000    0.00000000   -0.00000000
     atom    2 type  2   force =     0.00000000    0.00000000   -0.82751184
     atom    3 type  2   force =    -0.00000000   -0.00000000    0.82751184
     The local contribution  to forces
     atom    1 type  1   force =     0.00000000   -0.00000000    0.00000000
     atom    2 type  2   force =    -0.00000000    0.00000000    0.84847393
     atom    3 type  2   force =     0.00000000   -0.00000000   -0.84847393
     The core correction contribution to forces
     atom    1 type  1   force =     0.00000000    0.00000000   -0.00000000
     atom    2 type  2   force =     0.00000000    0.00000000    0.00000000
     atom    3 type  2   force =     0.00000000    0.00000000    0.00000000
     The Hubbard contrib.    to forces
     atom    1 type  1   force =     0.00000000    0.00000000    0.00000000
     atom    2 type  2   force =     0.00000000    0.00000000    0.00000000
     atom    3 type  2   force =     0.00000000    0.00000000    0.00000000
     The SCF correction term to forces
     atom    1 type  1   force =     0.00000000    0.00000000   -0.00000000
     atom    2 type  2   force =     0.00000000   -0.00000000   -0.00000010
     atom    3 type  2   force =    -0.00000000    0.00000000    0.00000010

     Total force =     0.006854     Total SCF correction =     0.000000


     Computing stress (Cartesian axis) and pressure

          total   stress  (Ry/bohr**3)                   (kbar)     P=      492.38
   0.00344599  -0.00000000  -0.00000000          506.92       -0.00       -0.00
  -0.00000000   0.00344599   0.00000000           -0.00      506.92        0.00
  -0.00000000   0.00000000   0.00314936           -0.00        0.00      463.29

     Energy error            =      1.2E-03 Ry
     Gradient error          =      4.8E-03 Ry/Bohr
     Cell gradient error     =      3.7E+01 kbar

     number of scf cycles    =   4
     number of bfgs steps    =   3

     enthalpy           old  =     -36.4989770460 Ry
     enthalpy           new  =     -36.5001959353 Ry

     CASE: enthalpy          _new < enthalpy          _old

     new trust radius        =       0.0173456126 bohr
ibrav =      5
 celldm(1) =     11.17537787
 celldm(4) =      0.92048723
Input lattice vectors:
     0.20908514    -0.12071536     1.02045243
    -0.00000000     0.24143072     1.02045243
    -0.20908514    -0.12071536     1.02045243
New lattice vectors in INITIAL alat:
     0.20908514    -0.12071536     1.02045243
     0.00000000     0.24143072     1.02045243
    -0.20908514    -0.12071536     1.02045243
New lattice vectors in NEW alat (for information only):
     0.19939003    -0.11511789     0.97313488
     0.00000000     0.23023578     0.97313488
    -0.19939003    -0.11511789     0.97313488
Discrepancy in bohr =     0.000000    0.000000    0.000000
     new conv_thr            =       0.0000000005 Ry

     new unit-cell volume =    187.04978 a.u.^3 (    27.71792 Ang^3 )
     density =      2.51421 g/cm^3

CELL_PARAMETERS (alat= 10.65718468)
   0.209085139  -0.120715361   1.020452426
   0.000000000   0.241430722   1.020452426
  -0.209085139  -0.120715361   1.020452426

ATOMIC_POSITIONS (crystal)
Si            0.5000000000        0.5000000000        0.5000000000
Li            0.0570307869        0.0570307869        0.0570307869
Li            0.9429692131        0.9429692131        0.9429692131



     Writing config-only to output data dir ./output/SiLi.save/
     NEW-OLD atomic charge density approx. for the potential
     extrapolated charge    9.93706, renormalised to   10.00000

     total cpu time spent up to now is       54.6 secs

     Self-consistent Calculation

     iteration #  1     ecut=   100.00 Ry     beta= 0.70
     Davidson diagonalization with overlap
     ethr =  1.00E-06,  avg # of iterations =  3.8

     total cpu time spent up to now is       56.6 secs

     total energy              =     -37.13623678 Ry
     estimated scf accuracy    <       0.00004805 Ry

     iteration #  2     ecut=   100.00 Ry     beta= 0.70
     Davidson diagonalization with overlap
     ethr =  4.80E-07,  avg # of iterations =  2.0

     total cpu time spent up to now is       58.0 secs

     total energy              =     -37.13628222 Ry
     estimated scf accuracy    <       0.00003550 Ry

     iteration #  3     ecut=   100.00 Ry     beta= 0.70
     Davidson diagonalization with overlap
     ethr =  3.55E-07,  avg # of iterations =  1.6

     total cpu time spent up to now is       59.2 secs

     total energy              =     -37.13629305 Ry
     estimated scf accuracy    <       0.00001104 Ry

     iteration #  4     ecut=   100.00 Ry     beta= 0.70
     Davidson diagonalization with overlap
     ethr =  1.10E-07,  avg # of iterations =  1.0

     total cpu time spent up to now is       60.3 secs

     total energy              =     -37.13628968 Ry
     estimated scf accuracy    <       0.00000809 Ry

     iteration #  5     ecut=   100.00 Ry     beta= 0.70
     Davidson diagonalization with overlap
     ethr =  8.09E-08,  avg # of iterations =  1.1

     total cpu time spent up to now is       61.4 secs

     total energy              =     -37.13629071 Ry
     estimated scf accuracy    <       0.00000005 Ry

     iteration #  6     ecut=   100.00 Ry     beta= 0.70
     Davidson diagonalization with overlap
     ethr =  4.78E-10,  avg # of iterations =  2.3

     total cpu time spent up to now is       62.8 secs

     total energy              =     -37.13629073 Ry
     estimated scf accuracy    <          6.7E-09 Ry

     iteration #  7     ecut=   100.00 Ry     beta= 0.70
     Davidson diagonalization with overlap
     ethr =  6.72E-11,  avg # of iterations =  1.1

[...]
        k(   52) = (  -0.2982044   0.1721684   0.3287822), wk =   0.0234375
        k(   53) = (   1.7892267   1.3773473   0.0410978), wk =   0.0468750
        k(   54) = (   1.4910222   1.2051789   0.0821955), wk =   0.0468750
        k(   55) = (   1.1928178   1.0330105   0.1232933), wk =   0.0468750
        k(   56) = (   1.7892267  -1.0330105  -0.2465866), wk =   0.0234375
        k(   57) = (   1.4910222  -1.2051789  -0.2054888), wk =   0.0468750
        k(   58) = (   1.1928178  -1.3773473  -0.1643911), wk =   0.0234375
        k(   59) = (   1.4910222  -0.8608421  -0.1643911), wk =   0.0234375
        k(   60) = (   0.0000000  -0.0000000   0.3698799), wk =   0.0078125
        k(   61) = (   2.0874311   1.2051789   0.0821955), wk =   0.0234375
        k(   62) = (   1.7892267   1.0330105   0.1232933), wk =   0.0234375
        k(   63) = (   2.0874311  -1.2051789  -0.2054888), wk =   0.0234375
        k(   64) = (   1.7892267  -1.3773473  -0.1643911), wk =   0.0234375
        k(   65) = (   0.0000000   0.0000000  -0.4931732), wk =   0.0039062

     Dense  grid:    25293 G-vectors     FFT dimensions: (  72,  72,  72)

     Estimated max dynamical RAM per process >      21.52 MB

     Estimated total dynamical RAM >     172.13 MB

     Initial potential from superposition of free atoms

     starting charge       9.9903, renormalised to      10.0000
     Starting wfcs are    8 randomized atomic wfcs +    1 random wfcs

     total cpu time spent up to now is       86.7 secs

     Self-consistent Calculation

     iteration #  1     ecut=   100.00 Ry     beta= 0.70
     Davidson diagonalization with overlap
     c_bands:  1 eigenvalues not converged
     c_bands:  1 eigenvalues not converged
     c_bands:  1 eigenvalues not converged
     c_bands:  1 eigenvalues not converged
     c_bands:  1 eigenvalues not converged
     c_bands:  1 eigenvalues not converged
     c_bands:  1 eigenvalues not converged
     c_bands:  1 eigenvalues not converged
     c_bands:  1 eigenvalues not converged
     c_bands:  1 eigenvalues not converged
     c_bands:  1 eigenvalues not converged
     c_bands:  1 eigenvalues not converged
     c_bands:  1 eigenvalues not converged
     c_bands:  1 eigenvalues not converged
     c_bands:  1 eigenvalues not converged
     c_bands:  1 eigenvalues not converged
     ethr =  1.00E-06,  avg # of iterations = 17.3

     total cpu time spent up to now is       91.4 secs

     total energy              =     -37.12541995 Ry
     estimated scf accuracy    <       0.02513064 Ry

     iteration #  2     ecut=   100.00 Ry     beta= 0.70
     Davidson diagonalization with overlap
     ethr =  2.51E-04,  avg # of iterations =  2.3

     total cpu time spent up to now is       92.8 secs

     total energy              =     -37.12014012 Ry
     estimated scf accuracy    <       0.07430337 Ry

     iteration #  3     ecut=   100.00 Ry     beta= 0.70
     Davidson diagonalization with overlap
     ethr =  2.51E-04,  avg # of iterations =  1.8

     total cpu time spent up to now is       94.1 secs

     total energy              =     -37.13515104 Ry
     estimated scf accuracy    <       0.00162447 Ry

     iteration #  4     ecut=   100.00 Ry     beta= 0.70
     Davidson diagonalization with overlap
     ethr =  1.62E-05,  avg # of iterations =  1.7

     total cpu time spent up to now is       95.3 secs

     total energy              =     -37.13532703 Ry
     estimated scf accuracy    <       0.00002297 Ry

     iteration #  5     ecut=   100.00 Ry     beta= 0.70
     Davidson diagonalization with overlap
     ethr =  2.30E-07,  avg # of iterations =  2.4

     total cpu time spent up to now is       96.6 secs

     total energy              =     -37.13533299 Ry
     estimated scf accuracy    <       0.00000026 Ry

     iteration #  6     ecut=   100.00 Ry     beta= 0.70
     Davidson diagonalization with overlap
     ethr =  2.56E-09,  avg # of iterations =  2.5

     total cpu time spent up to now is       97.9 secs

     total energy              =     -37.13533300 Ry
     estimated scf accuracy    <       0.00000011 Ry

     iteration #  7     ecut=   100.00 Ry     beta= 0.70
     Davidson diagonalization with overlap
     ethr =  1.08E-09,  avg # of iterations =  1.2

     total cpu time spent up to now is       99.0 secs

     total energy              =     -37.13533302 Ry
     estimated scf accuracy    <          1.2E-10 Ry

     iteration #  8     ecut=   100.00 Ry     beta= 0.70
     Davidson diagonalization with overlap
     ethr =  1.16E-12,  avg # of iterations =  3.9

     total cpu time spent up to now is      100.6 secs

     total energy              =     -37.13533302 Ry
     estimated scf accuracy    <          2.3E-10 Ry

     iteration #  9     ecut=   100.00 Ry     beta= 0.70
     Davidson diagonalization with overlap
     ethr =  1.16E-12,  avg # of iterations =  1.7

     total cpu time spent up to now is      101.8 secs

     End of self-consistent calculation

          k = 0.0000 0.0000 0.0000 (  3161 PWs)   bands (ev):

   -37.1143 -36.8895  -5.6083   2.6682   5.8231  13.4490  17.7618  23.7723
    25.2978

          k =-0.2982-0.1722 0.0411 (  3135 PWs)   bands (ev):

   -37.0856 -36.8647  -5.0878   3.0931   6.1295  13.6951  17.4420  19.3125
    21.4384

          k =-0.5964-0.3443 0.0822 (  3163 PWs)   bands (ev):

   -37.0159 -36.8047  -3.5405   4.3457   6.9975  12.3833  14.8074  18.1376
    19.3235

          k =-0.8946-0.5165 0.1233 (  3154 PWs)   bands (ev):

   -36.9458 -36.7443  -1.0148   6.0365   6.9636   9.1302  14.2373  16.3418
    17.5716

          k = 1.1928 0.6887-0.1644 (  3172 PWs)   bands (ev):

   -36.9167 -36.7192   1.9383   3.0216   8.4877   9.0628  12.7927  14.9365
    17.6191

          k =-0.2982 0.1722 0.0822 (  3136 PWs)   bands (ev):

   -37.0855 -36.8648  -5.0874   3.0805   6.1675  13.5095  17.7858  19.2109
    21.4179

          k =-0.5964 0.0000 0.1233 (  3135 PWs)   bands (ev):

   -37.0363 -36.8224  -4.0529   3.8977   6.8337  13.5556  15.1490  17.6479
    18.8422

          k =-0.8946-0.1722 0.1644 (  3157 PWs)   bands (ev):

   -36.9664 -36.7622  -2.0125   5.4581   7.9094  10.4007  13.3662  15.7594
    17.6890

          k = 1.1928 1.0330-0.1233 (  3163 PWs)   bands (ev):

   -36.9168 -36.7193   0.9482   4.8861   7.8220   9.9823  12.7922  13.3841
    15.3859

          k = 0.8946 0.8608-0.0822 (  3165 PWs)   bands (ev):

   -36.9168 -36.7193   0.9367   4.9406   8.0586   9.3594  12.7231  13.7562
    15.6943

          k = 0.5964 0.6887-0.0411 (  3155 PWs)   bands (ev):

   -36.9665 -36.7620  -2.0165   5.6247   7.6458  10.2038  13.7788  16.1440
    17.7478

          k = 0.2982 0.5165 0.0000 (  3135 PWs)   bands (ev):

   -37.0364 -36.8223  -4.0542   3.9523   6.6918  14.0413  15.0035  17.9440
    18.0936

          k =-0.5964 0.3443 0.1644 (  3147 PWs)   bands (ev):

   -37.0158 -36.8048  -3.5385   4.2610   7.2524  11.8363  15.0549  18.6929
    19.2744

          k =-0.8946 0.1722 0.2055 (  3154 PWs)   bands (ev):

   -36.9663 -36.7622  -2.0104   5.3793   8.3098   9.8369  13.6642  15.8275
    17.0939

          k = 1.1928 1.3773-0.0822 (  3154 PWs)   bands (ev):

   -36.9169 -36.7195   0.4846   6.9721   8.0091   8.7952  11.1881  14.2149
    15.5854

          k = 0.8946 1.2052-0.0411 (  3175 PWs)   bands (ev):

   -36.8964 -36.7017   3.3919   4.4113   8.1225   9.4223  11.0689  12.7666
    14.5408

          k = 0.5964 1.0330 0.0000 (  3165 PWs)   bands (ev):

   -36.9170 -36.7193   0.4693   7.4692   8.0677   8.2800  10.7508  13.7347
    17.5816

          k =-0.8946 0.5165 0.2466 (  3142 PWs)   bands (ev):

   -36.9457 -36.7445  -1.0067   5.9091   7.0072   9.2814  14.5786  15.3775
    18.0439

          k = 1.1928 1.7217-0.0411 (  3152 PWs)   bands (ev):

   -36.9167 -36.7194   0.9544   5.0513   7.1763  10.5964  12.4229  13.9119
    16.3691

          k = 0.8946 1.5495 0.0000 (  3163 PWs)   bands (ev):

   -36.8964 -36.7017   3.3878   4.4961   8.0804   8.6712  11.7583  13.7648
    15.1230

          k = 1.1928-0.6887-0.3288 (  3164 PWs)   bands (ev):

   -36.9166 -36.7193   1.9240   3.1542   7.1857  10.7319  13.4921  14.4397
    15.6667

          k =-0.0000-0.0000 0.1233 (  3146 PWs)   bands (ev):

   -37.1141 -36.8897  -5.6075   2.6404   5.9139  13.0585  18.3572  23.7658
    23.7658

          k =-0.2982-0.1722 0.1644 (  3146 PWs)   bands (ev):

   -37.0853 -36.8650  -5.0862   3.0376   6.2994  13.0673  18.0090  19.6774
    21.4468

          k =-0.5964-0.3443 0.2055 (  3146 PWs)   bands (ev):

   -37.0157 -36.8049  -3.5373   4.2186   7.3142  12.4001  13.8884  18.8329
    19.3273

          k = 1.4910 0.8608-0.0822 (  3146 PWs)   bands (ev):

   -36.9457 -36.7445  -1.0064   5.7657   7.0597   9.7778  13.4863  16.0686
    17.2946

          k = 1.1928 0.6887-0.0411 (  3170 PWs)   bands (ev):

   -36.9167 -36.7192   1.9359   3.0404   8.0886   9.5211  12.8161  14.9506
    17.2067

          k = 0.8946 0.5165 0.0000 (  3157 PWs)   bands (ev):

   -36.9459 -36.7443  -1.0183   6.2892   6.8170   8.7891  14.6620  16.4259
    18.2827

          k = 0.5964 0.3443 0.0411 (  3152 PWs)   bands (ev):

   -37.0160 -36.8046  -3.5411   4.3658   6.9692  12.1668  15.4182  17.8685
    19.3013

          k =-0.2982 0.1722 0.2055 (  3125 PWs)   bands (ev):

   -37.0852 -36.8651  -5.0854   3.0096   6.3954  12.7392  18.7280  19.4566
    21.3976

          k =-0.5964-0.0000 0.2466 (  3140 PWs)   bands (ev):

   -37.0360 -36.8227  -4.0496   3.7793   7.1892  12.6957  15.2770  17.4936
    20.0731

          k = 1.4910 1.2052-0.0411 (  3154 PWs)   bands (ev):

   -36.9662 -36.7624  -2.0060   5.2426   8.3713  10.5965  12.7171  15.3939
    17.7676

          k = 1.1928 1.0330 0.0000 (  3161 PWs)   bands (ev):

   -36.9167 -36.7194   0.9617   4.8740   7.4957  10.8977  12.7130  12.8888
    15.3833

          k = 0.8946 0.8608 0.0411 (  3164 PWs)   bands (ev):

   -36.9168 -36.7193   0.9338   5.0107   7.8459   9.4222  12.5862  14.0264
    16.0931

          k = 0.5964 0.6887 0.0822 (  3150 PWs)   bands (ev):

   -36.9665 -36.7621  -2.0156   5.5817   7.7901  10.0218  13.8582  16.3877
    17.0791

          k =-0.5964 0.3443 0.2877 (  3142 PWs)   bands (ev):

   -37.0155 -36.8051  -3.5344   4.1172   7.7129  11.4423  14.4344  19.2583
    19.2728

          k = 1.4910 1.5495 0.0000 (  3146 PWs)   bands (ev):

   -36.9661 -36.7624  -2.0039   5.1823   8.9942   9.6646  13.1978  15.2510
    17.4564

          k = 1.1928 1.3773 0.0411 (  3156 PWs)   bands (ev):

   -36.9168 -36.7196   0.4956   6.7520   8.0014   8.9509  11.7279  14.5053
    14.7249

          k = 0.8946 1.2052 0.0822 (  3170 PWs)   bands (ev):

   -36.8964 -36.7017   3.3899   4.4463   8.0999   9.0466  11.5296  12.8634
    15.0166

          k = 0.5964 1.0330 0.1233 (  3164 PWs)   bands (ev):

   -36.9170 -36.7194   0.4737   7.2781   8.0277   8.5076  10.8523  13.8613
    16.7669

          k = 1.4910-0.8608-0.2877 (  3149 PWs)   bands (ev):

   -36.9456 -36.7446  -0.9983   5.6707   7.0811   9.9464  13.6016  15.3742
    17.7237

          k = 1.1928-1.0330-0.2466 (  3155 PWs)   bands (ev):

   -36.9167 -36.7195   0.9661   4.9881   7.1183  11.3021  12.4314  13.1972
    16.1012

          k = 0.8946-1.2052-0.2055 (  3171 PWs)   bands (ev):

   -36.8964 -36.7017   3.3883   4.4815   8.0839   8.7719  11.7327  13.3296
    15.4913

          k = 0.5964-1.3773-0.1644 (  3166 PWs)   bands (ev):

   -36.8964 -36.7017   3.3929   4.3969   8.1333   9.6642  10.7678  12.7858
    14.3606

          k = 1.1928-0.6887-0.2055 (  3160 PWs)   bands (ev):

   -36.9166 -36.7193   1.9259   3.1340   7.2972  10.5783  13.2205  14.7289
    15.8111

          k = 0.8946-0.8608-0.1644 (  3157 PWs)   bands (ev):

   -36.9168 -36.7193   0.9411   5.0590   7.4414   9.9385  12.4716  14.1461
    16.3705

          k = 0.8946-0.5165-0.1233 (  3150 PWs)   bands (ev):

   -36.9458 -36.7443  -1.0150   6.2026   6.8654   8.8510  14.8179  15.9918
    17.9940

          k =-0.0000-0.0000 0.2466 (  3139 PWs)   bands (ev):

   -37.1137 -36.8901  -5.6055   2.5769   6.1424  12.3037  19.7432  23.7504
    23.7505

          k =-0.2982-0.1722 0.2877 (  3139 PWs)   bands (ev):

   -37.0849 -36.8654  -5.0837   2.9542   6.5947  12.2477  18.5269  20.6630
    21.4379

          k = 1.7892 1.0330 0.0000 (  3150 PWs)   bands (ev):

   -37.0154 -36.8053  -3.5331   4.0808   7.7664  11.9527  13.4991  19.2801
    19.3102

          k = 1.4910 0.8608 0.0411 (  3148 PWs)   bands (ev):

   -36.9456 -36.7446  -0.9981   5.5938   7.0983  10.4879  12.7098  15.8050
    17.2983

          k = 1.1928 0.6887 0.0822 (  3152 PWs)   bands (ev):

   -36.9166 -36.7193   1.9307   3.0866   7.6149  10.1354  12.9317  14.9405
    16.3700

          k =-0.2982 0.1722 0.3288 (  3134 PWs)   bands (ev):

   -37.0847 -36.8656  -5.0829   2.9288   6.7006  11.9812  18.8926  20.8531
    21.3891

          k = 1.7892 1.3773 0.0411 (  3146 PWs)   bands (ev):

   -37.0357 -36.8231  -4.0464   3.6751   7.5843  11.9559  15.3318  17.4126
    21.4035

          k = 1.4910 1.2052 0.0822 (  3155 PWs)   bands (ev):

   -36.9660 -36.7625  -2.0007   5.1011   8.8369  10.5527  12.3064  15.1425
    17.9227

          k = 1.1928 1.0330 0.1233 (  3161 PWs)   bands (ev):

   -36.9167 -36.7195   0.9691   4.9138   7.2415  11.7347  12.3101  12.6957
    15.6851

          k = 1.7892-1.0330-0.2466 (  3158 PWs)   bands (ev):

   -37.0152 -36.8054  -3.5311   4.0181   8.1077  11.1724  13.9389  19.2618
    19.3712

          k = 1.4910-1.2052-0.2055 (  3161 PWs)   bands (ev):

   -36.9660 -36.7626  -1.9999   5.0795   9.1835   9.9883  12.5987  15.0626
    17.7886

          k = 1.1928-1.3773-0.1644 (  3156 PWs)   bands (ev):

   -36.9168 -36.7196   0.5001   6.6740   7.9991   8.9935  12.0919  13.9875
    15.0147

          k = 1.4910-0.8608-0.1644 (  3162 PWs)   bands (ev):

   -36.9455 -36.7447  -0.9947   5.5594   7.1048  10.5821  12.6997  15.5625
    17.4672

          k = 0.0000-0.0000 0.3699 (  3136 PWs)   bands (ev):

   -37.1132 -36.8906  -5.6035   2.5178   6.3900  11.6707  21.4726  23.7355
    23.7355

          k = 2.0874 1.2052 0.0822 (  3141 PWs)   bands (ev):

   -37.0845 -36.8658  -5.0817   2.8927   6.8568  11.6664  18.7391  21.4171
    22.0754

          k = 1.7892 1.0330 0.1233 (  3149 PWs)   bands (ev):

   -37.0152 -36.8054  -3.5305   4.0043   8.1263  11.3507  13.6132  19.2830
    19.4101

          k = 2.0874-1.2052-0.2055 (  3139 PWs)   bands (ev):

   -37.0845 -36.8659  -5.0814   2.8828   6.9053  11.5626  18.8420  21.3970
    22.4315

          k = 1.7892-1.3773-0.1644 (  3142 PWs)   bands (ev):

   -37.0355 -36.8232  -4.0450   3.6352   7.7693  11.6519  15.3470  17.3852
    22.1132

          k = 0.0000 0.0000-0.4932 (  3124 PWs)   bands (ev):

   -37.1130 -36.8908  -5.6027   2.4944   6.5005  11.4249  22.8949  23.7294
    24.2334

     the Fermi energy is     8.7153 ev

!    total energy              =     -37.13533302 Ry
     estimated scf accuracy    <          3.3E-13 Ry
     smearing contrib. (-TS)   =       0.00013086 Ry
     internal energy E=F+TS    =     -37.13546389 Ry

     The total energy is F=E-TS. E is the sum of the following terms:
     one-electron contribution =      -8.60257431 Ry
     hartree contribution      =       5.98880243 Ry
     xc contribution           =     -10.33679578 Ry
     ewald contribution        =     -24.18489623 Ry

     convergence has been achieved in   9 iterations

     Forces acting on atoms (cartesian axes, Ry/au):

     atom    1 type  1   force =    -0.00000000   -0.00000000    0.00000000
     atom    2 type  2   force =    -0.00000000   -0.00000000   -0.00002822
     atom    3 type  2   force =    -0.00000000   -0.00000000    0.00002822
     The non-local contrib.  to forces
     atom    1 type  1   force =    -0.00000000    0.00000000    0.00000000
     atom    2 type  2   force =     0.00000000    0.00000000   -0.03092544
     atom    3 type  2   force =    -0.00000000   -0.00000000    0.03092544
     The ionic contribution  to forces
     atom    1 type  1   force =     0.00000000   -0.00000000    0.00000000
     atom    2 type  2   force =     0.00000000    0.00000000   -0.70568475
     atom    3 type  2   force =     0.00000000   -0.00000000    0.70568475
     The local contribution  to forces
     atom    1 type  1   force =     0.00000000    0.00000000    0.00000000
     atom    2 type  2   force =    -0.00000000    0.00000000    0.73658263
     atom    3 type  2   force =    -0.00000000   -0.00000000   -0.73658263
     The core correction contribution to forces
     atom    1 type  1   force =     0.00000000    0.00000000   -0.00000000
     atom    2 type  2   force =     0.00000000    0.00000000    0.00000000
     atom    3 type  2   force =     0.00000000    0.00000000    0.00000000
     The Hubbard contrib.    to forces
     atom    1 type  1   force =     0.00000000    0.00000000    0.00000000
     atom    2 type  2   force =     0.00000000    0.00000000    0.00000000
     atom    3 type  2   force =     0.00000000    0.00000000    0.00000000
     The SCF correction term to forces
     atom    1 type  1   force =    -0.00000000   -0.00000000    0.00000000
     atom    2 type  2   force =    -0.00000000   -0.00000000   -0.00000067
     atom    3 type  2   force =     0.00000000    0.00000000    0.00000067

     Total force =     0.000040     Total SCF correction =     0.000001


     Computing stress (Cartesian axis) and pressure

          total   stress  (Ry/bohr**3)                   (kbar)     P=      500.35
   0.00340149   0.00000000  -0.00000000          500.38        0.00       -0.00
  -0.00000000   0.00340149   0.00000000           -0.00      500.38        0.00
  -0.00000000   0.00000000   0.00340097           -0.00        0.00      500.30


     Writing all to output data dir ./output/SiLi.save/

     init_run     :      2.66s CPU      3.74s WALL (       2 calls)
     electrons    :     79.77s CPU     90.19s WALL (       8 calls)
     update_pot   :      1.64s CPU      1.67s WALL (       6 calls)
     forces       :      1.45s CPU      1.50s WALL (       8 calls)
     stress       :      4.76s CPU      5.02s WALL (       8 calls)

     Called by init_run:
     wfcinit      :      1.75s CPU      2.07s WALL (       2 calls)
     potinit      :      0.28s CPU      0.65s WALL (       2 calls)
     hinit0       :      0.59s CPU      0.85s WALL (       2 calls)

     Called by electrons:
     c_bands      :     66.36s CPU     74.89s WALL (      61 calls)
     sum_band     :     11.80s CPU     13.14s WALL (      61 calls)
     v_of_rho     :      1.72s CPU      2.50s WALL (      67 calls)
     mix_rho      :      0.07s CPU      0.14s WALL (      61 calls)

     Called by c_bands:
     init_us_2    :      0.80s CPU      0.91s WALL (    9100 calls)
     init_us_2:cp :      0.79s CPU      0.90s WALL (    9100 calls)
     cegterg      :     64.93s CPU     72.06s WALL (    3965 calls)

     Called by *egterg:
     cdiaghg      :      1.29s CPU      1.58s WALL (   13679 calls)
     h_psi        :     63.57s CPU     70.54s WALL (   14329 calls)
     g_psi        :      0.08s CPU      0.09s WALL (   10234 calls)

     Called by h_psi:
     h_psi:calbec :      0.98s CPU      1.11s WALL (   14329 calls)
     vloc_psi     :     61.95s CPU     68.68s WALL (   14329 calls)
     add_vuspsi   :      0.57s CPU      0.65s WALL (   14329 calls)

     General routines
     calbec       :      1.27s CPU      1.41s WALL (   16929 calls)
     fft          :      1.26s CPU      2.38s WALL (     870 calls)
     ffts         :      0.04s CPU      0.06s WALL (      61 calls)
     fftw         :     64.08s CPU     71.07s WALL (  226921 calls)

     Parallel routines

     PWSCF        :   1m30.62s CPU   1m42.80s WALL


   This run was terminated on:  22:10:49  10Jan2025            

=------------------------------------------------------------------------------=
   JOB DONE.
=------------------------------------------------------------------------------=
