
     Program PWSCF v.7.2 starts on 10Jan2025 at 22: 9:19 

     This program is part of the open-source Quantum ESPRESSO suite
     for quantum simulation of materials; please cite
         "P. Giannozzi et al., J. Phys.:Condens. Matter 21 395502 (2009);
         "P. Giannozzi et al., J. Phys.:Condens. Matter 29 465901 (2017);
         "P. Giannozzi et al., J. Chem. Phys. 152 154105 (2020);
          URL http://www.quantum-espresso.org", 
     in publications or presentations arising from this work. More details at
     http://www.quantum-espresso.org/quote

     Parallel version (MPI & OpenMP), running on       8 processor cores
     Number of MPI processes:                 8
     Threads/MPI process:                     1

     MPI processes distributed on     1 nodes
     481347 MiB available memory on the printing compute node when the environment starts

     Waiting for input...
     Reading input from standard input

     Current dimensions of program PWSCF are:
     Max number of different atomic species (ntypx) = 10
     Max number of k-points (npk) =  40000
     Max angular momentum in pseudopotentials (lmaxx) =  4

     R & G space division:  proc/nbgrp/npool/nimage =       8
     Subspace diagonalization in iterative solution of the eigenvalue problem:
     a serial algorithm will be used


     Parallelization info
     --------------------
     sticks:   dense  smooth     PW     G-vecs:    dense   smooth      PW
     Min         148     148     44                 2518     2518     406
     Max         149     149     46                 2521     2521     407
     Sum        1189    1189    361                20161    20161    3253

     Using Slab Decomposition



     bravais-lattice index     =            4
     lattice parameter (alat)  =       7.3701  a.u.
     unit-cell volume          =     208.7824 (a.u.)^3
     number of atoms/cell      =            3
     number of atomic types    =            2
     number of electrons       =        11.00
     number of Kohn-Sham states=           10
     kinetic-energy cutoff     =      80.0000  Ry
     charge density cutoff     =     320.0000  Ry
     scf convergence threshold =      1.0E-08
     mixing beta               =       0.7000
     number of iterations used =            8  plain     mixing
     energy convergence thresh.=      5.0E-03
     force convergence thresh. =      1.0E-02
     press convergence thresh. =      2.0E+00
     Exchange-correlation= PBE
                           (   1   4   3   4   0   0   0)
     nstep                     =           50


     celldm(1)=   7.370142  celldm(2)=   0.000000  celldm(3)=   0.602193
     celldm(4)=   0.000000  celldm(5)=   0.000000  celldm(6)=   0.000000

     crystal axes: (cart. coord. in units of alat)
               a(1) = (   1.000000   0.000000   0.000000 )  
               a(2) = (  -0.500000   0.866025   0.000000 )  
               a(3) = (   0.000000   0.000000   0.602193 )  

     reciprocal axes: (cart. coord. in units 2 pi/alat)
               b(1) = (  1.000000  0.577350 -0.000000 )  
               b(2) = (  0.000000  1.154701  0.000000 )  
               b(3) = (  0.000000 -0.000000  1.660597 )  


     PseudoPot. # 1 for Si read from file:
     ../pseudo/Si_ONCV_PBE_sr.upf
     MD5 check sum: e543d271109d17c80368dfa7c482276d
     Pseudo is Norm-conserving + core correction, Zval =  4.0
     Generated using ONCVPSP code by D. R. Hamann
     Using radial grid of 1510 points,  6 beta functions with: 
                l(1) =   0
                l(2) =   0
                l(3) =   1
                l(4) =   1
                l(5) =   2
                l(6) =   2

     PseudoPot. # 2 for Li read from file:
     ../pseudo/Li_ONCV_PBE_sr.upf
     MD5 check sum: 50ff420e78310ffa21704f3361e624a4
     Pseudo is Norm-conserving, Zval =  3.0
     Generated using ONCVPSP code by D. R. Hamann
     Using radial grid of 1944 points,  4 beta functions with: 
                l(1) =   0
                l(2) =   0
                l(3) =   1
                l(4) =   1

     atomic species   valence    mass     pseudopotential
        Si             4.00    28.08550     Si( 1.00)
        Li             3.00     6.94100     Li( 1.00)

     12 Sym. Ops., with inversion, found



   Cartesian axes

     site n.     atom                  positions (alat units)
         1           Si  tau(   1) = (  -0.0000000   0.5773503   0.4497642  )
         2           Si  tau(   2) = (   0.5000000   0.2886751   0.1524289  )
         3           Li  tau(   3) = (   0.0000000   0.0000000   0.3010965  )

     number of k points=    80  Marzari-Vanderbilt smearing, width (Ry)=  0.0200
                       cart. coord. in units 2pi/alat
        k(    1) = (   0.0000000   0.0000000   0.0000000), wk =   0.0028571
        k(    2) = (   0.0000000   0.0000000   0.2372281), wk =   0.0057143
        k(    3) = (   0.0000000   0.0000000   0.4744563), wk =   0.0057143
        k(    4) = (   0.0000000   0.0000000   0.7116844), wk =   0.0057143
        k(    5) = (   0.0000000   0.1154701   0.0000000), wk =   0.0171429
        k(    6) = (   0.0000000   0.1154701   0.2372281), wk =   0.0171429
        k(    7) = (   0.0000000   0.1154701   0.4744563), wk =   0.0171429
        k(    8) = (   0.0000000   0.1154701   0.7116844), wk =   0.0171429
        k(    9) = (   0.0000000   0.2309401   0.0000000), wk =   0.0171429
        k(   10) = (   0.0000000   0.2309401   0.2372281), wk =   0.0171429
        k(   11) = (   0.0000000   0.2309401   0.4744563), wk =   0.0171429
        k(   12) = (   0.0000000   0.2309401   0.7116844), wk =   0.0171429
        k(   13) = (   0.0000000   0.3464102   0.0000000), wk =   0.0171429
        k(   14) = (   0.0000000   0.3464102   0.2372281), wk =   0.0171429
        k(   15) = (   0.0000000   0.3464102   0.4744563), wk =   0.0171429
        k(   16) = (   0.0000000   0.3464102   0.7116844), wk =   0.0171429
        k(   17) = (   0.0000000   0.4618802   0.0000000), wk =   0.0171429
        k(   18) = (   0.0000000   0.4618802   0.2372281), wk =   0.0171429
        k(   19) = (   0.0000000   0.4618802   0.4744563), wk =   0.0171429
        k(   20) = (   0.0000000   0.4618802   0.7116844), wk =   0.0171429
        k(   21) = (   0.0000000  -0.5773503   0.0000000), wk =   0.0085714
        k(   22) = (   0.0000000  -0.5773503   0.2372281), wk =   0.0171429
        k(   23) = (   0.0000000  -0.5773503   0.4744563), wk =   0.0171429
        k(   24) = (   0.0000000  -0.5773503   0.7116844), wk =   0.0171429
        k(   25) = (   0.1000000   0.1732051   0.0000000), wk =   0.0171429
        k(   26) = (   0.1000000   0.1732051   0.2372281), wk =   0.0342857
        k(   27) = (   0.1000000   0.1732051   0.4744563), wk =   0.0342857
        k(   28) = (   0.1000000   0.1732051   0.7116844), wk =   0.0342857
        k(   29) = (   0.1000000   0.2886751   0.0000000), wk =   0.0342857
        k(   30) = (   0.1000000   0.2886751   0.2372281), wk =   0.0342857
        k(   31) = (   0.1000000   0.2886751   0.4744563), wk =   0.0342857
        k(   32) = (   0.1000000   0.2886751   0.7116844), wk =   0.0342857
        k(   33) = (   0.1000000   0.4041452   0.0000000), wk =   0.0342857
        k(   34) = (   0.1000000   0.4041452   0.2372281), wk =   0.0342857
        k(   35) = (   0.1000000   0.4041452   0.4744563), wk =   0.0342857
        k(   36) = (   0.1000000   0.4041452   0.7116844), wk =   0.0342857
        k(   37) = (   0.1000000   0.5196152   0.0000000), wk =   0.0342857
        k(   38) = (   0.1000000   0.5196152   0.2372281), wk =   0.0342857
        k(   39) = (   0.1000000   0.5196152   0.4744563), wk =   0.0342857
        k(   40) = (   0.1000000   0.5196152   0.7116844), wk =   0.0342857
        k(   41) = (   0.2000000   0.3464102   0.0000000), wk =   0.0171429
        k(   42) = (   0.2000000   0.3464102   0.2372281), wk =   0.0342857
        k(   43) = (   0.2000000   0.3464102   0.4744563), wk =   0.0342857
        k(   44) = (   0.2000000   0.3464102   0.7116844), wk =   0.0342857
        k(   45) = (   0.2000000   0.4618802   0.0000000), wk =   0.0342857
        k(   46) = (   0.2000000   0.4618802   0.2372281), wk =   0.0342857
        k(   47) = (   0.2000000   0.4618802   0.4744563), wk =   0.0342857
        k(   48) = (   0.2000000   0.4618802   0.7116844), wk =   0.0342857
        k(   49) = (   0.2000000   0.5773503   0.0000000), wk =   0.0171429
        k(   50) = (   0.2000000   0.5773503   0.2372281), wk =   0.0342857
        k(   51) = (   0.2000000   0.5773503   0.4744563), wk =   0.0342857
        k(   52) = (   0.2000000   0.5773503   0.7116844), wk =   0.0342857
        k(   53) = (   0.3000000   0.5196152   0.0000000), wk =   0.0171429
        k(   54) = (   0.3000000   0.5196152   0.2372281), wk =   0.0342857
        k(   55) = (   0.3000000   0.5196152   0.4744563), wk =   0.0342857
        k(   56) = (   0.3000000   0.5196152   0.7116844), wk =   0.0342857
        k(   57) = (   0.0000000   0.1154701  -0.2372281), wk =   0.0171429
        k(   58) = (   0.0000000   0.1154701  -0.4744563), wk =   0.0171429
        k(   59) = (   0.0000000   0.1154701  -0.7116844), wk =   0.0171429
        k(   60) = (   0.0000000   0.2309401  -0.2372281), wk =   0.0171429
        k(   61) = (   0.0000000   0.2309401  -0.4744563), wk =   0.0171429
        k(   62) = (   0.0000000   0.2309401  -0.7116844), wk =   0.0171429
        k(   63) = (   0.0000000   0.3464102  -0.2372281), wk =   0.0171429
        k(   64) = (   0.0000000   0.3464102  -0.4744563), wk =   0.0171429
        k(   65) = (   0.0000000   0.3464102  -0.7116844), wk =   0.0171429
        k(   66) = (   0.0000000   0.4618802  -0.2372281), wk =   0.0171429
        k(   67) = (   0.0000000   0.4618802  -0.4744563), wk =   0.0171429
        k(   68) = (   0.0000000   0.4618802  -0.7116844), wk =   0.0171429
        k(   69) = (  -0.1000000   0.2886751  -0.2372281), wk =   0.0342857
        k(   70) = (  -0.1000000   0.2886751  -0.4744563), wk =   0.0342857
        k(   71) = (  -0.1000000   0.2886751  -0.7116844), wk =   0.0342857
        k(   72) = (  -0.1000000   0.4041452  -0.2372281), wk =   0.0342857
        k(   73) = (  -0.1000000   0.4041452  -0.4744563), wk =   0.0342857
        k(   74) = (  -0.1000000   0.4041452  -0.7116844), wk =   0.0342857
        k(   75) = (  -0.1000000   0.5196152  -0.2372281), wk =   0.0342857
        k(   76) = (  -0.1000000   0.5196152  -0.4744563), wk =   0.0342857
        k(   77) = (  -0.1000000   0.5196152  -0.7116844), wk =   0.0342857
        k(   78) = (  -0.2000000   0.4618802  -0.2372281), wk =   0.0342857
        k(   79) = (  -0.2000000   0.4618802  -0.4744563), wk =   0.0342857
        k(   80) = (  -0.2000000   0.4618802  -0.7116844), wk =   0.0342857

     Dense  grid:    20161 G-vectors     FFT dimensions: (  45,  45,  25)

     Estimated max dynamical RAM per process >      17.49 MB

     Estimated total dynamical RAM >     139.94 MB

     Initial potential from superposition of free atoms

     starting charge      10.9942, renormalised to      11.0000
     Starting wfcs are   10 randomized atomic wfcs

     total cpu time spent up to now is        1.1 secs

     Self-consistent Calculation

     iteration #  1     ecut=    80.00 Ry     beta= 0.70
     Davidson diagonalization with overlap
     ethr =  1.00E-02,  avg # of iterations =  5.9

     Threshold (ethr) on eigenvalues was too large:
     Diagonalizing with lowered threshold

     Davidson diagonalization with overlap
     ethr =  1.32E-04,  avg # of iterations =  4.5

     total cpu time spent up to now is        3.1 secs

     total energy              =     -31.18797937 Ry
     estimated scf accuracy    <       0.01484546 Ry

     iteration #  2     ecut=    80.00 Ry     beta= 0.70
     Davidson diagonalization with overlap
     ethr =  1.35E-04,  avg # of iterations =  1.1

     total cpu time spent up to now is        3.7 secs

     total energy              =     -31.18819803 Ry
     estimated scf accuracy    <       0.00074132 Ry

     iteration #  3     ecut=    80.00 Ry     beta= 0.70
     Davidson diagonalization with overlap
     ethr =  6.74E-06,  avg # of iterations =  3.8

     total cpu time spent up to now is        4.4 secs

     total energy              =     -31.18828034 Ry
     estimated scf accuracy    <       0.00000699 Ry

     iteration #  4     ecut=    80.00 Ry     beta= 0.70
     Davidson diagonalization with overlap
     ethr =  6.35E-08,  avg # of iterations =  3.3

     total cpu time spent up to now is        5.2 secs

     total energy              =     -31.18828335 Ry
     estimated scf accuracy    <       0.00000052 Ry

     iteration #  5     ecut=    80.00 Ry     beta= 0.70
     Davidson diagonalization with overlap
     ethr =  4.74E-09,  avg # of iterations =  2.1

     total cpu time spent up to now is        5.8 secs

     total energy              =     -31.18828344 Ry
     estimated scf accuracy    <       0.00000001 Ry

     iteration #  6     ecut=    80.00 Ry     beta= 0.70
     Davidson diagonalization with overlap
     ethr =  1.35E-10,  avg # of iterations =  3.0

     total cpu time spent up to now is        6.5 secs

     End of self-consistent calculation

          k = 0.0000 0.0000 0.0000 (  2545 PWs)   bands (ev):

   -34.1674  -3.0118   7.3804   7.3804   8.0998   9.6686   9.6686  17.6644
    21.2173  21.9502

          k = 0.0000 0.0000 0.2372 (  2521 PWs)   bands (ev):

   -34.1490  -2.4980   7.8780   7.8780   8.5235  10.1875  10.1875  15.1119
    18.0671  25.1391

          k = 0.0000 0.0000 0.4745 (  2527 PWs)   bands (ev):

   -34.1075  -0.9678   8.6453   9.3712   9.3712  11.2979  11.7325  11.7325
    17.3687  19.8939

          k = 0.0000 0.0000 0.7117 (  2532 PWs)   bands (ev):

   -34.0741   1.5383   4.9983  11.8523  11.8523  12.8590  14.1378  14.1378
    15.5134  15.5776

          k = 0.0000 0.1155 0.0000 (  2544 PWs)   bands (ev):

   -34.1672  -2.9147   5.8764   6.9740   8.9650  10.3157  10.4326  17.9230
    21.2710  22.0535

          k = 0.0000 0.1155 0.2372 (  2528 PWs)   bands (ev):

   -34.1489  -2.4003   6.3720   7.4772   9.3875  10.8245  10.9257  15.2821
    18.2351  23.6784

          k = 0.0000 0.1155 0.4745 (  2518 PWs)   bands (ev):

   -34.1074  -0.8685   7.7071   8.9832   9.3067  11.7640  12.3439  12.4517
    17.2915  18.9626

          k = 0.0000 0.1155 0.7117 (  2532 PWs)   bands (ev):

   -34.0740   1.6401   5.0893  10.4805  11.4837  13.6811  13.9652  14.3770
    14.6037  15.5893

          k = 0.0000 0.2309 0.0000 (  2550 PWs)   bands (ev):

   -34.1667  -2.6271   4.1614   6.3153   9.0984  11.6954  12.3780  18.6810
    21.4277  22.3521

          k = 0.0000 0.2309 0.2372 (  2534 PWs)   bands (ev):

   -34.1484  -2.1109   4.6673   6.8210   9.4996  12.1951  12.7964  15.7229
    18.7967  22.1333

          k = 0.0000 0.2309 0.4745 (  2518 PWs)   bands (ev):

   -34.1070  -0.5742   6.1405   8.3345   9.3773  11.9489  13.6789  14.1903
    16.5743  18.5919

          k = 0.0000 0.2309 0.7117 (  2530 PWs)   bands (ev):

   -34.0736   1.9401   5.3616   8.7898  10.8414  12.3545  13.7543  14.2477
    15.1454  16.5015

          k = 0.0000 0.3464 0.0000 (  2528 PWs)   bands (ev):

   -34.1660  -2.1662   2.6462   5.7796   9.0884  13.4297  14.4795  19.8085
    21.6780  22.7787

          k = 0.0000 0.3464 0.2372 (  2533 PWs)   bands (ev):

   -34.1478  -1.6469   3.1549   6.2860   9.4673  13.9177  14.7287  16.3702
    19.5031  21.0809

          k = 0.0000 0.3464 0.4745 (  2525 PWs)   bands (ev):

   -34.1065  -0.1020   4.6574   7.8020   9.6025  12.0679  15.1686  15.3224
    15.8950  18.6890

          k = 0.0000 0.3464 0.7117 (  2515 PWs)   bands (ev):

   -34.0732   2.4190   5.7745   7.3198  10.3099  10.8824  13.3351  13.8489
    15.5718  18.1137

          k = 0.0000 0.4619 0.0000 (  2524 PWs)   bands (ev):

   -34.1655  -1.6038   1.4413   5.4454   9.0672  15.4342  16.4901  20.1419
    20.2969  22.2786

          k = 0.0000 0.4619 0.2372 (  2524 PWs)   bands (ev):

   -34.1473  -1.0793   1.9470   5.9517   9.4402  15.9019  16.1853  17.4419
    18.7880  20.6504

          k = 0.0000 0.4619 0.4745 (  2515 PWs)   bands (ev):

   -34.1061   0.4795   3.4460   7.4683   9.9191  12.1869  13.9483  16.9673
    17.2798  18.7247

          k = 0.0000 0.4619 0.7117 (  2522 PWs)   bands (ev):

   -34.0729   3.0087   5.7215   6.7523   9.6319   9.9754  12.9704  13.5676
    16.0162  20.0293

          k = 0.0000-0.5774 0.0000 (  2504 PWs)   bands (ev):

   -34.1653  -1.2648   0.8867   5.3326   9.0583  17.6103  17.7504  17.8213
    19.4577  22.4365

          k = 0.0000-0.5774 0.2372 (  2526 PWs)   bands (ev):

   -34.1471  -0.7348   1.3865   5.8384   9.4427  16.8713  17.5536  18.0957
    18.2095  19.0602

          k = 0.0000-0.5774 0.4745 (  2498 PWs)   bands (ev):

   -34.1059   0.8404   2.8667   7.3546  10.2430  12.0475  13.3606  17.7082
    18.4258  19.7222

          k = 0.0000-0.5774 0.7117 (  2526 PWs)   bands (ev):

   -34.0728   3.3949   5.1491   7.2447   8.8741   9.8600  12.7804  13.4782
    16.3755  22.2286

          k = 0.1000 0.1732 0.0000 (  2539 PWs)   bands (ev):

   -34.1669  -2.7221   4.6323   6.3774   9.4176  10.7523  12.1114  18.4285
    21.3745  22.2551

          k = 0.1000 0.1732 0.2372 (  2528 PWs)   bands (ev):

   -34.1485  -2.2064   5.1353   6.8726   9.8737  11.2092  12.5347  15.6373
    18.5110  22.8095

          k = 0.1000 0.1732 0.4745 (  2524 PWs)   bands (ev):

   -34.1071  -0.6712   6.5659   8.3341   9.6622  11.8291  12.7501  14.2421
    16.6387  18.4964

          k = 0.1000 0.1732 0.7117 (  2535 PWs)   bands (ev):

   -34.0737   1.8423   5.2589   9.3575  10.8496  12.7209  13.8735  14.2276
    14.9564  16.6381

          k = 0.1000 0.2887 0.0000 (  2537 PWs)   bands (ev):

   -34.1663  -2.3444   3.1927   5.7358   9.6472  11.9382  14.2186  19.3495
    21.5430  22.6310

          k = 0.1000 0.2887 0.2372 (  2530 PWs)   bands (ev):

   -34.1480  -1.8264   3.7038   6.2249  10.0629  12.3848  14.5131  16.2143
    19.1433  21.5317

          k = 0.1000 0.2887 0.4745 (  2525 PWs)   bands (ev):

   -34.1067  -0.2848   5.2040   7.6630   9.8684  12.3506  13.6548  15.7043
    15.9891  18.1730

          k = 0.1000 0.2887 0.7117 (  2524 PWs)   bands (ev):

   -34.0734   2.2350   5.5965   7.9312  10.1938  11.4283  13.3506  14.4639
    15.2210  18.0028

          k = 0.1000 0.4041 0.0000 (  2529 PWs)   bands (ev):

   -34.1657  -1.8131   1.8861   5.2878   9.6696  13.6184  16.3968  19.7360
    21.4591  22.1155

          k = 0.1000 0.4041 0.2372 (  2522 PWs)   bands (ev):

   -34.1474  -1.2913   2.3983   5.7741  10.0628  14.0430  16.1081  17.2937
    19.1112  20.9832

          k = 0.1000 0.4041 0.4745 (  2521 PWs)   bands (ev):

   -34.1062   0.2601   3.9136   7.2121  10.2029  12.4407  14.4604  15.2369
    16.9362  19.0693

          k = 0.1000 0.4041 0.7117 (  2520 PWs)   bands (ev):

   -34.0730   2.7854   5.8860   6.8533   9.6893  10.1990  12.7819  14.3434
    15.9530  19.1656

          k = 0.1000 0.5196 0.0000 (  2522 PWs)   bands (ev):

   -34.1653  -1.2766   0.9483   5.0616   9.6600  15.5287  17.6759  18.7395
    20.8028  22.5252

          k = 0.1000 0.5196 0.2372 (  2515 PWs)   bands (ev):

   -34.1471  -0.7490   1.4558   5.5470  10.0534  15.8518  17.0209  17.7213
    19.0659  19.2161

          k = 0.1000 0.5196 0.4745 (  2512 PWs)   bands (ev):

   -34.1059   0.8187   2.9598   6.9897  10.5992  12.4497  13.4558  16.8612
    17.3067  19.7880

          k = 0.1000 0.5196 0.7117 (  2511 PWs)   bands (ev):

   -34.0728   3.3557   5.3094   7.0856   8.9729   9.6479  12.4971  14.1637
    16.5660  20.8217

          k = 0.2000 0.3464 0.0000 (  2533 PWs)   bands (ev):

   -34.1657  -1.8846   2.0893   5.0927  10.5661  12.2974  16.5033  19.5148
    21.4390  22.2227

          k = 0.2000 0.3464 0.2372 (  2527 PWs)   bands (ev):

   -34.1475  -1.3637   2.6060   5.5634  11.0196  12.6704  16.0283  17.5100
    18.9608  20.9510

          k = 0.2000 0.3464 0.4745 (  2524 PWs)   bands (ev):

   -34.1063   0.1856   4.1288   6.9553  10.6088  12.8981  13.7695  14.8465
    17.0067  18.9293

          k = 0.2000 0.3464 0.7117 (  2517 PWs)   bands (ev):

   -34.0730   2.7142   5.7707   7.2356   9.3743  10.3667  12.6080  15.0056
    16.1241  18.6544

          k = 0.2000 0.4619 0.0000 (  2523 PWs)   bands (ev):

   -34.1653  -1.2952   1.0540   4.6891  10.9728  13.4980  17.6574  18.8744
    22.2458  22.6243

          k = 0.2000 0.4619 0.2372 (  2524 PWs)   bands (ev):

   -34.1471  -0.7706   1.5734   5.1499  11.3894  13.8882  16.8386  17.8648
    19.2334  19.5071

          k = 0.2000 0.4619 0.4745 (  2512 PWs)   bands (ev):

   -34.1059   0.7882   3.1117   6.5158  11.1299  13.2625  13.8430  14.8310
    16.8585  19.6321

          k = 0.2000 0.4619 0.7117 (  2512 PWs)   bands (ev):

   -34.0728   3.3168   5.4510   7.0971   8.8808   9.4189  12.1580  15.5610
    16.5456  19.8047

          k = 0.2000 0.5774 0.0000 (  2506 PWs)   bands (ev):

   -34.1651  -0.8883   0.4889   4.5557  11.0366  14.8168  16.0931  20.8800
    21.4168  22.7555

          k = 0.2000 0.5774 0.2372 (  2521 PWs)   bands (ev):

   -34.1469  -0.3596   1.0056   5.0138  11.4544  15.1840  16.2992  17.4881
    18.5519  20.7016

          k = 0.2000 0.5774 0.4745 (  2525 PWs)   bands (ev):

   -34.1058   1.2109   2.5367   6.3759  11.6031  12.9789  13.2666  16.1588
    16.8567  18.2694

          k = 0.2000 0.5774 0.7117 (  2514 PWs)   bands (ev):

   -34.0727   3.7492   4.9369   7.5965   8.3168   9.0998  12.0134  15.4154
    17.5108  19.4564

          k = 0.3000 0.5196 0.0000 (  2510 PWs)   bands (ev):

   -34.1651  -0.6506   0.2356   4.3493  12.3700  13.4735  15.7678  21.2613
    22.9057  23.1181

          k = 0.3000 0.5196 0.2372 (  2527 PWs)   bands (ev):

   -34.1469  -0.1241   0.7601   4.7963  12.8023  13.8589  16.0114  17.6503
    18.4067  20.8756

          k = 0.3000 0.5196 0.4745 (  2519 PWs)   bands (ev):

   -34.1058   1.4396   2.3154   6.1264  11.9818  12.8516  14.6220  14.8816
    16.2399  18.0916

          k = 0.3000 0.5196 0.7117 (  2515 PWs)   bands (ev):

   -34.0726   3.9607   4.7723   7.7518   8.3142   8.6452  11.8324  16.6340
    17.3274  18.8446

          k = 0.0000 0.1155-0.2372 (  2528 PWs)   bands (ev):

   -34.1489  -2.4003   6.3684   7.4730   9.4302  10.8364  10.8682  15.3034
    18.2016  23.9460

          k = 0.0000 0.1155-0.4745 (  2518 PWs)   bands (ev):

   -34.1074  -0.8684   7.6520   8.9723   9.5387  11.2828  12.3814  12.7572
    17.0635  19.6159

          k = 0.0000 0.1155-0.7117 (  2532 PWs)   bands (ev):

   -34.0740   1.6405   5.0849  10.5719  11.4528  13.3438  13.7786  14.7628
    14.9240  15.1785

          k = 0.0000 0.2309-0.2372 (  2534 PWs)   bands (ev):

   -34.1484  -2.1108   4.6608   6.8173   9.5693  12.2160  12.6352  15.8799
    18.5107  22.9695

          k = 0.0000 0.2309-0.4745 (  2518 PWs)   bands (ev):

   -34.1070  -0.5736   6.0830   8.3250   9.9437  11.0620  13.7541  14.7154
    16.0357  18.9290

          k = 0.0000 0.2309-0.7117 (  2530 PWs)   bands (ev):

   -34.0736   1.9436   5.3187   9.0113  10.8163  12.0734  13.1633  14.4293
    16.2806  16.4490

          k = 0.0000 0.3464-0.2372 (  2533 PWs)   bands (ev):

   -34.1478  -1.6465   3.1491   6.2835   9.5302  13.9511  14.4225  16.7615
    18.7329  22.7750

          k = 0.0000 0.3464-0.4745 (  2525 PWs)   bands (ev):

   -34.1065  -0.1001   4.6173   7.7957  10.4581  10.9005  14.8136  15.4792
    16.8055  18.4092

          k = 0.0000 0.3464-0.7117 (  2515 PWs)   bands (ev):

   -34.0732   2.4311   5.5698   7.7704  10.2941  10.5316  12.9209  13.9250
    16.7046  17.9966

          k = 0.0000 0.4619-0.2372 (  2524 PWs)   bands (ev):

   -34.1473  -1.0787   1.9434   5.9505   9.4764  15.9569  15.9570  17.4447
    18.9654  20.4475

          k = 0.0000 0.4619-0.4745 (  2515 PWs)   bands (ev):

   -34.1061   0.4829   3.4240   7.4653  10.5017  11.3507  13.8430  17.4116
    18.1052  18.6037

          k = 0.0000 0.4619-0.7117 (  2522 PWs)   bands (ev):

   -34.0729   3.0336   5.4123   7.3146   9.3009   9.9680  12.7735  13.5983
    16.5951  19.9753

          k =-0.1000 0.2887-0.2372 (  2530 PWs)   bands (ev):

   -34.1480  -1.8263   3.7002   6.2248  10.1158  12.3364  14.4155  16.3941
    18.7989  22.2127

          k =-0.1000 0.2887-0.4745 (  2525 PWs)   bands (ev):

   -34.1067  -0.2841   5.1766   7.6782  10.2161  11.6502  13.9298  15.5202
    16.3496  18.0735

          k =-0.1000 0.2887-0.7117 (  2524 PWs)   bands (ev):

   -34.0734   2.2394   5.5299   8.1348  10.1191  11.3009  13.2179  14.1183
    16.3121  17.3984

          k =-0.1000 0.4041-0.2372 (  2522 PWs)   bands (ev):

   -34.1474  -1.2909   2.3946   5.7743  10.1097  13.9741  15.9863  17.5465
    18.8062  20.8069

          k =-0.1000 0.4041-0.4745 (  2521 PWs)   bands (ev):

   -34.1062   0.2623   3.8903   7.2247  10.8102  11.5158  14.1581  15.8279
    17.5759  18.6189

          k =-0.1000 0.4041-0.7117 (  2520 PWs)   bands (ev):

   -34.0730   2.8009   5.6063   7.3590   9.4364  10.1508  12.7196  14.0690
    17.2361  18.0203

          k =-0.1000 0.5196-0.2372 (  2515 PWs)   bands (ev):

   -34.1471  -0.7485   1.4541   5.5471  10.0710  15.8166  16.8594  17.9853
    18.6472  19.7616

          k =-0.1000 0.5196-0.4745 (  2512 PWs)   bands (ev):

   -34.1059   0.8214   2.9497   6.9942  10.9187  11.9324  13.4502  17.1786
    17.7771  18.9319

          k =-0.1000 0.5196-0.7117 (  2511 PWs)   bands (ev):

   -34.0728   3.3762   5.1819   7.3971   8.7176   9.6758  12.4788  14.0707
    16.9812  19.8614

          k =-0.2000 0.4619-0.2372 (  2524 PWs)   bands (ev):

   -34.1471  -0.7703   1.5722   5.1503  11.4163  13.8450  16.7916  17.9834
    19.0266  19.7074

          k =-0.2000 0.4619-0.4745 (  2512 PWs)   bands (ev):

   -34.1059   0.7897   3.1049   6.5212  11.3388  12.8745  13.5437  15.4332
    16.9192  19.3200

          k =-0.2000 0.4619-0.7117 (  2512 PWs)   bands (ev):

   -34.0728   3.3282   5.3594   7.3249   8.6675   9.4707  12.1588  15.2319
    17.6215  18.3668

     the Fermi energy is    12.0939 ev

!    total energy              =     -31.18828344 Ry
     estimated scf accuracy    <          9.6E-10 Ry
     smearing contrib. (-TS)   =      -0.00035480 Ry
     internal energy E=F+TS    =     -31.18792864 Ry

     The total energy is F=E-TS. E is the sum of the following terms:
     one-electron contribution =       4.44584686 Ry
     hartree contribution      =       2.96496564 Ry
     xc contribution           =     -10.08907274 Ry
     ewald contribution        =     -28.50966841 Ry

     convergence has been achieved in   6 iterations

     Forces acting on atoms (cartesian axes, Ry/au):

     atom    1 type  1   force =     0.00000000    0.00000000    0.02749478
     atom    2 type  1   force =     0.00000000    0.00000000   -0.02749478
     atom    3 type  2   force =     0.00000000   -0.00000000    0.00000000
     The non-local contrib.  to forces
     atom    1 type  1   force =     0.00000000   -0.00000000    0.05192616
     atom    2 type  1   force =     0.00000000   -0.00000000   -0.05192616
     atom    3 type  2   force =     0.00000000    0.00000000    0.00000000
     The ionic contribution  to forces
     atom    1 type  1   force =     0.00000009   -0.00000005    0.11734476
     atom    2 type  1   force =    -0.00000009    0.00000005   -0.11734476
     atom    3 type  2   force =    -0.00000000   -0.00000000    0.00000000
     The local contribution  to forces
     atom    1 type  1   force =    -0.00000001    0.00000000   -0.13844426
     atom    2 type  1   force =     0.00000001   -0.00000000    0.13844426
     atom    3 type  2   force =     0.00000000    0.00000000    0.00000000
     The core correction contribution to forces
     atom    1 type  1   force =    -0.00000000    0.00000000   -0.00332929
     atom    2 type  1   force =     0.00000000   -0.00000000    0.00332929
     atom    3 type  2   force =     0.00000000    0.00000000    0.00000000
     The Hubbard contrib.    to forces
     atom    1 type  1   force =     0.00000000    0.00000000    0.00000000
     atom    2 type  1   force =     0.00000000    0.00000000    0.00000000
     atom    3 type  2   force =     0.00000000    0.00000000    0.00000000
     The SCF correction term to forces
     atom    1 type  1   force =    -0.00000000    0.00000000   -0.00000259
     atom    2 type  1   force =     0.00000000   -0.00000000    0.00000259
     atom    3 type  2   force =     0.00000000    0.00000000   -0.00000000

     Total force =     0.038883     Total SCF correction =     0.000004


     Computing stress (Cartesian axis) and pressure

          total   stress  (Ry/bohr**3)                   (kbar)     P=      389.32
   0.00252594  -0.00000000   0.00000000          371.58       -0.00        0.00
  -0.00000000   0.00252594   0.00000000           -0.00      371.58        0.00
   0.00000000   0.00000000   0.00288766            0.00        0.00      424.79


     BFGS Geometry Optimization
     Energy error            =      0.0E+00 Ry
     Gradient error          =      2.7E-02 Ry/Bohr
     Cell gradient error     =      1.3E+02 kbar

     number of scf cycles    =   1
     number of bfgs steps    =   0

     enthalpy           new  =     -30.4786464960 Ry

     new trust radius        =       0.0630708599 bohr
ibrav =      4
 celldm(1) =      7.20928908
 celldm(3) =      0.60776036
Input lattice vectors:
     0.97817512    -0.00000000     0.00000000
    -0.48908756     0.84712451     0.00000000
     0.00000000     0.00000000     0.59449607
New lattice vectors in INITIAL alat:
     0.97817512     0.00000000     0.00000000
    -0.48908756     0.84712451     0.00000000
     0.00000000     0.00000000     0.59449607
New lattice vectors in NEW alat (for information only):
     1.00000000     0.00000000     0.00000000
    -0.50000000     0.86602540     0.00000000
     0.00000000     0.00000000     0.60776036
Discrepancy in bohr =     0.000000    0.000000    0.000000
     new conv_thr            =       0.0000000100 Ry

     new unit-cell volume =    197.21517 a.u.^3 (    29.22427 Ang^3 )
     density =      3.58606 g/cm^3

CELL_PARAMETERS (alat=  7.37014152)
   0.978175122   0.000000000   0.000000000
  -0.489087561   0.847124505   0.000000000
   0.000000000   0.000000000   0.594496066

ATOMIC_POSITIONS (crystal)
Si            0.3333333300        0.6666666700        0.7530719618
Si            0.6666666700        0.3333333300        0.2469280382
Li           -0.0000000000       -0.0000000000        0.5000000000



     Writing config-only to output data dir ./output/SiLi.save/
     NEW-OLD atomic charge density approx. for the potential
     extrapolated charge   10.35516, renormalised to   11.00000

     total cpu time spent up to now is        7.7 secs

     Self-consistent Calculation

     iteration #  1     ecut=    80.00 Ry     beta= 0.70
     Davidson diagonalization with overlap
     ethr =  1.00E-06,  avg # of iterations =  7.9

     total cpu time spent up to now is        9.3 secs

     total energy              =     -31.15308422 Ry
     estimated scf accuracy    <       0.00067075 Ry

     iteration #  2     ecut=    80.00 Ry     beta= 0.70
     Davidson diagonalization with overlap
     ethr =  6.10E-06,  avg # of iterations =  3.4

     total cpu time spent up to now is       10.1 secs

     total energy              =     -31.15546987 Ry
     estimated scf accuracy    <       0.00069770 Ry

     iteration #  3     ecut=    80.00 Ry     beta= 0.70
     Davidson diagonalization with overlap
     ethr =  6.10E-06,  avg # of iterations =  1.0

     total cpu time spent up to now is       10.7 secs

     total energy              =     -31.15541982 Ry
     estimated scf accuracy    <       0.00016832 Ry

     iteration #  4     ecut=    80.00 Ry     beta= 0.70
     Davidson diagonalization with overlap
     ethr =  1.53E-06,  avg # of iterations =  1.1

     total cpu time spent up to now is       11.3 secs

     total energy              =     -31.15541117 Ry
     estimated scf accuracy    <       0.00002788 Ry

     iteration #  5     ecut=    80.00 Ry     beta= 0.70
     Davidson diagonalization with overlap
     ethr =  2.53E-07,  avg # of iterations =  2.0

     total cpu time spent up to now is       11.9 secs

     total energy              =     -31.15541543 Ry
     estimated scf accuracy    <       0.00000002 Ry

     iteration #  6     ecut=    80.00 Ry     beta= 0.70
     Davidson diagonalization with overlap
     ethr =  1.88E-10,  avg # of iterations =  4.7

     total cpu time spent up to now is       12.8 secs

     End of self-consistent calculation

          k = 0.0000 0.0000 0.0000 (  2545 PWs)   bands (ev):

   -33.4015  -2.6595   8.0468   8.0468   9.1621  10.3305  10.3305  18.7399
    22.3169  22.9133

          k = 0.0000 0.0000 0.2403 (  2521 PWs)   bands (ev):

   -33.3805  -2.1363   8.5546   8.5546   9.5539  10.8633  10.8633  15.9433
    19.2890  26.6742

          k = 0.0000 0.0000 0.4806 (  2527 PWs)   bands (ev):

   -33.3331  -0.5790   9.2609  10.0794  10.0794  12.4525  12.4525  12.4866
    18.5173  20.8085

          k = 0.0000 0.0000 0.7209 (  2532 PWs)   bands (ev):

   -33.2949   1.9648   5.4945  12.6205  12.6205  14.0975  14.9743  14.9743
    16.2824  16.2825

          k = 0.0000 0.1180 0.0000 (  2544 PWs)   bands (ev):

   -33.4012  -2.5591   6.5851   7.6079   9.8425  11.0204  11.2484  19.0022
    22.3670  23.0243

          k = 0.0000 0.1180 0.2403 (  2528 PWs)   bands (ev):

   -33.3802  -2.0352   7.0896   8.1215  10.2447  11.5436  11.7379  16.1311
    19.4461  24.8456

          k = 0.0000 0.1180 0.4806 (  2518 PWs)   bands (ev):

   -33.3329  -0.4759   8.4086   9.6602   9.9065  12.7182  13.1080  13.4443
    18.4095  19.9310

          k = 0.0000 0.1180 0.7209 (  2532 PWs)   bands (ev):

   -33.2947   2.0708   5.5873  11.2945  12.2212  14.7845  14.8770  15.2611
    15.5081  16.3211

          k = 0.0000 0.2361 0.0000 (  2550 PWs)   bands (ev):

   -33.4004  -2.2618   4.8039   6.9099   9.9127  12.4708  13.3537  19.7724
    22.5133  23.3463

          k = 0.0000 0.2361 0.2403 (  2534 PWs)   bands (ev):

   -33.3795  -1.7357   5.3198   7.4263  10.2913  12.9852  13.7511  16.6199
    19.9836  23.2068

          k = 0.0000 0.2361 0.4806 (  2518 PWs)   bands (ev):

   -33.3323  -0.1706   6.8122   8.9732   9.9474  12.9148  14.5169  15.2634
    17.5609  19.6172

          k = 0.0000 0.2361 0.7209 (  2530 PWs)   bands (ev):

   -33.2943   2.3835   5.8659   9.5369  11.5422  13.2159  14.7422  15.0530
    16.1175  17.3421

          k = 0.0000 0.3541 0.0000 (  2528 PWs)   bands (ev):

   -33.3995  -1.7850   3.2257   6.3469   9.8997  14.2843  15.5612  20.9192
    22.7523  23.8234

          k = 0.0000 0.3541 0.2403 (  2533 PWs)   bands (ev):

   -33.3787  -1.2552   3.7444   6.8640  10.2553  14.7879  15.7331  17.3621
    20.6135  22.1290

          k = 0.0000 0.3541 0.4806 (  2525 PWs)   bands (ev):

   -33.3316   0.3196   5.2717   8.4138  10.1843  13.0480  16.0810  16.2461
    16.9744  19.5047

          k = 0.0000 0.3541 0.7209 (  2515 PWs)   bands (ev):

   -33.2937   2.8820   6.2904   7.9991  10.9845  11.6774  14.2870  14.6025
    16.5749  19.0566

          k = 0.0000 0.4722 0.0000 (  2524 PWs)   bands (ev):

   -33.3987  -1.2032   1.9720   5.9967   9.8827  16.3758  17.6588  21.3077
    21.4384  23.3335

          k = 0.0000 0.4722 0.2403 (  2524 PWs)   bands (ev):

   -33.3780  -0.6674   2.4867   6.5139  10.2373  16.8605  17.1330  18.5902
    19.7499  21.8330

          k = 0.0000 0.4722 0.4806 (  2515 PWs)   bands (ev):

   -33.3311   0.9237   4.0089   8.0645  10.5397  13.1480  14.7787  17.9573
    18.3834  19.5496

          k = 0.0000 0.4722 0.7209 (  2522 PWs)   bands (ev):

   -33.2932   3.4962   6.2765   7.3572  10.3703  10.6348  13.9051  14.2961
    17.0531  21.0660

          k = 0.0000-0.5902 0.0000 (  2504 PWs)   bands (ev):

   -33.3985  -0.8531   1.3964   5.8786   9.8760  18.5405  18.9171  19.0624
    20.6056  23.5518

          k = 0.0000-0.5902 0.2403 (  2526 PWs)   bands (ev):

   -33.3777  -0.3107   1.9033   6.3955  10.2502  17.7708  18.5075  19.0578
    19.3727  20.3168

          k = 0.0000-0.5902 0.4806 (  2498 PWs)   bands (ev):

   -33.3309   1.3002   3.4017   7.9458  10.9245  12.8918  14.2178  18.6140
    19.5534  20.7478

          k = 0.0000-0.5902 0.7209 (  2526 PWs)   bands (ev):

   -33.2931   3.9040   5.6779   7.8825   9.5561  10.5148  13.7081  14.1973
    17.4381  23.6332

          k = 0.1022 0.1771 0.0000 (  2539 PWs)   bands (ev):

   -33.4007  -2.3600   5.2969   6.9776  10.2673  11.5067  13.0252  19.5155
    22.4635  23.2412

          k = 0.1022 0.1771 0.2403 (  2528 PWs)   bands (ev):

   -33.3797  -1.8345   5.8082   7.4825  10.7179  11.9698  13.4109  16.5393
    19.6875  23.9443

          k = 0.1022 0.1771 0.4806 (  2524 PWs)   bands (ev):

   -33.3325  -0.2712   7.2433   8.9675  10.2745  12.7638  13.5815  15.2940
    17.6557  19.4016

          k = 0.1022 0.1771 0.7209 (  2535 PWs)   bands (ev):

   -33.2944   2.2819   5.7585  10.1488  11.5519  13.5913  14.7868  15.0988
    15.8622  17.6687

          k = 0.1022 0.2951 0.0000 (  2537 PWs)   bands (ev):

   -33.3998  -1.9693   3.7969   6.3074  10.4804  12.7700  15.2376  20.4512
    22.6229  23.6493

          k = 0.1022 0.2951 0.2403 (  2530 PWs)   bands (ev):

   -33.3790  -1.4410   4.3182   6.8050  10.8765  13.2304  15.4438  17.2099
    20.2742  22.5835

          k = 0.1022 0.2951 0.4806 (  2525 PWs)   bands (ev):

   -33.3319   0.1299   5.8416   8.2619  10.4714  13.3485  14.5305  16.6128
    17.0912  19.0639

          k = 0.1022 0.2951 0.7209 (  2524 PWs)   bands (ev):

   -33.2939   2.6910   6.1033   8.6540  10.8666  12.2525  14.1260  15.4579
    16.1450  18.9486

          k = 0.1022 0.4132 0.0000 (  2529 PWs)   bands (ev):

   -33.3990  -1.4193   2.4349   5.8414  10.5007  14.5365  17.5071  20.8585
    22.6568  23.2085

          k = 0.1022 0.4132 0.2403 (  2522 PWs)   bands (ev):

   -33.3782  -0.8866   2.9573   6.3360  10.8741  14.9751  16.9977  18.4496
    20.1206  22.1315

          k = 0.1022 0.4132 0.4806 (  2521 PWs)   bands (ev):

   -33.3312   0.6959   4.4990   7.7947  10.8179  13.4365  15.3238  16.1854
    17.8911  20.0881

          k = 0.1022 0.4132 0.7209 (  2520 PWs)   bands (ev):

   -33.2934   3.2638   6.4152   7.5047  10.3459  10.9665  13.5496  15.2776
    16.9543  20.1853

          k = 0.1022 0.5312 0.0000 (  2522 PWs)   bands (ev):

   -33.3985  -0.8643   1.4593   5.6064  10.4931  16.5529  18.7310  19.9447
    21.9776  23.6209

          k = 0.1022 0.5312 0.2403 (  2515 PWs)   bands (ev):

   -33.3777  -0.3247   1.9757   6.1001  10.8730  16.8716  17.9449  18.6456
    20.2398  20.3679

          k = 0.1022 0.5312 0.4806 (  2512 PWs)   bands (ev):

   -33.3309   1.2772   3.5030   7.5659  11.2534  13.3947  14.2770  17.8161
    18.2971  20.9172

          k = 0.1022 0.5312 0.7209 (  2511 PWs)   bands (ev):

   -33.2931   3.8591   5.8602   7.6949   9.6439  10.3420  13.2613  15.0721
    17.6090  21.9340

          k = 0.2045 0.3541 0.0000 (  2533 PWs)   bands (ev):

   -33.3991  -1.4930   2.6476   5.6431  11.4411  13.1582  17.6074  20.6241
    22.6175  23.3787

          k = 0.2045 0.3541 0.2403 (  2527 PWs)   bands (ev):

   -33.3783  -0.9613   3.1746   6.1200  11.8884  13.5235  16.8849  18.7299
    19.9604  22.1814

          k = 0.2045 0.3541 0.4806 (  2524 PWs)   bands (ev):

   -33.3313   0.6190   4.7235   7.5263  11.2574  13.8734  14.6455  15.7642
    17.9117  20.0830

          k = 0.2045 0.3541 0.7209 (  2517 PWs)   bands (ev):

   -33.2934   3.1912   6.2776   7.9490   9.9978  11.1436  13.3381  16.0215
    17.0913  19.7410

          k = 0.2045 0.4722 0.0000 (  2523 PWs)   bands (ev):

   -33.3985  -0.8818   1.5678   5.2281  11.8570  14.4361  18.7171  20.0662
    23.4553  23.6575

          k = 0.2045 0.4722 0.2403 (  2524 PWs)   bands (ev):

   -33.3777  -0.3457   2.0982   5.6935  12.2578  14.8293  17.7551  18.8147
    20.3563  20.7485

          k = 0.2045 0.4722 0.4806 (  2512 PWs)   bands (ev):

   -33.3309   1.2457   3.6662   7.0701  11.7946  14.2360  14.7053  15.7464
    17.7778  20.7617

          k = 0.2045 0.4722 0.7209 (  2512 PWs)   bands (ev):

   -33.2931   3.8179   6.0057   7.7223   9.4950  10.1579  12.8824  16.5983
    17.5406  20.9023

          k = 0.2045 0.5902 0.0000 (  2506 PWs)   bands (ev):

   -33.3982  -0.4599   0.9795   5.0911  11.9205  15.8810  17.0278  22.2390
    22.5134  23.8754

          k = 0.2045 0.5902 0.2403 (  2521 PWs)   bands (ev):

   -33.3775   0.0810   1.5064   5.5536  12.3299  16.2241  17.2077  18.4302
    19.5435  21.8749

          k = 0.2045 0.5902 0.4806 (  2525 PWs)   bands (ev):

   -33.3307   1.6865   3.0652   6.9268  12.3017  13.7342  14.2613  17.0220
    18.0156  19.2347

          k = 0.2045 0.5902 0.7209 (  2514 PWs)   bands (ev):

   -33.2929   4.2707   5.4807   8.2473   8.9047   9.8054  12.7365  16.4200
    18.5891  20.5337

          k = 0.3067 0.5312 0.0000 (  2510 PWs)   bands (ev):

   -33.3981  -0.2112   0.7135   4.8803  13.3229  14.4447  16.7155  22.5312
    24.0488  24.4126

          k = 0.3067 0.5312 0.2403 (  2527 PWs)   bands (ev):

   -33.3774   0.3272   1.2496   5.3301  13.7452  14.8150  16.9442  18.5858
    19.3981  21.9682

          k = 0.3067 0.5312 0.4806 (  2519 PWs)   bands (ev):

   -33.3306   1.9247   2.8373   6.6659  12.7060  13.6281  15.5602  15.8607
    17.2737  19.0628

          k = 0.3067 0.5312 0.7209 (  2515 PWs)   bands (ev):

   -33.2929   4.4881   5.3212   8.3855   8.8926   9.3543  12.5535  17.7334
    18.4016  19.8402

          k = 0.0000 0.1180-0.2403 (  2528 PWs)   bands (ev):

   -33.3802  -2.0352   7.0832   8.1181  10.3103  11.5538  11.6548  16.1600
    19.4064  25.1584

          k = 0.0000 0.1180-0.4806 (  2518 PWs)   bands (ev):

   -33.3329  -0.4758   8.3322   9.6514  10.1709  12.1816  13.1398  13.7998
    18.1363  20.6488

          k = 0.0000 0.1180-0.7209 (  2532 PWs)   bands (ev):

   -33.2947   2.0714   5.5820  11.4006  12.1963  14.2910  14.7005  15.6848
    15.8769  16.0057

          k = 0.0000 0.2361-0.2403 (  2534 PWs)   bands (ev):

   -33.3795  -1.7355   5.3094   7.4234  10.3937  13.0036  13.5152  16.8383
    19.6431  24.1808

          k = 0.0000 0.2361-0.4806 (  2518 PWs)   bands (ev):

   -33.3323  -0.1698   6.7315   8.9657  10.5810  11.9140  14.5825  15.8922
    16.9823  19.7966

          k = 0.0000 0.2361-0.7209 (  2530 PWs)   bands (ev):

   -33.2943   2.3881   5.8152   9.8052  11.5223  12.8405  14.1190  15.1998
    17.1631  17.6294

          k = 0.0000 0.3541-0.2403 (  2533 PWs)   bands (ev):

   -33.3787  -1.2546   3.7352   6.8621  10.3482  14.8183  15.2847  17.9197
    19.7277  24.0582

          k = 0.0000 0.3541-0.4806 (  2525 PWs)   bands (ev):

   -33.3316   0.3223   5.2156   8.4090  11.1337  11.7114  15.7289  16.3913
    18.0673  19.2506

          k = 0.0000 0.3541-0.7209 (  2515 PWs)   bands (ev):

   -33.2937   2.8978   6.0577   8.5353  10.9722  11.2320  13.8564  14.6633
    17.7875  18.9628

          k = 0.0000 0.4722-0.2403 (  2524 PWs)   bands (ev):

   -33.3780  -0.6663   2.4809   6.5130  10.2910  16.7789  16.9127  18.6293
    20.0382  21.6151

          k = 0.0000 0.4722-0.4806 (  2515 PWs)   bands (ev):

   -33.3311   0.9288   3.9780   8.0621  11.2377  12.1037  14.7303  18.4558
    18.8970  19.9207

          k = 0.0000 0.4722-0.7209 (  2522 PWs)   bands (ev):

   -33.2932   3.5288   5.9107   8.0368   9.9547  10.6290  13.7018  14.3207
    17.6694  21.0259

          k =-0.1022 0.2951-0.2403 (  2530 PWs)   bands (ev):

   -33.3790  -1.4408   4.3125   6.8057  10.9566  13.1547  15.2970  17.4596
    19.8682  23.3511

          k =-0.1022 0.2951-0.4806 (  2525 PWs)   bands (ev):

   -33.3319   0.1309   5.8030   8.2846  10.8590  12.5230  14.8484  16.4405
    17.5383  18.9183

          k =-0.1022 0.2951-0.7209 (  2524 PWs)   bands (ev):

   -33.2939   2.6968   6.0263   8.9022  10.7753  12.0900  14.0181  15.0216
    17.2933  18.4762

          k =-0.1022 0.4132-0.2403 (  2522 PWs)   bands (ev):

   -33.3782  -0.8859   2.9515   6.3369  10.9449  14.8585  16.8358  18.8108
    19.7667  22.0330

          k =-0.1022 0.4132-0.4806 (  2521 PWs)   bands (ev):

   -33.3312   0.6992   4.4661   7.8130  11.4951  12.3405  15.0516  16.8406
    18.4584  19.8194

          k =-0.1022 0.4132-0.7209 (  2520 PWs)   bands (ev):

   -33.2934   3.2840   6.1004   8.1037  10.0471  10.8886  13.4976  14.9654
    18.3119  19.0693

          k =-0.1022 0.5312-0.2403 (  2515 PWs)   bands (ev):

   -33.3777  -0.3239   1.9730   6.1005  10.8997  16.7623  17.8068  18.9494
    19.7377  21.0790

          k =-0.1022 0.5312-0.4806 (  2512 PWs)   bands (ev):

   -33.3309   1.2810   3.4888   7.5724  11.6263  12.7369  14.3348  18.1037
    18.8554  19.9644

          k =-0.1022 0.5312-0.7209 (  2511 PWs)   bands (ev):

   -33.2931   3.8860   5.7018   8.0863   9.3263  10.3723  13.2460  14.9681
    18.0472  20.9969

          k =-0.2045 0.4722-0.2403 (  2524 PWs)   bands (ev):

   -33.3777  -0.3453   2.0964   5.6942  12.3005  14.7530  17.7108  18.9557
    20.0938  21.0489

          k =-0.2045 0.4722-0.4806 (  2512 PWs)   bands (ev):

   -33.3309   1.2479   3.6566   7.0776  12.0357  13.6982  14.4627  16.4334
    17.8221  20.4060

          k =-0.2045 0.4722-0.7209 (  2512 PWs)   bands (ev):

   -33.2931   3.8328   5.8925   8.0134   9.2383  10.2059  12.8823  16.2303
    18.7245  19.3876

     the Fermi energy is    12.9054 ev

!    total energy              =     -31.15541555 Ry
     estimated scf accuracy    <          5.5E-09 Ry
     smearing contrib. (-TS)   =      -0.00023950 Ry
     internal energy E=F+TS    =     -31.15517605 Ry

     The total energy is F=E-TS. E is the sum of the following terms:
     one-electron contribution =       5.17468975 Ry
     hartree contribution      =       2.92180104 Ry
     xc contribution           =     -10.18796031 Ry
     ewald contribution        =     -29.06370653 Ry

     convergence has been achieved in   6 iterations

     Forces acting on atoms (cartesian axes, Ry/au):

     atom    1 type  1   force =    -0.00000000   -0.00000000    0.03120498
     atom    2 type  1   force =     0.00000000   -0.00000000   -0.03120498
     atom    3 type  2   force =     0.00000000   -0.00000000    0.00000000
     The non-local contrib.  to forces
     atom    1 type  1   force =     0.00000000   -0.00000000    0.05483297
     atom    2 type  1   force =     0.00000000    0.00000000   -0.05483297
     atom    3 type  2   force =     0.00000000    0.00000000    0.00000000
     The ionic contribution  to forces
     atom    1 type  1   force =     0.00000009   -0.00000005    0.11525953
     atom    2 type  1   force =    -0.00000009    0.00000005   -0.11525953
     atom    3 type  2   force =    -0.00000000   -0.00000000    0.00000000
     The local contribution  to forces
     atom    1 type  1   force =    -0.00000001    0.00000001   -0.13553824
     atom    2 type  1   force =     0.00000001   -0.00000001    0.13553824
     atom    3 type  2   force =     0.00000000    0.00000000    0.00000000
     The core correction contribution to forces
     atom    1 type  1   force =    -0.00000000    0.00000000   -0.00335218
     atom    2 type  1   force =     0.00000000   -0.00000000    0.00335218
     atom    3 type  2   force =     0.00000000    0.00000000    0.00000000
     The Hubbard contrib.    to forces
     atom    1 type  1   force =     0.00000000    0.00000000    0.00000000
     atom    2 type  1   force =     0.00000000    0.00000000    0.00000000
     atom    3 type  2   force =     0.00000000    0.00000000    0.00000000
     The SCF correction term to forces
     atom    1 type  1   force =     0.00000000   -0.00000000    0.00000290
     atom    2 type  1   force =    -0.00000000    0.00000000   -0.00000290
     atom    3 type  2   force =     0.00000000   -0.00000000    0.00000000

     Total force =     0.044131     Total SCF correction =     0.000004


     Computing stress (Cartesian axis) and pressure

          total   stress  (Ry/bohr**3)                   (kbar)     P=      503.28
   0.00332396   0.00000000  -0.00000000          488.97        0.00       -0.00
   0.00000000   0.00332396  -0.00000000            0.00      488.97       -0.00
   0.00000000   0.00000000   0.00361573            0.00        0.00      531.89

     Energy error            =      6.4E-03 Ry
     Gradient error          =      3.1E-02 Ry/Bohr
     Cell gradient error     =      3.2E+01 kbar

     number of scf cycles    =   2
     number of bfgs steps    =   1

     enthalpy           old  =     -30.4786464960 Ry
     enthalpy           new  =     -30.4850947991 Ry

     CASE: enthalpy          _new < enthalpy          _old

     new trust radius        =       0.0432436492 bohr
ibrav =      4
 celldm(1) =      7.15317444
 celldm(3) =      0.61440923
Input lattice vectors:
     0.97056134     0.00000000     0.00000000
    -0.48528067     0.84053078     0.00000000
    -0.00000000    -0.00000000     0.59632185
New lattice vectors in INITIAL alat:
     0.97056134     0.00000000     0.00000000
    -0.48528067     0.84053078     0.00000000
     0.00000000     0.00000000     0.59632185
New lattice vectors in NEW alat (for information only):
     1.00000000     0.00000000     0.00000000
    -0.50000000     0.86602540     0.00000000
     0.00000000     0.00000000     0.61440923
Discrepancy in bohr =     0.000000    0.000000    0.000000
     new conv_thr            =            1.3E-11 Ry

     new unit-cell volume =    194.75330 a.u.^3 (    28.85946 Ang^3 )
     density =      3.63139 g/cm^3

CELL_PARAMETERS (alat=  7.37014152)
   0.970561342   0.000000000   0.000000000
  -0.485280671   0.840530778   0.000000000
   0.000000000   0.000000000   0.596321850

ATOMIC_POSITIONS (crystal)
Si            0.3333333300        0.6666666700        0.7629415157
Si            0.6666666700        0.3333333300        0.2370584843
Li           -0.0000000000       -0.0000000000        0.5000000000



     Writing config-only to output data dir ./output/SiLi.save/
     NEW-OLD atomic charge density approx. for the potential
     extrapolated charge   10.86102, renormalised to   11.00000

     total cpu time spent up to now is       14.0 secs

     Self-consistent Calculation

     iteration #  1     ecut=    80.00 Ry     beta= 0.70
     Davidson diagonalization with overlap
     c_bands:  1 eigenvalues not converged
     ethr =  1.00E-06,  avg # of iterations =  7.5

     total cpu time spent up to now is       15.2 secs

     total energy              =     -31.14966130 Ry
     estimated scf accuracy    <       0.00007220 Ry

     iteration #  2     ecut=    80.00 Ry     beta= 0.70
     Davidson diagonalization with overlap
     ethr =  6.56E-07,  avg # of iterations =  2.1

     total cpu time spent up to now is       16.0 secs

     total energy              =     -31.14976489 Ry
     estimated scf accuracy    <       0.00003849 Ry

     iteration #  3     ecut=    80.00 Ry     beta= 0.70
     Davidson diagonalization with overlap
     ethr =  3.50E-07,  avg # of iterations =  1.0

     total cpu time spent up to now is       16.5 secs

     total energy              =     -31.14976386 Ry
     estimated scf accuracy    <       0.00000600 Ry

     iteration #  4     ecut=    80.00 Ry     beta= 0.70
     Davidson diagonalization with overlap
     ethr =  5.45E-08,  avg # of iterations =  2.0

     total cpu time spent up to now is       17.1 secs

     total energy              =     -31.14976468 Ry
     estimated scf accuracy    <       0.00000003 Ry

     iteration #  5     ecut=    80.00 Ry     beta= 0.70
     Davidson diagonalization with overlap
     ethr =  2.70E-10,  avg # of iterations =  3.1

     total cpu time spent up to now is       17.8 secs

     total energy              =     -31.14976469 Ry
     estimated scf accuracy    <          3.0E-09 Ry

     iteration #  6     ecut=    80.00 Ry     beta= 0.70
     Davidson diagonalization with overlap
     ethr =  2.74E-11,  avg # of iterations =  1.9

     total cpu time spent up to now is       18.5 secs

     total energy              =     -31.14976469 Ry
     estimated scf accuracy    <          4.9E-11 Ry

     iteration #  7     ecut=    80.00 Ry     beta= 0.70
     Davidson diagonalization with overlap
     ethr =  4.50E-13,  avg # of iterations =  3.2

     total cpu time spent up to now is       19.2 secs

     End of self-consistent calculation

          k = 0.0000 0.0000 0.0000 (  2545 PWs)   bands (ev):

   -33.2295  -2.5643   8.2642   8.2642   9.5366  10.5391  10.5391  18.9447
    22.3967  22.8756

          k = 0.0000 0.0000 0.2396 (  2521 PWs)   bands (ev):

   -33.2088  -2.0458   8.7681   8.7681   9.9082  11.0693  11.0693  15.9080
    19.6763  26.3507

          k = 0.0000 0.0000 0.4791 (  2527 PWs)   bands (ev):

   -33.1623  -0.5026   9.3596  10.2812  10.2812  12.6519  12.6519  12.7411
    18.8879  20.9245

          k = 0.0000 0.0000 0.7187 (  2532 PWs)   bands (ev):

   -33.1247   2.0154   5.5361  12.8044  12.8044  14.4013  15.1778  15.1778
    16.4306  16.4306

          k = 0.0000 0.1190 0.0000 (  2544 PWs)   bands (ev):

   -33.2291  -2.4625   6.8160   7.8122  10.1324  11.2458  11.5273  19.2161
    22.4443  22.9908

          k = 0.0000 0.1190 0.2396 (  2528 PWs)   bands (ev):

   -33.2085  -1.9432   7.3170   8.3220  10.5185  11.7662  12.0051  16.1047
    19.8341  24.9591

          k = 0.0000 0.1190 0.4791 (  2518 PWs)   bands (ev):

   -33.1620  -0.3979   8.6049   9.8498   9.9731  12.9359  13.3227  13.7188
    18.7369  20.0826

          k = 0.0000 0.1190 0.7187 (  2532 PWs)   bands (ev):

   -33.1245   2.1237   5.6304  11.4820  12.3971  14.9877  15.1133  15.4302
    15.7390  16.5059

          k = 0.0000 0.2379 0.0000 (  2550 PWs)   bands (ev):

   -33.2283  -2.1606   5.0109   7.0990  10.1726  12.7223  13.6849  20.0147
    22.5826  23.3269

          k = 0.0000 0.2379 0.2396 (  2534 PWs)   bands (ev):

   -33.2078  -1.6390   5.5233   7.6117  10.5307  13.2336  14.0648  16.6157
    20.3757  23.2904

          k = 0.0000 0.2379 0.4791 (  2518 PWs)   bands (ev):

   -33.1614  -0.0874   7.0044   9.1483   9.9921  13.1350  14.7547  15.5532
    17.7252  19.9149

          k = 0.0000 0.2379 0.7187 (  2530 PWs)   bands (ev):

   -33.1240   2.4429   5.9151   9.6951  11.7064  13.3731  14.9784  15.1683
    16.3279  17.5875

          k = 0.0000 0.3569 0.0000 (  2528 PWs)   bands (ev):

   -33.2273  -1.6765   3.4082   6.5257  10.1499  14.5641  15.9248  21.2196
    22.7974  23.8385

          k = 0.0000 0.3569 0.2396 (  2533 PWs)   bands (ev):

   -33.2068  -1.1510   3.9230   7.0392  10.4846  15.0638  16.0393  17.4132
    20.9118  22.2953

          k = 0.0000 0.3569 0.4791 (  2525 PWs)   bands (ev):

   -33.1606   0.4111   5.4386   8.5789  10.2453  13.2559  16.1988  16.5009
    17.2481  19.6035

          k = 0.0000 0.3569 0.7187 (  2515 PWs)   bands (ev):

   -33.1234   2.9519   6.3577   8.1169  11.1398  11.8026  14.5193  14.7019
    16.7971  19.3352

          k = 0.0000 0.4759 0.0000 (  2524 PWs)   bands (ev):

   -33.2265  -1.0853   2.1343   6.1696  10.1278  16.6857  18.0538  21.6935
    21.8333  23.2790

          k = 0.0000 0.4759 0.2396 (  2524 PWs)   bands (ev):

   -33.2061  -0.5533   2.6444   6.6832  10.4644  17.1644  17.3210  18.7698
    19.9119  22.2185

          k = 0.0000 0.4759 0.4791 (  2515 PWs)   bands (ev):

   -33.1600   1.0264   4.1527   8.2238  10.6322  13.3120  14.8923  18.1545
    18.6411  19.7327

          k = 0.0000 0.4759 0.7187 (  2522 PWs)   bands (ev):

   -33.1228   3.5802   6.3991   7.4034  10.4702  10.7848  14.1372  14.3878
    17.2864  21.3787

          k = 0.0000-0.5949 0.0000 (  2504 PWs)   bands (ev):

   -33.2262  -0.7291   1.5488   6.0495  10.1194  18.8494  19.3025  19.5008
    20.9823  23.5328

          k = 0.0000-0.5949 0.2396 (  2526 PWs)   bands (ev):

   -33.2058  -0.1899   2.0504   6.5629  10.4800  17.8325  18.7319  19.3592
    19.7497  20.5991

          k = 0.0000-0.5949 0.4791 (  2498 PWs)   bands (ev):

   -33.1598   1.4111   3.5325   8.1032  11.0610  12.9530  14.3883  18.6987
    19.8105  21.0628

          k = 0.0000-0.5949 0.7187 (  2526 PWs)   bands (ev):

   -33.1227   4.0004   5.7783   7.9475   9.6361  10.6631  13.9420  14.2864
    17.6779  23.4815

          k = 0.1030 0.1785 0.0000 (  2539 PWs)   bands (ev):

   -33.2286  -2.2603   5.5131   7.1660  10.5509  11.7407  13.3386  19.7482
    22.5359  23.2168

          k = 0.1030 0.1785 0.2396 (  2528 PWs)   bands (ev):

   -33.2080  -1.7394   6.0204   7.6665  10.9924  12.1937  13.6908  16.5462
    20.0636  24.0529

          k = 0.1030 0.1785 0.4791 (  2524 PWs)   bands (ev):

   -33.1616  -0.1897   7.4373   9.1297  10.3321  12.9908  13.8124  15.5830
    17.8930  19.5229

          k = 0.1030 0.1785 0.7187 (  2535 PWs)   bands (ev):

   -33.1242   2.3392   5.8055  10.3241  11.7090  13.7468  15.0051  15.2613
    16.0721  17.9950

          k = 0.1030 0.2974 0.0000 (  2537 PWs)   bands (ev):

   -33.2276  -1.8637   3.9908   6.4825  10.7511  13.0314  15.5853  20.7285
    22.6875  23.6462

          k = 0.1030 0.2974 0.2396 (  2530 PWs)   bands (ev):

   -33.2072  -1.3397   4.5085   6.9751  11.1283  13.4874  15.7102  17.2824
    20.6289  22.6788

          k = 0.1030 0.2974 0.4791 (  2525 PWs)   bands (ev):

   -33.1609   0.2181   6.0208   8.4097  10.5291  13.5873  14.7747  16.7015
    17.4073  19.2418

          k = 0.1030 0.2974 0.7187 (  2524 PWs)   bands (ev):

   -33.1236   2.7568   6.1613   8.7951  11.0077  12.3960  14.2707  15.6949
    16.3327  19.2103

          k = 0.1030 0.4164 0.0000 (  2529 PWs)   bands (ev):

   -33.2267  -1.3050   2.6068   6.0087  10.7615  14.8320  17.8824  21.2447
    22.8473  23.3506

          k = 0.1030 0.4164 0.2396 (  2522 PWs)   bands (ev):

   -33.2063  -0.7764   3.1252   6.4982  11.1161  15.2695  17.1316  18.6730
    20.3377  22.3892

          k = 0.1030 0.4164 0.4791 (  2521 PWs)   bands (ev):

   -33.1602   0.7941   4.6550   7.9378  10.8930  13.6573  15.4241  16.4423
    18.0355  20.3611

          k = 0.1030 0.4164 0.7187 (  2520 PWs)   bands (ev):

   -33.1230   3.3420   6.5171   7.5821  10.4687  11.0933  13.7009  15.4791
    17.1710  20.4812

          k = 0.1030 0.5354 0.0000 (  2522 PWs)   bands (ev):

   -33.2262  -0.7407   1.6148   5.7699  10.7494  16.8908  19.0924  20.3426
    22.3649  23.5700

          k = 0.1030 0.5354 0.2396 (  2515 PWs)   bands (ev):

   -33.2058  -0.2046   2.1265   6.2587  11.1144  17.2015  18.0146  18.8482
    20.4715  20.6796

          k = 0.1030 0.5354 0.4791 (  2512 PWs)   bands (ev):

   -33.1598   1.3868   3.6397   7.7076  11.3633  13.5272  14.4192  17.9902
    18.4974  21.2483

          k = 0.1030 0.5354 0.7187 (  2511 PWs)   bands (ev):

   -33.1227   3.9522   5.9752   7.7481   9.7275  10.4817  13.4173  15.2611
    17.8394  22.2655

          k = 0.2061 0.3569 0.0000 (  2533 PWs)   bands (ev):

   -33.2268  -1.3799   2.8255   5.8038  11.7350  13.4188  17.9816  21.0049
    22.7451  23.5788

          k = 0.2061 0.3569 0.2396 (  2527 PWs)   bands (ev):

   -33.2064  -0.8523   3.3489   6.2745  12.1729  13.7643  16.9927  19.0096
    20.2128  22.4528

          k = 0.2061 0.3569 0.4791 (  2524 PWs)   bands (ev):

   -33.1603   0.7157   4.8865   7.6579  11.3173  14.1114  14.8957  15.8728
    18.0358  20.4556

          k = 0.2061 0.3569 0.7187 (  2517 PWs)   bands (ev):

   -33.1231   3.2678   6.3629   8.0578  10.1042  11.2693  13.4885  16.2614
    17.3019  19.9910

          k = 0.2061 0.4759 0.0000 (  2523 PWs)   bands (ev):

   -33.2262  -0.7588   1.7287   5.3809  12.1464  14.7340  19.0783  20.4585
    23.5743  23.8027

          k = 0.2061 0.4759 0.2396 (  2524 PWs)   bands (ev):

   -33.2058  -0.2265   2.2554   5.8396  12.5310  15.1217  17.8433  19.0265
    20.5239  21.0782

          k = 0.2061 0.4759 0.4791 (  2512 PWs)   bands (ev):

   -33.1598   1.3537   3.8125   7.1926  11.8695  14.4847  14.7869  15.9848
    17.9108  21.0649

          k = 0.2061 0.4759 0.7187 (  2512 PWs)   bands (ev):

   -33.1227   3.9082   6.1310   7.7765   9.5842  10.2703  13.0373  16.8494
    17.7500  21.1479

          k = 0.2061 0.5949 0.0000 (  2506 PWs)   bands (ev):

   -33.2259  -0.3297   1.1303   5.2416  12.2053  16.2449  17.3224  22.6773
    22.8367  23.8595

          k = 0.2061 0.5949 0.2396 (  2521 PWs)   bands (ev):

   -33.2055   0.2078   1.6531   5.6974  12.6030  16.5712  17.4599  18.4927
    19.6258  22.0512

          k = 0.2061 0.5949 0.4791 (  2525 PWs)   bands (ev):

   -33.1596   1.8034   3.1997   7.0476  12.4032  13.7851  14.5165  17.1580
    18.3265  19.4469

          k = 0.2061 0.5949 0.7187 (  2514 PWs)   bands (ev):

   -33.1225   4.3731   5.5937   8.3174   8.9638   9.9207  12.8941  16.6520
    18.8302  20.7766

          k = 0.3091 0.5354 0.0000 (  2510 PWs)   bands (ev):

   -33.2258  -0.0773   0.8620   5.0253  13.6461  14.7614  17.0153  22.9035
    24.0890  24.4499

          k = 0.3091 0.5354 0.2396 (  2527 PWs)   bands (ev):

   -33.2054   0.4576   1.3945   5.4675  14.0582  15.1162  17.2267  18.6263
    19.4621  22.0845

          k = 0.3091 0.5354 0.4791 (  2519 PWs)   bands (ev):

   -33.1595   2.0448   2.9721   6.7778  12.7887  13.7266  15.7583  16.1041
    17.5114  19.2687

          k = 0.3091 0.5354 0.7187 (  2515 PWs)   bands (ev):

   -33.1224   4.5928   5.4396   8.4458   8.9616   9.4502  12.7161  18.0112
    18.6520  20.0347

          k = 0.0000 0.1190-0.2396 (  2528 PWs)   bands (ev):

   -33.2085  -1.9432   7.3094   8.3189  10.5981  11.7762  11.9035  16.1401
    19.7894  25.2973

          k = 0.0000 0.1190-0.4791 (  2518 PWs)   bands (ev):

   -33.1620  -0.3978   8.5144   9.8416  10.2512  12.3946  13.3546  14.0805
    18.4337  20.5296

          k = 0.0000 0.1190-0.7187 (  2532 PWs)   bands (ev):

   -33.1245   2.1243   5.6251  11.5930  12.3727  14.4665  14.9086  15.9044
    16.0029  16.3634

          k = 0.0000 0.2379-0.2396 (  2534 PWs)   bands (ev):

   -33.2078  -1.6388   5.5112   7.6091  10.6515  13.2520  13.7654  16.8886
    19.9867  24.3449

          k = 0.0000 0.2379-0.4791 (  2518 PWs)   bands (ev):

   -33.1614  -0.0865   6.9117   9.1415  10.6320  12.1139  14.8229  16.2219
    17.1898  19.8794

          k = 0.0000 0.2379-0.7187 (  2530 PWs)   bands (ev):

   -33.1240   2.4477   5.8642   9.9745  11.6873  12.9516  14.3746  15.3105
    17.4020  17.9953

          k = 0.0000 0.3569-0.2396 (  2533 PWs)   bands (ev):

   -33.2068  -1.1503   3.9125   7.0376  10.5935  15.0952  15.4577  18.1389
    19.9355  24.3229

          k = 0.0000 0.3569-0.4791 (  2525 PWs)   bands (ev):

   -33.1606   0.4141   5.3758   8.5746  11.2126  11.8633  15.9022  16.6607
    18.4402  19.3218

          k = 0.0000 0.3569-0.7187 (  2515 PWs)   bands (ev):

   -33.1234   2.9686   6.1219   8.6704  11.1281  11.3264  14.1008  14.7612
    18.0365  19.2289

          k = 0.0000 0.4759-0.2396 (  2524 PWs)   bands (ev):

   -33.2061  -0.5521   2.6379   6.6824  10.5271  16.8599  17.2204  18.9861
    20.1588  21.9540

          k = 0.0000 0.4759-0.4791 (  2515 PWs)   bands (ev):

   -33.1600   1.0319   4.1186   8.2217  11.4171  12.1326  14.9002  18.7557
    18.9638  20.3226

          k = 0.0000 0.4759-0.7187 (  2522 PWs)   bands (ev):

   -33.1228   3.6148   6.0007   8.1299  10.0318  10.7793  13.9397  14.4118
    17.9109  21.3194

          k =-0.1030 0.2974-0.2396 (  2530 PWs)   bands (ev):

   -33.2072  -1.3395   4.5019   6.9762  11.2246  13.3903  15.5198  17.5960
    20.1652  23.4859

          k =-0.1030 0.2974-0.4791 (  2525 PWs)   bands (ev):

   -33.1609   0.2193   5.9769   8.4377  10.9122  12.7307  15.1183  16.5614
    17.9268  19.0098

          k =-0.1030 0.2974-0.7187 (  2524 PWs)   bands (ev):

   -33.1236   2.7629   6.0837   9.0534  10.9063  12.2227  14.1976  15.2027
    17.5277  18.7542

          k =-0.1030 0.4164-0.2396 (  2522 PWs)   bands (ev):

   -33.2063  -0.7756   3.1187   6.4995  11.2000  15.1080  16.9588  19.2009
    19.8739  22.3669

          k =-0.1030 0.4164-0.4791 (  2521 PWs)   bands (ev):

   -33.1602   0.7976   4.6185   7.9596  11.5812  12.4909  15.2366  17.0903
    18.5559  20.2057

          k =-0.1030 0.4164-0.7187 (  2520 PWs)   bands (ev):

   -33.1230   3.3634   6.1844   8.2139  10.1401  11.0233  13.6657  15.1478
    18.5462  19.3426

          k =-0.1030 0.5354-0.2396 (  2515 PWs)   bands (ev):

   -33.2058  -0.2038   2.1234   6.2593  11.1459  16.9947  17.9711  19.1991
    19.9511  21.4291

          k =-0.1030 0.5354-0.4791 (  2512 PWs)   bands (ev):

   -33.1598   1.3909   3.6240   7.7152  11.7786  12.7903  14.5186  18.2101
    19.1588  20.2083

          k =-0.1030 0.5354-0.7187 (  2511 PWs)   bands (ev):

   -33.1227   3.9811   5.8021   8.1669   9.3927  10.5127  13.4070  15.1521
    18.2837  21.2844

          k =-0.2061 0.4759-0.2396 (  2524 PWs)   bands (ev):

   -33.2058  -0.2260   2.2534   5.8405  12.5837  15.0180  17.8165  19.1982
    20.2294  21.4563

          k =-0.2061 0.4759-0.4791 (  2512 PWs)   bands (ev):

   -33.1598   1.3561   3.8018   7.2012  12.1135  13.8290  14.6896  16.6369
    17.9703  20.6784

          k =-0.2061 0.4759-0.7187 (  2512 PWs)   bands (ev):

   -33.1227   3.9240   6.0056   8.0911   9.3095  10.3232  13.0386  16.4596
    18.9936  19.5999

     the Fermi energy is    13.0776 ev

!    total energy              =     -31.14976469 Ry
     estimated scf accuracy    <          8.0E-13 Ry
     smearing contrib. (-TS)   =       0.00010686 Ry
     internal energy E=F+TS    =     -31.14987155 Ry

     The total energy is F=E-TS. E is the sum of the following terms:
     one-electron contribution =       5.34537373 Ry
     hartree contribution      =       2.90866052 Ry
     xc contribution           =     -10.20839628 Ry
     ewald contribution        =     -29.19550952 Ry

     convergence has been achieved in   7 iterations

     Forces acting on atoms (cartesian axes, Ry/au):

     atom    1 type  1   force =     0.00000000   -0.00000000    0.03096224
     atom    2 type  1   force =    -0.00000000   -0.00000000   -0.03096224
     atom    3 type  2   force =     0.00000000    0.00000000    0.00000000
     The non-local contrib.  to forces
     atom    1 type  1   force =     0.00000000   -0.00000000    0.04826503
     atom    2 type  1   force =     0.00000000    0.00000000   -0.04826503
     atom    3 type  2   force =    -0.00000000    0.00000000    0.00000000
     The ionic contribution  to forces
     atom    1 type  1   force =     0.00000009   -0.00000005    0.10125864
     atom    2 type  1   force =    -0.00000009    0.00000005   -0.10125864
     atom    3 type  2   force =     0.00000000   -0.00000000    0.00000000
     The local contribution  to forces
     atom    1 type  1   force =    -0.00000001    0.00000001   -0.11583891
     atom    2 type  1   force =     0.00000001   -0.00000001    0.11583891
     atom    3 type  2   force =     0.00000000   -0.00000000    0.00000000
     The core correction contribution to forces
     atom    1 type  1   force =    -0.00000000    0.00000000   -0.00272255
     atom    2 type  1   force =     0.00000000   -0.00000000    0.00272255
     atom    3 type  2   force =     0.00000000    0.00000000    0.00000000
     The Hubbard contrib.    to forces
     atom    1 type  1   force =     0.00000000    0.00000000    0.00000000
     atom    2 type  1   force =     0.00000000    0.00000000    0.00000000
     atom    3 type  2   force =     0.00000000    0.00000000    0.00000000
     The SCF correction term to forces
     atom    1 type  1   force =     0.00000000   -0.00000000    0.00000003
     atom    2 type  1   force =    -0.00000000    0.00000000   -0.00000003
     atom    3 type  2   force =    -0.00000000    0.00000000   -0.00000000

     Total force =     0.043787     Total SCF correction =     0.000000


     Computing stress (Cartesian axis) and pressure

          total   stress  (Ry/bohr**3)                   (kbar)     P=      529.53
   0.00356742  -0.00000000  -0.00000000          524.79       -0.00       -0.00
  -0.00000000   0.00356742  -0.00000000           -0.00      524.79       -0.00
   0.00000000   0.00000000   0.00366412            0.00        0.00      539.01

     Energy error            =      2.7E-03 Ry
     Gradient error          =      3.1E-02 Ry/Bohr
     Cell gradient error     =      3.9E+01 kbar

     number of scf cycles    =   3
     number of bfgs steps    =   2

     enthalpy           old  =     -30.4850947991 Ry
     enthalpy           new  =     -30.4878116951 Ry

     CASE: enthalpy          _new < enthalpy          _old

     new trust radius        =       0.0477141024 bohr
ibrav =      4
 celldm(1) =      7.12075531
 celldm(3) =      0.61960136
Input lattice vectors:
     0.96616263    -0.00000000    -0.00000000
    -0.48308131     0.83672138    -0.00000000
    -0.00000000    -0.00000000     0.59863568
New lattice vectors in INITIAL alat:
     0.96616263     0.00000000     0.00000000
    -0.48308131     0.83672138     0.00000000
     0.00000000     0.00000000     0.59863568
New lattice vectors in NEW alat (for information only):
     1.00000000     0.00000000     0.00000000
    -0.50000000     0.86602540     0.00000000
     0.00000000     0.00000000     0.61960136
Discrepancy in bohr =     0.000000    0.000000    0.000000
     new conv_thr            =            1.0E-11 Ry

     new unit-cell volume =    193.74084 a.u.^3 (    28.70943 Ang^3 )
     density =      3.65037 g/cm^3

CELL_PARAMETERS (alat=  7.37014152)
   0.966162629   0.000000000   0.000000000
  -0.483081315   0.836721381   0.000000000
   0.000000000   0.000000000   0.598635676

ATOMIC_POSITIONS (crystal)
Si            0.3333333300        0.6666666700        0.7737980249
Si            0.6666666700        0.3333333300        0.2262019751
Li           -0.0000000000       -0.0000000000        0.5000000000



     Writing config-only to output data dir ./output/SiLi.save/
     NEW-OLD atomic charge density approx. for the potential
     extrapolated charge   10.94255, renormalised to   11.00000

     total cpu time spent up to now is       20.3 secs

     Self-consistent Calculation

     iteration #  1     ecut=    80.00 Ry     beta= 0.70
     Davidson diagonalization with overlap
     ethr =  1.00E-06,  avg # of iterations =  6.6

     total cpu time spent up to now is       21.5 secs

     total energy              =     -31.14894552 Ry
     estimated scf accuracy    <       0.00007222 Ry

     iteration #  2     ecut=    80.00 Ry     beta= 0.70
     Davidson diagonalization with overlap
     ethr =  6.57E-07,  avg # of iterations =  2.0

     total cpu time spent up to now is       22.2 secs

     total energy              =     -31.14896233 Ry
     estimated scf accuracy    <       0.00000952 Ry

     iteration #  3     ecut=    80.00 Ry     beta= 0.70
     Davidson diagonalization with overlap
     ethr =  8.66E-08,  avg # of iterations =  1.3

     total cpu time spent up to now is       22.7 secs

     total energy              =     -31.14896336 Ry
     estimated scf accuracy    <       0.00000046 Ry

     iteration #  4     ecut=    80.00 Ry     beta= 0.70
     Davidson diagonalization with overlap
     ethr =  4.20E-09,  avg # of iterations =  2.0

     total cpu time spent up to now is       23.3 secs

     total energy              =     -31.14896343 Ry
     estimated scf accuracy    <       0.00000001 Ry

     iteration #  5     ecut=    80.00 Ry     beta= 0.70
     Davidson diagonalization with overlap
     ethr =  1.13E-10,  avg # of iterations =  3.0

     total cpu time spent up to now is       24.1 secs

     total energy              =     -31.14896343 Ry
     estimated scf accuracy    <          5.4E-10 Ry

     iteration #  6     ecut=    80.00 Ry     beta= 0.70
     Davidson diagonalization with overlap
     ethr =  4.91E-12,  avg # of iterations =  2.7

     total cpu time spent up to now is       24.7 secs

     End of self-consistent calculation

          k = 0.0000 0.0000 0.0000 (  2545 PWs)   bands (ev):

   -33.1604  -2.5192   8.3824   8.3824   9.7544  10.6549  10.6549  18.9683
    22.4173  22.7263

          k = 0.0000 0.0000 0.2386 (  2521 PWs)   bands (ev):

   -33.1403  -2.0057   8.8817   8.8817  10.1122  11.1817  11.1817  15.7763
    19.9117  26.3174

          k = 0.0000 0.0000 0.4773 (  2527 PWs)   bands (ev):

   -33.0950  -0.4777   9.3769  10.3809  10.3809  12.7557  12.7557  12.8357
    19.1196  20.9381

          k = 0.0000 0.0000 0.7159 (  2532 PWs)   bands (ev):

   -33.0584   2.0126   5.5238  12.8775  12.8775  14.5123  15.2806  15.2806
    16.4903  16.4903

          k = 0.0000 0.1195 0.0000 (  2544 PWs)   bands (ev):

   -33.1600  -2.4163   6.9430   7.9231  10.2946  11.3709  11.6868  19.2473
    22.4637  22.8441

          k = 0.0000 0.1195 0.2386 (  2528 PWs)   bands (ev):

   -33.1400  -1.9020   7.4404   8.4285  10.6684  11.8878  12.1553  15.9806
    20.0716  24.9413

          k = 0.0000 0.1195 0.4773 (  2518 PWs)   bands (ev):

   -33.0947  -0.3718   8.7028   9.9433   9.9643  13.0371  13.4340  13.8400
    18.9282  20.1277

          k = 0.0000 0.1195 0.7159 (  2532 PWs)   bands (ev):

   -33.0582   2.1225   5.6193  11.5583  12.4696  14.9597  15.3015  15.4900
    15.8540  16.6052

          k = 0.0000 0.2390 0.0000 (  2550 PWs)   bands (ev):

   -33.1592  -2.1114   5.1242   7.2014  10.3143  12.8621  13.8705  20.0678
    22.5983  23.1889

          k = 0.0000 0.2390 0.2386 (  2534 PWs)   bands (ev):

   -33.1392  -1.5947   5.6327   7.7099  10.6556  13.3695  14.2393  16.5085
    20.6218  23.2554

          k = 0.0000 0.2390 0.4773 (  2518 PWs)   bands (ev):

   -33.0941  -0.0577   7.1030   9.2342   9.9655  13.2324  14.8770  15.6728
    17.7837  20.0990

          k = 0.0000 0.2390 0.7159 (  2530 PWs)   bands (ev):

   -33.0577   2.4466   5.9081   9.7538  11.7755  13.4112  15.0886  15.1901
    16.4098  17.7227

          k = 0.0000 0.3585 0.0000 (  2528 PWs)   bands (ev):

   -33.1581  -1.6222   3.5066   6.6223  10.2818  14.7199  16.1255  21.3157
    22.7949  23.7225

          k = 0.0000 0.3585 0.2386 (  2533 PWs)   bands (ev):

   -33.1382  -1.1013   4.0171   7.1317  10.5990  15.2147  16.1967  17.3490
    21.0574  22.3657

          k = 0.0000 0.3585 0.4773 (  2525 PWs)   bands (ev):

   -33.0932   0.4468   5.5202   8.6594  10.2304  13.3395  16.2005  16.6260
    17.3796  19.6154

          k = 0.0000 0.3585 0.7159 (  2515 PWs)   bands (ev):

   -33.0570   2.9639   6.3643   8.1474  11.2053  11.8253  14.6264  14.7142
    16.8917  19.4873

          k = 0.0000 0.4781 0.0000 (  2524 PWs)   bands (ev):

   -33.1572  -1.0242   2.2196   6.2628  10.2534  16.8583  18.2714  21.9081
    22.0518  23.1417

          k = 0.0000 0.4781 0.2386 (  2524 PWs)   bands (ev):

   -33.1374  -0.4967   2.7249   6.7723  10.5746  17.3297  17.3695  18.7976
    19.9784  22.4331

          k = 0.0000 0.4781 0.4773 (  2515 PWs)   bands (ev):

   -33.0926   1.0701   4.2187   8.3010  10.6387  13.3506  14.9229  18.2111
    18.7469  19.8287

          k = 0.0000 0.4781 0.7159 (  2522 PWs)   bands (ev):

   -33.0564   3.6037   6.4507   7.3761  10.4785  10.8479  14.2465  14.3954
    17.3897  21.5512

          k = 0.0000-0.5976 0.0000 (  2504 PWs)   bands (ev):

   -33.1569  -0.6633   1.6274   6.1415  10.2428  19.0196  19.5196  19.7513
    21.1853  23.4069

          k = 0.0000-0.5976 0.2386 (  2526 PWs)   bands (ev):

   -33.1371  -0.1283   2.1235   6.6509  10.5912  17.7780  18.8295  19.5195
    19.9587  20.7391

          k = 0.0000-0.5976 0.4773 (  2498 PWs)   bands (ev):

   -33.0923   1.4612   3.5891   8.1795  11.0990  12.9086  14.4736  18.6811
    19.9172  21.2333

          k = 0.0000-0.5976 0.7159 (  2526 PWs)   bands (ev):

   -33.0562   4.0344   5.8083   7.9353   9.6337  10.7254  14.0547  14.2925
    17.7852  23.6548

          k = 0.1035 0.1793 0.0000 (  2539 PWs)   bands (ev):

   -33.1594  -2.2121   5.6324   7.2667  10.7116  11.8652  13.5168  19.7941
    22.5533  23.0757

          k = 0.1035 0.1793 0.2386 (  2528 PWs)   bands (ev):

   -33.1394  -1.6961   6.1355   7.7624  11.1463  12.3068  13.8419  16.4513
    20.2949  24.0338

          k = 0.1035 0.1793 0.4773 (  2524 PWs)   bands (ev):

   -33.0943  -0.1612   7.5373   9.2012  10.3168  13.0936  13.9297  15.7072
    18.0253  19.5394

          k = 0.1035 0.1793 0.7159 (  2535 PWs)   bands (ev):

   -33.0578   2.3412   5.7972  10.3941  11.7687  13.7786  15.1112  15.3230
    16.1599  18.1869

          k = 0.1035 0.2988 0.0000 (  2537 PWs)   bands (ev):

   -33.1585  -1.8113   4.0968   6.5745  10.9008  13.1713  15.7807  20.8081
    22.6993  23.5187

          k = 0.1035 0.2988 0.2386 (  2530 PWs)   bands (ev):

   -33.1385  -1.2922   4.6106   7.0616  11.2624  13.6211  15.8344  17.2446
    20.8461  22.6591

          k = 0.1035 0.2988 0.4773 (  2525 PWs)   bands (ev):

   -33.0935   0.2514   6.1117   8.4728  10.5136  13.6964  14.8946  16.6711
    17.5799  19.3199

          k = 0.1035 0.2988 0.7159 (  2524 PWs)   bands (ev):

   -33.0572   2.7655   6.1612   8.8424  11.0557  12.4307  14.3314  15.8004
    16.3960  19.3457

          k = 0.1035 0.4183 0.0000 (  2529 PWs)   bands (ev):

   -33.1575  -1.2467   2.6992   6.0957  10.9009  14.9929  18.0900  21.4557
    22.7974  23.4769

          k = 0.1035 0.4183 0.2386 (  2522 PWs)   bands (ev):

   -33.1376  -0.7226   3.2132   6.5797  11.2397  15.4284  17.1409  18.7404
    20.4383  22.5128

          k = 0.1035 0.4183 0.4773 (  2521 PWs)   bands (ev):

   -33.0928   0.8344   4.7304   7.9992  10.8888  13.7481  15.4260  16.5696
    18.0637  20.4973

          k = 0.1035 0.4183 0.7159 (  2520 PWs)   bands (ev):

   -33.0566   3.3605   6.5529   7.5795  10.5006  11.1237  13.7688  15.5549
    17.2587  20.6387

          k = 0.1035 0.5378 0.0000 (  2522 PWs)   bands (ev):

   -33.1569  -0.6756   1.6962   5.8546  10.8836  17.0783  19.2970  20.5594
    22.5710  23.4266

          k = 0.1035 0.5378 0.2386 (  2515 PWs)   bands (ev):

   -33.1371  -0.1437   2.2030   6.3381  11.2356  17.3897  17.9580  18.9267
    20.5690  20.8280

          k = 0.1035 0.5378 0.4773 (  2512 PWs)   bands (ev):

   -33.0923   1.4356   3.7015   7.7688  11.3833  13.5272  14.4897  18.0316
    18.5836  21.4235

          k = 0.1035 0.5378 0.7159 (  2511 PWs)   bands (ev):

   -33.0562   3.9831   6.0182   7.7280   9.7264  10.5299  13.4899  15.3290
    17.9377  22.4434

          k = 0.2070 0.3585 0.0000 (  2533 PWs)   bands (ev):

   -33.1576  -1.3225   2.9227   5.8843  11.9025  13.5518  18.1895  21.2096
    22.6961  23.7037

          k = 0.2070 0.3585 0.2386 (  2527 PWs)   bands (ev):

   -33.1377  -0.7995   3.4421   6.3486  12.3331  13.8764  16.9907  19.1026
    20.3695  22.5381

          k = 0.2070 0.3585 0.4773 (  2524 PWs)   bands (ev):

   -33.0929   0.7549   4.9681   7.7084  11.2997  14.2104  15.0350  15.8718
    18.0576  20.6709

          k = 0.2070 0.3585 0.7159 (  2517 PWs)   bands (ev):

   -33.0567   3.2847   6.3861   8.0789  10.1214  11.2956  13.5667  16.3670
    17.3747  20.0964

          k = 0.2070 0.4781 0.0000 (  2523 PWs)   bands (ev):

   -33.1569  -0.6946   1.8155   5.4552  12.3069  14.8937  19.2840  20.6681
    23.4102  23.9733

          k = 0.2070 0.4781 0.2386 (  2524 PWs)   bands (ev):

   -33.1371  -0.1667   2.3381   5.9071  12.6778  15.2756  17.8196  19.1015
    20.5550  21.2463

          k = 0.2070 0.4781 0.4773 (  2512 PWs)   bands (ev):

   -33.0923   1.4009   3.8833   7.2363  11.8623  14.5791  14.7951  16.1043
    17.9367  21.2070

          k = 0.2070 0.4781 0.7159 (  2512 PWs)   bands (ev):

   -33.0562   3.9360   6.1866   7.7543   9.5863  10.2899  13.1230  16.9588
    17.8247  21.2404

          k = 0.2070 0.5976 0.0000 (  2506 PWs)   bands (ev):

   -33.1566  -0.2604   1.2105   5.3140  12.3608  16.4533  17.4790  22.9012
    22.9744  23.7440

          k = 0.2070 0.5976 0.2386 (  2521 PWs)   bands (ev):

[...]
     ethr =  1.00E-06,  avg # of iterations = 18.3

     total cpu time spent up to now is       84.2 secs

     total energy              =     -31.23724275 Ry
     estimated scf accuracy    <       0.01336320 Ry

     iteration #  2     ecut=    80.00 Ry     beta= 0.70
     Davidson diagonalization with overlap
     ethr =  1.21E-04,  avg # of iterations =  1.0

     total cpu time spent up to now is       84.7 secs

     total energy              =     -31.23749490 Ry
     estimated scf accuracy    <       0.00088379 Ry

     iteration #  3     ecut=    80.00 Ry     beta= 0.70
     Davidson diagonalization with overlap
     ethr =  8.03E-06,  avg # of iterations =  1.1

     total cpu time spent up to now is       85.1 secs

     total energy              =     -31.23752444 Ry
     estimated scf accuracy    <       0.00002512 Ry

     iteration #  4     ecut=    80.00 Ry     beta= 0.70
     Davidson diagonalization with overlap
     ethr =  2.28E-07,  avg # of iterations =  2.2

     total cpu time spent up to now is       85.7 secs

     total energy              =     -31.23752771 Ry
     estimated scf accuracy    <       0.00000058 Ry

     iteration #  5     ecut=    80.00 Ry     beta= 0.70
     Davidson diagonalization with overlap
     ethr =  5.29E-09,  avg # of iterations =  2.4

     total cpu time spent up to now is       86.3 secs

     total energy              =     -31.23752788 Ry
     estimated scf accuracy    <          4.6E-09 Ry

     iteration #  6     ecut=    80.00 Ry     beta= 0.70
     Davidson diagonalization with overlap
     ethr =  4.15E-11,  avg # of iterations =  4.0

     total cpu time spent up to now is       87.0 secs

     total energy              =     -31.23752789 Ry
     estimated scf accuracy    <          2.5E-10 Ry

     iteration #  7     ecut=    80.00 Ry     beta= 0.70
     Davidson diagonalization with overlap
     ethr =  2.31E-12,  avg # of iterations =  1.7

     total cpu time spent up to now is       87.5 secs

     End of self-consistent calculation

          k = 0.0000 0.0000 0.0000 (  2593 PWs)   bands (ev):

   -34.6235  -3.0725   7.1306   7.1306   8.2886   9.6337   9.6337  16.4423
    20.0792  22.9687

          k = 0.0000 0.0000 0.2346 (  2563 PWs)   bands (ev):

   -34.6067  -2.5800   7.5921   7.5921   8.7587  10.1412  10.1412  13.5655
    19.0903  25.5819

          k = 0.0000 0.0000 0.4691 (  2557 PWs)   bands (ev):

   -34.5687  -1.1202   8.9416   8.9416   8.9570  10.0830  11.6519  11.6519
    18.5538  20.0151

          k = 0.0000 0.0000 0.7037 (  2544 PWs)   bands (ev):

   -34.5382   1.1932   4.9343  10.8702  10.8702  11.7655  14.0447  14.0447
    16.1440  16.1440

          k = 0.0000 0.1155 0.0000 (  2580 PWs)   bands (ev):

   -34.6234  -2.9730   5.7932   6.7598   9.0012  10.2440  10.3269  16.7541
    20.1829  22.9599

          k = 0.0000 0.1155 0.2346 (  2559 PWs)   bands (ev):

   -34.6065  -2.4796   6.2739   7.2286   9.4581  10.7433  10.7629  13.8168
    19.2862  23.7620

          k = 0.0000 0.1155 0.4691 (  2542 PWs)   bands (ev):

   -34.5686  -1.0169   7.6844   8.6035   9.0094  10.8112  12.1916  12.2239
    18.6075  19.1363

          k = 0.0000 0.1155 0.7037 (  2554 PWs)   bands (ev):

   -34.5381   1.3036   5.0248   9.8710  10.5991  11.8875  13.9678  14.4924
    15.7331  15.8279

          k = 0.0000 0.2310 0.0000 (  2566 PWs)   bands (ev):

   -34.6229  -2.6780   4.1067   6.1333   9.0426  11.5884  12.1856  17.6418
    20.4921  22.9010

          k = 0.0000 0.2310 0.2346 (  2560 PWs)   bands (ev):

   -34.6061  -2.1818   4.5953   6.6090   9.4465  12.0779  12.4679  14.5086
    19.8697  22.3207

          k = 0.0000 0.2310 0.4691 (  2549 PWs)   bands (ev):

   -34.5683  -0.7107   6.0345   8.0095   9.1655  11.0240  13.5163  13.5374
    17.5360  19.0227

          k = 0.0000 0.2310 0.7037 (  2548 PWs)   bands (ev):

   -34.5378   1.6313   5.2919   8.3562  10.0832  11.1519  13.6107  14.7560
    15.9030  15.9628

          k = 0.0000 0.3465 0.0000 (  2552 PWs)   bands (ev):

   -34.6223  -2.2045   2.5936   5.6139   8.9458  13.3011  14.1777  18.8762
    20.9985  22.6833

          k = 0.0000 0.3465 0.2346 (  2565 PWs)   bands (ev):

   -34.6056  -1.7035   3.0827   6.0931   9.2959  13.7816  14.0788  15.5684
    20.3052  21.7640

          k = 0.0000 0.3465 0.4691 (  2553 PWs)   bands (ev):

   -34.5679  -0.2172   4.5260   7.5071   9.3945  11.0515  14.3288  15.1611
    17.1147  18.5278

          k = 0.0000 0.3465 0.7037 (  2543 PWs)   bands (ev):

   -34.5375   2.1619   5.6956   6.9249   9.6257   9.9859  13.1972  14.2684
    16.2720  17.4914

          k = 0.0000 0.4620 0.0000 (  2546 PWs)   bands (ev):

   -34.6219  -1.6224   1.3760   5.2877   8.8637  15.2880  16.0813  19.4242
    20.0377  21.6680

          k = 0.0000 0.4620 0.2346 (  2546 PWs)   bands (ev):

   -34.6052  -1.1134   1.8598   5.7686   9.1822  15.1783  15.7560  16.8872
    19.7034  20.4399

          k = 0.0000 0.4620 0.4691 (  2543 PWs)   bands (ev):

   -34.5676   0.3983   3.2873   7.1890   9.6197  11.0632  14.1111  16.9128
    17.8760  18.3890

          k = 0.0000 0.4620 0.7037 (  2546 PWs)   bands (ev):

   -34.5372   2.8401   5.4628   6.4676   8.8822   9.3304  12.9156  13.9301
    16.6267  19.3782

          k = 0.0000-0.5775 0.0000 (  2536 PWs)   bands (ev):

   -34.6217  -1.2650   0.8051   5.1772   8.8333  17.2689  17.3595  17.8284
    18.7334  22.1889

          k = 0.0000-0.5775 0.2346 (  2550 PWs)   bands (ev):

   -34.6050  -0.7479   1.2816   5.6586   9.1421  15.5942  17.6663  17.7070
    18.2907  19.8767

          k = 0.0000-0.5775 0.4691 (  2538 PWs)   bands (ev):

   -34.5674   0.7917   2.6842   7.0810   9.7228  11.0660  13.8996  17.6054
    18.5440  19.6547

          k = 0.0000-0.5775 0.7037 (  2552 PWs)   bands (ev):

   -34.5371   3.3109   4.8423   6.8137   8.2992   9.2293  12.8174  13.8146
    16.7794  21.3544

          k = 0.1000 0.1733 0.0000 (  2563 PWs)   bands (ev):

   -34.6230  -2.7754   4.5818   6.1764   9.4542  10.5441  11.9915  17.3501
    20.3894  22.9230

          k = 0.1000 0.1733 0.2346 (  2555 PWs)   bands (ev):

   -34.6063  -2.2802   5.0730   6.6387   9.9260  10.9074  12.4256  14.2700
    19.6829  22.6944

          k = 0.1000 0.1733 0.4691 (  2548 PWs)   bands (ev):

   -34.5684  -0.8119   6.5253   7.9409   9.2761  11.2187  12.5272  13.5514
    18.1312  18.4810

          k = 0.1000 0.1733 0.7037 (  2553 PWs)   bands (ev):

   -34.5379   1.5228   5.2042   8.8301  10.0362  11.5312  14.1043  14.6287
    14.9658  16.5163

          k = 0.1000 0.2888 0.0000 (  2565 PWs)   bands (ev):

   -34.6225  -2.3881   3.1553   5.5356   9.6032  11.7024  14.0206  18.3922
    20.7980  22.6229

          k = 0.1000 0.2888 0.2346 (  2558 PWs)   bands (ev):

   -34.6058  -1.8892   3.6515   5.9905  10.0153  12.0169  14.3029  15.0628
    20.4062  21.5903

          k = 0.1000 0.2888 0.4691 (  2548 PWs)   bands (ev):

   -34.5680  -0.4095   5.1202   7.2841   9.6066  11.4161  13.5003  14.6618
    17.5124  18.2839

          k = 0.1000 0.2888 0.7037 (  2549 PWs)   bands (ev):

   -34.5376   1.9537   5.5537   7.4991   9.3510  10.6113  13.8567  14.3662
    15.4115  17.3992

          k = 0.1000 0.4043 0.0000 (  2561 PWs)   bands (ev):

   -34.6220  -1.8416   1.8439   5.0880   9.5355  13.3939  16.0863  19.0620
    21.2755  21.3926

          k = 0.1000 0.4043 0.2346 (  2559 PWs)   bands (ev):

   -34.6053  -1.3368   2.3380   5.5403   9.8930  13.6276  15.5787  16.4661
    20.1957  20.6568

          k = 0.1000 0.4043 0.4691 (  2545 PWs)   bands (ev):

   -34.5677   0.1615   3.7996   6.8422   9.9836  11.3433  14.2021  15.4336
    17.4222  18.9516

          k = 0.1000 0.4043 0.7037 (  2541 PWs)   bands (ev):

   -34.5373   2.5705   5.8770   6.3818   8.7643   9.6141  13.4371  14.0586
    16.4397  18.3996

          k = 0.1000 0.5198 0.0000 (  2546 PWs)   bands (ev):

   -34.6217  -1.2836   0.8886   4.8622   9.4786  15.3214  17.3110  18.3874
    20.1090  22.0841

          k = 0.1000 0.5198 0.2346 (  2546 PWs)   bands (ev):

   -34.6050  -0.7696   1.3751   5.3136   9.8126  15.1332  16.4998  17.6947
    18.4630  20.0800

          k = 0.1000 0.5198 0.4691 (  2547 PWs)   bands (ev):

   -34.5674   0.7589   2.8111   6.6211  10.3250  11.1828  13.9462  17.0940
    17.3629  19.2301

          k = 0.1000 0.5198 0.7037 (  2535 PWs)   bands (ev):

   -34.5371   3.2462   5.0488   6.7588   8.1294   9.0799  13.2036  13.9079
    17.0317  19.9031

          k = 0.2001 0.3465 0.0000 (  2563 PWs)   bands (ev):

   -34.6221  -1.9169   2.0692   4.8556  10.5862  11.9375  16.2200  18.8338
    21.2979  21.4477

          k = 0.2001 0.3465 0.2346 (  2561 PWs)   bands (ev):

   -34.6054  -1.4136   2.5738   5.2848  11.0382  12.1371  15.6645  16.3144
    20.5440  20.8452

          k = 0.2001 0.3465 0.4691 (  2545 PWs)   bands (ev):

   -34.5677   0.0797   4.0727   6.5005  10.1951  12.0197  13.7518  14.7257
    17.3694  19.1734

          k = 0.2001 0.3465 0.7037 (  2544 PWs)   bands (ev):

   -34.5373   2.4774   5.9814   6.5060   8.4635   9.7827  13.6408  14.9103
    15.4656  18.4561

          k = 0.2001 0.4620 0.0000 (  2557 PWs)   bands (ev):

   -34.6217  -1.3120   1.0340   4.4302  10.8967  13.2302  17.3150  18.4376
    21.5459  21.9596

          k = 0.2001 0.4620 0.2346 (  2551 PWs)   bands (ev):

   -34.6050  -0.8026   1.5392   4.8464  11.2732  13.4348  16.1729  17.6260
    18.3817  20.7551

          k = 0.2001 0.4620 0.4691 (  2547 PWs)   bands (ev):

   -34.5674   0.7106   3.0390   6.0340  10.7930  11.9625  14.1280  15.1900
    17.0465  19.2206

          k = 0.2001 0.4620 0.7037 (  2533 PWs)   bands (ev):

   -34.5371   3.1590   5.4558   6.5700   7.8383   8.9368  13.2802  15.0165
    16.6773  19.2423

          k = 0.2001 0.5775 0.0000 (  2542 PWs)   bands (ev):

   -34.6216  -0.8901   0.4584   4.2901  10.9134  14.7429  15.6433  20.3642
    20.4653  22.4953

          k = 0.2001 0.5775 0.2346 (  2541 PWs)   bands (ev):

   -34.6049  -0.3742   0.9588   4.7028  11.2649  14.7266  15.9058  17.4075
    17.8528  21.2226

          k = 0.2001 0.5775 0.4691 (  2552 PWs)   bands (ev):

   -34.5673   1.1614   2.4413   5.8842  11.3491  11.5066  14.0436  16.3749
    17.2686  17.3641

          k = 0.2001 0.5775 0.7037 (  2536 PWs)   bands (ev):

   -34.5370   3.6732   4.8046   7.1596   7.3262   8.5542  13.1573  14.9899
    17.6034  19.4832

          k = 0.3001 0.5198 0.0000 (  2552 PWs)   bands (ev):

   -34.6215  -0.6575   0.2283   4.0543  12.3610  13.2860  15.3376  20.5105
    21.7190  22.6366

          k = 0.3001 0.5198 0.2346 (  2552 PWs)   bands (ev):

   -34.6049  -0.1443   0.7402   4.4511  12.7335  13.5053  15.4876  17.4530
    17.7459  21.3745

          k = 0.3001 0.5198 0.4691 (  2557 PWs)   bands (ev):

   -34.5673   1.3821   2.2633   5.5812  11.4610  12.0256  14.8509  15.1612
    16.5916  17.3632

          k = 0.3001 0.5198 0.7037 (  2534 PWs)   bands (ev):

   -34.5370   3.8699   4.7502   6.9345   7.4922   8.1789  13.0659  16.2272
    17.1546  18.8847

          k = 0.0000 0.1155-0.2346 (  2559 PWs)   bands (ev):

   -34.6065  -2.4796   6.2738   7.2286   9.4595  10.7435  10.7609  13.8176
    19.2855  23.7687

          k = 0.0000 0.1155-0.4691 (  2542 PWs)   bands (ev):

   -34.5686  -1.0169   7.6824   8.6034   9.0162  10.8008  12.1970  12.2247
    18.5920  19.1611

          k = 0.0000 0.1155-0.7037 (  2554 PWs)   bands (ev):

   -34.5381   1.3036   5.0247   9.8730  10.5988  11.8836  13.9653  14.4990
    15.7240  15.8390

          k = 0.0000 0.2310-0.2346 (  2560 PWs)   bands (ev):

   -34.6061  -2.1818   4.5951   6.6090   9.4486  12.0784  12.4609  14.5147
    19.8616  22.3412

          k = 0.0000 0.2310-0.4691 (  2549 PWs)   bands (ev):

   -34.5683  -0.7106   6.0331   8.0094   9.1785  11.0017  13.5182  13.5489
    17.5343  19.0157

          k = 0.0000 0.2310-0.7037 (  2548 PWs)   bands (ev):

   -34.5378   1.6314   5.2910   8.3612  10.0829  11.1429  13.6077  14.7651
    15.9252  15.9508

          k = 0.0000 0.3465-0.2346 (  2565 PWs)   bands (ev):

   -34.6056  -1.7035   3.0826   6.0931   9.2976  13.7824  14.0638  15.5858
    20.2776  21.8102

          k = 0.0000 0.3465-0.4691 (  2553 PWs)   bands (ev):

   -34.5679  -0.2172   4.5251   7.5070   9.4110  11.0247  14.3376  15.1655
    17.1297  18.5166

          k = 0.0000 0.3465-0.7037 (  2543 PWs)   bands (ev):

   -34.5375   2.1621   5.6892   6.9369   9.6255   9.9763  13.1948  14.2712
    16.2926  17.4852

          k = 0.0000 0.4620-0.2346 (  2546 PWs)   bands (ev):

   -34.6052  -1.1134   1.8597   5.7685   9.1831  15.1648  15.7576  16.9078
    19.6949  20.4317

          k = 0.0000 0.4620-0.4691 (  2543 PWs)   bands (ev):

   -34.5676   0.3984   3.2869   7.1890   9.6330  11.0424  14.1151  16.9258
    17.9023  18.3662

          k = 0.0000 0.4620-0.7037 (  2546 PWs)   bands (ev):

   -34.5372   2.8405   5.4537   6.4823   8.8742   9.3303  12.9144  13.9311
    16.6387  19.3729

          k =-0.1000 0.2888-0.2346 (  2558 PWs)   bands (ev):

   -34.6058  -1.8892   3.6514   5.9906  10.0170  12.0144  14.2953  15.0729
    20.3897  21.6153

          k =-0.1000 0.2888-0.4691 (  2548 PWs)   bands (ev):

   -34.5680  -0.4095   5.1196   7.2847   9.6149  11.3981  13.5103  14.6627
    17.5234  18.2722

          k =-0.1000 0.2888-0.7037 (  2549 PWs)   bands (ev):

   -34.5376   1.9538   5.5520   7.5042   9.3487  10.6080  13.8530  14.3656
    15.4259  17.3962

          k =-0.1000 0.4043-0.2346 (  2559 PWs)   bands (ev):

   -34.6053  -1.3368   2.3380   5.5403   9.8944  13.6231  15.5718  16.4818
    20.1807  20.6562

          k =-0.1000 0.4043-0.4691 (  2545 PWs)   bands (ev):

   -34.5677   0.1615   3.7992   6.8426   9.9978  11.3189  14.2100  15.4380
    17.4352  18.9430

          k =-0.1000 0.4043-0.7037 (  2541 PWs)   bands (ev):

   -34.5373   2.5708   5.8602   6.4041   8.7582   9.6127  13.4359  14.0568
    16.4608  18.3819

          k =-0.1000 0.5198-0.2346 (  2546 PWs)   bands (ev):

   -34.6050  -0.7696   1.3751   5.3137   9.8131  15.1267  16.5082  17.6967
    18.4598  20.0874

          k =-0.1000 0.5198-0.4691 (  2547 PWs)   bands (ev):

   -34.5674   0.7590   2.8109   6.6212  10.3361  11.1673  13.9487  17.1033
    17.3690  19.2071

          k =-0.1000 0.5198-0.7037 (  2535 PWs)   bands (ev):

   -34.5371   3.2466   5.0457   6.7666   8.1232   9.0804  13.2033  13.9072
    17.0416  19.8777

          k =-0.2001 0.4620-0.2346 (  2551 PWs)   bands (ev):

   -34.6050  -0.8026   1.5392   4.8464  11.2742  13.4321  16.1752  17.6271
    18.3801  20.7645

          k =-0.2001 0.4620-0.4691 (  2547 PWs)   bands (ev):

   -34.5674   0.7107   3.0389   6.0341  10.7996  11.9501  14.1324  15.1935
    17.0492  19.2122

          k =-0.2001 0.4620-0.7037 (  2533 PWs)   bands (ev):

   -34.5371   3.1592   5.4522   6.5775   7.8333   8.9373  13.2804  15.0113
    16.6935  19.2096

     the Fermi energy is    11.4884 ev

!    total energy              =     -31.23752789 Ry
     estimated scf accuracy    <          6.8E-12 Ry
     smearing contrib. (-TS)   =       0.00036374 Ry
     internal energy E=F+TS    =     -31.23789163 Ry

     The total energy is F=E-TS. E is the sum of the following terms:
     one-electron contribution =       4.31691733 Ry
     hartree contribution      =       2.92197529 Ry
     xc contribution           =     -10.12104136 Ry
     ewald contribution        =     -28.35574288 Ry

     convergence has been achieved in   7 iterations

     Forces acting on atoms (cartesian axes, Ry/au):

     atom    1 type  1   force =     0.00000000    0.00000000    0.00015856
     atom    2 type  1   force =     0.00000000    0.00000000   -0.00015856
     atom    3 type  2   force =     0.00000000    0.00000000    0.00000000
     The non-local contrib.  to forces
     atom    1 type  1   force =     0.00000000   -0.00000000   -0.00096976
     atom    2 type  1   force =     0.00000000    0.00000000    0.00096976
     atom    3 type  2   force =     0.00000000    0.00000000    0.00000000
     The ionic contribution  to forces
     atom    1 type  1   force =     0.00000010   -0.00000006   -0.00354941
     atom    2 type  1   force =    -0.00000010    0.00000006    0.00354941
     atom    3 type  2   force =     0.00000000   -0.00000000    0.00000000
     The local contribution  to forces
     atom    1 type  1   force =    -0.00000001    0.00000001    0.00456623
     atom    2 type  1   force =     0.00000001   -0.00000001   -0.00456623
     atom    3 type  2   force =    -0.00000000    0.00000000    0.00000000
     The core correction contribution to forces
     atom    1 type  1   force =    -0.00000000    0.00000000    0.00011149
     atom    2 type  1   force =     0.00000000   -0.00000000   -0.00011149
     atom    3 type  2   force =     0.00000000    0.00000000    0.00000000
     The Hubbard contrib.    to forces
     atom    1 type  1   force =     0.00000000    0.00000000    0.00000000
     atom    2 type  1   force =     0.00000000    0.00000000    0.00000000
     atom    3 type  2   force =     0.00000000    0.00000000    0.00000000
     The SCF correction term to forces
     atom    1 type  1   force =    -0.00000000    0.00000000    0.00000001
     atom    2 type  1   force =     0.00000000   -0.00000000   -0.00000001
     atom    3 type  2   force =    -0.00000000   -0.00000000    0.00000000

     Total force =     0.000224     Total SCF correction =     0.000000


     Computing stress (Cartesian axis) and pressure

          total   stress  (Ry/bohr**3)                   (kbar)     P=      499.52
   0.00338748  -0.00000000  -0.00000000          498.32       -0.00       -0.00
  -0.00000000   0.00338748  -0.00000000           -0.00      498.32       -0.00
  -0.00000000  -0.00000000   0.00341200           -0.00       -0.00      501.92


     Writing all to output data dir ./output/SiLi.save/

     init_run     :      0.87s CPU      1.19s WALL (       2 calls)
     electrons    :     65.70s CPU     71.63s WALL (      15 calls)
     update_pot   :      2.79s CPU      2.87s WALL (      13 calls)
     forces       :      2.33s CPU      2.42s WALL (      15 calls)
     stress       :      9.25s CPU      9.57s WALL (      15 calls)

     Called by init_run:
     wfcinit      :      0.36s CPU      0.38s WALL (       2 calls)
     potinit      :      0.29s CPU      0.51s WALL (       2 calls)
     hinit0       :      0.20s CPU      0.26s WALL (       2 calls)

     Called by electrons:
     c_bands      :     56.84s CPU     61.92s WALL (     103 calls)
     sum_band     :      8.09s CPU      8.41s WALL (     103 calls)
     v_of_rho     :      0.85s CPU      1.44s WALL (     114 calls)
     mix_rho      :      0.08s CPU      0.11s WALL (     103 calls)

     Called by c_bands:
     init_us_2    :      1.51s CPU      1.62s WALL (   19040 calls)
     init_us_2:cp :      1.48s CPU      1.60s WALL (   19040 calls)
     cegterg      :     53.44s CPU     55.76s WALL (    8240 calls)

     Called by *egterg:
     cdiaghg      :      3.84s CPU      4.05s WALL (   31789 calls)
     h_psi        :     45.45s CPU     47.39s WALL (   33309 calls)
     g_psi        :      0.18s CPU      0.19s WALL (   24909 calls)

     Called by h_psi:
     h_psi:calbec :      2.15s CPU      2.23s WALL (   33309 calls)
     vloc_psi     :     41.64s CPU     43.41s WALL (   33309 calls)
     add_vuspsi   :      1.47s CPU      1.53s WALL (   33309 calls)

     General routines
     calbec       :      2.94s CPU      3.05s WALL (   39309 calls)
     fft          :      0.88s CPU      1.60s WALL (    1517 calls)
     ffts         :      0.05s CPU      0.09s WALL (     103 calls)
     fftw         :     43.60s CPU     45.35s WALL (  552374 calls)

     Parallel routines

     PWSCF        :   1m21.35s CPU   1m28.51s WALL


   This run was terminated on:  22:10:48  10Jan2025            

=------------------------------------------------------------------------------=
   JOB DONE.
=------------------------------------------------------------------------------=
