
     Program PWSCF v.7.2 starts on 10Jan2025 at 22: 9: 6 

     This program is part of the open-source Quantum ESPRESSO suite
     for quantum simulation of materials; please cite
         "P. Giannozzi et al., J. Phys.:Condens. Matter 21 395502 (2009);
         "P. Giannozzi et al., J. Phys.:Condens. Matter 29 465901 (2017);
         "P. Giannozzi et al., J. Chem. Phys. 152 154105 (2020);
          URL http://www.quantum-espresso.org", 
     in publications or presentations arising from this work. More details at
     http://www.quantum-espresso.org/quote

     Parallel version (MPI & OpenMP), running on       8 processor cores
     Number of MPI processes:                 8
     Threads/MPI process:                     1

     MPI processes distributed on     1 nodes
     484262 MiB available memory on the printing compute node when the environment starts

     Waiting for input...
     Reading input from standard input

     Current dimensions of program PWSCF are:
     Max number of different atomic species (ntypx) = 10
     Max number of k-points (npk) =  40000
     Max angular momentum in pseudopotentials (lmaxx) =  4

     R & G space division:  proc/nbgrp/npool/nimage =       8
     Subspace diagonalization in iterative solution of the eigenvalue problem:
     a serial algorithm will be used


     Parallelization info
     --------------------
     sticks:   dense  smooth     PW     G-vecs:    dense   smooth      PW
     Min          69      69     20                 3009     3009     496
     Max          70      70     21                 3016     3016     505
     Sum         559     559    163                24107    24107    4001

     Using Slab Decomposition



     bravais-lattice index     =            4
     lattice parameter (alat)  =       4.4829  a.u.
     unit-cell volume          =     178.4341 (a.u.)^3
     number of atoms/cell      =            3
     number of atomic types    =            2
     number of electrons       =        10.00
     number of Kohn-Sham states=            9
     kinetic-energy cutoff     =     100.0000  Ry
     charge density cutoff     =     400.0000  Ry
     scf convergence threshold =      1.0E-08
     mixing beta               =       0.7000
     number of iterations used =            8  plain     mixing
     energy convergence thresh.=      1.0E-04
     force convergence thresh. =      1.0E-03
     press convergence thresh. =      1.0E+00
     Exchange-correlation= PBE
                           (   1   4   3   4   0   0   0)
     nstep                     =           50


     celldm(1)=   4.482894  celldm(2)=   0.000000  celldm(3)=   2.287029
     celldm(4)=   0.000000  celldm(5)=   0.000000  celldm(6)=   0.000000

     crystal axes: (cart. coord. in units of alat)
               a(1) = (   1.000000   0.000000   0.000000 )  
               a(2) = (  -0.500000   0.866025   0.000000 )  
               a(3) = (   0.000000   0.000000   2.287029 )  

     reciprocal axes: (cart. coord. in units 2 pi/alat)
               b(1) = (  1.000000  0.577350 -0.000000 )  
               b(2) = (  0.000000  1.154701  0.000000 )  
               b(3) = (  0.000000 -0.000000  0.437248 )  


     PseudoPot. # 1 for Si read from file:
     ../pseudo/Si_ONCV_PBE_sr.upf
     MD5 check sum: e543d271109d17c80368dfa7c482276d
     Pseudo is Norm-conserving + core correction, Zval =  4.0
     Generated using ONCVPSP code by D. R. Hamann
     Using radial grid of 1510 points,  6 beta functions with: 
                l(1) =   0
                l(2) =   0
                l(3) =   1
                l(4) =   1
                l(5) =   2
                l(6) =   2

     PseudoPot. # 2 for Li read from file:
     ../pseudo/Li_ONCV_PBE_sr.upf
     MD5 check sum: 50ff420e78310ffa21704f3361e624a4
     Pseudo is Norm-conserving, Zval =  3.0
     Generated using ONCVPSP code by D. R. Hamann
     Using radial grid of 1944 points,  4 beta functions with: 
                l(1) =   0
                l(2) =   0
                l(3) =   1
                l(4) =   1

     atomic species   valence    mass     pseudopotential
        Si             4.00    28.08550     Si( 1.00)
        Li             3.00     6.94100     Li( 1.00)

     12 Sym. Ops. (no inversion) found



   Cartesian axes

     site n.     atom                  positions (alat units)
         1           Si  tau(   1) = (   0.5000000   0.2886751   1.1435146  )
         2           Li  tau(   2) = (   0.0000000   0.0000000   0.3494318  )
         3           Li  tau(   3) = (   0.0000000   0.0000000   1.9375974  )

     number of k points=    80  Marzari-Vanderbilt smearing, width (Ry)=  0.0200
                       cart. coord. in units 2pi/alat
        k(    1) = (   0.0000000   0.0000000   0.0000000), wk =   0.0020661
        k(    2) = (   0.0000000   0.0000000   0.0546561), wk =   0.0041322
        k(    3) = (   0.0000000   0.0000000   0.1093121), wk =   0.0041322
        k(    4) = (   0.0000000   0.0000000   0.1639682), wk =   0.0041322
        k(    5) = (   0.0000000   0.0000000  -0.2186242), wk =   0.0020661
        k(    6) = (   0.0000000   0.1049728   0.0000000), wk =   0.0123967
        k(    7) = (   0.0000000   0.1049728   0.0546561), wk =   0.0247934
        k(    8) = (   0.0000000   0.1049728   0.1093121), wk =   0.0247934
        k(    9) = (   0.0000000   0.1049728   0.1639682), wk =   0.0247934
        k(   10) = (   0.0000000   0.1049728  -0.2186242), wk =   0.0123967
        k(   11) = (   0.0000000   0.2099456   0.0000000), wk =   0.0123967
        k(   12) = (   0.0000000   0.2099456   0.0546561), wk =   0.0247934
        k(   13) = (   0.0000000   0.2099456   0.1093121), wk =   0.0247934
        k(   14) = (   0.0000000   0.2099456   0.1639682), wk =   0.0247934
        k(   15) = (   0.0000000   0.2099456  -0.2186242), wk =   0.0123967
        k(   16) = (   0.0000000   0.3149183   0.0000000), wk =   0.0123967
        k(   17) = (   0.0000000   0.3149183   0.0546561), wk =   0.0247934
        k(   18) = (   0.0000000   0.3149183   0.1093121), wk =   0.0247934
        k(   19) = (   0.0000000   0.3149183   0.1639682), wk =   0.0247934
        k(   20) = (   0.0000000   0.3149183  -0.2186242), wk =   0.0123967
        k(   21) = (   0.0000000   0.4198911   0.0000000), wk =   0.0123967
        k(   22) = (   0.0000000   0.4198911   0.0546561), wk =   0.0247934
        k(   23) = (   0.0000000   0.4198911   0.1093121), wk =   0.0247934
        k(   24) = (   0.0000000   0.4198911   0.1639682), wk =   0.0247934
        k(   25) = (   0.0000000   0.4198911  -0.2186242), wk =   0.0123967
        k(   26) = (   0.0000000   0.5248639   0.0000000), wk =   0.0123967
        k(   27) = (   0.0000000   0.5248639   0.0546561), wk =   0.0247934
        k(   28) = (   0.0000000   0.5248639   0.1093121), wk =   0.0247934
        k(   29) = (   0.0000000   0.5248639   0.1639682), wk =   0.0247934
        k(   30) = (   0.0000000   0.5248639  -0.2186242), wk =   0.0123967
        k(   31) = (   0.0909091   0.1574592   0.0000000), wk =   0.0123967
        k(   32) = (   0.0909091   0.1574592   0.0546561), wk =   0.0247934
        k(   33) = (   0.0909091   0.1574592   0.1093121), wk =   0.0247934
        k(   34) = (   0.0909091   0.1574592   0.1639682), wk =   0.0247934
        k(   35) = (   0.0909091   0.1574592  -0.2186242), wk =   0.0123967
        k(   36) = (   0.0909091   0.2624319   0.0000000), wk =   0.0247934
        k(   37) = (   0.0909091   0.2624319   0.0546561), wk =   0.0495868
        k(   38) = (   0.0909091   0.2624319   0.1093121), wk =   0.0495868
        k(   39) = (   0.0909091   0.2624319   0.1639682), wk =   0.0495868
        k(   40) = (   0.0909091   0.2624319  -0.2186242), wk =   0.0247934
        k(   41) = (   0.0909091   0.3674047   0.0000000), wk =   0.0247934
        k(   42) = (   0.0909091   0.3674047   0.0546561), wk =   0.0495868
        k(   43) = (   0.0909091   0.3674047   0.1093121), wk =   0.0495868
        k(   44) = (   0.0909091   0.3674047   0.1639682), wk =   0.0495868
        k(   45) = (   0.0909091   0.3674047  -0.2186242), wk =   0.0247934
        k(   46) = (   0.0909091   0.4723775   0.0000000), wk =   0.0247934
        k(   47) = (   0.0909091   0.4723775   0.0546561), wk =   0.0495868
        k(   48) = (   0.0909091   0.4723775   0.1093121), wk =   0.0495868
        k(   49) = (   0.0909091   0.4723775   0.1639682), wk =   0.0495868
        k(   50) = (   0.0909091   0.4723775  -0.2186242), wk =   0.0247934
        k(   51) = (   0.0909091   0.5773503   0.0000000), wk =   0.0123967
        k(   52) = (   0.0909091   0.5773503   0.0546561), wk =   0.0247934
        k(   53) = (   0.0909091   0.5773503   0.1093121), wk =   0.0247934
        k(   54) = (   0.0909091   0.5773503   0.1639682), wk =   0.0247934
        k(   55) = (   0.0909091   0.5773503  -0.2186242), wk =   0.0123967
        k(   56) = (   0.1818182   0.3149183   0.0000000), wk =   0.0123967
        k(   57) = (   0.1818182   0.3149183   0.0546561), wk =   0.0247934
        k(   58) = (   0.1818182   0.3149183   0.1093121), wk =   0.0247934
        k(   59) = (   0.1818182   0.3149183   0.1639682), wk =   0.0247934
        k(   60) = (   0.1818182   0.3149183  -0.2186242), wk =   0.0123967
        k(   61) = (   0.1818182   0.4198911   0.0000000), wk =   0.0247934
        k(   62) = (   0.1818182   0.4198911   0.0546561), wk =   0.0495868
        k(   63) = (   0.1818182   0.4198911   0.1093121), wk =   0.0495868
        k(   64) = (   0.1818182   0.4198911   0.1639682), wk =   0.0495868
        k(   65) = (   0.1818182   0.4198911  -0.2186242), wk =   0.0247934
        k(   66) = (   0.1818182   0.5248639   0.0000000), wk =   0.0247934
        k(   67) = (   0.1818182   0.5248639   0.0546561), wk =   0.0495868
        k(   68) = (   0.1818182   0.5248639   0.1093121), wk =   0.0495868
        k(   69) = (   0.1818182   0.5248639   0.1639682), wk =   0.0495868
        k(   70) = (   0.1818182   0.5248639  -0.2186242), wk =   0.0247934
        k(   71) = (   0.2727273   0.4723775   0.0000000), wk =   0.0123967
        k(   72) = (   0.2727273   0.4723775   0.0546561), wk =   0.0247934
        k(   73) = (   0.2727273   0.4723775   0.1093121), wk =   0.0247934
        k(   74) = (   0.2727273   0.4723775   0.1639682), wk =   0.0247934
        k(   75) = (   0.2727273   0.4723775  -0.2186242), wk =   0.0123967
        k(   76) = (   0.2727273   0.5773503   0.0000000), wk =   0.0123967
        k(   77) = (   0.2727273   0.5773503   0.0546561), wk =   0.0247934
        k(   78) = (   0.2727273   0.5773503   0.1093121), wk =   0.0247934
        k(   79) = (   0.2727273   0.5773503   0.1639682), wk =   0.0247934
        k(   80) = (   0.2727273   0.5773503  -0.2186242), wk =   0.0123967

     Dense  grid:    24107 G-vectors     FFT dimensions: (  30,  30,  72)

     Estimated max dynamical RAM per process >      19.35 MB

     Estimated total dynamical RAM >     154.78 MB

     Initial potential from superposition of free atoms

     starting charge       9.9903, renormalised to      10.0000
     Starting wfcs are    8 randomized atomic wfcs +    1 random wfcs

     total cpu time spent up to now is        1.7 secs

     Self-consistent Calculation

     iteration #  1     ecut=   100.00 Ry     beta= 0.70
     Davidson diagonalization with overlap
     ethr =  1.00E-02,  avg # of iterations =  5.7

     total cpu time spent up to now is        2.7 secs

     total energy              =     -37.05036269 Ry
     estimated scf accuracy    <       0.10154183 Ry

     iteration #  2     ecut=   100.00 Ry     beta= 0.70
     Davidson diagonalization with overlap
     ethr =  1.02E-03,  avg # of iterations =  2.9

     total cpu time spent up to now is        3.4 secs

     total energy              =     -37.03743239 Ry
     estimated scf accuracy    <       0.41465662 Ry

     iteration #  3     ecut=   100.00 Ry     beta= 0.70
     Davidson diagonalization with overlap
     ethr =  1.02E-03,  avg # of iterations =  1.9

     total cpu time spent up to now is        4.2 secs

     total energy              =     -37.10691091 Ry
     estimated scf accuracy    <       0.00104912 Ry

     iteration #  4     ecut=   100.00 Ry     beta= 0.70
     Davidson diagonalization with overlap
     ethr =  1.05E-05,  avg # of iterations =  4.3

     total cpu time spent up to now is        4.8 secs

     total energy              =     -37.10708750 Ry
     estimated scf accuracy    <       0.00000437 Ry

     iteration #  5     ecut=   100.00 Ry     beta= 0.70
     Davidson diagonalization with overlap
     ethr =  4.37E-08,  avg # of iterations =  2.7

     total cpu time spent up to now is        5.5 secs

     total energy              =     -37.10709010 Ry
     estimated scf accuracy    <       0.00000013 Ry

     iteration #  6     ecut=   100.00 Ry     beta= 0.70
     Davidson diagonalization with overlap
     ethr =  1.33E-09,  avg # of iterations =  2.1

     total cpu time spent up to now is        6.0 secs

     End of self-consistent calculation

          k = 0.0000 0.0000 0.0000 (  2991 PWs)   bands (ev):

   -37.0689 -36.4247  -5.1112   3.2428   6.7397  14.5359  20.0337  24.0035
    24.0035

          k = 0.0000 0.0000 0.0547 (  2991 PWs)   bands (ev):

   -37.0687 -36.4249  -5.1089   3.1984   6.8674  14.1388  20.6306  24.0175
    24.0175

          k = 0.0000 0.0000 0.1093 (  3009 PWs)   bands (ev):

   -37.0683 -36.4254  -5.1034   3.0986   7.1907  13.3215  22.0657  24.0518
    24.0519

          k = 0.0000 0.0000 0.1640 (  3008 PWs)   bands (ev):

   -37.0678 -36.4258  -5.0980   3.0072   7.5493  12.5911  23.8978  24.0872
    24.0872

          k = 0.0000 0.0000-0.2186 (  3008 PWs)   bands (ev):

   -37.0677 -36.4261  -5.0957   2.9715   7.7143  12.2941  24.1021  24.1022
    25.6344

          k = 0.0000 0.1050 0.0000 (  3005 PWs)   bands (ev):

   -37.0531 -36.4125  -4.8376   3.4713   6.8479  14.7144  19.9556  20.8284
    22.3739

          k = 0.0000 0.1050 0.0547 (  2995 PWs)   bands (ev):

   -37.0529 -36.4127  -4.8353   3.4209   6.9861  14.2970  20.4564  20.9377
    22.3881

          k = 0.0000 0.1050 0.1093 (  3002 PWs)   bands (ev):

   -37.0525 -36.4131  -4.8295   3.3089   7.3353  13.4441  20.7516  22.0749
    22.4234

          k = 0.0000 0.1050 0.1640 (  2998 PWs)   bands (ev):

   -37.0521 -36.4136  -4.8237   3.2075   7.7236  12.6811  20.7953  22.4601
    23.7505

          k = 0.0000 0.1050-0.2186 (  2998 PWs)   bands (ev):

   -37.0519 -36.4138  -4.8212   3.1681   7.9036  12.3688  20.8083  22.4757
    25.2799

          k = 0.0000 0.2099 0.0000 (  3002 PWs)   bands (ev):

   -37.0105 -36.3797  -4.0213   4.1556   7.1621  14.8923  16.9378  19.5921
    20.5941

          k = 0.0000 0.2099 0.0547 (  3006 PWs)   bands (ev):

   -37.0104 -36.3799  -4.0184   4.0841   7.3349  14.5071  16.7970  20.2106
    20.6103

          k = 0.0000 0.2099 0.1093 (  3003 PWs)   bands (ev):

   -37.0100 -36.3803  -4.0114   3.9308   7.7670  13.6437  16.6734  20.6507
    21.3547

          k = 0.0000 0.2099 0.1640 (  3005 PWs)   bands (ev):

   -37.0097 -36.3806  -4.0043   3.7972   8.2518  12.8187  16.6367  20.6929
    22.0913

          k = 0.0000 0.2099-0.2186 (  3018 PWs)   bands (ev):

   -37.0095 -36.3808  -4.0014   3.7463   8.4832  12.4652  16.6306  20.7110
    22.2558

          k = 0.0000 0.3149 0.0000 (  3026 PWs)   bands (ev):

   -36.9545 -36.3366  -2.6747   5.2894   7.5778  12.1275  16.6685  18.0146
    19.2337

          k = 0.0000 0.3149 0.0547 (  3005 PWs)   bands (ev):

   -36.9544 -36.3367  -2.6707   5.1671   7.8195  12.0680  16.0319  18.3918
    19.2520

          k = 0.0000 0.3149 0.1093 (  3007 PWs)   bands (ev):

   -36.9541 -36.3371  -2.6609   4.9280   8.4020  11.8540  15.1187  18.6497
    19.2976

          k = 0.0000 0.3149 0.1640 (  3012 PWs)   bands (ev):

   -36.9538 -36.3374  -2.6510   4.7358   9.0851  11.4526  14.5042  18.6701
    19.3458

          k = 0.0000 0.3149-0.2186 (  2998 PWs)   bands (ev):

   -36.9537 -36.3375  -2.6469   4.6651   9.4695  11.1583  14.3042  18.6549
    19.3666

          k = 0.0000 0.4199 0.0000 (  3002 PWs)   bands (ev):

   -36.9028 -36.2969  -0.8228   6.8398   7.0387   9.8010  15.1238  17.0134
    18.3220

          k = 0.0000 0.4199 0.0547 (  3009 PWs)   bands (ev):

   -36.9027 -36.2970  -0.8165   6.5097   7.3355   9.9265  15.0346  16.8817
    18.3419

          k = 0.0000 0.4199 0.1093 (  3005 PWs)   bands (ev):

   -36.9025 -36.2972  -0.8011   6.1493   7.6136  10.2515  14.8318  16.4640
    18.3919

          k = 0.0000 0.4199 0.1640 (  3017 PWs)   bands (ev):

   -36.9023 -36.2974  -0.7855   5.9042   7.7766  10.6143  14.6340  15.9856
    18.4449

          k = 0.0000 0.4199-0.2186 (  3022 PWs)   bands (ev):

   -36.9022 -36.2975  -0.7790   5.8178   7.8295  10.7796  14.5488  15.7801
    18.4678

          k = 0.0000 0.5249 0.0000 (  3016 PWs)   bands (ev):

   -36.8719 -36.2732   1.4571   4.4146   8.5704   9.9245  12.5350  15.8976
    17.8653

          k = 0.0000 0.5249 0.0547 (  3028 PWs)   bands (ev):

   -36.8719 -36.2733   1.4672   4.4413   8.1258  10.4577  12.5779  15.9465
    17.8861

          k = 0.0000 0.5249 0.1093 (  3016 PWs)   bands (ev):

   -36.8717 -36.2735   1.4917   4.5131   7.4844  11.2315  12.8626  16.0394
    17.9384

          k = 0.0000 0.5249 0.1640 (  3019 PWs)   bands (ev):

   -36.8715 -36.2737   1.5167   4.5987   7.0171  11.5982  13.7135  15.8848
    17.2214

          k = 0.0000 0.5249-0.2186 (  3020 PWs)   bands (ev):

   -36.8715 -36.2737   1.5272   4.6400   6.8440  11.6657  14.7757  15.0688
    16.9411

          k = 0.0909 0.1575 0.0000 (  3003 PWs)   bands (ev):

   -37.0239 -36.3900  -4.2927   3.9278   7.0620  14.9979  18.1640  19.7824
    19.8539

          k = 0.0909 0.1575 0.0547 (  3003 PWs)   bands (ev):

   -37.0237 -36.3902  -4.2900   3.8641   7.2227  14.5531  18.1334  19.7385
    20.5536

          k = 0.0909 0.1575 0.1093 (  2999 PWs)   bands (ev):

   -37.0234 -36.3906  -4.2834   3.7254   7.6259  13.6452  18.1173  19.7755
    21.9586

          k = 0.0909 0.1575 0.1640 (  3004 PWs)   bands (ev):

   -37.0230 -36.3910  -4.2768   3.6030   8.0766  12.8235  18.1224  19.8216
    23.4763

          k = 0.0909 0.1575-0.2186 (  3008 PWs)   bands (ev):

   -37.0228 -36.3912  -4.2741   3.5560   8.2893  12.4805  18.1267  19.8418
    23.8899

          k = 0.0909 0.2624 0.0000 (  3005 PWs)   bands (ev):

   -36.9746 -36.3520  -3.2110   4.8386   7.4651  13.9730  15.7908  18.2610
    19.1552

          k = 0.0909 0.2624 0.0547 (  3008 PWs)   bands (ev):

   -36.9745 -36.3522  -3.2075   4.7405   7.6769  13.8566  15.4541  18.0282
    19.8148

          k = 0.0909 0.2624 0.1093 (  3007 PWs)   bands (ev):

   -36.9742 -36.3525  -3.1990   4.5397   8.1967  13.3859  14.9720  17.9300
    20.3711

          k = 0.0909 0.2624 0.1640 (  3001 PWs)   bands (ev):

   -36.9739 -36.3529  -3.1904   4.3722   8.7874  12.6710  14.7821  17.9479
    20.2712

          k = 0.0909 0.2624-0.2186 (  3002 PWs)   bands (ev):

   -36.9737 -36.3530  -3.1868   4.3096   9.0834  12.3044  14.7436  17.9677
    20.1775

          k = 0.0909 0.3674 0.0000 (  3003 PWs)   bands (ev):

   -36.9207 -36.3106  -1.6103   6.1904   7.7519  10.6964  15.3614  16.8127
    18.0462

          k = 0.0909 0.3674 0.0547 (  3006 PWs)   bands (ev):

   -36.9206 -36.3107  -1.6052   6.0067   8.0391  10.6858  15.1592  16.7249
    17.8847

          k = 0.0909 0.3674 0.1093 (  3011 PWs)   bands (ev):

   -36.9204 -36.3110  -1.5926   5.6905   8.6524  10.6320  14.6228  16.6638
    17.5294

          k = 0.0909 0.3674 0.1640 (  3015 PWs)   bands (ev):

   -36.9202 -36.3113  -1.5798   5.4555   9.3186  10.4768  14.0632  16.7327
    17.1776

          k = 0.0909 0.3674-0.2186 (  3016 PWs)   bands (ev):

   -36.9201 -36.3114  -1.5745   5.3715   9.7211  10.2847  13.8269  16.8653
    16.9492

          k = 0.0909 0.4724 0.0000 (  3023 PWs)   bands (ev):

   -36.8794 -36.2789   0.4721   5.9963   7.9047   9.8557  13.8775  14.5176
    17.3237

          k = 0.0909 0.4724 0.0547 (  3019 PWs)   bands (ev):

   -36.8793 -36.2790   0.4803   6.0211   7.6583  10.1796  13.7837  14.6547
    17.1868

          k = 0.0909 0.4724 0.1093 (  3021 PWs)   bands (ev):

   -36.8792 -36.2792   0.5004   6.0963   7.2039  10.8201  13.6829  14.8724
    16.8593

          k = 0.0909 0.4724 0.1640 (  3019 PWs)   bands (ev):

   -36.8790 -36.2794   0.5209   6.2252   6.7961  11.3711  13.7674  14.8799
    16.6326

          k = 0.0909 0.4724-0.2186 (  3016 PWs)   bands (ev):

   -36.8789 -36.2795   0.5294   6.3568   6.5657  11.5779  13.9365  14.7131
    16.6352

          k = 0.0909 0.5774 0.0000 (  3036 PWs)   bands (ev):

   -36.8640 -36.2671   2.5451   3.6303   9.1944  10.1718  12.1377  14.0036
    16.7706

          k = 0.0909 0.5774 0.0547 (  3028 PWs)   bands (ev):

   -36.8639 -36.2671   2.5542   3.6556   8.6097  10.8889  12.1281  14.0931
    16.6588

          k = 0.0909 0.5774 0.1093 (  3016 PWs)   bands (ev):

   -36.8637 -36.2673   2.5762   3.7220   7.8964  11.7041  12.4141  14.3459
    16.3653

          k = 0.0909 0.5774 0.1640 (  3005 PWs)   bands (ev):

   -36.8636 -36.2675   2.5979   3.7971   7.4078  11.7723  13.4372  14.7711
    16.0152

          k = 0.0909 0.5774-0.2186 (  3010 PWs)   bands (ev):

   -36.8635 -36.2676   2.6069   3.8313   7.2328  11.7550  13.9706  15.2789
    15.8354

          k = 0.1818 0.3149 0.0000 (  3015 PWs)   bands (ev):

   -36.9274 -36.3158  -1.8744   5.9730   7.9305  12.0713  13.4664  18.1386
    18.5437

          k = 0.1818 0.3149 0.0547 (  3001 PWs)   bands (ev):

   -36.9273 -36.3159  -1.8696   5.8149   8.2146  12.0765  13.3336  17.2944
    18.7677

          k = 0.1818 0.3149 0.1093 (  3013 PWs)   bands (ev):

   -36.9271 -36.3162  -1.8579   5.5255   8.8723  12.0680  12.9252  16.6000
    18.1132

          k = 0.1818 0.3149 0.1640 (  3014 PWs)   bands (ev):

   -36.9268 -36.3164  -1.8461   5.3030   9.6485  11.8757  12.4609  16.2898
    17.6282

          k = 0.1818 0.3149-0.2186 (  3006 PWs)   bands (ev):

   -36.9267 -36.3165  -1.8412   5.2227  10.1270  11.5296  12.3550  16.2214
    17.4461

          k = 0.1818 0.4199 0.0000 (  3007 PWs)   bands (ev):

   -36.8839 -36.2823  -0.0356   7.5324   7.7341   9.7964  12.2314  15.7852
    17.6447

          k = 0.1818 0.4199 0.0547 (  3013 PWs)   bands (ev):

   -36.8838 -36.2824  -0.0285   7.1702   8.0477   9.9493  12.2152  15.5694
    17.3526

          k = 0.1818 0.4199 0.1093 (  3011 PWs)   bands (ev):

   -36.8836 -36.2826  -0.0111   6.7799   8.3165  10.3667  12.1321  15.1669
    16.8354

          k = 0.1818 0.4199 0.1640 (  3018 PWs)   bands (ev):

   -36.8835 -36.2829   0.0066   6.5161   8.4620  10.9215  11.9054  14.8581
    16.4394

          k = 0.1818 0.4199-0.2186 (  3006 PWs)   bands (ev):

   -36.8834 -36.2829   0.0140   6.4234   8.5079  11.3894  11.5687  14.7487
    16.2976

          k = 0.1818 0.5249 0.0000 (  3029 PWs)   bands (ev):

   -36.8580 -36.2624   2.2300   5.1680   9.3063   9.9703  11.6923  13.1085
    16.0035

          k = 0.1818 0.5249 0.0547 (  3023 PWs)   bands (ev):

   -36.8579 -36.2625   2.2404   5.1933   8.8341  10.3495  11.8339  13.1538
    15.9083

          k = 0.1818 0.5249 0.1093 (  3020 PWs)   bands (ev):

   -36.8578 -36.2627   2.2659   5.2607   8.2202  10.7167  12.0300  13.4878
    15.7650

          k = 0.1818 0.5249 0.1640 (  3018 PWs)   bands (ev):

   -36.8576 -36.2629   2.2918   5.3400   7.7787  10.9245  12.0204  14.0677
    15.9480

          k = 0.1818 0.5249-0.2186 (  3020 PWs)   bands (ev):

   -36.8576 -36.2629   2.3028   5.3775   7.6159  10.9991  11.9817  14.2956
    16.8522

          k = 0.2727 0.4724 0.0000 (  3015 PWs)   bands (ev):

   -36.8558 -36.2607   2.0118   7.0236   8.1662   9.2539  11.5176  14.4236
    15.5900

          k = 0.2727 0.4724 0.0547 (  3020 PWs)   bands (ev):

   -36.8557 -36.2608   2.0217   7.0434   8.1551   9.0749  11.8051  13.9163
    16.2717

          k = 0.2727 0.4724 0.1093 (  3027 PWs)   bands (ev):

   -36.8556 -36.2610   2.0459   7.0994   8.0716   8.8114  12.3327  13.3409
    16.4123

          k = 0.2727 0.4724 0.1640 (  3025 PWs)   bands (ev):

   -36.8554 -36.2611   2.0707   7.1775   7.8870   8.7172  12.4586  13.2979
    16.7017

          k = 0.2727 0.4724-0.2186 (  3026 PWs)   bands (ev):

   -36.8554 -36.2612   2.0811   7.2244   7.7808   8.7099  12.3745  13.4226
    17.1057

          k = 0.2727 0.5774 0.0000 (  3041 PWs)   bands (ev):

   -36.8453 -36.2527   4.0801   4.9936   7.6754  10.6252  12.1013  12.9293
    14.3155

          k = 0.2727 0.5774 0.0547 (  3042 PWs)   bands (ev):

   -36.8452 -36.2527   4.0898   5.0140   7.7127  10.2133  12.0170  13.2718
    14.6039

          k = 0.2727 0.5774 0.1093 (  3038 PWs)   bands (ev):

   -36.8451 -36.2529   4.1133   5.0660   7.8175   9.5646  11.5558  14.3602
    14.8472

          k = 0.2727 0.5774 0.1640 (  3024 PWs)   bands (ev):

   -36.8450 -36.2531   4.1370   5.1223   7.9614   9.0552  11.1650  14.8253
    15.7399

          k = 0.2727 0.5774-0.2186 (  3010 PWs)   bands (ev):

   -36.8449 -36.2531   4.1468   5.1471   8.0488   8.8429  11.0195  14.8020
    16.8172

     the Fermi energy is     9.2577 ev

!    total energy              =     -37.10709013 Ry
     estimated scf accuracy    <          9.3E-10 Ry
     smearing contrib. (-TS)   =       0.00030864 Ry
     internal energy E=F+TS    =     -37.10739877 Ry

     The total energy is F=E-TS. E is the sum of the following terms:
     one-electron contribution =      -7.93847551 Ry
     hartree contribution      =       5.80493446 Ry
     xc contribution           =     -10.35444989 Ry
     ewald contribution        =     -24.61940783 Ry

     convergence has been achieved in   6 iterations

     Forces acting on atoms (cartesian axes, Ry/au):

     atom    1 type  1   force =    -0.00000000   -0.00000000    0.00000000
     atom    2 type  2   force =     0.00000000    0.00000000    0.06548325
     atom    3 type  2   force =     0.00000000    0.00000000   -0.06548325
     The non-local contrib.  to forces
     atom    1 type  1   force =     0.00000000    0.00000000    0.00000000
     atom    2 type  2   force =     0.00000000   -0.00000000   -0.07530720
     atom    3 type  2   force =    -0.00000000   -0.00000000    0.07530720
     The ionic contribution  to forces
     atom    1 type  1   force =    -0.00000000    0.00000000    0.00000000
     atom    2 type  2   force =     0.00000000   -0.00000000    0.21046620
     atom    3 type  2   force =     0.00000000   -0.00000000   -0.21046620
     The local contribution  to forces
     atom    1 type  1   force =     0.00000001   -0.00000001   -0.00000000
     atom    2 type  2   force =     0.00000000    0.00000000   -0.06963075
     atom    3 type  2   force =     0.00000000    0.00000000    0.06963075
     The core correction contribution to forces
     atom    1 type  1   force =     0.00000000   -0.00000000   -0.00000000
     atom    2 type  2   force =     0.00000000    0.00000000    0.00000000
     atom    3 type  2   force =     0.00000000    0.00000000    0.00000000
     The Hubbard contrib.    to forces
     atom    1 type  1   force =     0.00000000    0.00000000    0.00000000
     atom    2 type  2   force =     0.00000000    0.00000000    0.00000000
     atom    3 type  2   force =     0.00000000    0.00000000    0.00000000
     The SCF correction term to forces
     atom    1 type  1   force =     0.00000000   -0.00000000    0.00000000
     atom    2 type  2   force =     0.00000000   -0.00000000   -0.00004500
     atom    3 type  2   force =     0.00000000   -0.00000000    0.00004500

     Total force =     0.092607     Total SCF correction =     0.000064


     Computing stress (Cartesian axis) and pressure

          total   stress  (Ry/bohr**3)                   (kbar)     P=      538.94
   0.00348183   0.00000000   0.00000000          512.20        0.00        0.00
   0.00000000   0.00348183   0.00000000            0.00      512.20        0.00
   0.00000000   0.00000000   0.00402729            0.00        0.00      592.43


     BFGS Geometry Optimization
     Energy error            =      0.0E+00 Ry
     Gradient error          =      6.5E-02 Ry/Bohr
     Cell gradient error     =      9.2E+01 kbar

     number of scf cycles    =   1
     number of bfgs steps    =   0

     enthalpy           new  =     -36.5006050513 Ry

     new trust radius        =       0.0654832479 bohr
ibrav =      4
 celldm(1) =      4.49218521
 celldm(3) =      2.31815161
Input lattice vectors:
     1.00207256     0.00000000     0.00000000
    -0.50103628     0.86782029     0.00000000
     0.00000000     0.00000000     2.32295612
New lattice vectors in INITIAL alat:
     1.00207256     0.00000000     0.00000000
    -0.50103628     0.86782029     0.00000000
     0.00000000     0.00000000     2.32295612
New lattice vectors in NEW alat (for information only):
     1.00000000     0.00000000     0.00000000
    -0.50000000     0.86602540     0.00000000
     0.00000000     0.00000000     2.31815161
Discrepancy in bohr =     0.000000    0.000000    0.000000
     new conv_thr            =       0.0000000100 Ry

     new unit-cell volume =    181.98912 a.u.^3 (    26.96801 Ang^3 )
     density =      2.58412 g/cm^3

CELL_PARAMETERS (alat=  4.48289414)
   1.002072561   0.000000000   0.000000000
  -0.501036280   0.867820294   0.000000000
   0.000000000   0.000000000   2.322956117

ATOMIC_POSITIONS (crystal)
Si            0.6666666700        0.3333333300        0.5000000000
Li            0.0000000000        0.0000000000        0.1591755457
Li            0.0000000000        0.0000000000        0.8408244543



     Writing config-only to output data dir ./output/SiLi.save/
     NEW-OLD atomic charge density approx. for the potential
     extrapolated charge   10.19515, renormalised to   10.00000

     total cpu time spent up to now is        7.3 secs

     Self-consistent Calculation

     iteration #  1     ecut=   100.00 Ry     beta= 0.70
     Davidson diagonalization with overlap
     ethr =  1.00E-06,  avg # of iterations =  6.2

     total cpu time spent up to now is        8.4 secs

     total energy              =     -37.12495574 Ry
     estimated scf accuracy    <       0.00397742 Ry

     iteration #  2     ecut=   100.00 Ry     beta= 0.70
     Davidson diagonalization with overlap
     ethr =  3.98E-05,  avg # of iterations =  2.4

     total cpu time spent up to now is        9.1 secs

     total energy              =     -37.12538390 Ry
     estimated scf accuracy    <       0.01398768 Ry

     iteration #  3     ecut=   100.00 Ry     beta= 0.70
     Davidson diagonalization with overlap
     ethr =  3.98E-05,  avg # of iterations =  1.8

     total cpu time spent up to now is        9.6 secs

     total energy              =     -37.12763977 Ry
     estimated scf accuracy    <       0.00003868 Ry

     iteration #  4     ecut=   100.00 Ry     beta= 0.70
     Davidson diagonalization with overlap
     ethr =  3.87E-07,  avg # of iterations =  2.6

     total cpu time spent up to now is       10.2 secs

     total energy              =     -37.12763906 Ry
     estimated scf accuracy    <       0.00000879 Ry

     iteration #  5     ecut=   100.00 Ry     beta= 0.70
     Davidson diagonalization with overlap
     ethr =  8.79E-08,  avg # of iterations =  1.9

     total cpu time spent up to now is       10.7 secs

     total energy              =     -37.12763981 Ry
     estimated scf accuracy    <       0.00000025 Ry

     iteration #  6     ecut=   100.00 Ry     beta= 0.70
     Davidson diagonalization with overlap
     ethr =  2.49E-09,  avg # of iterations =  2.3

     total cpu time spent up to now is       11.3 secs

     End of self-consistent calculation

          k = 0.0000 0.0000 0.0000 (  2991 PWs)   bands (ev):

   -37.0638 -36.6113  -5.2893   3.0507   6.3667  14.1955  19.2932  23.7363
    23.7363

          k = 0.0000 0.0000 0.0538 (  2991 PWs)   bands (ev):

   -37.0636 -36.6115  -5.2877   3.0111   6.4829  13.7969  19.8957  23.7479
    23.7479

          k = 0.0000 0.0000 0.1076 (  3009 PWs)   bands (ev):

   -37.0631 -36.6120  -5.2837   2.9220   6.7757  12.9940  21.3289  23.7765
    23.7765

          k = 0.0000 0.0000 0.1614 (  3008 PWs)   bands (ev):

   -37.0626 -36.6125  -5.2797   2.8403   7.0967  12.2930  23.1505  23.8059
    23.8059

          k = 0.0000 0.0000-0.2152 (  3008 PWs)   bands (ev):

   -37.0624 -36.6127  -5.2780   2.8083   7.2425  12.0130  23.8182  23.8183
    25.3602

          k = 0.0000 0.1048 0.0000 (  3005 PWs)   bands (ev):

   -37.0485 -36.5990  -5.0169   3.2766   6.4930  14.3629  19.2222  20.5532
    22.0911

          k = 0.0000 0.1048 0.0538 (  2995 PWs)   bands (ev):

   -37.0483 -36.5992  -5.0152   3.2317   6.6191  13.9435  19.7854  20.6065
    22.1030

          k = 0.0000 0.1048 0.1076 (  3002 PWs)   bands (ev):

   -37.0478 -36.5997  -5.0109   3.1315   6.9365  13.1058  20.4284  21.3997
    22.1323

          k = 0.0000 0.1048 0.1614 (  2998 PWs)   bands (ev):

   -37.0474 -36.6001  -5.0066   3.0407   7.2857  12.3737  20.5002  22.1625
    23.0712

          k = 0.0000 0.1048-0.2152 (  2998 PWs)   bands (ev):

   -37.0472 -36.6003  -5.0048   3.0053   7.4454  12.0794  20.5151  22.1753
    24.8679

          k = 0.0000 0.2095 0.0000 (  3002 PWs)   bands (ev):

   -37.0073 -36.5659  -4.2038   3.9531   6.8595  14.5253  16.6580  18.9054
    20.3132

          k = 0.0000 0.2095 0.0538 (  3006 PWs)   bands (ev):

   -37.0071 -36.5661  -4.2016   3.8894   7.0181  14.1315  16.5184  19.5515
    20.3268

          k = 0.0000 0.2095 0.1076 (  3003 PWs)   bands (ev):

   -37.0068 -36.5665  -4.1963   3.7520   7.4146  13.2789  16.4012  20.3603
    20.7805

          k = 0.0000 0.2095 0.1614 (  3005 PWs)   bands (ev):

   -37.0064 -36.5669  -4.1910   3.6318   7.8560  12.4870  16.3658  20.3951
    21.7185

          k = 0.0000 0.2095-0.2152 (  3018 PWs)   bands (ev):

   -37.0062 -36.5671  -4.1888   3.5858   8.0639  12.1545  16.3594  20.4099
    21.9808

          k = 0.0000 0.3143 0.0000 (  3026 PWs)   bands (ev):

   -36.9532 -36.5225  -2.8622   5.0727   7.3578  11.8423  16.2668  17.5367
    18.9565

          k = 0.0000 0.3143 0.0538 (  3005 PWs)   bands (ev):

   -36.9531 -36.5227  -2.8591   4.9649   7.5803  11.7776  15.6340  17.9680
    18.9718

          k = 0.0000 0.3143 0.1076 (  3007 PWs)   bands (ev):

   -36.9528 -36.5230  -2.8514   4.7510   8.1222  11.5521  14.7576  18.3079
    19.0098

          k = 0.0000 0.3143 0.1614 (  3012 PWs)   bands (ev):

   -36.9525 -36.5233  -2.8437   4.5771   8.7589  11.1507  14.1805  18.3774
    19.0495

          k = 0.0000 0.3143-0.2152 (  2998 PWs)   bands (ev):

   -36.9523 -36.5234  -2.8405   4.5130   9.1107  10.8718  13.9945  18.3769
    19.0665

          k = 0.0000 0.4190 0.0000 (  3002 PWs)   bands (ev):

   -36.9032 -36.4825  -1.0162   6.5997   6.8651   9.5873  14.8036  16.5873
    18.0479

          k = 0.0000 0.4190 0.0538 (  3009 PWs)   bands (ev):

   -36.9031 -36.4826  -1.0111   6.3210   7.1156   9.7038  14.7199  16.4453
    18.0645

          k = 0.0000 0.4190 0.1076 (  3005 PWs)   bands (ev):

   -36.9029 -36.4828  -0.9987   5.9920   7.3744  10.0074  14.5158  16.0443
    18.1061

          k = 0.0000 0.4190 0.1614 (  3017 PWs)   bands (ev):

   -36.9027 -36.4831  -0.9861   5.7667   7.5285  10.3506  14.2899  15.6238
    18.1498

          k = 0.0000 0.4190-0.2152 (  3022 PWs)   bands (ev):

   -36.9026 -36.4832  -0.9808   5.6873   7.5786  10.5086  14.1815  15.4541
    18.1685

          k = 0.0000 0.5238 0.0000 (  3016 PWs)   bands (ev):

   -36.8734 -36.4586   1.2592   4.2117   8.2882   9.8511  12.2920  15.4764
    17.5928

          k = 0.0000 0.5238 0.0538 (  3028 PWs)   bands (ev):

   -36.8733 -36.4587   1.2676   4.2352   7.9140  10.3167  12.3349  15.5148
    17.6102

          k = 0.0000 0.5238 0.1076 (  3016 PWs)   bands (ev):

   -36.8731 -36.4589   1.2882   4.2975   7.3358  11.0471  12.6027  15.5809
    17.6537

          k = 0.0000 0.5238 0.1614 (  3019 PWs)   bands (ev):

   -36.8729 -36.4591   1.3090   4.3701   6.9089  11.4156  13.4017  15.4203
    16.8437

          k = 0.0000 0.5238-0.2152 (  3020 PWs)   bands (ev):

   -36.8729 -36.4592   1.3177   4.4041   6.7517  11.4873  14.4139  14.6655
    16.5284

          k = 0.0907 0.1571 0.0000 (  3003 PWs)   bands (ev):

   -37.0202 -36.5763  -4.4741   3.7280   6.7420  14.6265  17.8964  19.0689
    19.5761

          k = 0.0907 0.1571 0.0538 (  3003 PWs)   bands (ev):

   -37.0201 -36.5765  -4.4721   3.6711   6.8892  14.1787  17.8636  19.3517
    19.9590

          k = 0.0907 0.1571 0.1076 (  2999 PWs)   bands (ev):

   -37.0197 -36.5769  -4.4672   3.5470   7.2581  13.2868  17.8489  19.4587
    21.3028

          k = 0.0907 0.1571 0.1614 (  3004 PWs)   bands (ev):

   -37.0193 -36.5774  -4.4623   3.4369   7.6669  12.4987  17.8536  19.5088
    22.8869

          k = 0.0907 0.1571-0.2152 (  3008 PWs)   bands (ev):

   -37.0191 -36.5775  -4.4602   3.3945   7.8571  12.1758  17.8573  19.5278
    23.7048

          k = 0.0907 0.2619 0.0000 (  3005 PWs)   bands (ev):

   -36.9726 -36.5381  -3.3966   4.6279   7.2101  13.6759  15.4440  17.9695
    18.5408

          k = 0.0907 0.2619 0.0538 (  3008 PWs)   bands (ev):

   -36.9724 -36.5382  -3.3939   4.5409   7.4049  13.5406  15.1183  17.7124
    19.2731

          k = 0.0907 0.2619 0.1076 (  3007 PWs)   bands (ev):

   -36.9721 -36.5386  -3.3873   4.3610   7.8855  13.0361  14.6832  17.6230
    20.0104

          k = 0.0907 0.2619 0.1614 (  3001 PWs)   bands (ev):

   -36.9718 -36.5389  -3.3807   4.2098   8.4297  12.3331  14.5154  17.6373
    20.0417

          k = 0.0907 0.2619-0.2152 (  3002 PWs)   bands (ev):

   -36.9717 -36.5391  -3.3779   4.1531   8.6988  11.9864  14.4803  17.6532
    19.9773

          k = 0.0907 0.3666 0.0000 (  3003 PWs)   bands (ev):

   -36.9205 -36.4963  -1.8014   5.9615   7.5789  10.4338  15.0622  16.4351
    17.6376

          k = 0.0907 0.3666 0.0538 (  3006 PWs)   bands (ev):

   -36.9204 -36.4965  -1.7973   5.8022   7.8400  10.4184  14.8417  16.3787
    17.4978

          k = 0.0907 0.3666 0.1076 (  3011 PWs)   bands (ev):

   -36.9202 -36.4967  -1.7872   5.5192   8.4148  10.3514  14.2897  16.3587
    17.1876

          k = 0.0907 0.3666 0.1614 (  3015 PWs)   bands (ev):

   -36.9199 -36.4970  -1.7771   5.3056   9.0550  10.1776  13.7380  16.4460
    16.8692

          k = 0.0907 0.3666-0.2152 (  3016 PWs)   bands (ev):

   -36.9198 -36.4971  -1.7729   5.2289   9.4569   9.9670  13.5095  16.6101
    16.6254

          k = 0.0907 0.4714 0.0000 (  3023 PWs)   bands (ev):

   -36.8806 -36.4644   0.2753   5.8011   7.6455   9.7232  13.5965  14.2715
    16.8795

          k = 0.0907 0.4714 0.0538 (  3019 PWs)   bands (ev):

   -36.8805 -36.4645   0.2821   5.8252   7.4302  10.0150  13.5175  14.3886
    16.7452

          k = 0.0907 0.4714 0.1076 (  3021 PWs)   bands (ev):

   -36.8803 -36.4647   0.2986   5.8979   7.0172  10.6160  13.4247  14.5734
    16.4336

          k = 0.0907 0.4714 0.1614 (  3019 PWs)   bands (ev):

   -36.8801 -36.4649   0.3154   6.0166   6.6426  11.1555  13.4843  14.5522
    16.2314

          k = 0.0907 0.4714-0.2152 (  3016 PWs)   bands (ev):

   -36.8801 -36.4650   0.3225   6.1150   6.4527  11.3665  13.6201  14.3881
    16.2364

          k = 0.0907 0.5762 0.0000 (  3036 PWs)   bands (ev):

   -36.8657 -36.4524   2.3487   3.4219   8.8926  10.1194  11.9127  13.7496
    16.3125

          k = 0.0907 0.5762 0.0538 (  3028 PWs)   bands (ev):

   -36.8656 -36.4525   2.3564   3.4438   8.4087  10.7354  11.9087  13.8333
    16.2055

          k = 0.0907 0.5762 0.1076 (  3016 PWs)   bands (ev):

   -36.8654 -36.4527   2.3749   3.5005   7.7602  11.5085  12.1803  14.0742
    15.9257

          k = 0.0907 0.5762 0.1614 (  3005 PWs)   bands (ev):

   -36.8653 -36.4529   2.3932   3.5635   7.3100  11.5893  13.1522  14.4922
    15.5914

          k = 0.0907 0.5762-0.2152 (  3010 PWs)   bands (ev):

   -36.8652 -36.4530   2.4008   3.5919   7.1491  11.5774  13.6640  15.0130
    15.4200

          k = 0.1814 0.3143 0.0000 (  3015 PWs)   bands (ev):

   -36.9270 -36.5015  -2.0647   5.7478   7.7403  11.8399  13.1417  17.7396
    18.0530

          k = 0.1814 0.3143 0.0538 (  3001 PWs)   bands (ev):

   -36.9269 -36.5016  -2.0609   5.6096   8.0004  11.8422  13.0020  16.8944
    18.4940

          k = 0.1814 0.3143 0.1076 (  3013 PWs)   bands (ev):

   -36.9266 -36.5019  -2.0516   5.3508   8.6144  11.8217  12.5899  16.2349
    17.9166

          k = 0.1814 0.3143 0.1614 (  3014 PWs)   bands (ev):

   -36.9264 -36.5022  -2.0422   5.1491   9.3454  11.5859  12.1744  15.9359
    17.4793

          k = 0.1814 0.3143-0.2152 (  3006 PWs)   bands (ev):

   -36.9262 -36.5023  -2.0383   5.0759   9.7906  11.2354  12.0935  15.8647
    17.3175

          k = 0.1814 0.4190 0.0000 (  3007 PWs)   bands (ev):

   -36.8849 -36.4678  -0.2315   7.2846   7.5632   9.6028  11.9771  15.4676
    17.4296

          k = 0.1814 0.4190 0.0538 (  3013 PWs)   bands (ev):

   -36.8849 -36.4679  -0.2256   6.9804   7.8257   9.7452  11.9561  15.2927
    17.0244

          k = 0.1814 0.4190 0.1076 (  3011 PWs)   bands (ev):

   -36.8847 -36.4681  -0.2115   6.6238   8.0773  10.1363  11.8619  14.9534
    16.4514

          k = 0.1814 0.4190 0.1614 (  3018 PWs)   bands (ev):

   -36.8845 -36.4684  -0.1971   6.3809   8.2162  10.6633  11.6269  14.6891
    16.0334

          k = 0.1814 0.4190-0.2152 (  3006 PWs)   bands (ev):

   -36.8844 -36.4684  -0.1911   6.2956   8.2600  11.1118  11.2955  14.5960
    15.8831

          k = 0.1814 0.5238 0.0000 (  3029 PWs)   bands (ev):

   -36.8599 -36.4478   2.0297   4.9622   9.0205   9.8312  11.5327  12.8463
    15.7573

          k = 0.1814 0.5238 0.0538 (  3023 PWs)   bands (ev):

   -36.8598 -36.4478   2.0384   4.9845   8.6275  10.1371  11.6702  12.8961
    15.6537

          k = 0.1814 0.5238 0.1076 (  3020 PWs)   bands (ev):

   -36.8597 -36.4480   2.0597   5.0430   8.0711  10.4684  11.8613  13.2271
    15.4964

          k = 0.1814 0.5238 0.1614 (  3018 PWs)   bands (ev):

   -36.8595 -36.4482   2.0814   5.1102   7.6667  10.6605  11.8623  13.7976
    15.6469

          k = 0.1814 0.5238-0.2152 (  3020 PWs)   bands (ev):

   -36.8594 -36.4483   2.0905   5.1414   7.5184  10.7280  11.8317  14.0306
    16.3858

          k = 0.2722 0.4714 0.0000 (  3015 PWs)   bands (ev):

   -36.8578 -36.4461   1.8109   6.8216   7.9658   8.9790  11.3849  14.1107
    15.5123

          k = 0.2722 0.4714 0.0538 (  3020 PWs)   bands (ev):

   -36.8577 -36.4461   1.8191   6.8400   7.9608   8.8173  11.6464  13.6881
    16.0799

          k = 0.2722 0.4714 0.1076 (  3027 PWs)   bands (ev):

   -36.8575 -36.4463   1.8393   6.8914   7.9046   8.5583  12.1505  13.1581
    16.1068

          k = 0.2722 0.4714 0.1614 (  3025 PWs)   bands (ev):

   -36.8574 -36.4465   1.8599   6.9597   7.7579   8.4478  12.3248  13.0824
    16.3399

          k = 0.2722 0.4714-0.2152 (  3026 PWs)   bands (ev):

   -36.8573 -36.4466   1.8685   6.9977   7.6702   8.4336  12.2623  13.1954
    16.6483

          k = 0.2722 0.5762 0.0000 (  3041 PWs)   bands (ev):

   -36.8476 -36.4379   3.8783   4.7841   7.4644  10.3191  12.0467  12.6383
    14.2120

          k = 0.2722 0.5762 0.0538 (  3042 PWs)   bands (ev):

   -36.8476 -36.4380   3.8865   4.8017   7.4979   9.9730  11.8732  13.0511
    14.4505

          k = 0.2722 0.5762 0.1076 (  3038 PWs)   bands (ev):

   -36.8474 -36.4382   3.9064   4.8463   7.5909   9.3908  11.4209  14.1161
    14.6511

          k = 0.2722 0.5762 0.1614 (  3024 PWs)   bands (ev):

   -36.8473 -36.4383   3.9263   4.8941   7.7132   8.9290  11.0570  14.6218
    15.4589

          k = 0.2722 0.5762-0.2152 (  3010 PWs)   bands (ev):

   -36.8472 -36.4384   3.9346   4.9150   7.7815   8.7434  10.9227  14.5995
    16.5655

     the Fermi energy is     8.9916 ev

!    total energy              =     -37.12763988 Ry
     estimated scf accuracy    <          6.6E-09 Ry
     smearing contrib. (-TS)   =       0.00029598 Ry
     internal energy E=F+TS    =     -37.12793586 Ry

     The total energy is F=E-TS. E is the sum of the following terms:
     one-electron contribution =      -8.15528967 Ry
     hartree contribution      =       5.84405907 Ry
     xc contribution           =     -10.34035546 Ry
     ewald contribution        =     -24.47634980 Ry

     convergence has been achieved in   6 iterations

     Forces acting on atoms (cartesian axes, Ry/au):

     atom    1 type  1   force =     0.00000000    0.00000000    0.00000000
     atom    2 type  2   force =    -0.00000000   -0.00000000    0.04305966
     atom    3 type  2   force =     0.00000000    0.00000000   -0.04305966
     The non-local contrib.  to forces
     atom    1 type  1   force =    -0.00000000    0.00000000    0.00000000
     atom    2 type  2   force =     0.00000000   -0.00000000   -0.05425272
     atom    3 type  2   force =    -0.00000000   -0.00000000    0.05425272
     The ionic contribution  to forces
     atom    1 type  1   force =    -0.00000000    0.00000000    0.00000000
     atom    2 type  2   force =     0.00000000   -0.00000000   -0.12688238
     atom    3 type  2   force =     0.00000000   -0.00000000    0.12688238
     The local contribution  to forces
     atom    1 type  1   force =     0.00000001   -0.00000001   -0.00000000
     atom    2 type  2   force =     0.00000000    0.00000000    0.22419191
     atom    3 type  2   force =     0.00000000    0.00000000   -0.22419191
     The core correction contribution to forces
     atom    1 type  1   force =     0.00000000   -0.00000000   -0.00000000
     atom    2 type  2   force =     0.00000000    0.00000000    0.00000000
     atom    3 type  2   force =     0.00000000    0.00000000    0.00000000
     The Hubbard contrib.    to forces
     atom    1 type  1   force =     0.00000000    0.00000000    0.00000000
     atom    2 type  2   force =     0.00000000    0.00000000    0.00000000
     atom    3 type  2   force =     0.00000000    0.00000000    0.00000000
     The SCF correction term to forces
     atom    1 type  1   force =     0.00000000   -0.00000000    0.00000000
     atom    2 type  2   force =     0.00000000   -0.00000000    0.00000285
     atom    3 type  2   force =     0.00000000   -0.00000000   -0.00000285

     Total force =     0.060896     Total SCF correction =     0.000004


     Computing stress (Cartesian axis) and pressure

          total   stress  (Ry/bohr**3)                   (kbar)     P=      510.50
   0.00334589  -0.00000000   0.00000000          492.20       -0.00        0.00
  -0.00000000   0.00334589   0.00000000           -0.00      492.20        0.00
   0.00000000   0.00000000   0.00371923            0.00        0.00      547.12

     Energy error            =      8.5E-03 Ry
     Gradient error          =      4.3E-02 Ry/Bohr
     Cell gradient error     =      4.7E+01 kbar

     number of scf cycles    =   2
     number of bfgs steps    =   1

     enthalpy           old  =     -36.5006050513 Ry
     enthalpy           new  =     -36.5090714295 Ry

     CASE: enthalpy          _new < enthalpy          _old

     new trust radius        =       0.0731631172 bohr
ibrav =      4
 celldm(1) =      4.48325469
 celldm(3) =      2.35352625
Input lattice vectors:
     1.00008043    -0.00000000     0.00000000
    -0.50004021     0.86609506    -0.00000000
     0.00000000    -0.00000000     2.35371554
New lattice vectors in INITIAL alat:
     1.00008043     0.00000000     0.00000000
    -0.50004021     0.86609506     0.00000000
     0.00000000     0.00000000     2.35371554
New lattice vectors in NEW alat (for information only):
     1.00000000     0.00000000     0.00000000
    -0.50000000     0.86602540     0.00000000
     0.00000000     0.00000000     2.35352625
Discrepancy in bohr =     0.000000    0.000000    0.000000
     new conv_thr            =       0.0000000043 Ry

     new unit-cell volume =    183.66648 a.u.^3 (    27.21657 Ang^3 )
     density =      2.56052 g/cm^3

CELL_PARAMETERS (alat=  4.48289414)
   1.000080428   0.000000000   0.000000000
  -0.500040214   0.866095057   0.000000000
   0.000000000   0.000000000   2.353715545

ATOMIC_POSITIONS (crystal)
Si            0.6666666700        0.3333333300        0.5000000000
Li           -0.0000000000       -0.0000000000        0.1662012961
Li            0.0000000000        0.0000000000        0.8337987039



     Writing config-only to output data dir ./output/SiLi.save/
     NEW-OLD atomic charge density approx. for the potential
     extrapolated charge   10.09124, renormalised to   10.00000

     total cpu time spent up to now is       12.5 secs

     Self-consistent Calculation

     iteration #  1     ecut=   100.00 Ry     beta= 0.70
     Davidson diagonalization with overlap
     ethr =  1.00E-06,  avg # of iterations =  6.5

     total cpu time spent up to now is       13.6 secs

     total energy              =     -37.13603681 Ry
     estimated scf accuracy    <       0.00431207 Ry

     iteration #  2     ecut=   100.00 Ry     beta= 0.70
     Davidson diagonalization with overlap
     ethr =  4.31E-05,  avg # of iterations =  2.4

     total cpu time spent up to now is       14.2 secs

     total energy              =     -37.13604639 Ry
     estimated scf accuracy    <       0.01461733 Ry

     iteration #  3     ecut=   100.00 Ry     beta= 0.70
     Davidson diagonalization with overlap
     ethr =  4.31E-05,  avg # of iterations =  1.9

     total cpu time spent up to now is       14.7 secs

     total energy              =     -37.13853465 Ry
     estimated scf accuracy    <       0.00001520 Ry

     iteration #  4     ecut=   100.00 Ry     beta= 0.70
     Davidson diagonalization with overlap
     ethr =  1.52E-07,  avg # of iterations =  2.8

     total cpu time spent up to now is       15.3 secs

     total energy              =     -37.13853831 Ry
     estimated scf accuracy    <       0.00000177 Ry

     iteration #  5     ecut=   100.00 Ry     beta= 0.70
     Davidson diagonalization with overlap
     ethr =  1.77E-08,  avg # of iterations =  1.3

     total cpu time spent up to now is       15.8 secs

     total energy              =     -37.13853859 Ry
     estimated scf accuracy    <       0.00000003 Ry

     iteration #  6     ecut=   100.00 Ry     beta= 0.70
     Davidson diagonalization with overlap
     ethr =  3.05E-10,  avg # of iterations =  2.5

     total cpu time spent up to now is       16.4 secs

     End of self-consistent calculation

          k = 0.0000 0.0000 0.0000 (  2991 PWs)   bands (ev):

   -37.0094 -36.6965  -5.4390   2.9312   6.1214  14.0069  18.6840  23.6654
    23.6654

          k = 0.0000 0.0000 0.0531 (  2991 PWs)   bands (ev):

   -37.0092 -36.6968  -5.4378   2.8966   6.2262  13.6013  19.2961  23.6748
    23.6748

          k = 0.0000 0.0000 0.1062 (  3009 PWs)   bands (ev):

   -37.0087 -36.6973  -5.4349   2.8184   6.4899  12.8052  20.7287  23.6980
    23.6980

          k = 0.0000 0.0000 0.1593 (  3008 PWs)   bands (ev):

   -37.0082 -36.6979  -5.4320   2.7464   6.7765  12.1270  22.5218  23.7216
    23.7216

          k = 0.0000 0.0000-0.2124 (  3008 PWs)   bands (ev):

   -37.0079 -36.6981  -5.4308   2.7181   6.9052  11.8607  23.7315  23.7315
    25.1500

          k = 0.0000 0.1050 0.0000 (  3005 PWs)   bands (ev):

   -36.9941 -36.6837  -5.1658   3.1556   6.2641  14.1637  18.6212  20.4820
    22.0365

          k = 0.0000 0.1050 0.0531 (  2995 PWs)   bands (ev):

   -36.9939 -36.6839  -5.1645   3.1163   6.3784  13.7362  19.2166  20.5149
    22.0464

          k = 0.0000 0.1050 0.1062 (  3002 PWs)   bands (ev):

   -36.9934 -36.6845  -5.1614   3.0282   6.6655  12.9052  20.2310  20.9439
    22.0706

          k = 0.0000 0.1050 0.1593 (  2998 PWs)   bands (ev):

   -36.9929 -36.6850  -5.1583   2.9478   6.9789  12.1970  20.3991  22.0954
    22.5291

          k = 0.0000 0.1050-0.2124 (  2998 PWs)   bands (ev):

   -36.9927 -36.6852  -5.1570   2.9164   7.1207  11.9171  20.4200  22.1059
    23.9126

          k = 0.0000 0.2099 0.0000 (  3002 PWs)   bands (ev):

   -36.9528 -36.6492  -4.3503   3.8273   6.6783  14.3114  16.5590  18.3499
    20.2587

          k = 0.0000 0.2099 0.0531 (  3006 PWs)   bands (ev):

   -36.9527 -36.6494  -4.3487   3.7715   6.8232  13.9020  16.4158  19.0334
    20.2700

          k = 0.0000 0.2099 0.1062 (  3003 PWs)   bands (ev):

   -36.9522 -36.6499  -4.3447   3.6500   7.1861  13.0497  16.3056  20.2979
    20.3412

          k = 0.0000 0.2099 0.1593 (  3005 PWs)   bands (ev):

   -36.9518 -36.6503  -4.3408   3.5428   7.5882  12.2820  16.2730  20.3268
    21.4890

          k = 0.0000 0.2099-0.2124 (  3018 PWs)   bands (ev):

   -36.9516 -36.6505  -4.3391   3.5017   7.7755  11.9659  16.2670  20.3390
    21.9022

          k = 0.0000 0.3149 0.0000 (  3026 PWs)   bands (ev):

   -36.8986 -36.6039  -3.0049   4.9379   7.2509  11.7075  16.0335  17.1778
    18.9006

          k = 0.0000 0.3149 0.0531 (  3005 PWs)   bands (ev):

   -36.8984 -36.6040  -3.0025   4.8440   7.4552  11.6355  15.3866  17.6856
    18.9135

          k = 0.0000 0.3149 0.1062 (  3007 PWs)   bands (ev):

   -36.8981 -36.6044  -2.9966   4.6545   7.9595  11.3920  14.5419  18.1298
    18.9453

          k = 0.0000 0.3149 0.1593 (  3012 PWs)   bands (ev):

   -36.8978 -36.6048  -2.9906   4.4985   8.5548  10.9803  14.0042  18.2624
    18.9782

          k = 0.0000 0.3149-0.2124 (  2998 PWs)   bands (ev):

   -36.8976 -36.6049  -2.9881   4.4405   8.8799  10.7088  13.8336  18.2804
    18.9923

          k = 0.0000 0.4199 0.0000 (  3002 PWs)   bands (ev):

   -36.8485 -36.5621  -1.1536   6.4484   6.7909   9.5144  14.6103  16.3413
    17.9910

          k = 0.0000 0.4199 0.0531 (  3009 PWs)   bands (ev):

   -36.8484 -36.5622  -1.1495   6.2166   7.0011   9.6201  14.5297  16.1918
    18.0050

          k = 0.0000 0.4199 0.1062 (  3005 PWs)   bands (ev):

   -36.8481 -36.5624  -1.1394   5.9185   7.2444   9.8974  14.3207  15.8086
    18.0399

          k = 0.0000 0.4199 0.1593 (  3017 PWs)   bands (ev):

   -36.8479 -36.5627  -1.1293   5.7122   7.3938  10.2142  14.0699  15.4403
    18.0762

          k = 0.0000 0.4199-0.2124 (  3022 PWs)   bands (ev):

   -36.8478 -36.5628  -1.1251   5.6393   7.4429  10.3613  13.9452  15.2998
    18.0918

          k = 0.0000 0.5248 0.0000 (  3016 PWs)   bands (ev):

   -36.8186 -36.5371   1.1272   4.1037   8.1027   9.9092  12.1689  15.2431
    17.5354

          k = 0.0000 0.5248 0.0531 (  3028 PWs)   bands (ev):

   -36.8185 -36.5372   1.1343   4.1246   7.7909  10.3142  12.2118  15.2719
    17.5501

          k = 0.0000 0.5248 0.1062 (  3016 PWs)   bands (ev):

   -36.8183 -36.5374   1.1514   4.1793   7.2750  10.9963  12.4671  15.3111
    17.5867

          k = 0.0000 0.5248 0.1593 (  3019 PWs)   bands (ev):

   -36.8181 -36.5377   1.1687   4.2418   6.8861  11.3575  13.2250  15.1270
    16.6583

          k = 0.0000 0.5248-0.2124 (  3020 PWs)   bands (ev):

   -36.8180 -36.5377   1.1759   4.2705   6.7428  11.4306  14.2128  14.3880
    16.3331

          k = 0.0909 0.1574 0.0000 (  3003 PWs)   bands (ev):

   -36.9658 -36.6600  -4.6215   3.6039   6.5449  14.4086  17.8036  18.4888
    19.5382

          k = 0.0909 0.1574 0.0531 (  3003 PWs)   bands (ev):

   -36.9656 -36.6602  -4.6200   3.5540   6.6791  13.9503  17.7639  19.0091
    19.7063

          k = 0.0909 0.1574 0.1062 (  2999 PWs)   bands (ev):

   -36.9652 -36.6607  -4.6163   3.4443   7.0156  13.0646  17.7518  19.3590
    20.8232

          k = 0.0909 0.1574 0.1593 (  3004 PWs)   bands (ev):

   -36.9647 -36.6612  -4.6127   3.3464   7.3861  12.3019  17.7569  19.4325
    22.4458

          k = 0.0909 0.1574-0.2124 (  3008 PWs)   bands (ev):

   -36.9645 -36.6614  -4.6111   3.3087   7.5567  11.9950  17.7604  19.4538
    23.6415

          k = 0.0909 0.2624 0.0000 (  3005 PWs)   bands (ev):

   -36.9180 -36.6201  -3.5408   4.4970   7.0724  13.5299  15.2601  17.9037
    18.0508

          k = 0.0909 0.2624 0.0531 (  3008 PWs)   bands (ev):

   -36.9179 -36.6203  -3.5388   4.4209   7.2511  13.3704  14.9397  17.5913
    18.8926

          k = 0.0909 0.2624 0.1062 (  3007 PWs)   bands (ev):

   -36.9175 -36.6207  -3.5337   4.2616   7.6950  12.8223  14.5489  17.5299
    19.7910

          k = 0.0909 0.2624 0.1593 (  3001 PWs)   bands (ev):

   -36.9171 -36.6211  -3.5287   4.1262   8.1978  12.1211  14.4037  17.5494
    19.9853

          k = 0.0909 0.2624-0.2124 (  3002 PWs)   bands (ev):

   -36.9170 -36.6212  -3.5266   4.0753   8.4439  11.7882  14.3726  17.5646
    19.9561

          k = 0.0909 0.3674 0.0000 (  3003 PWs)   bands (ev):

   -36.8658 -36.5765  -1.9411   5.8187   7.5129  10.3144  14.9267  16.1843
    17.4477

          k = 0.0909 0.3674 0.0531 (  3006 PWs)   bands (ev):

   -36.8657 -36.5767  -1.9378   5.6820   7.7499  10.2936  14.6729  16.1799
    17.3225

          k = 0.0909 0.3674 0.1062 (  3011 PWs)   bands (ev):

   -36.8654 -36.5770  -1.9298   5.4311   8.2891  10.2107  14.0914  16.2242
    17.0465

          k = 0.0909 0.3674 0.1593 (  3015 PWs)   bands (ev):

   -36.8652 -36.5773  -1.9218   5.2380   8.9075  10.0129  13.5447  16.3377
    16.7582

          k = 0.0909 0.3674-0.2124 (  3016 PWs)   bands (ev):

   -36.8650 -36.5774  -1.9185   5.1683   9.3147   9.7771  13.3241  16.4830
    16.5505

          k = 0.0909 0.4723 0.0000 (  3023 PWs)   bands (ev):

   -36.8258 -36.5431   0.1415   5.7039   7.4804   9.7230  13.4407  14.1938
    16.6492

          k = 0.0909 0.4723 0.0531 (  3019 PWs)   bands (ev):

   -36.8258 -36.5432   0.1471   5.7272   7.2951   9.9837  13.3768  14.2903
    16.5128

          k = 0.0909 0.4723 0.1062 (  3021 PWs)   bands (ev):

   -36.8255 -36.5435   0.1607   5.7965   6.9251  10.5431  13.2938  14.4393
    16.2080

          k = 0.0909 0.4723 0.1593 (  3019 PWs)   bands (ev):

   -36.8253 -36.5437   0.1744   5.9040   6.5855  11.0660  13.3319  14.3866
    16.0263

          k = 0.0909 0.4723-0.2124 (  3016 PWs)   bands (ev):

   -36.8252 -36.5438   0.1802   5.9814   6.4243  11.2782  13.4356  14.2255
    16.0344

          k = 0.0909 0.5773 0.0000 (  3036 PWs)   bands (ev):

   -36.8109 -36.5307   2.2132   3.3158   8.6920  10.1972  11.8049  13.6619
    16.0670

          k = 0.0909 0.5773 0.0531 (  3028 PWs)   bands (ev):

   -36.8108 -36.5308   2.2197   3.3349   8.2956  10.7258  11.8046  13.7411
    15.9617

          k = 0.0909 0.5773 0.1062 (  3016 PWs)   bands (ev):

   -36.8106 -36.5310   2.2354   3.3838   7.7125  11.4484  12.0664  13.9727
    15.6874

          k = 0.0909 0.5773 0.1593 (  3005 PWs)   bands (ev):

   -36.8104 -36.5312   2.2508   3.4373   7.2988  11.5295  12.9983  14.3844
    15.3604

          k = 0.0909 0.5773-0.2124 (  3010 PWs)   bands (ev):

   -36.8103 -36.5313   2.2572   3.4611   7.1508  11.5210  13.4943  14.9029
    15.1997

          k = 0.1818 0.3149 0.0000 (  3015 PWs)   bands (ev):

   -36.8723 -36.5819  -2.2051   5.6078   7.6622  11.7382  12.9961  17.5460
    17.6709

          k = 0.1818 0.3149 0.0531 (  3001 PWs)   bands (ev):

   -36.8722 -36.5821  -2.2021   5.4885   7.9000  11.7370  12.8439  16.6611
    18.3837

          k = 0.1818 0.3149 0.1062 (  3013 PWs)   bands (ev):

   -36.8719 -36.5824  -2.1948   5.2592   8.4736  11.7001  12.4176  16.0504
    17.8889

          k = 0.1818 0.3149 0.1593 (  3014 PWs)   bands (ev):

   -36.8716 -36.5827  -2.1874   5.0774   9.1652  11.4121  12.0437  15.7789
    17.4945

          k = 0.1818 0.3149-0.2124 (  3006 PWs)   bands (ev):

   -36.8715 -36.5828  -2.1844   5.0110   9.5844  11.0557  11.9787  15.7132
    17.3488

          k = 0.1818 0.4199 0.0000 (  3007 PWs)   bands (ev):

   -36.8302 -36.5468  -0.3666   7.1299   7.4929   9.5368  11.8941  15.2854
    17.3730

          k = 0.1818 0.4199 0.0531 (  3013 PWs)   bands (ev):

   -36.8301 -36.5469  -0.3619   6.8778   7.7110   9.6684  11.8659  15.1487
    16.8506

          k = 0.1818 0.4199 0.1062 (  3011 PWs)   bands (ev):

   -36.8299 -36.5471  -0.3504   6.5548   7.9476  10.0337  11.7527  14.8748
    16.2341

          k = 0.1818 0.4199 0.1593 (  3018 PWs)   bands (ev):

   -36.8297 -36.5473  -0.3388   6.3322   8.0826  10.5365  11.4968  14.6598
    15.8026

          k = 0.1818 0.4199-0.2124 (  3006 PWs)   bands (ev):

   -36.8296 -36.5474  -0.3339   6.2537   8.1255  10.9775  11.1544  14.5852
    15.6479

          k = 0.1818 0.5248 0.0000 (  3029 PWs)   bands (ev):

   -36.8051 -36.5258   1.8996   4.8540   8.8384   9.8056  11.5455  12.7048
    15.6904

          k = 0.1818 0.5248 0.0531 (  3023 PWs)   bands (ev):

   -36.8050 -36.5259   1.9069   4.8737   8.5141  10.0524  11.6697  12.7651
    15.5719

          k = 0.1818 0.5248 0.1062 (  3020 PWs)   bands (ev):

   -36.8048 -36.5261   1.9247   4.9249   8.0152  10.3549  11.8322  13.1103
    15.3889

          k = 0.1818 0.5248 0.1593 (  3018 PWs)   bands (ev):

   -36.8046 -36.5263   1.9427   4.9826   7.6461  10.5376  11.8303  13.6775
    15.4988

          k = 0.1818 0.5248-0.2124 (  3020 PWs)   bands (ev):

   -36.8046 -36.5264   1.9502   5.0089   7.5108  10.6013  11.8041  13.9134
    16.0881

          k = 0.2727 0.4723 0.0000 (  3015 PWs)   bands (ev):

   -36.8030 -36.5240   1.6810   6.7080   7.8974   8.8084  11.4137  13.9252
    15.6230

          k = 0.2727 0.4723 0.0531 (  3020 PWs)   bands (ev):

   -36.8029 -36.5241   1.6879   6.7250   7.8941   8.6701  11.6470  13.5813
    15.9400

          k = 0.2727 0.4723 0.1062 (  3027 PWs)   bands (ev):

   -36.8027 -36.5243   1.7046   6.7719   7.8496   8.4364  12.1175  13.1031
    15.9403

          k = 0.2727 0.4723 0.1593 (  3025 PWs)   bands (ev):

   -36.8025 -36.5245   1.7216   6.8315   7.7267   8.3277  12.3208  13.0043
    16.1258

          k = 0.2727 0.4723-0.2124 (  3026 PWs)   bands (ev):

   -36.8024 -36.5246   1.7287   6.8626   7.6524   8.3114  12.2764  13.1032
    16.3599

          k = 0.2727 0.5773 0.0000 (  3041 PWs)   bands (ev):

   -36.7928 -36.5155   3.7469   4.6718   7.3817  10.1326  12.1466  12.4551
    14.2916

          k = 0.2727 0.5773 0.0531 (  3042 PWs)   bands (ev):

   -36.7927 -36.5156   3.7539   4.6869   7.4123   9.8442  11.8467  12.9826
    14.4712

          k = 0.2727 0.5773 0.1062 (  3038 PWs)   bands (ev):

   -36.7926 -36.5158   3.7707   4.7250   7.4960   9.3274  11.4007  14.0290
    14.6090

          k = 0.2727 0.5773 0.1593 (  3024 PWs)   bands (ev):

   -36.7924 -36.5160   3.7875   4.7653   7.6026   8.9097  11.0611  14.5562
    15.3462

          k = 0.2727 0.5773-0.2124 (  3010 PWs)   bands (ev):

   -36.7923 -36.5160   3.7945   4.7828   7.6590   8.7445  10.9367  14.5335
    16.5042

     the Fermi energy is     8.8521 ev

!    total energy              =     -37.13853860 Ry
     estimated scf accuracy    <          3.0E-09 Ry
     smearing contrib. (-TS)   =       0.00028479 Ry
     internal energy E=F+TS    =     -37.13882338 Ry

     The total energy is F=E-TS. E is the sum of the following terms:
     one-electron contribution =      -8.33862372 Ry
     hartree contribution      =       5.90654885 Ry
     xc contribution           =     -10.34106768 Ry
     ewald contribution        =     -24.36568084 Ry

     convergence has been achieved in   6 iterations

     Forces acting on atoms (cartesian axes, Ry/au):

     atom    1 type  1   force =     0.00000000    0.00000000    0.00000000
     atom    2 type  2   force =     0.00000000    0.00000000    0.01986227
     atom    3 type  2   force =    -0.00000000    0.00000000   -0.01986227
     The non-local contrib.  to forces
     atom    1 type  1   force =     0.00000000   -0.00000000    0.00000000
     atom    2 type  2   force =     0.00000000   -0.00000000   -0.03928714
     atom    3 type  2   force =     0.00000000    0.00000000    0.03928714
     The ionic contribution  to forces
     atom    1 type  1   force =    -0.00000000    0.00000000    0.00000000
     atom    2 type  2   force =     0.00000000   -0.00000000   -0.48169235
     atom    3 type  2   force =     0.00000000   -0.00000000    0.48169235
     The local contribution  to forces
     atom    1 type  1   force =     0.00000001   -0.00000001   -0.00000000
     atom    2 type  2   force =     0.00000000    0.00000000    0.54077588
     atom    3 type  2   force =     0.00000000    0.00000000   -0.54077588
     The core correction contribution to forces
     atom    1 type  1   force =     0.00000000   -0.00000000   -0.00000000
     atom    2 type  2   force =     0.00000000    0.00000000    0.00000000
     atom    3 type  2   force =     0.00000000    0.00000000    0.00000000
     The Hubbard contrib.    to forces
     atom    1 type  1   force =     0.00000000    0.00000000    0.00000000
     atom    2 type  2   force =     0.00000000    0.00000000    0.00000000
     atom    3 type  2   force =     0.00000000    0.00000000    0.00000000
     The SCF correction term to forces
     atom    1 type  1   force =     0.00000000   -0.00000000   -0.00000000
     atom    2 type  2   force =    -0.00000000    0.00000000    0.00006588
     atom    3 type  2   force =    -0.00000000    0.00000000   -0.00006588

     Total force =     0.028089     Total SCF correction =     0.000093


     Computing stress (Cartesian axis) and pressure

          total   stress  (Ry/bohr**3)                   (kbar)     P=      507.27
   0.00339462  -0.00000000   0.00000000          499.37       -0.00        0.00
  -0.00000000   0.00339462   0.00000000           -0.00      499.37        0.00
   0.00000000   0.00000000   0.00355583            0.00        0.00      523.08

     Energy error            =      5.2E-03 Ry
     Gradient error          =      2.0E-02 Ry/Bohr
     Cell gradient error     =      2.3E+01 kbar

     number of scf cycles    =   3
     number of bfgs steps    =   2

     enthalpy           old  =     -36.5090714295 Ry
     enthalpy           new  =     -36.5142689021 Ry

     CASE: enthalpy          _new < enthalpy          _old

     new trust radius        =       0.0652579272 bohr
ibrav =      4
 celldm(1) =      4.47958172
 celldm(3) =      2.38317678
Input lattice vectors:
     0.99926110    -0.00000000     0.00000000
    -0.49963055     0.86538550     0.00000000
     0.00000000     0.00000000     2.38141584
New lattice vectors in INITIAL alat:
     0.99926110     0.00000000     0.00000000
    -0.49963055     0.86538550     0.00000000
     0.00000000     0.00000000     2.38141584
New lattice vectors in NEW alat (for information only):
     1.00000000     0.00000000     0.00000000
    -0.50000000     0.86602540     0.00000000
     0.00000000     0.00000000     2.38317678
Discrepancy in bohr =     0.000000    0.000000    0.000000
     new conv_thr            =       0.0000000020 Ry

     new unit-cell volume =    185.52365 a.u.^3 (    27.49177 Ang^3 )
     density =      2.53489 g/cm^3

CELL_PARAMETERS (alat=  4.48289414)
   0.999261098   0.000000000   0.000000000
  -0.499630549   0.865385496   0.000000000
   0.000000000   0.000000000   2.381415843

ATOMIC_POSITIONS (crystal)
Si            0.6666666700        0.3333333300        0.5000000000
Li           -0.0000000000       -0.0000000000        0.1723860271
Li            0.0000000000        0.0000000000        0.8276139729



     Writing config-only to output data dir ./output/SiLi.save/
     NEW-OLD atomic charge density approx. for the potential
     extrapolated charge   10.10001, renormalised to   10.00000

     total cpu time spent up to now is       17.5 secs

     Self-consistent Calculation

     iteration #  1     ecut=   100.00 Ry     beta= 0.70
     Davidson diagonalization with overlap
     ethr =  1.00E-06,  avg # of iterations =  5.8

     total cpu time spent up to now is       18.5 secs

     total energy              =     -37.14488122 Ry
     estimated scf accuracy    <       0.00276552 Ry

     iteration #  2     ecut=   100.00 Ry     beta= 0.70
     Davidson diagonalization with overlap
     ethr =  2.77E-05,  avg # of iterations =  2.4

     total cpu time spent up to now is       19.2 secs

     total energy              =     -37.14490441 Ry
     estimated scf accuracy    <       0.00812588 Ry

     iteration #  3     ecut=   100.00 Ry     beta= 0.70
     Davidson diagonalization with overlap
     ethr =  2.77E-05,  avg # of iterations =  1.8

     total cpu time spent up to now is       19.7 secs

     total energy              =     -37.14639655 Ry
     estimated scf accuracy    <       0.00004358 Ry

     iteration #  4     ecut=   100.00 Ry     beta= 0.70
     Davidson diagonalization with overlap
     ethr =  4.36E-07,  avg # of iterations =  1.8

     total cpu time spent up to now is       20.2 secs

     total energy              =     -37.14640091 Ry
     estimated scf accuracy    <       0.00000293 Ry

     iteration #  5     ecut=   100.00 Ry     beta= 0.70
     Davidson diagonalization with overlap
     ethr =  2.93E-08,  avg # of iterations =  1.5

     total cpu time spent up to now is       20.6 secs

     total energy              =     -37.14640134 Ry
     estimated scf accuracy    <       0.00000004 Ry

     iteration #  6     ecut=   100.00 Ry     beta= 0.70
     Davidson diagonalization with overlap
     ethr =  3.78E-10,  avg # of iterations =  3.0

     total cpu time spent up to now is       21.2 secs

     total energy              =     -37.14640136 Ry
     estimated scf accuracy    <          4.8E-09 Ry

     iteration #  7     ecut=   100.00 Ry     beta= 0.70
     Davidson diagonalization with overlap
     ethr =  4.76E-11,  avg # of iterations =  1.6

     total cpu time spent up to now is       21.7 secs

     End of self-consistent calculation

          k = 0.0000 0.0000 0.0000 (  2991 PWs)   bands (ev):

   -37.0286 -36.8040  -5.5752   2.8177   5.9103  13.8534  18.0977  23.5534
    23.5534

          k = 0.0000 0.0000 0.0525 (  2991 PWs)   bands (ev):

   -37.0284 -36.8043  -5.5743   2.7864   6.0076  13.4323  18.7238  23.5614
    23.5614

          k = 0.0000 0.0000 0.1050 (  3009 PWs)   bands (ev):

   -37.0278 -36.8049  -5.5721   2.7155   6.2519  12.6301  20.1551  23.5808
    23.5808

          k = 0.0000 0.0000 0.1575 (  3008 PWs)   bands (ev):

   -37.0272 -36.8055  -5.5700   2.6500   6.5161  11.9624  21.9019  23.6005
    23.6005

          k = 0.0000 0.0000-0.2100 (  3008 PWs)   bands (ev):

   -37.0270 -36.8058  -5.5691   2.6243   6.6339  11.7036  23.2318  23.6088
    23.6088

          k = 0.0000 0.1051 0.0000 (  3005 PWs)   bands (ev):

   -37.0134 -36.7909  -5.3019   3.0403   6.0657  14.0001  18.0472  20.3714
    21.9322

          k = 0.0000 0.1051 0.0525 (  2995 PWs)   bands (ev):

   -37.0131 -36.7911  -5.3009   3.0047   6.1719  13.5563  18.6671  20.3960
    21.9406

          k = 0.0000 0.1051 0.1050 (  3002 PWs)   bands (ev):

   -37.0126 -36.7917  -5.2986   2.9248   6.4387  12.7195  19.8876  20.6241
    21.9611

          k = 0.0000 0.1051 0.1575 (  2998 PWs)   bands (ev):

   -37.0120 -36.7923  -5.2962   2.8516   6.7285  12.0230  20.2520  21.9821
    21.9960

          k = 0.0000 0.1051-0.2100 (  2998 PWs)   bands (ev):

   -37.0118 -36.7925  -5.2952   2.8230   6.8588  11.7513  20.2843  21.9909
    23.2830

          k = 0.0000 0.2101 0.0000 (  3002 PWs)   bands (ev):

   -36.9723 -36.7555  -4.4859   3.7064   6.5164  14.1221  16.4442  17.8263
    20.1546

          k = 0.0000 0.2101 0.0525 (  3006 PWs)   bands (ev):

   -36.9721 -36.7557  -4.4847   3.6560   6.6517  13.6952  16.2880  18.5508
    20.1642

          k = 0.0000 0.2101 0.1050 (  3003 PWs)   bands (ev):

   -36.9717 -36.7562  -4.4816   3.5459   6.9913  12.8368  16.1821  19.9105
    20.1880

          k = 0.0000 0.2101 0.1575 (  3005 PWs)   bands (ev):

   -36.9712 -36.7567  -4.4785   3.4482   7.3667  12.0828  16.1523  20.2124
    21.2030

          k = 0.0000 0.2101-0.2100 (  3018 PWs)   bands (ev):

   -36.9710 -36.7569  -4.4773   3.4106   7.5405  11.7765  16.1467  20.2227
    21.7826

          k = 0.0000 0.3152 0.0000 (  3026 PWs)   bands (ev):

   -36.9184 -36.7089  -3.1397   4.8066   7.1459  11.5584  15.8373  16.8241
    18.7960

          k = 0.0000 0.3152 0.0525 (  3005 PWs)   bands (ev):

   -36.9182 -36.7091  -3.1377   4.7230   7.3368  11.4807  15.1628  17.4055
    18.8070

          k = 0.0000 0.3152 0.1050 (  3007 PWs)   bands (ev):

   -36.9179 -36.7095  -3.1330   4.5519   7.8132  11.2231  14.3386  17.9356
    18.8342

          k = 0.0000 0.3152 0.1575 (  3012 PWs)   bands (ev):

   -36.9175 -36.7099  -3.1282   4.4095   8.3792  10.8032  13.8288  18.1231
    18.8621

          k = 0.0000 0.3152-0.2100 (  2998 PWs)   bands (ev):

   -36.9173 -36.7101  -3.1262   4.3564   8.6870  10.5350  13.6691  18.1573
    18.8740

          k = 0.0000 0.4202 0.0000 (  3002 PWs)   bands (ev):

   -36.8686 -36.6660  -1.2869   6.2992   6.6993   9.4317  14.4132  16.1261
    17.8860

          k = 0.0000 0.4202 0.0525 (  3009 PWs)   bands (ev):

   -36.8685 -36.6661  -1.2835   6.1016   6.8792   9.5303  14.3344  15.9715
    17.8981

          k = 0.0000 0.4202 0.1050 (  3005 PWs)   bands (ev):

   -36.8682 -36.6664  -1.2752   5.8297   7.1059   9.7901  14.1213  15.5991
    17.9279

          k = 0.0000 0.4202 0.1575 (  3017 PWs)   bands (ev):

   -36.8679 -36.6667  -1.2668   5.6392   7.2489  10.0890  13.8547  15.2633
    17.9588

          k = 0.0000 0.4202-0.2100 (  3022 PWs)   bands (ev):

   -36.8678 -36.6669  -1.2633   5.5717   7.2963  10.2288  13.7209  15.1400
    17.9719

          k = 0.0000 0.5253 0.0000 (  3016 PWs)   bands (ev):

   -36.8389 -36.6404   0.9956   3.9836   7.9188   9.9401  12.0411  15.0316
    17.4303

          k = 0.0000 0.5253 0.0525 (  3028 PWs)   bands (ev):

   -36.8388 -36.6405   1.0016   4.0022   7.6539  10.2993  12.0833  15.0538
    17.4429

          k = 0.0000 0.5253 0.1050 (  3016 PWs)   bands (ev):

   -36.8385 -36.6408   1.0161   4.0507   7.1914  10.9375  12.3277  15.0741
    17.4742

          k = 0.0000 0.5253 0.1575 (  3019 PWs)   bands (ev):

   -36.8383 -36.6410   1.0309   4.1051   6.8354  11.2875  13.0517  14.8691
    16.4912

          k = 0.0000 0.5253-0.2100 (  3020 PWs)   bands (ev):

   -36.8382 -36.6411   1.0370   4.1298   6.7041  11.3600  14.0220  14.1319
    16.1709

          k = 0.0910 0.1576 0.0000 (  3003 PWs)   bands (ev):

   -36.9852 -36.7666  -4.7572   3.4848   6.3709  14.2253  17.6824  17.9416
    19.4512

          k = 0.0910 0.1576 0.0525 (  3003 PWs)   bands (ev):

   -36.9850 -36.7668  -4.7561   3.4398   6.4961  13.7497  17.6304  18.5588
    19.5536

          k = 0.0910 0.1576 0.1050 (  2999 PWs)   bands (ev):

   -36.9845 -36.7673  -4.7533   3.3403   6.8102  12.8593  17.6254  19.1856
    20.4009

          k = 0.0910 0.1576 0.1575 (  3004 PWs)   bands (ev):

   -36.9840 -36.7678  -4.7505   3.2511   7.1550  12.1102  17.6321  19.3042
    22.0041

          k = 0.0910 0.1576-0.2100 (  3008 PWs)   bands (ev):

   -36.9838 -36.7681  -4.7493   3.2166   7.3128  11.8128  17.6357  19.3302
    23.4760

          k = 0.0910 0.2626 0.0000 (  3005 PWs)   bands (ev):

   -36.9377 -36.7256  -3.6759   4.3701   6.9441  13.3705  15.0907  17.5873
    17.8099

          k = 0.0910 0.2626 0.0525 (  3008 PWs)   bands (ev):

   -36.9376 -36.7258  -3.6743   4.3020   7.1112  13.1914  14.7699  17.4102
    18.5580

          k = 0.0910 0.2626 0.1050 (  3007 PWs)   bands (ev):

   -36.9371 -36.7262  -3.6703   4.1579   7.5288  12.6121  14.4066  17.3917
    19.5407

          k = 0.0910 0.2626 0.1575 (  3001 PWs)   bands (ev):

   -36.9367 -36.7267  -3.6663   4.0344   8.0026  11.9125  14.2752  17.4197
    19.8780

          k = 0.0910 0.2626-0.2100 (  3002 PWs)   bands (ev):

   -36.9366 -36.7268  -3.6647   3.9877   8.2336  11.5883  14.2467  17.4353
    19.8826

          k = 0.0910 0.3677 0.0000 (  3003 PWs)   bands (ev):

   -36.8858 -36.6809  -2.0750   5.6784   7.4368  10.1830  14.7720  15.9298
    17.2834

          k = 0.0910 0.3677 0.0525 (  3006 PWs)   bands (ev):

   -36.8857 -36.6810  -2.0723   5.5585   7.6553  10.1588  14.4919  15.9699
    17.1599

          k = 0.0910 0.3677 0.1050 (  3011 PWs)   bands (ev):

   -36.8854 -36.6813  -2.0658   5.3327   8.1647  10.0664  13.8928  16.0646
    16.8975

          k = 0.0910 0.3677 0.1575 (  3015 PWs)   bands (ev):

   -36.8851 -36.6817  -2.0593   5.1560   8.7606   9.8566  13.3523  16.1976
    16.6271

          k = 0.0910 0.3677-0.2100 (  3016 PWs)   bands (ev):

   -36.8849 -36.6818  -2.0566   5.0918   9.1600   9.6140  13.1381  16.3284
    16.4455

          k = 0.0910 0.4727 0.0000 (  3023 PWs)   bands (ev):

   -36.8460 -36.6466   0.0092   5.5916   7.3164   9.7034  13.2804  14.0855
    16.4433

          k = 0.0910 0.4727 0.0525 (  3019 PWs)   bands (ev):

   -36.8459 -36.6467   0.0139   5.6138   7.1539   9.9408  13.2258  14.1673
    16.3049

          k = 0.0910 0.4727 0.1050 (  3021 PWs)   bands (ev):

   -36.8457 -36.6470   0.0253   5.6791   6.8199  10.4668  13.1485  14.2885
    16.0021

          k = 0.0910 0.4727 0.1575 (  3019 PWs)   bands (ev):

   -36.8455 -36.6472   0.0369   5.7759   6.5109  10.9752  13.1680  14.2158
    15.8254

          k = 0.0910 0.4727-0.2100 (  3016 PWs)   bands (ev):

   -36.8454 -36.6473   0.0417   5.8390   6.3705  11.1878  13.2453  14.0615
    15.8282

          k = 0.0910 0.5778 0.0000 (  3036 PWs)   bands (ev):

   -36.8312 -36.6338   2.0799   3.1957   8.4933  10.2445  11.6913  13.5495
    15.8399

          k = 0.0910 0.5778 0.0525 (  3028 PWs)   bands (ev):

   -36.8311 -36.6339   2.0855   3.2124   8.1620  10.7067  11.6937  13.6256
    15.7371

          k = 0.0910 0.5778 0.1050 (  3016 PWs)   bands (ev):

   -36.8309 -36.6341   2.0990   3.2550   7.6376  11.3745  11.9509  13.8515
    15.4701

          k = 0.0910 0.5778 0.1575 (  3005 PWs)   bands (ev):

   -36.8307 -36.6343   2.1124   3.3012   7.2566  11.4511  12.8418  14.2625
    15.1536

          k = 0.0910 0.5778-0.2100 (  3010 PWs)   bands (ev):

   -36.8306 -36.6344   2.1179   3.3215   7.1197  11.4447  13.3137  14.7781
    15.0211

          k = 0.1820 0.3152 0.0000 (  3015 PWs)   bands (ev):

   -36.8923 -36.6864  -2.3392   5.4705   7.5796  11.6182  12.8318  17.2985
    17.3787

          k = 0.1820 0.3152 0.0525 (  3001 PWs)   bands (ev):

   -36.8921 -36.6866  -2.3368   5.3652   7.8008  11.6139  12.6711  16.4294
    18.2305

          k = 0.1820 0.3152 0.1050 (  3013 PWs)   bands (ev):

   -36.8918 -36.6869  -2.3309   5.1587   8.3436  11.5618  12.2395  15.8574
    17.8140

          k = 0.1820 0.3152 0.1575 (  3014 PWs)   bands (ev):

   -36.8915 -36.6873  -2.3249   4.9926   9.0065  11.2300  11.9028  15.6054
    17.4565

          k = 0.1820 0.3152-0.2100 (  3006 PWs)   bands (ev):

   -36.8913 -36.6874  -2.3224   4.9316   9.4097  10.8678  11.8484  15.5434
    17.3241

          k = 0.1820 0.4202 0.0000 (  3007 PWs)   bands (ev):

   -36.8504 -36.6503  -0.4994   6.9762   7.4038   9.4568  11.7841  15.0956
    17.2762

          k = 0.1820 0.4202 0.0525 (  3013 PWs)   bands (ev):

   -36.8503 -36.6504  -0.4954   6.7624   7.5888   9.5805  11.7512  14.9858
    16.6675

          k = 0.1820 0.4202 0.1050 (  3011 PWs)   bands (ev):

   -36.8500 -36.6507  -0.4858   6.4682   7.8091   9.9258  11.6263  14.7629
    16.0248

          k = 0.1820 0.4202 0.1575 (  3018 PWs)   bands (ev):

   -36.8498 -36.6509  -0.4762   6.2625   7.9389  10.4067  11.3605  14.5905
    15.5793

          k = 0.1820 0.4202-0.2100 (  3006 PWs)   bands (ev):

   -36.8497 -36.6511  -0.4721   6.1898   7.9804  10.8263  11.0266  14.5334
    15.4179

          k = 0.1820 0.5253 0.0000 (  3029 PWs)   bands (ev):

   -36.8254 -36.6288   1.7685   4.7332   8.6558   9.7499  11.5299  12.5582
    15.5981

          k = 0.1820 0.5253 0.0525 (  3023 PWs)   bands (ev):

   -36.8253 -36.6289   1.7747   4.7508   8.3827   9.9523  11.6427  12.6270
    15.4704

          k = 0.1820 0.5253 0.1050 (  3020 PWs)   bands (ev):

   -36.8251 -36.6291   1.7898   4.7960   7.9342  10.2249  11.7797  12.9857
    15.2704

          k = 0.1820 0.5253 0.1575 (  3018 PWs)   bands (ev):

[...]
     Starting wfcs are    8 randomized atomic wfcs +    1 random wfcs

     total cpu time spent up to now is       28.2 secs

     Self-consistent Calculation

     iteration #  1     ecut=   100.00 Ry     beta= 0.70
     Davidson diagonalization with overlap
     c_bands:  1 eigenvalues not converged
     c_bands:  1 eigenvalues not converged
     c_bands:  1 eigenvalues not converged
     c_bands:  1 eigenvalues not converged
     c_bands:  1 eigenvalues not converged
     c_bands:  1 eigenvalues not converged
     c_bands:  1 eigenvalues not converged
     c_bands:  1 eigenvalues not converged
     c_bands:  1 eigenvalues not converged
     c_bands:  1 eigenvalues not converged
     ethr =  1.00E-06,  avg # of iterations = 15.6

     total cpu time spent up to now is       30.0 secs

     total energy              =     -37.13790715 Ry
     estimated scf accuracy    <       0.02533521 Ry

     iteration #  2     ecut=   100.00 Ry     beta= 0.70
     Davidson diagonalization with overlap
     ethr =  2.53E-04,  avg # of iterations =  2.1

     total cpu time spent up to now is       30.6 secs

     total energy              =     -37.13301273 Ry
     estimated scf accuracy    <       0.06979198 Ry

     iteration #  3     ecut=   100.00 Ry     beta= 0.70
     Davidson diagonalization with overlap
     ethr =  2.53E-04,  avg # of iterations =  1.8

     total cpu time spent up to now is       31.0 secs

     total energy              =     -37.14708704 Ry
     estimated scf accuracy    <       0.00173628 Ry

     iteration #  4     ecut=   100.00 Ry     beta= 0.70
     Davidson diagonalization with overlap
     ethr =  1.74E-05,  avg # of iterations =  1.3

     total cpu time spent up to now is       31.5 secs

     total energy              =     -37.14728060 Ry
     estimated scf accuracy    <       0.00002387 Ry

     iteration #  5     ecut=   100.00 Ry     beta= 0.70
     Davidson diagonalization with overlap
     ethr =  2.39E-07,  avg # of iterations =  2.4

     total cpu time spent up to now is       32.0 secs

     total energy              =     -37.14728678 Ry
     estimated scf accuracy    <       0.00000046 Ry

     iteration #  6     ecut=   100.00 Ry     beta= 0.70
     Davidson diagonalization with overlap
     ethr =  4.61E-09,  avg # of iterations =  2.0

     total cpu time spent up to now is       32.5 secs

     total energy              =     -37.14728685 Ry
     estimated scf accuracy    <       0.00000001 Ry

     iteration #  7     ecut=   100.00 Ry     beta= 0.70
     Davidson diagonalization with overlap
     ethr =  1.13E-10,  avg # of iterations =  2.9

     total cpu time spent up to now is       33.0 secs

     End of self-consistent calculation

          k = 0.0000 0.0000 0.0000 (  3125 PWs)   bands (ev):

   -37.0380 -36.8189  -5.5866   2.8055   5.8894  13.8364  18.0446  23.5327
    23.5328

          k = 0.0000 0.0000 0.0524 (  3118 PWs)   bands (ev):

   -37.0377 -36.8192  -5.5857   2.7744   5.9864  13.4136  18.6720  23.5406
    23.5406

          k = 0.0000 0.0000 0.1049 (  3148 PWs)   bands (ev):

   -37.0372 -36.8198  -5.5836   2.7038   6.2297  12.6102  20.1033  23.5598
    23.5598

          k = 0.0000 0.0000 0.1573 (  3118 PWs)   bands (ev):

   -37.0366 -36.8204  -5.5815   2.6386   6.4927  11.9429  21.8461  23.5793
    23.5793

          k = 0.0000 0.0000-0.2098 (  3106 PWs)   bands (ev):

   -37.0363 -36.8207  -5.5806   2.6130   6.6101  11.6843  23.1624  23.5875
    23.5875

          k = 0.0000 0.1050 0.0000 (  3129 PWs)   bands (ev):

   -37.0228 -36.8058  -5.3134   3.0279   6.0456  13.9824  17.9953  20.3506
    21.9101

          k = 0.0000 0.1050 0.0524 (  3119 PWs)   bands (ev):

   -37.0225 -36.8060  -5.3125   2.9925   6.1515  13.5368  18.6171  20.3748
    21.9184

          k = 0.0000 0.1050 0.1049 (  3131 PWs)   bands (ev):

   -37.0220 -36.8066  -5.3102   2.9129   6.4172  12.6990  19.8469  20.5939
    21.9386

          k = 0.0000 0.1050 0.1573 (  3124 PWs)   bands (ev):

   -37.0214 -36.8072  -5.3078   2.8402   6.7058  12.0028  20.2282  21.9465
    21.9594

          k = 0.0000 0.1050-0.2098 (  3118 PWs)   bands (ev):

   -37.0212 -36.8074  -5.3069   2.8117   6.8355  11.7315  20.2616  21.9681
    23.2239

          k = 0.0000 0.2101 0.0000 (  3122 PWs)   bands (ev):

   -36.9819 -36.7704  -4.4978   3.6933   6.4987  14.1014  16.4257  17.7790
    20.1325

          k = 0.0000 0.2101 0.0524 (  3128 PWs)   bands (ev):

   -36.9817 -36.7706  -4.4966   3.6432   6.6336  13.6733  16.2679  18.5068
    20.1420

          k = 0.0000 0.2101 0.1049 (  3122 PWs)   bands (ev):

   -36.9812 -36.7711  -4.4936   3.5337   6.9718  12.8142  16.1622  19.8692
    20.1655

          k = 0.0000 0.2101 0.1573 (  3128 PWs)   bands (ev):

   -36.9807 -36.7716  -4.4906   3.4366   7.3457  12.0609  16.1325  20.1896
    21.1697

          k = 0.0000 0.2101-0.2098 (  3134 PWs)   bands (ev):

   -36.9805 -36.7718  -4.4893   3.3992   7.5189  11.7552  16.1270  20.1998
    21.7612

          k = 0.0000 0.3151 0.0000 (  3140 PWs)   bands (ev):

   -36.9280 -36.7239  -3.1521   4.7923   7.1321  11.5385  15.8162  16.7896
    18.7742

          k = 0.0000 0.3151 0.0524 (  3137 PWs)   bands (ev):

   -36.9279 -36.7241  -3.1501   4.7094   7.3222  11.4605  15.1392  17.3762
    18.7850

          k = 0.0000 0.3151 0.1049 (  3133 PWs)   bands (ev):

   -36.9275 -36.7244  -3.1455   4.5394   7.7968  11.2025  14.3160  17.9113
    18.8118

          k = 0.0000 0.3151 0.1573 (  3132 PWs)   bands (ev):

   -36.9271 -36.7248  -3.1408   4.3978   8.3610  10.7824  13.8076  18.1021
    18.8395

          k = 0.0000 0.3151-0.2098 (  3124 PWs)   bands (ev):

   -36.9270 -36.7250  -3.1388   4.3450   8.6678  10.5145  13.6484  18.1372
    18.8512

          k = 0.0000 0.4201 0.0000 (  3142 PWs)   bands (ev):

   -36.8784 -36.6810  -1.3000   6.2831   6.6860   9.4179  14.3910  16.1025
    17.8644

          k = 0.0000 0.4201 0.0524 (  3144 PWs)   bands (ev):

   -36.8782 -36.6811  -1.2966   6.0876   6.8639   9.5162  14.3124  15.9474
    17.8763

          k = 0.0000 0.4201 0.1049 (  3131 PWs)   bands (ev):

   -36.8780 -36.6814  -1.2884   5.8176   7.0891   9.7753  14.0990  15.5754
    17.9057

          k = 0.0000 0.4201 0.1573 (  3132 PWs)   bands (ev):

   -36.8777 -36.6817  -1.2802   5.6281   7.2313  10.0736  13.8315  15.2412
    17.9362

          k = 0.0000 0.4201-0.2098 (  3128 PWs)   bands (ev):

   -36.8775 -36.6818  -1.2767   5.5610   7.2785  10.2131  13.6971  15.1189
    17.9492

          k = 0.0000 0.5251 0.0000 (  3130 PWs)   bands (ev):

   -36.8487 -36.6554   0.9819   3.9687   7.8994   9.9348  12.0249  15.0069
    17.4087

          k = 0.0000 0.5251 0.0524 (  3139 PWs)   bands (ev):

   -36.8486 -36.6555   0.9879   3.9871   7.6376  10.2911  12.0670  15.0288
    17.4212

          k = 0.0000 0.5251 0.1049 (  3152 PWs)   bands (ev):

   -36.8484 -36.6557   1.0023   4.0351   7.1789  10.9261  12.3103  15.0480
    17.3581

          k = 0.0000 0.5251 0.1573 (  3152 PWs)   bands (ev):

   -36.8482 -36.6560   1.0168   4.0889   6.8254  11.2754  13.0314  14.8422
    16.4701

          k = 0.0000 0.5251-0.2098 (  3142 PWs)   bands (ev):

   -36.8481 -36.6561   1.0229   4.1133   6.6950  11.3479  13.9993  14.1063
    16.1503

          k = 0.0910 0.1575 0.0000 (  3127 PWs)   bands (ev):

   -36.9947 -36.7815  -4.7690   3.4720   6.3524  14.2058  17.6628  17.8923
    19.4299

          k = 0.0910 0.1575 0.0524 (  3126 PWs)   bands (ev):

   -36.9945 -36.7817  -4.7679   3.4272   6.4771  13.7285  17.6096  18.5145
    19.5301

          k = 0.0910 0.1575 0.1049 (  3133 PWs)   bands (ev):

   -36.9940 -36.7822  -4.7651   3.3283   6.7900  12.8374  17.6054  19.1572
    20.3613

          k = 0.0910 0.1575 0.1573 (  3126 PWs)   bands (ev):

   -36.9935 -36.7828  -4.7624   3.2395   7.1335  12.0889  17.6123  19.2796
    21.9610

          k = 0.0910 0.1575-0.2098 (  3110 PWs)   bands (ev):

   -36.9933 -36.7830  -4.7612   3.2052   7.2906  11.7919  17.6159  19.3059
    23.4508

          k = 0.0910 0.2626 0.0000 (  3131 PWs)   bands (ev):

   -36.9473 -36.7406  -3.6881   4.3564   6.9287  13.3498  15.0706  17.5448
    17.7900

          k = 0.0910 0.2626 0.0524 (  3126 PWs)   bands (ev):

   -36.9472 -36.7407  -3.6865   4.2887   7.0951  13.1696  14.7495  17.3831
    18.5253

          k = 0.0910 0.2626 0.1049 (  3128 PWs)   bands (ev):

   -36.9467 -36.7412  -3.6826   4.1455   7.5112  12.5890  14.3874  17.3677
    19.5116

          k = 0.0910 0.2626 0.1573 (  3132 PWs)   bands (ev):

   -36.9463 -36.7416  -3.6787   4.0227   7.9833  11.8898  14.2565  17.3962
    19.8580

          k = 0.0910 0.2626-0.2098 (  3130 PWs)   bands (ev):

   -36.9462 -36.7418  -3.6771   3.9763   8.2133  11.5662  14.2281  17.4118
    19.8649

          k = 0.0910 0.3676 0.0000 (  3141 PWs)   bands (ev):

   -36.8956 -36.6958  -2.0878   5.6632   7.4249  10.1650  14.7508  15.9028
    17.2616

          k = 0.0910 0.3676 0.0524 (  3134 PWs)   bands (ev):

   -36.8954 -36.6960  -2.0852   5.5443   7.6422  10.1406  14.4698  15.9449
    17.1378

          k = 0.0910 0.3676 0.1049 (  3137 PWs)   bands (ev):

   -36.8951 -36.6963  -2.0788   5.3201   8.1494  10.0480  13.8704  16.0419
    16.8757

          k = 0.0910 0.3676 0.1573 (  3134 PWs)   bands (ev):

   -36.8948 -36.6966  -2.0723   5.1445   8.7433   9.8382  13.3306  16.1755
    16.6064

          k = 0.0910 0.3676-0.2098 (  3130 PWs)   bands (ev):

   -36.8947 -36.6968  -2.0697   5.0807   9.1411   9.5964  13.1167  16.3043
    16.4274

          k = 0.0910 0.4726 0.0000 (  3133 PWs)   bands (ev):

   -36.8559 -36.6616  -0.0042   5.5769   7.2988   9.6944  13.2612  14.0670
    16.4183

          k = 0.0910 0.4726 0.0524 (  3141 PWs)   bands (ev):

   -36.8558 -36.6617   0.0004   5.5990   7.1377   9.9304  13.2071  14.1479
    16.2799

          k = 0.0910 0.4726 0.1049 (  3144 PWs)   bands (ev):

   -36.8555 -36.6619   0.0117   5.6639   6.8062  10.4543  13.1299  14.2675
    15.9772

          k = 0.0910 0.4726 0.1573 (  3145 PWs)   bands (ev):

   -36.8553 -36.6622   0.0231   5.7598   6.4994  10.9618  13.1479  14.1941
    15.8000

          k = 0.0910 0.4726-0.2098 (  3142 PWs)   bands (ev):

   -36.8552 -36.6623   0.0278   5.8219   6.3605  11.1745  13.2234  14.0405
    15.8018

          k = 0.0910 0.5777 0.0000 (  3138 PWs)   bands (ev):

   -36.8411 -36.6488   2.0665   3.1803   8.4725  10.2406  11.6763  13.5309
    15.8128

          k = 0.0910 0.5777 0.0524 (  3137 PWs)   bands (ev):

   -36.8410 -36.6489   2.0720   3.1969   8.1456  10.6981  11.6789  13.6069
    15.7103

          k = 0.0910 0.5777 0.1049 (  3137 PWs)   bands (ev):

   -36.8408 -36.6491   2.0854   3.2390   7.6255  11.3615  11.9359  13.8325
    15.4443

          k = 0.0910 0.5777 0.1573 (  3149 PWs)   bands (ev):

   -36.8405 -36.6493   2.0986   3.2846   7.2470  11.4379  12.8229  14.2437
    15.1292

          k = 0.0910 0.5777-0.2098 (  3166 PWs)   bands (ev):

   -36.8404 -36.6494   2.1041   3.3046   7.1110  11.4317  13.2922  14.7596
    15.0002

          k = 0.1819 0.3151 0.0000 (  3129 PWs)   bands (ev):

   -36.9020 -36.7014  -2.3519   5.4556   7.5673  11.6013  12.8091  17.2630
    17.3573

          k = 0.1819 0.3151 0.0524 (  3133 PWs)   bands (ev):

   -36.9019 -36.7015  -2.3495   5.3511   7.7874  11.5969  12.6482  16.4027
    18.2080

          k = 0.1819 0.3151 0.1049 (  3131 PWs)   bands (ev):

   -36.9015 -36.7019  -2.3437   5.1461   8.3282  11.5438  12.2173  15.8324
    17.7971

          k = 0.1819 0.3151 0.1573 (  3133 PWs)   bands (ev):

   -36.9012 -36.7022  -2.3378   4.9810   8.9892  11.2092  11.8837  15.5808
    17.4424

          k = 0.1819 0.3151-0.2098 (  3136 PWs)   bands (ev):

   -36.9011 -36.7024  -2.3354   4.9204   9.3914  10.8466  11.8302  15.5188
    17.3110

          k = 0.1819 0.4201 0.0000 (  3140 PWs)   bands (ev):

   -36.8602 -36.6653  -0.5127   6.9594   7.3906   9.4435  11.7656  15.0733
    17.2582

          k = 0.1819 0.4201 0.0524 (  3134 PWs)   bands (ev):

   -36.8601 -36.6654  -0.5088   6.7481   7.5734   9.5668  11.7325  14.9651
    16.6445

          k = 0.1819 0.4201 0.1049 (  3136 PWs)   bands (ev):

   -36.8599 -36.6657  -0.4993   6.4558   7.7923   9.9107  11.6076  14.7453
    16.0002

          k = 0.1819 0.4201 0.1573 (  3137 PWs)   bands (ev):

   -36.8596 -36.6659  -0.4898   6.2514   7.9214  10.3898  11.3423  14.5757
    15.5533

          k = 0.1819 0.4201-0.2098 (  3132 PWs)   bands (ev):

   -36.8595 -36.6660  -0.4858   6.1791   7.9628  10.8064  11.0109  14.5199
    15.3910

          k = 0.1819 0.5251 0.0000 (  3139 PWs)   bands (ev):

   -36.8353 -36.6438   1.7546   4.7181   8.6361   9.7380  11.5191  12.5403
    15.5805

          k = 0.1819 0.5251 0.0524 (  3148 PWs)   bands (ev):

   -36.8352 -36.6439   1.7607   4.7355   8.3664   9.9372  11.6314  12.6094
    15.4526

          k = 0.1819 0.5251 0.1049 (  3145 PWs)   bands (ev):

   -36.8350 -36.6441   1.7757   4.7803   7.9215  10.2071  11.7677  12.9683
    15.2524

          k = 0.1819 0.5251 0.1573 (  3151 PWs)   bands (ev):

   -36.8348 -36.6443   1.7908   4.8299   7.5853  10.3773  11.7608  13.5358
    15.3222

          k = 0.1819 0.5251-0.2098 (  3156 PWs)   bands (ev):

   -36.8347 -36.6444   1.7972   4.8522   7.4618  10.4365  11.7373  13.7778
    15.7829

          k = 0.2729 0.4726 0.0000 (  3147 PWs)   bands (ev):

   -36.8332 -36.6419   1.5360   6.5707   7.7843   8.6176  11.4044  13.7116
    15.6821

          k = 0.2729 0.4726 0.0524 (  3146 PWs)   bands (ev):

   -36.8331 -36.6420   1.5418   6.5864   7.7837   8.4963  11.6153  13.4293
    15.7588

          k = 0.2729 0.4726 0.1049 (  3142 PWs)   bands (ev):

   -36.8329 -36.6423   1.5558   6.6290   7.7536   8.2793  12.0545  13.0054
    15.7454

          k = 0.2729 0.4726 0.1573 (  3154 PWs)   bands (ev):

   -36.8327 -36.6425   1.5700   6.6813   7.6564   8.1671  12.2690  12.9061
    15.8860

          k = 0.2729 0.4726-0.2098 (  3156 PWs)   bands (ev):

   -36.8326 -36.6426   1.5759   6.7074   7.5944   8.1475  12.2378  12.9974
    16.0619

          k = 0.2729 0.5777 0.0000 (  3133 PWs)   bands (ev):

   -36.8231 -36.6332   3.6008   4.5330   7.2570   9.9204  12.2046  12.2510
    14.3226

          k = 0.2729 0.5777 0.0524 (  3145 PWs)   bands (ev):

   -36.8231 -36.6333   3.6068   4.5461   7.2846   9.6781  11.7667  12.9048
    14.4539

          k = 0.2729 0.5777 0.1049 (  3151 PWs)   bands (ev):

   -36.8229 -36.6335   3.6211   4.5787   7.3592   9.2217  11.3349  13.9219
    14.5380

          k = 0.2729 0.5777 0.1573 (  3167 PWs)   bands (ev):

   -36.8227 -36.6337   3.6355   4.6131   7.4513   8.8457  11.0179  14.4664
    15.2071

          k = 0.2729 0.5777-0.2098 (  3174 PWs)   bands (ev):

   -36.8226 -36.6338   3.6414   4.6279   7.4979   8.6985  10.9024  14.4436
    16.4178

     the Fermi energy is     8.6905 ev

!    total energy              =     -37.14728685 Ry
     estimated scf accuracy    <          7.9E-11 Ry
     smearing contrib. (-TS)   =       0.00033266 Ry
     internal energy E=F+TS    =     -37.14761951 Ry

     The total energy is F=E-TS. E is the sum of the following terms:
     one-electron contribution =      -8.63439872 Ry
     hartree contribution      =       6.01093319 Ry
     xc contribution           =     -10.33905125 Ry
     ewald contribution        =     -24.18510274 Ry

     convergence has been achieved in   7 iterations

     Forces acting on atoms (cartesian axes, Ry/au):

     atom    1 type  1   force =    -0.00000000   -0.00000000    0.00000000
     atom    2 type  2   force =    -0.00000000   -0.00000000    0.00004765
     atom    3 type  2   force =     0.00000000    0.00000000   -0.00004765
     The non-local contrib.  to forces
     atom    1 type  1   force =    -0.00000000    0.00000000    0.00000000
     atom    2 type  2   force =     0.00000000   -0.00000000   -0.03121037
     atom    3 type  2   force =     0.00000000    0.00000000    0.03121037
     The ionic contribution  to forces
     atom    1 type  1   force =    -0.00000000    0.00000000    0.00000000
     atom    2 type  2   force =     0.00000000   -0.00000000   -0.80243712
     atom    3 type  2   force =     0.00000000   -0.00000000    0.80243712
     The local contribution  to forces
     atom    1 type  1   force =     0.00000001   -0.00000001   -0.00000000
     atom    2 type  2   force =     0.00000000    0.00000000    0.83369177
     atom    3 type  2   force =     0.00000000    0.00000000   -0.83369177
     The core correction contribution to forces
     atom    1 type  1   force =     0.00000000   -0.00000000   -0.00000000
     atom    2 type  2   force =     0.00000000    0.00000000    0.00000000
     atom    3 type  2   force =     0.00000000    0.00000000    0.00000000
     The Hubbard contrib.    to forces
     atom    1 type  1   force =     0.00000000    0.00000000    0.00000000
     atom    2 type  2   force =     0.00000000    0.00000000    0.00000000
     atom    3 type  2   force =     0.00000000    0.00000000    0.00000000
     The SCF correction term to forces
     atom    1 type  1   force =    -0.00000000    0.00000000   -0.00000000
     atom    2 type  2   force =    -0.00000000    0.00000000    0.00000336
     atom    3 type  2   force =    -0.00000000    0.00000000   -0.00000336

     Total force =     0.000067     Total SCF correction =     0.000005


     Computing stress (Cartesian axis) and pressure

          total   stress  (Ry/bohr**3)                   (kbar)     P=      500.02
   0.00339885   0.00000000   0.00000000          499.99        0.00        0.00
   0.00000000   0.00339885   0.00000000            0.00      499.99        0.00
   0.00000000  -0.00000000   0.00339943            0.00       -0.00      500.07


     Writing all to output data dir ./output/SiLi.save/

     init_run     :      1.12s CPU      1.82s WALL (       2 calls)
     electrons    :     21.85s CPU     25.00s WALL (       6 calls)
     update_pot   :      1.08s CPU      1.10s WALL (       4 calls)
     forces       :      1.12s CPU      1.22s WALL (       6 calls)
     stress       :      4.02s CPU      4.22s WALL (       6 calls)

     Called by init_run:
     wfcinit      :      0.33s CPU      0.34s WALL (       2 calls)
     potinit      :      0.31s CPU      0.75s WALL (       2 calls)
     hinit0       :      0.45s CPU      0.61s WALL (       2 calls)

     Called by electrons:
     c_bands      :     18.42s CPU     20.72s WALL (      40 calls)
     sum_band     :      2.73s CPU      2.89s WALL (      40 calls)
     v_of_rho     :      0.72s CPU      1.75s WALL (      45 calls)
     mix_rho      :      0.10s CPU      0.12s WALL (      40 calls)

     Called by c_bands:
     init_us_2    :      0.68s CPU      0.74s WALL (    7520 calls)
     init_us_2:cp :      0.67s CPU      0.74s WALL (    7520 calls)
     cegterg      :     17.13s CPU     17.93s WALL (    3200 calls)

     Called by *egterg:
     cdiaghg      :      1.25s CPU      1.33s WALL (   11935 calls)
     h_psi        :     14.46s CPU     15.13s WALL (   12495 calls)
     g_psi        :      0.08s CPU      0.08s WALL (    9135 calls)

     Called by h_psi:
     h_psi:calbec :      0.85s CPU      0.88s WALL (   12495 calls)
     vloc_psi     :     12.98s CPU     13.58s WALL (   12495 calls)
     add_vuspsi   :      0.55s CPU      0.57s WALL (   12495 calls)

     General routines
     calbec       :      1.09s CPU      1.13s WALL (   14895 calls)
     fft          :      1.09s CPU      2.42s WALL (     599 calls)
     ffts         :      0.02s CPU      0.05s WALL (      40 calls)
     fftw         :     13.45s CPU     14.05s WALL (  193022 calls)

     Parallel routines

     PWSCF        :     29.47s CPU     34.22s WALL


   This run was terminated on:  22: 9:40  10Jan2025            

=------------------------------------------------------------------------------=
   JOB DONE.
=------------------------------------------------------------------------------=
