
     Program PWSCF v.7.2 starts on 27Dec2024 at 15: 3: 3 

     This program is part of the open-source Quantum ESPRESSO suite
     for quantum simulation of materials; please cite
         "P. Giannozzi et al., J. Phys.:Condens. Matter 21 395502 (2009);
         "P. Giannozzi et al., J. Phys.:Condens. Matter 29 465901 (2017);
         "P. Giannozzi et al., J. Chem. Phys. 152 154105 (2020);
          URL http://www.quantum-espresso.org", 
     in publications or presentations arising from this work. More details at
     http://www.quantum-espresso.org/quote

     Parallel version (MPI & OpenMP), running on       8 processor cores
     Number of MPI processes:                 8
     Threads/MPI process:                     1

     MPI processes distributed on     1 nodes
     478956 MiB available memory on the printing compute node when the environment starts

     Waiting for input...
     Reading input from standard input

     Current dimensions of program PWSCF are:
     Max number of different atomic species (ntypx) = 10
     Max number of k-points (npk) =  40000
     Max angular momentum in pseudopotentials (lmaxx) =  4

     R & G space division:  proc/nbgrp/npool/nimage =       8
     Subspace diagonalization in iterative solution of the eigenvalue problem:
     a serial algorithm will be used


     Parallelization info
     --------------------
     sticks:   dense  smooth     PW     G-vecs:    dense   smooth      PW
     Min         276     276     82                 4622     4622     739
     Max         278     278     84                 4623     4623     740
     Sum        2217    2217    665                36977    36977    5917

     Using Slab Decomposition



     bravais-lattice index     =            6
     lattice parameter (alat)  =       9.3188  a.u.
     unit-cell volume          =     381.7414 (a.u.)^3
     number of atoms/cell      =            6
     number of atomic types    =            2
     number of electrons       =        20.00
     number of Kohn-Sham states=           14
     kinetic-energy cutoff     =      80.0000  Ry
     charge density cutoff     =     320.0000  Ry
     scf convergence threshold =      1.0E-08
     mixing beta               =       0.7000
     number of iterations used =            8  plain     mixing
     energy convergence thresh.=      1.0E-04
     force convergence thresh. =      1.0E-03
     press convergence thresh. =      1.0E+00
     Exchange-correlation= PBE
                           (   1   4   3   4   0   0   0)
     nstep                     =           50


     celldm(1)=   9.318833  celldm(2)=   0.000000  celldm(3)=   0.471720
     celldm(4)=   0.000000  celldm(5)=   0.000000  celldm(6)=   0.000000

     crystal axes: (cart. coord. in units of alat)
               a(1) = (   1.000000   0.000000   0.000000 )  
               a(2) = (   0.000000   1.000000   0.000000 )  
               a(3) = (   0.000000   0.000000   0.471720 )  

     reciprocal axes: (cart. coord. in units 2 pi/alat)
               b(1) = (  1.000000  0.000000  0.000000 )  
               b(2) = (  0.000000  1.000000  0.000000 )  
               b(3) = (  0.000000  0.000000  2.119900 )  


     PseudoPot. # 1 for Si read from file:
     ../pseudo/Si_ONCV_PBE_sr.upf
     MD5 check sum: e543d271109d17c80368dfa7c482276d
     Pseudo is Norm-conserving + core correction, Zval =  4.0
     Generated using ONCVPSP code by D. R. Hamann
     Using radial grid of 1510 points,  6 beta functions with: 
                l(1) =   0
                l(2) =   0
                l(3) =   1
                l(4) =   1
                l(5) =   2
                l(6) =   2

     PseudoPot. # 2 for Li read from file:
     ../pseudo/Li_ONCV_PBE_sr.upf
     MD5 check sum: 50ff420e78310ffa21704f3361e624a4
     Pseudo is Norm-conserving, Zval =  3.0
     Generated using ONCVPSP code by D. R. Hamann
     Using radial grid of 1944 points,  4 beta functions with: 
                l(1) =   0
                l(2) =   0
                l(3) =   1
                l(4) =   1

     atomic species   valence    mass     pseudopotential
        Si             4.00    28.08550     Si( 1.00)
        Li             3.00     6.94100     Li( 1.00)

      8 Sym. Ops. (no inversion) found ( 4 have fractional translation)



   Cartesian axes

     site n.     atom                  positions (alat units)
         1           Si  tau(   1) = (   0.0000000   0.0000000   0.2358602  )
         2           Si  tau(   2) = (   0.5000000   0.5000000   0.2358602  )
         3           Li  tau(   3) = (   0.1294880   0.3705120   0.0198561  )
         4           Li  tau(   4) = (   0.3705120   0.8705120   0.4518643  )
         5           Li  tau(   5) = (   0.8705120   0.6294880   0.0198561  )
         6           Li  tau(   6) = (   0.6294880   0.1294880   0.4518643  )

     number of k points=    36  Marzari-Vanderbilt smearing, width (Ry)=  0.0200
                       cart. coord. in units 2pi/alat
        k(    1) = (   0.0000000   0.0000000   0.0000000), wk =   0.0080000
        k(    2) = (   0.0000000   0.0000000   0.2119900), wk =   0.0160000
        k(    3) = (   0.0000000   0.0000000   0.4239799), wk =   0.0160000
        k(    4) = (   0.0000000   0.0000000   0.6359699), wk =   0.0160000
        k(    5) = (   0.0000000   0.0000000   0.8479598), wk =   0.0160000
        k(    6) = (   0.0000000   0.0000000  -1.0599498), wk =   0.0080000
        k(    7) = (   0.0000000   0.2000000   0.0000000), wk =   0.0320000
        k(    8) = (   0.0000000   0.2000000   0.2119900), wk =   0.0640000
        k(    9) = (   0.0000000   0.2000000   0.4239799), wk =   0.0640000
        k(   10) = (   0.0000000   0.2000000   0.6359699), wk =   0.0640000
        k(   11) = (   0.0000000   0.2000000   0.8479598), wk =   0.0640000
        k(   12) = (   0.0000000   0.2000000  -1.0599498), wk =   0.0320000
        k(   13) = (   0.0000000   0.4000000   0.0000000), wk =   0.0320000
        k(   14) = (   0.0000000   0.4000000   0.2119900), wk =   0.0640000
        k(   15) = (   0.0000000   0.4000000   0.4239799), wk =   0.0640000
        k(   16) = (   0.0000000   0.4000000   0.6359699), wk =   0.0640000
        k(   17) = (   0.0000000   0.4000000   0.8479598), wk =   0.0640000
        k(   18) = (   0.0000000   0.4000000  -1.0599498), wk =   0.0320000
        k(   19) = (   0.2000000   0.2000000   0.0000000), wk =   0.0320000
        k(   20) = (   0.2000000   0.2000000   0.2119900), wk =   0.0640000
        k(   21) = (   0.2000000   0.2000000   0.4239799), wk =   0.0640000
        k(   22) = (   0.2000000   0.2000000   0.6359699), wk =   0.0640000
        k(   23) = (   0.2000000   0.2000000   0.8479598), wk =   0.0640000
        k(   24) = (   0.2000000   0.2000000  -1.0599498), wk =   0.0320000
        k(   25) = (   0.2000000   0.4000000   0.0000000), wk =   0.0640000
        k(   26) = (   0.2000000   0.4000000   0.2119900), wk =   0.1280000
        k(   27) = (   0.2000000   0.4000000   0.4239799), wk =   0.1280000
        k(   28) = (   0.2000000   0.4000000   0.6359699), wk =   0.1280000
        k(   29) = (   0.2000000   0.4000000   0.8479598), wk =   0.1280000
        k(   30) = (   0.2000000   0.4000000  -1.0599498), wk =   0.0640000
        k(   31) = (   0.4000000   0.4000000   0.0000000), wk =   0.0320000
        k(   32) = (   0.4000000   0.4000000   0.2119900), wk =   0.0640000
        k(   33) = (   0.4000000   0.4000000   0.4239799), wk =   0.0640000
        k(   34) = (   0.4000000   0.4000000   0.6359699), wk =   0.0640000
        k(   35) = (   0.4000000   0.4000000   0.8479598), wk =   0.0640000
        k(   36) = (   0.4000000   0.4000000  -1.0599498), wk =   0.0320000

     Dense  grid:    36977 G-vectors     FFT dimensions: (  54,  54,  25)

     Estimated max dynamical RAM per process >      20.05 MB

     Estimated total dynamical RAM >     160.37 MB

     Initial potential from superposition of free atoms

     starting charge      19.9805, renormalised to      20.0000
     Starting wfcs are   16 randomized atomic wfcs

     total cpu time spent up to now is        0.9 secs

     Self-consistent Calculation

     iteration #  1     ecut=    80.00 Ry     beta= 0.70
     Davidson diagonalization with overlap
     ethr =  1.00E-02,  avg # of iterations =  6.2

     Threshold (ethr) on eigenvalues was too large:
     Diagonalizing with lowered threshold

     Davidson diagonalization with overlap
     ethr =  1.91E-04,  avg # of iterations =  3.9

     total cpu time spent up to now is        2.4 secs

     total energy              =     -74.25440725 Ry
     estimated scf accuracy    <       0.03592274 Ry

     iteration #  2     ecut=    80.00 Ry     beta= 0.70
     Davidson diagonalization with overlap
     ethr =  1.80E-04,  avg # of iterations =  2.2

     total cpu time spent up to now is        3.0 secs

     total energy              =     -74.25922453 Ry
     estimated scf accuracy    <       0.00396834 Ry

     iteration #  3     ecut=    80.00 Ry     beta= 0.70
     Davidson diagonalization with overlap
     ethr =  1.98E-05,  avg # of iterations =  3.6

     total cpu time spent up to now is        3.7 secs

     total energy              =     -74.25987335 Ry
     estimated scf accuracy    <       0.00027586 Ry

     iteration #  4     ecut=    80.00 Ry     beta= 0.70
     Davidson diagonalization with overlap
     ethr =  1.38E-06,  avg # of iterations =  4.7

     total cpu time spent up to now is        4.3 secs

     total energy              =     -74.25988749 Ry
     estimated scf accuracy    <       0.00000484 Ry

     iteration #  5     ecut=    80.00 Ry     beta= 0.70
     Davidson diagonalization with overlap
     ethr =  2.42E-08,  avg # of iterations =  2.7

     total cpu time spent up to now is        5.0 secs

     total energy              =     -74.25988932 Ry
     estimated scf accuracy    <       0.00000071 Ry

     iteration #  6     ecut=    80.00 Ry     beta= 0.70
     Davidson diagonalization with overlap
     ethr =  3.53E-09,  avg # of iterations =  1.8

     total cpu time spent up to now is        5.6 secs

     total energy              =     -74.25988941 Ry
     estimated scf accuracy    <       0.00000002 Ry

     iteration #  7     ecut=    80.00 Ry     beta= 0.70
     Davidson diagonalization with overlap
     ethr =  9.19E-11,  avg # of iterations =  3.0

     total cpu time spent up to now is        6.2 secs

     End of self-consistent calculation

          k = 0.0000 0.0000 0.0000 (  4621 PWs)   bands (ev):

   -38.0084 -37.9522 -37.6201 -37.6201  -2.8049  -1.3744   3.4011   3.4011
     6.5873   7.3875   7.3875  10.0639  12.3276  16.8396

          k = 0.0000 0.0000 0.2120 (  4637 PWs)   bands (ev):

   -37.9967 -37.9416 -37.6109 -37.6109  -2.5785  -1.1130   3.6317   3.6317
     6.8170   7.5850   7.5850   9.9753  12.2265  16.3667

          k = 0.0000 0.0000 0.4240 (  4593 PWs)   bands (ev):

   -37.9659 -37.9137 -37.5867 -37.5867  -1.9047  -0.3357   4.3147   4.3147
     7.4709   8.1702   8.1702   9.2978  11.9807  14.5870

          k = 0.0000 0.0000 0.6360 (  4588 PWs)   bands (ev):

   -37.9276 -37.8792 -37.5567 -37.5567  -0.8017   0.9309   5.4149   5.4149
     7.3549   8.5071   9.1055   9.1055  11.2359  11.8513

          k = 0.0000 0.0000 0.8480 (  4608 PWs)   bands (ev):

   -37.8964 -37.8512 -37.5324 -37.5324   0.6831   2.5964   5.0677   6.8007
     6.8007   8.2752   9.3125  10.1826  10.1826  12.3047

          k = 0.0000 0.0000-1.0599 (  4596 PWs)   bands (ev):

   -37.8845 -37.8404 -37.5230 -37.5230   2.0259   3.4086   3.8931   6.5412
     7.7277   7.7277   9.5683  10.4494  10.4494  12.2357

          k = 0.0000 0.2000 0.0000 (  4627 PWs)   bands (ev):

   -38.0030 -37.9575 -37.6202 -37.6202  -2.7130  -1.5859   3.5356   3.7524
     5.6798   6.7550   8.5144  10.8691  12.8575  15.8002

          k = 0.0000 0.2000 0.2120 (  4611 PWs)   bands (ev):

   -37.9914 -37.9468 -37.6109 -37.6109  -2.4833  -1.3279   3.7666   3.9685
     5.9201   6.9151   8.6849  10.8500  12.7907  15.6516

          k = 0.0000 0.2000 0.4240 (  4614 PWs)   bands (ev):

   -37.9609 -37.9187 -37.5867 -37.5867  -1.7996  -0.5603   4.4510   4.5987
     6.6391   7.3150   9.1354  10.3538  12.6258  14.2302

          k = 0.0000 0.2000 0.6360 (  4606 PWs)   bands (ev):

   -37.9230 -37.8839 -37.5567 -37.5567  -0.6801   0.6939   5.5290   5.5702
     7.1344   7.8270   9.2698   9.8156  10.9549  12.7046

          k = 0.0000 0.2000 0.8480 (  4611 PWs)   bands (ev):

   -37.8922 -37.8555 -37.5323 -37.5323   0.8313   2.3667   5.1014   6.3666
     7.0028   8.3641   9.5168   9.8325  10.2802  12.4525

          k = 0.0000 0.2000-1.0599 (  4614 PWs)   bands (ev):

   -37.8803 -37.8447 -37.5230 -37.5230   2.2526   3.4217   3.8065   5.4576
     7.9354   8.1633  10.2226  10.6790  10.8445  11.3656

          k = 0.0000 0.4000 0.0000 (  4616 PWs)   bands (ev):

   -37.9889 -37.9715 -37.6202 -37.6202  -2.4429  -2.0284   3.9380   4.4167
     4.8949   5.7062  10.1433  11.5363  14.3109  14.6743

          k = 0.0000 0.4000 0.2120 (  4621 PWs)   bands (ev):

   -37.9776 -37.9606 -37.6110 -37.6110  -2.2045  -1.7793   4.1680   4.6074
     5.1315   5.8701  10.2918  11.6715  14.3068  14.4621

          k = 0.0000 0.4000 0.4240 (  4607 PWs)   bands (ev):

   -37.9479 -37.9318 -37.5867 -37.5867  -1.4951  -1.0377   4.8465   5.1466
     5.8363   6.3103  10.6675  11.6652  12.9793  13.2660

          k = 0.0000 0.4000 0.6360 (  4605 PWs)   bands (ev):

   -37.9109 -37.8960 -37.5567 -37.5567  -0.3326   0.1773   5.8193   5.8938
     6.7281   6.9877   9.7923  10.3530  11.2222  13.0772

          k = 0.0000 0.4000 0.8480 (  4601 PWs)   bands (ev):

   -37.8809 -37.8669 -37.5322 -37.5322   1.2458   1.8249   5.2816   5.7124
     7.5814   8.4144   8.8344   9.3558  11.5539  12.6313

          k = 0.0000 0.4000-1.0599 (  4608 PWs)   bands (ev):

   -37.8694 -37.8558 -37.5229 -37.5229   2.9231   3.4757   3.6363   4.0430
     8.5116   8.7650   9.7447  10.0980  10.9835  11.5572

          k = 0.2000 0.2000 0.0000 (  4605 PWs)   bands (ev):

   -37.9985 -37.9617 -37.6206 -37.6201  -2.6332  -1.7320   3.2409   4.5070
     4.8179   7.4447   8.5445  11.2172  13.4932  15.5195

          k = 0.2000 0.2000 0.2120 (  4616 PWs)   bands (ev):

   -37.9870 -37.9509 -37.6114 -37.6108  -2.4001  -1.4753   3.4458   4.7420
     5.0223   7.6574   8.6958  11.1838  13.5002  15.8125

          k = 0.2000 0.2000 0.4240 (  4615 PWs)   bands (ev):

   -37.9567 -37.9226 -37.5871 -37.5866  -1.7065  -0.7110   4.0442   5.4340
     5.6045   8.2846   9.0449  10.6674  13.3186  13.8533

          k = 0.2000 0.2000 0.6360 (  4605 PWs)   bands (ev):

   -37.9192 -37.8875 -37.5570 -37.5566  -0.5702   0.5408   4.9659   6.2831
     6.4996   8.4973   9.2138  10.1003  10.8516  12.7952

          k = 0.2000 0.2000 0.8480 (  4618 PWs)   bands (ev):

   -37.8886 -37.8590 -37.5325 -37.5322   0.9680   2.2235   5.1146   6.1106
     6.8233   8.5366   8.8811  10.4405  10.8092  12.1783

          k = 0.2000 0.2000-1.0599 (  4614 PWs)   bands (ev):

   -37.8769 -37.8481 -37.5232 -37.5228   2.4765   3.4312   3.7335   5.2709
     6.6673   9.2291   9.7870  10.6109  11.3239  11.8707

          k = 0.2000 0.4000 0.0000 (  4617 PWs)   bands (ev):

   -37.9869 -37.9728 -37.6208 -37.6204  -2.4030  -2.0650   3.3538   3.9025
     5.6131   6.7261  10.1439  11.6638  13.7898  15.0669

          k = 0.2000 0.4000 0.2120 (  4618 PWs)   bands (ev):

   -37.9756 -37.9618 -37.6115 -37.6112  -2.1615  -1.8141   3.5464   4.0952
     5.8420   6.9390  10.3079  11.7561  13.7373  14.8920

          k = 0.2000 0.4000 0.4240 (  4611 PWs)   bands (ev):

   -37.9460 -37.9330 -37.5872 -37.5869  -1.4425  -1.0667   4.1045   4.6491
     6.5083   7.5492  10.7130  11.5534  12.9604  13.1425

          k = 0.2000 0.4000 0.6360 (  4610 PWs)   bands (ev):

   -37.9093 -37.8972 -37.5570 -37.5568  -0.2633   0.1600   4.9392   5.4224
     7.4352   8.1801   9.6949  10.3078  11.3568  12.8888

          k = 0.2000 0.4000 0.8480 (  4611 PWs)   bands (ev):

   -37.8794 -37.8681 -37.5326 -37.5323   1.3412   1.8277   5.2459   5.6050
     6.9472   7.5634   9.6994  10.4894  11.4250  12.2369

          k = 0.2000 0.4000-1.0599 (  4614 PWs)   bands (ev):

   -37.8679 -37.8569 -37.5232 -37.5230   3.1298   3.4814   3.5895   4.2117
     6.8671   7.8637  10.8525  10.9893  11.3974  11.9540

          k = 0.4000 0.4000 0.0000 (  4626 PWs)   bands (ev):

   -37.9819 -37.9765 -37.6214 -37.6212  -2.2969  -2.1662   3.0290   3.2296
     6.8839   7.5482  10.6553  12.2634  12.5265  13.5127

          k = 0.4000 0.4000 0.2120 (  4615 PWs)   bands (ev):

   -37.9707 -37.9655 -37.6121 -37.6119  -2.0488  -1.9140   3.2049   3.4060
     7.1270   7.7909  10.8306  12.3166  12.7265  13.5780

          k = 0.4000 0.4000 0.4240 (  4600 PWs)   bands (ev):

   -37.9415 -37.9365 -37.5877 -37.5875  -1.3094  -1.1621   3.7150   3.9168
     7.8414   8.5149  11.0852  12.0220  12.3027  13.2629

          k = 0.4000 0.4000 0.6360 (  4618 PWs)   bands (ev):

   -37.9051 -37.9005 -37.5574 -37.5573  -0.0936   0.0753   4.4920   4.6815
     8.6611   9.1324   9.6150  10.0911  12.0138  12.7907

          k = 0.4000 0.4000 0.8480 (  4631 PWs)   bands (ev):

   -37.8756 -37.8712 -37.5328 -37.5327   1.5679   1.7665   5.2290   5.3781
     6.5116   6.7448  10.9595  11.4549  11.4737  11.7361

          k = 0.4000 0.4000-1.0599 (  4606 PWs)   bands (ev):

   -37.8642 -37.8600 -37.5234 -37.5233   3.4434   3.5037   3.7835   4.4108
     5.8007   6.4279  10.9130  11.1035  12.7053  13.2114

     the Fermi energy is     8.6945 ev

!    total energy              =     -74.25988942 Ry
     estimated scf accuracy    <          2.5E-10 Ry
     smearing contrib. (-TS)   =      -0.00009356 Ry
     internal energy E=F+TS    =     -74.25979585 Ry

     The total energy is F=E-TS. E is the sum of the following terms:
     one-electron contribution =     -17.91523901 Ry
     hartree contribution      =      12.03000786 Ry
     xc contribution           =     -20.54901278 Ry
     ewald contribution        =     -47.82555193 Ry

     convergence has been achieved in   7 iterations

     Forces acting on atoms (cartesian axes, Ry/au):

     atom    1 type  1   force =     0.00000000    0.00000000    0.00000000
     atom    2 type  1   force =     0.00000000    0.00000000   -0.00000000
     atom    3 type  2   force =     0.01705261   -0.01705261   -0.01530981
     atom    4 type  2   force =    -0.01705261   -0.01705261    0.01530981
     atom    5 type  2   force =    -0.01705261    0.01705261   -0.01530981
     atom    6 type  2   force =     0.01705261    0.01705261    0.01530981
     The non-local contrib.  to forces
     atom    1 type  1   force =     0.00000000    0.00000000   -0.00000000
     atom    2 type  1   force =     0.00000000    0.00000000    0.00000000
     atom    3 type  2   force =    -0.09334709    0.09334709   -0.00421778
     atom    4 type  2   force =     0.09334709    0.09334709    0.00421778
     atom    5 type  2   force =     0.09334709   -0.09334709   -0.00421778
     atom    6 type  2   force =    -0.09334709   -0.09334709    0.00421778
     The ionic contribution  to forces
     atom    1 type  1   force =     0.00000000    0.00000000   -0.00000000
     atom    2 type  1   force =    -0.00000000   -0.00000000   -0.00000000
     atom    3 type  2   force =     0.08530372   -0.08530372   -0.03429947
     atom    4 type  2   force =    -0.08530372   -0.08530372    0.03429947
     atom    5 type  2   force =    -0.08530372    0.08530372   -0.03429947
     atom    6 type  2   force =     0.08530372    0.08530372    0.03429947
     The local contribution  to forces
     atom    1 type  1   force =     0.00000000    0.00000000   -0.00000000
     atom    2 type  1   force =    -0.00000000    0.00000000   -0.00000000
     atom    3 type  2   force =     0.02510072   -0.02510072    0.02320777
     atom    4 type  2   force =    -0.02510072   -0.02510072   -0.02320777
     atom    5 type  2   force =    -0.02510072    0.02510072    0.02320777
     atom    6 type  2   force =     0.02510072    0.02510072   -0.02320777
     The core correction contribution to forces
     atom    1 type  1   force =     0.00000000    0.00000000   -0.00000000
     atom    2 type  1   force =    -0.00000000   -0.00000000   -0.00000000
     atom    3 type  2   force =     0.00000000    0.00000000    0.00000000
     atom    4 type  2   force =     0.00000000    0.00000000    0.00000000
     atom    5 type  2   force =     0.00000000    0.00000000    0.00000000
     atom    6 type  2   force =     0.00000000    0.00000000    0.00000000
     The Hubbard contrib.    to forces
     atom    1 type  1   force =     0.00000000    0.00000000    0.00000000
     atom    2 type  1   force =     0.00000000    0.00000000    0.00000000
     atom    3 type  2   force =     0.00000000    0.00000000    0.00000000
     atom    4 type  2   force =     0.00000000    0.00000000    0.00000000
     atom    5 type  2   force =     0.00000000    0.00000000    0.00000000
     atom    6 type  2   force =     0.00000000    0.00000000    0.00000000
     The SCF correction term to forces
     atom    1 type  1   force =    -0.00000000    0.00000000    0.00000000
     atom    2 type  1   force =    -0.00000000   -0.00000000   -0.00000000
     atom    3 type  2   force =    -0.00000475    0.00000475   -0.00000032
     atom    4 type  2   force =     0.00000475    0.00000475    0.00000032
     atom    5 type  2   force =     0.00000475   -0.00000475   -0.00000032
     atom    6 type  2   force =    -0.00000475   -0.00000475    0.00000032

     Total force =     0.057130     Total SCF correction =     0.000013


     Computing stress (Cartesian axis) and pressure

          total   stress  (Ry/bohr**3)                   (kbar)     P=      472.43
   0.00326531   0.00000000   0.00000000          480.34        0.00        0.00
   0.00000000   0.00326531   0.00000000            0.00      480.34        0.00
   0.00000000   0.00000000   0.00310393            0.00        0.00      456.60


     BFGS Geometry Optimization
     Energy error            =      0.0E+00 Ry
     Gradient error          =      1.7E-02 Ry/Bohr
     Cell gradient error     =      4.3E+01 kbar

     number of scf cycles    =   1
     number of bfgs steps    =   0

     enthalpy           new  =     -72.9623768324 Ry

     new trust radius        =       0.0288184614 bohr
ibrav =      6
 celldm(1) =      9.28770307
 celldm(3) =      0.46981097
Input lattice vectors:
     0.99665950     0.00000000     0.00000000
     0.00000000     0.99665950     0.00000000
     0.00000000     0.00000000     0.46824156
New lattice vectors in INITIAL alat:
     0.99665950     0.00000000     0.00000000
     0.00000000     0.99665950     0.00000000
     0.00000000     0.00000000     0.46824156
New lattice vectors in NEW alat (for information only):
     1.00000000     0.00000000     0.00000000
     0.00000000     1.00000000     0.00000000
     0.00000000     0.00000000     0.46981097
Discrepancy in bohr =     0.000000    0.000000    0.000000
     new conv_thr            =       0.0000000100 Ry

     new unit-cell volume =    376.39870 a.u.^3 (    55.77653 Ang^3 )
     density =      2.49885 g/cm^3

CELL_PARAMETERS (alat=  9.31883260)
   0.996659503   0.000000000   0.000000000
   0.000000000   0.996659503   0.000000000
   0.000000000   0.000000000   0.468241564

ATOMIC_POSITIONS (crystal)
Si            0.0000000000        0.0000000000        0.5000000000
Si            0.5000000000        0.5000000000        0.5000000000
Li            0.1313179085        0.3686820915        0.0386102406
Li            0.3686820915        0.8686820915        0.9613897594
Li            0.8686820915        0.6313179085        0.0386102406
Li            0.6313179085        0.1313179085        0.9613897594



     Writing config-only to output data dir ./output/SiLi.save/
     NEW-OLD atomic charge density approx. for the potential
     extrapolated charge   19.71639, renormalised to   20.00000

     total cpu time spent up to now is        8.2 secs

     Self-consistent Calculation

     iteration #  1     ecut=    80.00 Ry     beta= 0.70
     Davidson diagonalization with overlap
     ethr =  1.00E-06,  avg # of iterations =  4.8

     total cpu time spent up to now is        9.3 secs

     total energy              =     -74.24472465 Ry
     estimated scf accuracy    <       0.00017688 Ry

     iteration #  2     ecut=    80.00 Ry     beta= 0.70
     Davidson diagonalization with overlap
     ethr =  8.84E-07,  avg # of iterations =  2.8

     total cpu time spent up to now is       10.0 secs

     total energy              =     -74.24525622 Ry
     estimated scf accuracy    <       0.00007367 Ry

     iteration #  3     ecut=    80.00 Ry     beta= 0.70
     Davidson diagonalization with overlap
     ethr =  3.68E-07,  avg # of iterations =  1.0

     total cpu time spent up to now is       10.5 secs

     total energy              =     -74.24524749 Ry
     estimated scf accuracy    <       0.00001900 Ry

     iteration #  4     ecut=    80.00 Ry     beta= 0.70
     Davidson diagonalization with overlap
     ethr =  9.50E-08,  avg # of iterations =  1.1

     total cpu time spent up to now is       11.0 secs

     total energy              =     -74.24524745 Ry
     estimated scf accuracy    <       0.00000157 Ry

     iteration #  5     ecut=    80.00 Ry     beta= 0.70
     Davidson diagonalization with overlap
     ethr =  7.85E-09,  avg # of iterations =  2.1

     total cpu time spent up to now is       11.7 secs

     total energy              =     -74.24524770 Ry
     estimated scf accuracy    <       0.00000005 Ry

     iteration #  6     ecut=    80.00 Ry     beta= 0.70
     Davidson diagonalization with overlap
     ethr =  2.31E-10,  avg # of iterations =  3.0

     total cpu time spent up to now is       12.3 secs

     End of self-consistent calculation

          k = 0.0000 0.0000 0.0000 (  4621 PWs)   bands (ev):

   -37.8184 -37.7577 -37.4520 -37.4520  -2.7320  -1.3338   3.4995   3.4995
     6.6385   7.4965   7.4965  10.1838  12.5538  16.9724

          k = 0.0000 0.0000 0.2136 (  4637 PWs)   bands (ev):

   -37.8059 -37.7464 -37.4421 -37.4421  -2.5031  -1.0689   3.7327   3.7327
     6.8748   7.6955   7.6955  10.1008  12.4486  16.6082

          k = 0.0000 0.0000 0.4271 (  4593 PWs)   bands (ev):

   -37.7730 -37.7167 -37.4161 -37.4161  -1.8221  -0.2818   4.4233   4.4233
     7.5513   8.2853   8.2853   9.4391  12.1895  14.8551

          k = 0.0000 0.0000 0.6407 (  4588 PWs)   bands (ev):

   -37.7322 -37.6800 -37.3838 -37.3838  -0.7072   0.9989   5.5344   5.5344
     7.5137   8.6168   9.2285   9.2285  11.4761  12.0300

          k = 0.0000 0.0000 0.8543 (  4608 PWs)   bands (ev):

   -37.6989 -37.6501 -37.3575 -37.3575   0.7945   2.6756   5.2069   6.9302
     6.9302   8.4929   9.4831  10.3184  10.3184  12.4450

          k = 0.0000 0.0000-1.0678 (  4596 PWs)   bands (ev):

   -37.6862 -37.6386 -37.3475 -37.3475   2.1625   3.5210   3.9574   6.7695
     7.8578   7.8578   9.7627  10.6097  10.6097  12.4461

          k = 0.0000 0.2007 0.0000 (  4627 PWs)   bands (ev):

   -37.8126 -37.7635 -37.4520 -37.4520  -2.6422  -1.5400   3.6310   3.8481
     5.7510   6.8611   8.6168  10.9916  13.0721  15.9662

          k = 0.0000 0.2007 0.2136 (  4611 PWs)   bands (ev):

   -37.8002 -37.7521 -37.4421 -37.4421  -2.4099  -1.2786   3.8647   4.0667
     5.9955   7.0232   8.7923  10.9788  13.0005  15.8322

          k = 0.0000 0.2007 0.4271 (  4614 PWs)   bands (ev):

   -37.7677 -37.7222 -37.4161 -37.4161  -1.7187  -0.5014   4.5568   4.7042
     6.7270   7.4300   9.2616  10.5013  12.8208  14.4838

          k = 0.0000 0.2007 0.6407 (  4606 PWs)   bands (ev):

   -37.7272 -37.6850 -37.3837 -37.3837  -0.5869   0.7671   5.6469   5.6858
     7.2718   7.9358   9.4311   9.9515  11.1857  12.8737

          k = 0.0000 0.2007 0.8543 (  4611 PWs)   bands (ev):

   -37.6943 -37.6548 -37.3575 -37.3575   0.9418   2.4528   5.2376   6.4928
     7.1344   8.5706   9.6583   9.9996  10.4390  12.6096

          k = 0.0000 0.2007-1.0678 (  4614 PWs)   bands (ev):

   -37.6817 -37.6433 -37.3474 -37.3474   2.3913   3.5304   3.8768   5.6342
     8.0665   8.3547  10.3930  10.8316  11.0024  11.5914

          k = 0.0000 0.4013 0.0000 (  4616 PWs)   bands (ev):

   -37.7974 -37.7787 -37.4521 -37.4521  -2.3781  -1.9725   4.0252   4.4986
     4.9893   5.8084  10.2605  11.6568  14.5072  14.8662

          k = 0.0000 0.4013 0.2136 (  4621 PWs)   bands (ev):

   -37.7854 -37.7670 -37.4421 -37.4421  -2.1368  -1.7202   4.2579   4.6926
     5.2287   5.9749  10.4152  11.7990  14.4973  14.6451

          k = 0.0000 0.4013 0.4271 (  4607 PWs)   bands (ev):

   -37.7537 -37.7363 -37.4160 -37.4160  -1.4190  -0.9695   4.9442   5.2412
     5.9419   6.4234  10.8120  11.8290  13.1629  13.4670

          k = 0.0000 0.4013 0.6407 (  4605 PWs)   bands (ev):

   -37.7143 -37.6981 -37.3837 -37.3836  -0.2433   0.2596   5.9300   5.9991
     6.8575   7.1067   9.9840  10.5634  11.3767  13.2396

          k = 0.0000 0.4013 0.8543 (  4601 PWs)   bands (ev):

   -37.6823 -37.6672 -37.3574 -37.3573   1.3528   1.9235   5.4105   5.8363
     7.7167   8.5570   9.0288   9.5374  11.7204  12.8122

          k = 0.0000 0.4013-1.0678 (  4608 PWs)   bands (ev):

   -37.6700 -37.6553 -37.3473 -37.3473   3.0682   3.5764   3.7193   4.1954
     8.6485   8.9612   9.9093  10.3237  11.1416  11.7093

          k = 0.2007 0.2007 0.0000 (  4605 PWs)   bands (ev):

   -37.8078 -37.7680 -37.4526 -37.4519  -2.5643  -1.6831   3.3380   4.5983
     4.8999   7.5438   8.6431  11.3604  13.6890  15.6846

          k = 0.2007 0.2007 0.2136 (  4616 PWs)   bands (ev):

   -37.7955 -37.7565 -37.4426 -37.4420  -2.3286  -1.4231   3.5455   4.8361
     5.1079   7.7588   8.7991  11.3342  13.6916  16.0130

          k = 0.2007 0.2007 0.4271 (  4615 PWs)   bands (ev):

   -37.7632 -37.7264 -37.4165 -37.4159  -1.6271  -0.6493   4.1514   5.5360
     5.7008   8.3929   9.1644  10.8348  13.5162  14.0895

          k = 0.2007 0.2007 0.6407 (  4605 PWs)   bands (ev):

   -37.7231 -37.6889 -37.3841 -37.3836  -0.4783   0.6166   5.0852   6.3984
     6.6119   8.6542   9.3371  10.2573  11.0745  12.9735

          k = 0.2007 0.2007 0.8543 (  4618 PWs)   bands (ev):

   -37.6905 -37.6585 -37.3577 -37.3573   1.0776   2.3129   5.2491   6.2412
     6.9627   8.6918   9.0676  10.6145  10.9589  12.3331

          k = 0.2007 0.2007-1.0678 (  4614 PWs)   bands (ev):

   -37.6780 -37.6469 -37.3477 -37.3472   2.6173   3.5364   3.8085   5.4497
     6.8083   9.4013   9.9697  10.7768  11.4749  12.0792

          k = 0.2007 0.4013 0.0000 (  4617 PWs)   bands (ev):

   -37.7952 -37.7800 -37.4527 -37.4523  -2.3395  -2.0091   3.4479   3.9908
     5.7026   6.8179  10.2572  11.7979  13.9690  15.2347

          k = 0.2007 0.4013 0.2136 (  4618 PWs)   bands (ev):

   -37.7832 -37.7683 -37.4428 -37.4424  -2.0952  -1.7551   3.6431   4.1864
     5.9345   7.0337  10.4266  11.8979  13.9110  15.0610

          k = 0.2007 0.4013 0.4271 (  4611 PWs)   bands (ev):

   -37.7516 -37.7375 -37.4166 -37.4162  -1.3677  -0.9986   4.2090   4.7491
     6.6096   7.6529  10.8500  11.7246  13.1598  13.3141

          k = 0.2007 0.4013 0.6407 (  4610 PWs)   bands (ev):

   -37.7124 -37.6994 -37.3841 -37.3838  -0.1752   0.2420   5.0560   5.5357
     7.5498   8.3086   9.8687  10.5087  11.5175  13.0614

          k = 0.2007 0.4013 0.8543 (  4611 PWs)   bands (ev):

   -37.6806 -37.6684 -37.3577 -37.3575   1.4471   1.9259   5.3754   5.7322
     7.0992   7.7212   9.8695  10.6494  11.5974  12.4034

          k = 0.2007 0.4013-1.0678 (  4614 PWs)   bands (ev):

   -37.6684 -37.6565 -37.3476 -37.3474   3.2765   3.5792   3.6756   4.3678
     7.0223   8.0297  11.0290  11.1715  11.5570  12.1553

          k = 0.4013 0.4013 0.0000 (  4626 PWs)   bands (ev):

   -37.7898 -37.7839 -37.4534 -37.4532  -2.2369  -2.1092   3.1254   3.3237
     6.9660   7.6290  10.7776  12.4172  12.6595  13.6702

          k = 0.4013 0.4013 0.2136 (  4615 PWs)   bands (ev):

   -37.7779 -37.7722 -37.4434 -37.4432  -1.9858  -1.8540   3.3038   3.5028
     7.2124   7.8751  10.9570  12.4768  12.8613  13.7366

          k = 0.4013 0.4013 0.4271 (  4600 PWs)   bands (ev):

   -37.7467 -37.7413 -37.4171 -37.4169  -1.2376  -1.0932   3.8214   4.0214
     7.9365   8.6093  11.2275  12.1983  12.4705  13.4386

          k = 0.4013 0.4013 0.6407 (  4618 PWs)   bands (ev):

   -37.7079 -37.7029 -37.3845 -37.3844  -0.0083   0.1580   4.6108   4.7985
     8.7828   9.3019   9.7368  10.2521  12.1907  12.9795

          k = 0.4013 0.4013 0.8543 (  4631 PWs)   bands (ev):

   -37.6764 -37.6717 -37.3581 -37.3579   1.6702   1.8652   5.3614   5.5104
     6.6658   6.9038  11.1071  11.5967  11.6501  11.9089

          k = 0.4013 0.4013-1.0678 (  4606 PWs)   bands (ev):

   -37.6644 -37.6598 -37.3479 -37.3478   3.5438   3.5944   3.9301   4.5747
     5.9442   6.5837  11.0758  11.2638  12.9160  13.4004

     the Fermi energy is     8.8275 ev

!    total energy              =     -74.24524772 Ry
     estimated scf accuracy    <          2.4E-10 Ry
     smearing contrib. (-TS)   =      -0.00001323 Ry
     internal energy E=F+TS    =     -74.24523448 Ry

     The total energy is F=E-TS. E is the sum of the following terms:
     one-electron contribution =     -17.59430380 Ry
     hartree contribution      =      11.99304813 Ry
     xc contribution           =     -20.58597974 Ry
     ewald contribution        =     -48.05799907 Ry

     convergence has been achieved in   6 iterations

     Forces acting on atoms (cartesian axes, Ry/au):

     atom    1 type  1   force =     0.00000000    0.00000000   -0.00000000
     atom    2 type  1   force =     0.00000000    0.00000000    0.00000000
     atom    3 type  2   force =     0.01291714   -0.01291714   -0.01444192
     atom    4 type  2   force =    -0.01291714   -0.01291714    0.01444192
     atom    5 type  2   force =    -0.01291714    0.01291714   -0.01444192
     atom    6 type  2   force =     0.01291714    0.01291714    0.01444192
     The non-local contrib.  to forces
     atom    1 type  1   force =     0.00000000    0.00000000    0.00000000
     atom    2 type  1   force =     0.00000000    0.00000000    0.00000000
     atom    3 type  2   force =    -0.08931685    0.08931685   -0.00353961
     atom    4 type  2   force =     0.08931685    0.08931685    0.00353961
     atom    5 type  2   force =     0.08931685   -0.08931685   -0.00353961
     atom    6 type  2   force =    -0.08931685   -0.08931685    0.00353961
     The ionic contribution  to forces
     atom    1 type  1   force =    -0.00000000   -0.00000000    0.00000000
     atom    2 type  1   force =     0.00000000    0.00000000    0.00000000
     atom    3 type  2   force =     0.04796906   -0.04796906   -0.03166785
     atom    4 type  2   force =    -0.04796906   -0.04796906    0.03166785
     atom    5 type  2   force =    -0.04796906    0.04796906   -0.03166785
     atom    6 type  2   force =     0.04796906    0.04796906    0.03166785
     The local contribution  to forces
     atom    1 type  1   force =     0.00000000   -0.00000000    0.00000000
     atom    2 type  1   force =    -0.00000000    0.00000000   -0.00000000
     atom    3 type  2   force =     0.05426584   -0.05426584    0.02076663
     atom    4 type  2   force =    -0.05426584   -0.05426584   -0.02076663
     atom    5 type  2   force =    -0.05426584    0.05426584    0.02076663
     atom    6 type  2   force =     0.05426584    0.05426584   -0.02076663
     The core correction contribution to forces
     atom    1 type  1   force =     0.00000000    0.00000000    0.00000000
     atom    2 type  1   force =    -0.00000000   -0.00000000    0.00000000
     atom    3 type  2   force =     0.00000000    0.00000000    0.00000000
     atom    4 type  2   force =     0.00000000    0.00000000    0.00000000
     atom    5 type  2   force =     0.00000000    0.00000000    0.00000000
     atom    6 type  2   force =     0.00000000    0.00000000    0.00000000
     The Hubbard contrib.    to forces
     atom    1 type  1   force =     0.00000000    0.00000000    0.00000000
     atom    2 type  1   force =     0.00000000    0.00000000    0.00000000
     atom    3 type  2   force =     0.00000000    0.00000000    0.00000000
     atom    4 type  2   force =     0.00000000    0.00000000    0.00000000
     atom    5 type  2   force =     0.00000000    0.00000000    0.00000000
     atom    6 type  2   force =     0.00000000    0.00000000    0.00000000
     The SCF correction term to forces
     atom    1 type  1   force =    -0.00000000   -0.00000000    0.00000000
     atom    2 type  1   force =    -0.00000000    0.00000000   -0.00000000
     atom    3 type  2   force =    -0.00000091    0.00000091   -0.00000109
     atom    4 type  2   force =     0.00000091    0.00000091    0.00000109
     atom    5 type  2   force =     0.00000091   -0.00000091   -0.00000109
     atom    6 type  2   force =    -0.00000091   -0.00000091    0.00000109

     Total force =     0.046574     Total SCF correction =     0.000003


     Computing stress (Cartesian axis) and pressure

          total   stress  (Ry/bohr**3)                   (kbar)     P=      503.08
   0.00344286   0.00000000   0.00000000          506.46        0.00        0.00
   0.00000000   0.00344286   0.00000000            0.00      506.46        0.00
   0.00000000   0.00000000   0.00337382            0.00        0.00      496.31

     Energy error            =      3.5E-03 Ry
     Gradient error          =      1.4E-02 Ry/Bohr
     Cell gradient error     =      6.5E+00 kbar

     number of scf cycles    =   2
     number of bfgs steps    =   1

     enthalpy           old  =     -72.9623768324 Ry
     enthalpy           new  =     -72.9658945298 Ry

     CASE: enthalpy          _new < enthalpy          _old

     new trust radius        =       0.0317115640 bohr
ibrav =      6
 celldm(1) =      9.28651157
 celldm(3) =      0.46838010
Input lattice vectors:
     0.99653164     0.00000000     0.00000000
     0.00000000     0.99653164     0.00000000
     0.00000000     0.00000000     0.46675559
New lattice vectors in INITIAL alat:
     0.99653164     0.00000000     0.00000000
     0.00000000     0.99653164     0.00000000
     0.00000000     0.00000000     0.46675559
New lattice vectors in NEW alat (for information only):
     1.00000000     0.00000000     0.00000000
     0.00000000     1.00000000     0.00000000
     0.00000000     0.00000000     0.46838010
Discrepancy in bohr =     0.000000    0.000000    0.000000
     new conv_thr            =       0.0000000014 Ry

     new unit-cell volume =    375.10793 a.u.^3 (    55.58526 Ang^3 )
     density =      2.50745 g/cm^3

CELL_PARAMETERS (alat=  9.31883260)
   0.996531644   0.000000000   0.000000000
   0.000000000   0.996531644   0.000000000
   0.000000000   0.000000000   0.466755595

ATOMIC_POSITIONS (crystal)
Si            0.0000000000        0.0000000000        0.5000000000
Si            0.5000000000        0.5000000000        0.5000000000
Li            0.1332636296        0.3667363704        0.0343075870
Li            0.3667363704        0.8667363704        0.9656924130
Li            0.8667363704        0.6332636296        0.0343075870
Li            0.6332636296        0.1332636296        0.9656924130



     Writing config-only to output data dir ./output/SiLi.save/
     NEW-OLD atomic charge density approx. for the potential
     extrapolated charge   19.93125, renormalised to   20.00000

     total cpu time spent up to now is       14.2 secs

     Self-consistent Calculation

     iteration #  1     ecut=    80.00 Ry     beta= 0.70
     Davidson diagonalization with overlap
     ethr =  1.00E-06,  avg # of iterations =  4.4

     total cpu time spent up to now is       15.2 secs

     total energy              =     -74.24341515 Ry
     estimated scf accuracy    <       0.00005549 Ry

     iteration #  2     ecut=    80.00 Ry     beta= 0.70
     Davidson diagonalization with overlap
     ethr =  2.77E-07,  avg # of iterations =  2.0

     total cpu time spent up to now is       15.9 secs

     total energy              =     -74.24345648 Ry
     estimated scf accuracy    <       0.00000614 Ry

     iteration #  3     ecut=    80.00 Ry     beta= 0.70
     Davidson diagonalization with overlap
     ethr =  3.07E-08,  avg # of iterations =  1.5

     total cpu time spent up to now is       16.4 secs

     total energy              =     -74.24345673 Ry
     estimated scf accuracy    <       0.00000061 Ry

     iteration #  4     ecut=    80.00 Ry     beta= 0.70
     Davidson diagonalization with overlap
     ethr =  3.03E-09,  avg # of iterations =  2.2

     total cpu time spent up to now is       17.0 secs

     total energy              =     -74.24345680 Ry
     estimated scf accuracy    <       0.00000001 Ry

     iteration #  5     ecut=    80.00 Ry     beta= 0.70
     Davidson diagonalization with overlap
     ethr =  5.42E-11,  avg # of iterations =  3.8

     total cpu time spent up to now is       17.7 secs

     End of self-consistent calculation

          k = 0.0000 0.0000 0.0000 (  4621 PWs)   bands (ev):

   -37.7293 -37.6660 -37.3930 -37.3930  -2.7227  -1.3639   3.5301   3.5301
     6.6075   7.4956   7.4956  10.1761  12.6439  16.9728

          k = 0.0000 0.0000 0.2142 (  4637 PWs)   bands (ev):

   -37.7165 -37.6545 -37.3827 -37.3827  -2.4927  -1.0976   3.7640   3.7640
     6.8480   7.6950   7.6950  10.1024  12.5392  16.6644

          k = 0.0000 0.0000 0.4285 (  4593 PWs)   bands (ev):

   -37.6828 -37.6241 -37.3558 -37.3558  -1.8084  -0.3062   4.4565   4.4565
     7.5403   8.2861   8.2861   9.4661  12.2776  14.9267

          k = 0.0000 0.0000 0.6427 (  4588 PWs)   bands (ev):

   -37.6408 -37.5864 -37.3223 -37.3223  -0.6881   0.9807   5.5690   5.5690
     7.5681   8.6235   9.2325   9.2325  11.5351  12.0973

          k = 0.0000 0.0000 0.8570 (  4608 PWs)   bands (ev):

   -37.6067 -37.5557 -37.2951 -37.2951   0.8219   2.6621   5.2488   6.9611
     6.9611   8.5417   9.5502  10.3336  10.3336  12.4672

          k = 0.0000 0.0000-1.0712 (  4596 PWs)   bands (ev):

   -37.5937 -37.5440 -37.2847 -37.2847   2.2030   3.5482   3.9378   6.8226
     7.8770   7.8770   9.8581  10.6655  10.6655  12.5009

          k = 0.0000 0.2007 0.0000 (  4627 PWs)   bands (ev):

   -37.7233 -37.6721 -37.3930 -37.3930  -2.6348  -1.5625   3.6578   3.8687
     5.7419   6.8588   8.6054  10.9862  13.1527  15.9953

          k = 0.0000 0.2007 0.2142 (  4611 PWs)   bands (ev):

   -37.7106 -37.6604 -37.3827 -37.3827  -2.4013  -1.2997   3.8923   4.0881
     5.9887   7.0222   8.7845  10.9819  13.0802  15.8620

          k = 0.0000 0.2007 0.4285 (  4614 PWs)   bands (ev):

   -37.6772 -37.6297 -37.3557 -37.3557  -1.7068  -0.5183   4.5866   4.7278
     6.7276   7.4354   9.2689  10.5267  12.8940  14.5502

          k = 0.0000 0.2007 0.6427 (  4606 PWs)   bands (ev):

   -37.6357 -37.5917 -37.3222 -37.3222  -0.5694   0.7563   5.6787   5.7130
     7.3049   7.9480   9.4680   9.9615  11.2461  12.9204

          k = 0.0000 0.2007 0.8570 (  4611 PWs)   bands (ev):

   -37.6020 -37.5607 -37.2950 -37.2950   0.9677   2.4474   5.2774   6.5173
     7.1659   8.6219   9.6873  10.0446  10.4748  12.6335

          k = 0.0000 0.2007-1.0712 (  4614 PWs)   bands (ev):

   -37.5890 -37.5488 -37.2845 -37.2845   2.4320   3.5545   3.8634   5.6744
     8.0852   8.4106  10.4509  10.8683  11.0531  11.6625

          k = 0.0000 0.4014 0.0000 (  4616 PWs)   bands (ev):

   -37.7075 -37.6880 -37.3929 -37.3929  -2.3768  -1.9816   4.0407   4.4954
     5.0055   5.8100  10.2545  11.6493  14.5701  14.9199

          k = 0.0000 0.4014 0.2142 (  4621 PWs)   bands (ev):

   -37.6952 -37.6760 -37.3826 -37.3826  -2.1343  -1.7280   4.2744   4.6912
     5.2460   5.9785  10.4146  11.7985  14.5559  14.6867

          k = 0.0000 0.4014 0.4285 (  4607 PWs)   bands (ev):

   -37.6626 -37.6445 -37.3556 -37.3556  -1.4128  -0.9732   4.9632   5.2455
     5.9624   6.4337  10.8318  11.8606  13.1939  13.5049

          k = 0.0000 0.4014 0.6427 (  4605 PWs)   bands (ev):

   -37.6222 -37.6054 -37.3221 -37.3221  -0.2311   0.2620   5.9509   6.0133
     6.8863   7.1309  10.0318  10.6135  11.4076  13.2683

          k = 0.0000 0.4014 0.8570 (  4601 PWs)   bands (ev):

   -37.5894 -37.5736 -37.2948 -37.2948   1.3734   1.9332   5.4430   5.8609
     7.7482   8.5865   9.0776   9.5765  11.7709  12.8615

          k = 0.0000 0.4014-1.0712 (  4608 PWs)   bands (ev):

   -37.5768 -37.5615 -37.2844 -37.2844   3.1099   3.5933   3.7187   4.2327
     8.6687   9.0216   9.9418  10.3992  11.1868  11.7479

          k = 0.2007 0.2007 0.0000 (  4605 PWs)   bands (ev):

   -37.7183 -37.6768 -37.3936 -37.3928  -2.5587  -1.7010   3.3624   4.6127
     4.8989   7.5351   8.6325  11.3708  13.7521  15.7149

          k = 0.2007 0.2007 0.2142 (  4616 PWs)   bands (ev):

   -37.7057 -37.6650 -37.3833 -37.3825  -2.3218  -1.4396   3.5709   4.8514
     5.1090   7.7510   8.7930  11.3538  13.7529  16.0520

          k = 0.2007 0.2007 0.4285 (  4615 PWs)   bands (ev):

   -37.6726 -37.6341 -37.3562 -37.3555  -1.6169  -0.6618   4.1798   5.5536
     5.7082   8.3880   9.1758  10.8744  13.5805  14.1470

          k = 0.2007 0.2007 0.6427 (  4605 PWs)   bands (ev):

   -37.6315 -37.5958 -37.3226 -37.3220  -0.4624   0.6099   5.1191   6.4192
     6.6308   8.6977   9.3396  10.2917  11.1301  13.0162

          k = 0.2007 0.2007 0.8570 (  4618 PWs)   bands (ev):

   -37.5980 -37.5646 -37.2953 -37.2947   1.1019   2.3117   5.2884   6.2766
     6.9832   8.7271   9.1148  10.6789  10.9743  12.3550

          k = 0.2007 0.2007-1.0712 (  4614 PWs)   bands (ev):

   -37.5852 -37.5527 -37.2848 -37.2843   2.6581   3.5576   3.8003   5.4872
     6.8514   9.4475  10.0032  10.8310  11.5165  12.1558

          k = 0.2007 0.4014 0.0000 (  4617 PWs)   bands (ev):

   -37.7052 -37.6893 -37.3937 -37.3932  -2.3393  -2.0175   3.4654   3.9990
     5.7049   6.8105  10.2525  11.8022  14.0135  15.2529

          k = 0.2007 0.4014 0.2142 (  4618 PWs)   bands (ev):

   -37.6929 -37.6773 -37.3834 -37.3829  -2.0937  -1.7621   3.6619   4.1962
     5.9381   7.0281  10.4266  11.9101  13.9500  15.0850

          k = 0.2007 0.4014 0.4285 (  4611 PWs)   bands (ev):

   -37.6605 -37.6458 -37.3563 -37.3558  -1.3626  -1.0018   4.2317   4.7639
     6.6170   7.6530  10.8676  11.7638  13.2027  13.3343

          k = 0.2007 0.4014 0.6427 (  4610 PWs)   bands (ev):

   -37.6203 -37.6067 -37.3226 -37.3222  -0.1642   0.2446   5.0859   5.5592
     7.5631   8.3277   9.9037  10.5546  11.5566  13.0990

          k = 0.2007 0.4014 0.8570 (  4611 PWs)   bands (ev):

   -37.5876 -37.5749 -37.2952 -37.2949   1.4660   1.9351   5.4110   5.7645
     7.1303   7.7581   9.9055  10.6756  11.6529  12.4383

          k = 0.2007 0.4014-1.0712 (  4614 PWs)   bands (ev):

   -37.5751 -37.5627 -37.2848 -37.2844   3.3183   3.5930   3.6782   4.4043
     7.0682   8.0759  11.0807  11.2085  11.5939  12.2007

          k = 0.4014 0.4014 0.0000 (  4626 PWs)   bands (ev):

   -37.6995 -37.6934 -37.3945 -37.3942  -2.2395  -2.1152   3.1433   3.3382
     6.9520   7.6063  10.7881  12.4369  12.6757  13.6945

          k = 0.4014 0.4014 0.2142 (  4615 PWs)   bands (ev):

   -37.6873 -37.6813 -37.3841 -37.3838  -1.9872  -1.8588   3.3233   3.5190
     7.1999   7.8539  10.9710  12.5034  12.8778  13.7611

          k = 0.4014 0.4014 0.4285 (  4600 PWs)   bands (ev):

   -37.6553 -37.6497 -37.3569 -37.3566  -1.2355  -1.0944   3.8458   4.0427
     7.9282   8.5928  11.2543  12.2390  12.4968  13.4709

          k = 0.4014 0.4014 0.6427 (  4618 PWs)   bands (ev):

   -37.6156 -37.6103 -37.3231 -37.3228  -0.0006   0.1622   4.6440   4.8288
     8.7886   9.3381   9.7349  10.2751  12.2461  13.0371

          k = 0.4014 0.4014 0.8570 (  4631 PWs)   bands (ev):

   -37.5833 -37.5784 -37.2956 -37.2954   1.6849   1.8755   5.4037   5.5535
     6.6939   6.9384  11.1212  11.6028  11.7068  11.9560

          k = 0.4014 0.4014-1.0712 (  4606 PWs)   bands (ev):

   -37.5709 -37.5661 -37.2851 -37.2849   3.5596   3.6030   3.9632   4.6063
     5.9979   6.6339  11.1174  11.3002  12.9570  13.4383

     the Fermi energy is     8.8434 ev

!    total energy              =     -74.24345681 Ry
     estimated scf accuracy    <          1.1E-09 Ry
     smearing contrib. (-TS)   =       0.00001535 Ry
     internal energy E=F+TS    =     -74.24347216 Ry

     The total energy is F=E-TS. E is the sum of the following terms:
     one-electron contribution =     -17.52222173 Ry
     hartree contribution      =      11.99422563 Ry
     xc contribution           =     -20.59930392 Ry
     ewald contribution        =     -48.11617214 Ry

     convergence has been achieved in   5 iterations

     Forces acting on atoms (cartesian axes, Ry/au):

     atom    1 type  1   force =     0.00000000    0.00000000    0.00000000
     atom    2 type  1   force =     0.00000000    0.00000000    0.00000000
     atom    3 type  2   force =     0.00934986   -0.00934986   -0.01302672
     atom    4 type  2   force =    -0.00934986   -0.00934986    0.01302672
     atom    5 type  2   force =    -0.00934986    0.00934986   -0.01302672
     atom    6 type  2   force =     0.00934986    0.00934986    0.01302672
     The non-local contrib.  to forces
     atom    1 type  1   force =     0.00000000    0.00000000    0.00000000
     atom    2 type  1   force =     0.00000000    0.00000000    0.00000000
     atom    3 type  2   force =    -0.08491415    0.08491415   -0.00299382
     atom    4 type  2   force =     0.08491415    0.08491415    0.00299382
     atom    5 type  2   force =     0.08491415   -0.08491415   -0.00299382
     atom    6 type  2   force =    -0.08491415   -0.08491415    0.00299382
     The ionic contribution  to forces
     atom    1 type  1   force =    -0.00000000   -0.00000000    0.00000000
     atom    2 type  1   force =     0.00000000    0.00000000    0.00000000
     atom    3 type  2   force =     0.01013067   -0.01013067   -0.02824152
     atom    4 type  2   force =    -0.01013067   -0.01013067    0.02824152
     atom    5 type  2   force =    -0.01013067    0.01013067   -0.02824152
     atom    6 type  2   force =     0.01013067    0.01013067    0.02824152
     The local contribution  to forces
     atom    1 type  1   force =     0.00000000   -0.00000000    0.00000000
     atom    2 type  1   force =    -0.00000000   -0.00000000   -0.00000000
     atom    3 type  2   force =     0.08413583   -0.08413583    0.01820592
     atom    4 type  2   force =    -0.08413583   -0.08413583   -0.01820592
     atom    5 type  2   force =    -0.08413583    0.08413583    0.01820592
     atom    6 type  2   force =     0.08413583    0.08413583   -0.01820592
     The core correction contribution to forces
     atom    1 type  1   force =     0.00000000    0.00000000   -0.00000000
     atom    2 type  1   force =    -0.00000000   -0.00000000   -0.00000000
     atom    3 type  2   force =     0.00000000    0.00000000    0.00000000
     atom    4 type  2   force =     0.00000000    0.00000000    0.00000000
     atom    5 type  2   force =     0.00000000    0.00000000    0.00000000
     atom    6 type  2   force =     0.00000000    0.00000000    0.00000000
     The Hubbard contrib.    to forces
     atom    1 type  1   force =     0.00000000    0.00000000    0.00000000
     atom    2 type  1   force =     0.00000000    0.00000000    0.00000000
     atom    3 type  2   force =     0.00000000    0.00000000    0.00000000
     atom    4 type  2   force =     0.00000000    0.00000000    0.00000000
     atom    5 type  2   force =     0.00000000    0.00000000    0.00000000
     atom    6 type  2   force =     0.00000000    0.00000000    0.00000000
     The SCF correction term to forces
     atom    1 type  1   force =     0.00000000    0.00000000   -0.00000000
     atom    2 type  1   force =     0.00000000   -0.00000000   -0.00000000
     atom    3 type  2   force =    -0.00000248    0.00000248    0.00000269
     atom    4 type  2   force =     0.00000248    0.00000248   -0.00000269
     atom    5 type  2   force =     0.00000248   -0.00000248    0.00000269
     atom    6 type  2   force =    -0.00000248   -0.00000248   -0.00000269

     Total force =     0.037123     Total SCF correction =     0.000009


     Computing stress (Cartesian axis) and pressure

          total   stress  (Ry/bohr**3)                   (kbar)     P=      514.19
   0.00350137   0.00000000   0.00000000          515.07        0.00        0.00
   0.00000000   0.00350137   0.00000000            0.00      515.07        0.00
   0.00000000   0.00000000   0.00348336            0.00        0.00      512.42

     Energy error            =      2.6E-03 Ry
     Gradient error          =      1.3E-02 Ry/Bohr
     Cell gradient error     =      1.5E+01 kbar

     number of scf cycles    =   3
     number of bfgs steps    =   2

     enthalpy           old  =     -72.9658945298 Ry
     enthalpy           new  =     -72.9684908533 Ry

     CASE: enthalpy          _new < enthalpy          _old

     new trust radius        =       0.0475105215 bohr
ibrav =      6
 celldm(1) =      9.30161032
 celldm(3) =      0.46677549
Input lattice vectors:
     0.99815188     0.00000000     0.00000000
     0.00000000     0.99815188     0.00000000
     0.00000000     0.00000000     0.46591284
New lattice vectors in INITIAL alat:
     0.99815188     0.00000000     0.00000000
     0.00000000     0.99815188     0.00000000
     0.00000000     0.00000000     0.46591284
New lattice vectors in NEW alat (for information only):
     1.00000000     0.00000000     0.00000000
     0.00000000     1.00000000     0.00000000
     0.00000000     0.00000000     0.46677549
Discrepancy in bohr =     0.000000    0.000000    0.000000
     new conv_thr            =       0.0000000013 Ry

     new unit-cell volume =    375.64920 a.u.^3 (    55.66547 Ang^3 )
     density =      2.50384 g/cm^3

CELL_PARAMETERS (alat=  9.31883260)
   0.998151884   0.000000000   0.000000000
   0.000000000   0.998151884   0.000000000
   0.000000000   0.000000000   0.465912839

ATOMIC_POSITIONS (crystal)
Si            0.0000000000        0.0000000000        0.5000000000
Si            0.5000000000        0.5000000000        0.5000000000
Li            0.1360592611        0.3639407389        0.0273751378
Li            0.3639407389        0.8639407389        0.9726248622
Li            0.8639407389        0.6360592611        0.0273751378
Li            0.6360592611        0.1360592611        0.9726248622



     Writing config-only to output data dir ./output/SiLi.save/
     NEW-OLD atomic charge density approx. for the potential
     extrapolated charge   20.02879, renormalised to   20.00000

     total cpu time spent up to now is       19.6 secs

     Self-consistent Calculation

     iteration #  1     ecut=    80.00 Ry     beta= 0.70
     Davidson diagonalization with overlap
     c_bands:  1 eigenvalues not converged
     ethr =  1.00E-06,  avg # of iterations =  6.1

     total cpu time spent up to now is       20.7 secs

     total energy              =     -74.24821550 Ry
     estimated scf accuracy    <       0.00011277 Ry

     iteration #  2     ecut=    80.00 Ry     beta= 0.70
     Davidson diagonalization with overlap
     ethr =  5.64E-07,  avg # of iterations =  2.1

     total cpu time spent up to now is       21.4 secs

     total energy              =     -74.24824709 Ry
     estimated scf accuracy    <       0.00001669 Ry

     iteration #  3     ecut=    80.00 Ry     beta= 0.70
     Davidson diagonalization with overlap
     ethr =  8.35E-08,  avg # of iterations =  2.0

     total cpu time spent up to now is       22.0 secs

     total energy              =     -74.24824972 Ry
     estimated scf accuracy    <       0.00000044 Ry

     iteration #  4     ecut=    80.00 Ry     beta= 0.70
     Davidson diagonalization with overlap
     ethr =  2.18E-09,  avg # of iterations =  2.4

     total cpu time spent up to now is       22.6 secs

     total energy              =     -74.24824980 Ry
     estimated scf accuracy    <       0.00000003 Ry

     iteration #  5     ecut=    80.00 Ry     beta= 0.70
     Davidson diagonalization with overlap
     ethr =  1.53E-10,  avg # of iterations =  2.0

     total cpu time spent up to now is       23.2 secs

     End of self-consistent calculation

          k = 0.0000 0.0000 0.0000 (  4621 PWs)   bands (ev):

   -37.6696 -37.6040 -37.3756 -37.3756  -2.7468  -1.4455   3.5334   3.5334
     6.5198   7.4303   7.4303  10.0959  12.6890  16.9000

          k = 0.0000 0.0000 0.2146 (  4637 PWs)   bands (ev):

   -37.6566 -37.5923 -37.3650 -37.3650  -2.5162  -1.1782   3.7672   3.7672
     6.7646   7.6295   7.6295  10.0358  12.5871  16.6353

          k = 0.0000 0.0000 0.4293 (  4593 PWs)   bands (ev):

   -37.6225 -37.5615 -37.3373 -37.3373  -1.8300  -0.3844   4.4586   4.4586
     7.4738   8.2205   8.2205   9.4378  12.3286  14.9080

          k = 0.0000 0.0000 0.6439 (  4588 PWs)   bands (ev):

   -37.5801 -37.5234 -37.3030 -37.3030  -0.7062   0.9061   5.5669   5.5669
     7.5799   8.5743   9.1682   9.1682  11.5083  12.1259

          k = 0.0000 0.0000 0.8585 (  4608 PWs)   bands (ev):

   -37.5456 -37.4924 -37.2750 -37.2750   0.8094   2.5902   5.2476   6.9449
     6.9449   8.5085   9.5821  10.2842  10.2842  12.4305

          k = 0.0000 0.0000-1.0732 (  4596 PWs)   bands (ev):

   -37.5323 -37.4805 -37.2643 -37.2643   2.2006   3.5350   3.8619   6.7920
     7.8368   7.8368   9.9326  10.6814  10.6814  12.4845

          k = 0.0000 0.2004 0.0000 (  4627 PWs)   bands (ev):

   -37.6634 -37.6103 -37.3755 -37.3755  -2.6615  -1.6326   3.6553   3.8541
     5.6841   6.7927   8.5251  10.9090  13.1859  15.9574

          k = 0.0000 0.2004 0.2146 (  4611 PWs)   bands (ev):

   -37.6506 -37.5985 -37.3649 -37.3649  -2.4274  -1.3689   3.8899   4.0735
     5.9332   6.9578   8.7079  10.9166  13.1143  15.8171

          k = 0.0000 0.2004 0.4293 (  4614 PWs)   bands (ev):

   -37.6168 -37.5675 -37.3372 -37.3372  -1.7309  -0.5850   4.5837   4.7129
     6.6785   7.3791   9.2099  10.4916  12.9247  14.4666

          k = 0.0000 0.2004 0.6439 (  4606 PWs)   bands (ev):

   -37.5748 -37.5290 -37.3028 -37.3028  -0.5901   0.6931   5.6717   5.6990
     7.2880   7.9088   9.4448   9.9024  11.2281  12.9147

          k = 0.0000 0.2004 0.8585 (  4611 PWs)   bands (ev):

   -37.5406 -37.4976 -37.2749 -37.2749   0.9527   2.3869   5.2738   6.4905
     7.1497   8.6008   9.6597  10.0309  10.4576  12.5893

          k = 0.0000 0.2004-1.0732 (  4614 PWs)   bands (ev):

   -37.5275 -37.4857 -37.2642 -37.2642   2.4286   3.5375   3.7963   5.6490
     8.0435   8.4059  10.4628  10.8531  11.0604  11.6686

          k = 0.0000 0.4007 0.0000 (  4616 PWs)   bands (ev):

   -37.6472 -37.6269 -37.3753 -37.3753  -2.4118  -2.0317   4.0208   4.4424
     4.9829   5.7546  10.1773  11.5698  14.5790  14.9121

          k = 0.0000 0.4007 0.2146 (  4621 PWs)   bands (ev):

   -37.6346 -37.6148 -37.3648 -37.3648  -2.1686  -1.7772   4.2547   4.6397
     5.2239   5.9253  10.3439  11.7280  14.5599  14.6594

          k = 0.0000 0.4007 0.4293 (  4607 PWs)   bands (ev):

   -37.6017 -37.5829 -37.3370 -37.3370  -1.4450  -1.0202   4.9436   5.1994
     5.9415   6.3886  10.7869  11.8289  13.1467  13.4622

          k = 0.0000 0.4007 0.6439 (  4605 PWs)   bands (ev):

   -37.5608 -37.5434 -37.3026 -37.3026  -0.2597   0.2186   5.9261   5.9804
     6.8665   7.1088  10.0113  10.5863  11.3802  13.2315

          k = 0.0000 0.4007 0.8585 (  4601 PWs)   bands (ev):

   -37.5276 -37.5112 -37.2746 -37.2746   1.3503   1.8941   5.4297   5.8354
     7.7299   8.5612   9.0582   9.5459  11.7731  12.8524

          k = 0.0000 0.4007-1.0732 (  4608 PWs)   bands (ev):

   -37.5149 -37.4989 -37.2639 -37.2639   3.1045   3.5667   3.6689   4.2154
     8.6270   9.0246   9.9073  10.4133  11.1825  11.7335

          k = 0.2004 0.2004 0.0000 (  4605 PWs)   bands (ev):

   -37.6582 -37.6152 -37.3761 -37.3752  -2.5877  -1.7639   3.3540   4.5889
     4.8502   7.4610   8.5572  11.3118  13.7631  15.6788

          k = 0.2004 0.2004 0.2146 (  4616 PWs)   bands (ev):

   -37.6455 -37.6033 -37.3656 -37.3646  -2.3501  -1.5018   3.5628   4.8276
     5.0620   7.6773   8.7232  11.3074  13.7626  16.0137

          k = 0.2004 0.2004 0.4293 (  4615 PWs)   bands (ev):

   -37.6120 -37.5721 -37.3378 -37.3369  -1.6433  -0.7218   4.1729   5.5294
     5.6671   8.3156   9.1296  10.8546  13.5929  14.1202

          k = 0.2004 0.2004 0.6439 (  4605 PWs)   bands (ev):

   -37.5704 -37.5333 -37.3033 -37.3025  -0.4853   0.5531   5.1154   6.3924
     6.6027   8.6903   9.2727  10.2670  11.1071  12.9979

          k = 0.2004 0.2004 0.8585 (  4618 PWs)   bands (ev):

   -37.5365 -37.5017 -37.2753 -37.2746   1.0845   2.2572   5.2849   6.2690
     6.9407   8.7046   9.0975  10.7036  10.9169  12.3082

          k = 0.2004 0.2004-1.0732 (  4614 PWs)   bands (ev):

   -37.5235 -37.4896 -37.2645 -37.2639   2.6537   3.5370   3.7405   5.4548
     6.8517   9.4362   9.9603  10.8399  11.5100  12.1694

          k = 0.2004 0.4007 0.0000 (  4617 PWs)   bands (ev):

   -37.6447 -37.6282 -37.3762 -37.3756  -2.3754  -2.0659   3.4450   3.9639
     5.6585   6.7439  10.1806  11.7375  13.9964  15.1917

          k = 0.2004 0.4007 0.2146 (  4618 PWs)   bands (ev):

   -37.6322 -37.6161 -37.3656 -37.3650  -2.1292  -1.8099   3.6424   4.1626
     5.8925   6.9630  10.3604  11.8556  13.9250  15.0340

          k = 0.2004 0.4007 0.4293 (  4611 PWs)   bands (ev):

   -37.5995 -37.5842 -37.3378 -37.3373  -1.3962  -1.0477   4.2151   4.7346
     6.5734   7.5934  10.8234  11.7418  13.1706  13.2732

          k = 0.2004 0.4007 0.6439 (  4610 PWs)   bands (ev):

   -37.5588 -37.5446 -37.3032 -37.3028  -0.1945   0.2018   5.0758   5.5388
     7.5223   8.2896   9.8697  10.5258  11.5401  13.0732

          k = 0.2004 0.4007 0.8585 (  4611 PWs)   bands (ev):

   -37.5257 -37.5124 -37.2752 -37.2747   1.4407   1.8957   5.4032   5.7522
     7.1016   7.7371   9.8763  10.6327  11.6612  12.4090

          k = 0.2004 0.4007-1.0732 (  4614 PWs)   bands (ev):

   -37.5131 -37.5001 -37.2644 -37.2640   3.3129   3.5617   3.6328   4.3828
     7.0659   8.0682  11.0795  11.1717  11.5723  12.1716

          k = 0.4007 0.4007 0.0000 (  4626 PWs)   bands (ev):

   -37.6387 -37.6323 -37.3771 -37.3767  -2.2790  -2.1595   3.1223   3.3119
     6.8783   7.5163  10.7405  12.3916  12.6313  13.6550

          k = 0.4007 0.4007 0.2146 (  4615 PWs)   bands (ev):

   -37.6263 -37.6201 -37.3664 -37.3661  -2.0261  -1.9025   3.3037   3.4943
     7.1270   7.7648  10.9274  12.4670  12.8328  13.7207

          k = 0.4007 0.4007 0.4293 (  4600 PWs)   bands (ev):

   -37.5940 -37.5881 -37.3385 -37.3382  -1.2728  -1.1366   3.8311   4.0232
     7.8578   8.5068  11.2251  12.2164  12.4500  13.4352

          k = 0.4007 0.4007 0.6439 (  4618 PWs)   bands (ev):

   -37.5538 -37.5484 -37.3038 -37.3035  -0.0354   0.1221   4.6388   4.8192
     8.7291   9.3081   9.6607  10.2257  12.2513  13.0401

          k = 0.4007 0.4007 0.8585 (  4631 PWs)   bands (ev):

   -37.5211 -37.5160 -37.2756 -37.2753   1.6534   1.8377   5.4072   5.5593
     6.6574   6.9120  11.0633  11.5324  11.7139  11.9464

          k = 0.4007 0.4007-1.0732 (  4606 PWs)   bands (ev):

   -37.5086 -37.5036 -37.2648 -37.2646   3.5323   3.5666   3.9400   4.5708
     6.0175   6.6396  11.1032  11.2775  12.9134  13.4106

     the Fermi energy is     8.7978 ev

!    total energy              =     -74.24824980 Ry
     estimated scf accuracy    <          9.3E-10 Ry
     smearing contrib. (-TS)   =       0.00005457 Ry
     internal energy E=F+TS    =     -74.24830437 Ry

     The total energy is F=E-TS. E is the sum of the following terms:
     one-electron contribution =     -17.57740377 Ry
     hartree contribution      =      12.02168177 Ry
     xc contribution           =     -20.60391445 Ry
     ewald contribution        =     -48.08866792 Ry

     convergence has been achieved in   5 iterations

     Forces acting on atoms (cartesian axes, Ry/au):

     atom    1 type  1   force =     0.00000000    0.00000000    0.00000000
     atom    2 type  1   force =     0.00000000    0.00000000    0.00000000
     atom    3 type  2   force =     0.00490572   -0.00490572   -0.01054238
     atom    4 type  2   force =    -0.00490572   -0.00490572    0.01054238
     atom    5 type  2   force =    -0.00490572    0.00490572   -0.01054238
     atom    6 type  2   force =     0.00490572    0.00490572    0.01054238
     The non-local contrib.  to forces
     atom    1 type  1   force =     0.00000000    0.00000000   -0.00000000
     atom    2 type  1   force =     0.00000000    0.00000000    0.00000000
     atom    3 type  2   force =    -0.07899179    0.07899179   -0.00229072
     atom    4 type  2   force =     0.07899179    0.07899179    0.00229072
     atom    5 type  2   force =     0.07899179   -0.07899179   -0.00229072
     atom    6 type  2   force =    -0.07899179   -0.07899179    0.00229072
     The ionic contribution  to forces
     atom    1 type  1   force =    -0.00000000   -0.00000000    0.00000000
     atom    2 type  1   force =    -0.00000000   -0.00000000    0.00000000
     atom    3 type  2   force =    -0.04042372    0.04042372   -0.02263035
     atom    4 type  2   force =     0.04042372    0.04042372    0.02263035
     atom    5 type  2   force =     0.04042372   -0.04042372   -0.02263035
     atom    6 type  2   force =    -0.04042372   -0.04042372    0.02263035
     The local contribution  to forces
     atom    1 type  1   force =    -0.00000000   -0.00000000   -0.00000000
     atom    2 type  1   force =    -0.00000000    0.00000000   -0.00000000
     atom    3 type  2   force =     0.12432072   -0.12432072    0.01437651
     atom    4 type  2   force =    -0.12432072   -0.12432072   -0.01437651
     atom    5 type  2   force =    -0.12432072    0.12432072    0.01437651
     atom    6 type  2   force =     0.12432072    0.12432072   -0.01437651
     The core correction contribution to forces
     atom    1 type  1   force =    -0.00000000    0.00000000    0.00000000
     atom    2 type  1   force =    -0.00000000   -0.00000000   -0.00000000
     atom    3 type  2   force =     0.00000000    0.00000000    0.00000000
     atom    4 type  2   force =     0.00000000    0.00000000    0.00000000
     atom    5 type  2   force =     0.00000000    0.00000000    0.00000000
     atom    6 type  2   force =     0.00000000    0.00000000    0.00000000
     The Hubbard contrib.    to forces
     atom    1 type  1   force =     0.00000000    0.00000000    0.00000000
     atom    2 type  1   force =     0.00000000    0.00000000    0.00000000
     atom    3 type  2   force =     0.00000000    0.00000000    0.00000000
     atom    4 type  2   force =     0.00000000    0.00000000    0.00000000
     atom    5 type  2   force =     0.00000000    0.00000000    0.00000000
     atom    6 type  2   force =     0.00000000    0.00000000    0.00000000
     The SCF correction term to forces
     atom    1 type  1   force =     0.00000000    0.00000000    0.00000000
     atom    2 type  1   force =    -0.00000000   -0.00000000    0.00000000
     atom    3 type  2   force =     0.00000052   -0.00000052    0.00000218
     atom    4 type  2   force =    -0.00000052   -0.00000052   -0.00000218
     atom    5 type  2   force =    -0.00000052    0.00000052    0.00000218
     atom    6 type  2   force =     0.00000052    0.00000052   -0.00000218

     Total force =     0.025241     Total SCF correction =     0.000005


     Computing stress (Cartesian axis) and pressure

          total   stress  (Ry/bohr**3)                   (kbar)     P=      517.81
   0.00351151   0.00000000   0.00000000          516.56        0.00        0.00
   0.00000000   0.00351151   0.00000000            0.00      516.56        0.00
   0.00000000   0.00000000   0.00353698            0.00        0.00      520.31

     Energy error            =      3.0E-03 Ry
     Gradient error          =      1.1E-02 Ry/Bohr
     Cell gradient error     =      2.0E+01 kbar

     number of scf cycles    =   4
     number of bfgs steps    =   3

     enthalpy           old  =     -72.9684908533 Ry
     enthalpy           new  =     -72.9714441116 Ry

     CASE: enthalpy          _new < enthalpy          _old

     new trust radius        =       0.0712832488 bohr
ibrav =      6
 celldm(1) =      9.33603323
 celldm(3) =      0.46509543
Input lattice vectors:
     1.00184579     0.00000000     0.00000000
     0.00000000     1.00184579     0.00000000
     0.00000000     0.00000000     0.46595390
New lattice vectors in INITIAL alat:
     1.00184579     0.00000000     0.00000000
     0.00000000     1.00184579     0.00000000
     0.00000000     0.00000000     0.46595390
New lattice vectors in NEW alat (for information only):
     1.00000000     0.00000000     0.00000000
     0.00000000     1.00000000     0.00000000
     0.00000000     0.00000000     0.46509543
Discrepancy in bohr =     0.000000    0.000000    0.000000
     new conv_thr            =       0.0000000011 Ry

     new unit-cell volume =    378.46807 a.u.^3 (    56.08318 Ang^3 )
     density =      2.48519 g/cm^3

CELL_PARAMETERS (alat=  9.31883260)
   1.001845792   0.000000000   0.000000000
   0.000000000   1.001845792   0.000000000
   0.000000000   0.000000000   0.465953903

ATOMIC_POSITIONS (crystal)
Si            0.0000000000        0.0000000000        0.5000000000
Si            0.5000000000        0.5000000000        0.5000000000
Li            0.1400195868        0.3599804132        0.0161688542
Li            0.3599804132        0.8599804132        0.9838311458
Li            0.8599804132        0.6400195868        0.0161688542
Li            0.6400195868        0.1400195868        0.9838311458



     Writing config-only to output data dir ./output/SiLi.save/
     NEW-OLD atomic charge density approx. for the potential
     extrapolated charge   20.14882, renormalised to   20.00000

     total cpu time spent up to now is       25.1 secs

     Self-consistent Calculation

     iteration #  1     ecut=    80.00 Ry     beta= 0.70
     Davidson diagonalization with overlap
     ethr =  1.00E-06,  avg # of iterations =  6.6

     total cpu time spent up to now is       26.3 secs

     total energy              =     -74.26016465 Ry
     estimated scf accuracy    <       0.00027528 Ry

     iteration #  2     ecut=    80.00 Ry     beta= 0.70
     Davidson diagonalization with overlap
     ethr =  1.38E-06,  avg # of iterations =  2.7

     total cpu time spent up to now is       27.0 secs

     total energy              =     -74.26035842 Ry
     estimated scf accuracy    <       0.00005914 Ry

     iteration #  3     ecut=    80.00 Ry     beta= 0.70
     Davidson diagonalization with overlap
     ethr =  2.96E-07,  avg # of iterations =  1.4

     total cpu time spent up to now is       27.5 secs

     total energy              =     -74.26036073 Ry
     estimated scf accuracy    <       0.00000583 Ry

     iteration #  4     ecut=    80.00 Ry     beta= 0.70
     Davidson diagonalization with overlap
     ethr =  2.92E-08,  avg # of iterations =  2.0

     total cpu time spent up to now is       28.1 secs

     total energy              =     -74.26036151 Ry
     estimated scf accuracy    <       0.00000042 Ry

     iteration #  5     ecut=    80.00 Ry     beta= 0.70
     Davidson diagonalization with overlap
     ethr =  2.11E-09,  avg # of iterations =  2.1

     total cpu time spent up to now is       28.7 secs

     total energy              =     -74.26036154 Ry
     estimated scf accuracy    <          9.1E-09 Ry

     iteration #  6     ecut=    80.00 Ry     beta= 0.70
     Davidson diagonalization with overlap
     ethr =  4.53E-11,  avg # of iterations =  3.3

     total cpu time spent up to now is       29.4 secs

     End of self-consistent calculation

          k = 0.0000 0.0000 0.0000 (  4621 PWs)   bands (ev):

   -37.6541 -37.5864 -37.4125 -37.4125  -2.8115  -1.5884   3.5051   3.5051
     6.3665   7.2856   7.2856   9.9339  12.6805  16.7429

          k = 0.0000 0.0000 0.2146 (  4637 PWs)   bands (ev):

   -37.6412 -37.5748 -37.4018 -37.4018  -2.5810  -1.3212   3.7374   3.7374
     6.6153   7.4839   7.4839   9.8917  12.5837  16.5021

          k = 0.0000 0.0000 0.4292 (  4593 PWs)   bands (ev):

   -37.6073 -37.5443 -37.3738 -37.3738  -1.8950  -0.5274   4.4235   4.4235
     7.3415   8.0727   8.0727   9.3438  12.3341  14.4512

          k = 0.0000 0.0000 0.6438 (  4588 PWs)   bands (ev):

   -37.5652 -37.5064 -37.3390 -37.3390  -0.7710   0.7630   5.5195   5.5195
     7.5342   8.4611   9.0194   9.0194  11.3714  12.1073

          k = 0.0000 0.0000 0.8585 (  4608 PWs)   bands (ev):

   -37.5309 -37.4756 -37.3108 -37.3108   0.7461   2.4467   5.1898   6.8687
     6.8687   8.3706   9.5721  10.1549  10.1549  12.3235

          k = 0.0000 0.0000-1.0731 (  4596 PWs)   bands (ev):

   -37.5178 -37.4639 -37.2999 -37.2999   2.1421   3.4698   3.7171   6.6548
     7.7202   7.7202   9.9852  10.6496  10.6496  12.3765

          k = 0.0000 0.1996 0.0000 (  4627 PWs)   bands (ev):

   -37.6479 -37.5931 -37.4123 -37.4123  -2.7295  -1.7598   3.6187   3.7979
     5.5690   6.6493   8.3625  10.7509  13.1625  15.8393

          k = 0.0000 0.1996 0.2146 (  4611 PWs)   bands (ev):

   -37.6351 -37.5814 -37.4017 -37.4016  -2.4955  -1.4961   3.8520   4.0159
     5.8197   6.8159   8.5490  10.7733  13.0933  15.6820

          k = 0.0000 0.1996 0.4292 (  4614 PWs)   bands (ev):

   -37.6015 -37.5506 -37.3736 -37.3736  -1.7992  -0.7123   4.5416   4.6514
     6.5700   7.2468   9.0692  10.3846  12.9037  14.2788

          k = 0.0000 0.1996 0.6438 (  4606 PWs)   bands (ev):

   -37.5598 -37.5123 -37.3388 -37.3388  -0.6582   0.5655   5.6141   5.6368
     7.2077   7.8071   9.3412   9.7633  11.1103  12.8461

          k = 0.0000 0.1996 0.8585 (  4611 PWs)   bands (ev):

   -37.5258 -37.4812 -37.3105 -37.3105   0.8860   2.2584   5.2132   6.3991
     7.0725   8.4891   9.5595   9.9334  10.3887  12.4626

          k = 0.0000 0.1996-1.0731 (  4614 PWs)   bands (ev):

   -37.5128 -37.4693 -37.2997 -37.2997   2.3678   3.4677   3.6629   5.5392
     7.9249   8.3228  10.4106  10.7825  11.0152  11.5904

          k = 0.0000 0.3993 0.0000 (  4616 PWs)   bands (ev):

   -37.6312 -37.6104 -37.4120 -37.4120  -2.4907  -2.1311   3.9584   4.3299
     4.9144   5.6312  10.0173  11.4096  14.5217  14.8265

          k = 0.0000 0.3993 0.2146 (  4621 PWs)   bands (ev):

   -37.6188 -37.5983 -37.4013 -37.4013  -2.2476  -1.8767   4.1915   4.5282
     5.1550   5.8039  10.1911  11.5784  14.4961  14.5451

          k = 0.0000 0.3993 0.4292 (  4607 PWs)   bands (ev):

   -37.5861 -37.5667 -37.3733 -37.3732  -1.5242  -1.1198   4.8773   5.0923
     5.8705   6.2762  10.6631  11.7230  12.9997  13.3212

          k = 0.0000 0.3993 0.6438 (  4605 PWs)   bands (ev):

   -37.5455 -37.5274 -37.3385 -37.3384  -0.3389   0.1188   5.8414   5.8928
     6.7859   7.0303   9.9015  10.4594  11.2868  13.1173

          k = 0.0000 0.3993 0.8585 (  4601 PWs)   bands (ev):

   -37.5124 -37.4954 -37.3102 -37.3101   1.2721   1.7942   5.3569   5.7463
     7.6484   8.4673   8.9530   9.4280  11.7169  12.7715

          k = 0.0000 0.3993-1.0731 (  4608 PWs)   bands (ev):

   -37.4998 -37.4832 -37.2993 -37.2993   3.0375   3.4844   3.5582   4.1280
     8.5073   8.9554   9.7864  10.3479  11.1169  11.6521

          k = 0.1996 0.1996 0.0000 (  4605 PWs)   bands (ev):

   -37.6425 -37.5981 -37.4131 -37.4118  -2.6585  -1.8810   3.3060   4.5204
     4.7441   7.3069   8.4063  11.1744  13.7125  15.5623

          k = 0.1996 0.1996 0.2146 (  4616 PWs)   bands (ev):

   -37.6298 -37.5863 -37.4024 -37.4011  -2.4211  -1.6189   3.5143   4.7579
     4.9573   7.5229   8.5790  11.1852  13.7111  15.8820

          k = 0.1996 0.1996 0.4292 (  4615 PWs)   bands (ev):

   -37.5966 -37.5553 -37.3743 -37.3731  -1.7145  -0.8394   4.1228   5.4554
     5.5670   8.1604   9.0145  10.7622  13.5419  13.9858

          k = 0.1996 0.1996 0.6438 (  4605 PWs)   bands (ev):

   -37.5552 -37.5168 -37.3394 -37.3383  -0.5566   0.4346   5.0644   6.3066
     6.5169   8.6170   9.1202  10.1698  10.9839  12.9071

          k = 0.1996 0.1996 0.8585 (  4618 PWs)   bands (ev):

   -37.5216 -37.4855 -37.3110 -37.3101   1.0144   2.1369   5.2246   6.2082
     6.8185   8.6080   8.9995  10.6805  10.7689  12.1788

          k = 0.1996 0.1996-1.0731 (  4614 PWs)   bands (ev):

   -37.5087 -37.4735 -37.3001 -37.2992   2.5905   3.4630   3.6167   5.3335
     6.7965   9.3514   9.8207  10.7931  11.4457  12.0772

          k = 0.1996 0.3993 0.0000 (  4617 PWs)   bands (ev):

   -37.6286 -37.6116 -37.4131 -37.4123  -2.4555  -2.1627   3.3788   3.8767
     5.5547   6.6061  10.0311  11.5957  13.9038  15.0385

          k = 0.1996 0.3993 0.2146 (  4618 PWs)   bands (ev):

   -37.6162 -37.5996 -37.4024 -37.4016  -2.2095  -1.9069   3.5764   4.0763
     5.7884   6.8263  10.2174  11.7258  13.8210  14.8908

          k = 0.1996 0.3993 0.4292 (  4611 PWs)   bands (ev):

   -37.5837 -37.5679 -37.3742 -37.3735  -1.4770  -1.1453   4.1504   4.6517
     6.4685   7.4613  10.7057  11.6460  13.0460  13.1111

          k = 0.1996 0.3993 0.6438 (  4610 PWs)   bands (ev):

   -37.5433 -37.5286 -37.3392 -37.3386  -0.2758   0.1030   5.0155   5.4639
     7.4149   8.1801   9.7476  10.4020  11.4578  12.9722

          k = 0.1996 0.3993 0.8585 (  4611 PWs)   bands (ev):

   -37.5104 -37.4966 -37.3108 -37.3102   1.3596   1.7955   5.3383   5.6830
     6.9978   7.6430   9.7660  10.5031  11.6122  12.3000

          k = 0.1996 0.3993-1.0731 (  4614 PWs)   bands (ev):

   -37.4978 -37.4844 -37.2999 -37.2994   3.2453   3.4735   3.5281   4.2869
     7.0022   7.9917  11.0047  11.0489  11.4775  12.0491

          k = 0.3993 0.3993 0.0000 (  4626 PWs)   bands (ev):

   -37.6222 -37.6157 -37.4141 -37.4136  -2.3630  -2.2499   3.0540   3.2360
     6.7333   7.3455  10.6262  12.2757  12.5145  13.5451

          k = 0.3993 0.3993 0.2146 (  4615 PWs)   bands (ev):

   -37.6100 -37.6036 -37.4033 -37.4028  -2.1105  -1.9934   3.2367   3.4198
     6.9819   7.5942  10.8178  12.3609  12.7142  13.6069

          k = 0.3993 0.3993 0.4292 (  4600 PWs)   bands (ev):

   -37.5779 -37.5718 -37.3750 -37.3746  -1.3584  -1.2288   3.7684   3.9536
     7.7125   8.3369  11.1287  12.1166  12.3120  13.3211

          k = 0.3993 0.3993 0.6438 (  4618 PWs)   bands (ev):

   -37.5380 -37.5323 -37.3399 -37.3395  -0.1227   0.0277   4.5854   4.7596
     8.5886   9.1936   9.4986  10.0856  12.1951  12.9773

          k = 0.3993 0.3993 0.8585 (  4631 PWs)   bands (ev):

   -37.5055 -37.5002 -37.3114 -37.3110   1.5643   1.7403   5.3592   5.5179
     6.5387   6.8084  10.9168  11.3681  11.6587  11.8655

          k = 0.3993 0.3993-1.0731 (  4606 PWs)   bands (ev):

   -37.4931 -37.4879 -37.3004 -37.3001   3.4506   3.4740   3.8438   4.4504
     5.9918   6.5885  11.0196  11.1815  12.7628  13.3016

     the Fermi energy is     8.6770 ev

!    total energy              =     -74.26036155 Ry
     estimated scf accuracy    <          9.0E-10 Ry
     smearing contrib. (-TS)   =       0.00012153 Ry
     internal energy E=F+TS    =     -74.26048308 Ry

     The total energy is F=E-TS. E is the sum of the following terms:
     one-electron contribution =     -17.80469271 Ry
     hartree contribution      =      12.08808674 Ry
     xc contribution           =     -20.59806214 Ry
     ewald contribution        =     -47.94581497 Ry

     convergence has been achieved in   6 iterations

     Forces acting on atoms (cartesian axes, Ry/au):

     atom    1 type  1   force =     0.00000000    0.00000000    0.00000000
     atom    2 type  1   force =     0.00000000    0.00000000    0.00000000
     atom    3 type  2   force =    -0.00050532    0.00050532   -0.00630994
[...]
        k(    2) = (   0.0000000   0.0000000   0.2137384), wk =   0.0160000
        k(    3) = (   0.0000000   0.0000000   0.4274768), wk =   0.0160000
        k(    4) = (   0.0000000   0.0000000   0.6412152), wk =   0.0160000
        k(    5) = (   0.0000000   0.0000000   0.8549536), wk =   0.0160000
        k(    6) = (   0.0000000   0.0000000  -1.0686920), wk =   0.0080000
        k(    7) = (   0.0000000   0.1994595   0.0000000), wk =   0.0320000
        k(    8) = (   0.0000000   0.1994595   0.2137384), wk =   0.0640000
        k(    9) = (   0.0000000   0.1994595   0.4274768), wk =   0.0640000
        k(   10) = (   0.0000000   0.1994595   0.6412152), wk =   0.0640000
        k(   11) = (   0.0000000   0.1994595   0.8549536), wk =   0.0640000
        k(   12) = (   0.0000000   0.1994595  -1.0686920), wk =   0.0320000
        k(   13) = (   0.0000000   0.3989189   0.0000000), wk =   0.0320000
        k(   14) = (   0.0000000   0.3989189   0.2137384), wk =   0.0640000
        k(   15) = (   0.0000000   0.3989189   0.4274768), wk =   0.0640000
        k(   16) = (   0.0000000   0.3989189   0.6412152), wk =   0.0640000
        k(   17) = (   0.0000000   0.3989189   0.8549536), wk =   0.0640000
        k(   18) = (   0.0000000   0.3989189  -1.0686920), wk =   0.0320000
        k(   19) = (   0.1994595   0.1994595   0.0000000), wk =   0.0320000
        k(   20) = (   0.1994595   0.1994595   0.2137384), wk =   0.0640000
        k(   21) = (   0.1994595   0.1994595   0.4274768), wk =   0.0640000
        k(   22) = (   0.1994595   0.1994595   0.6412152), wk =   0.0640000
        k(   23) = (   0.1994595   0.1994595   0.8549536), wk =   0.0640000
        k(   24) = (   0.1994595   0.1994595  -1.0686920), wk =   0.0320000
        k(   25) = (   0.1994595   0.3989189   0.0000000), wk =   0.0640000
        k(   26) = (   0.1994595   0.3989189   0.2137384), wk =   0.1280000
        k(   27) = (   0.1994595   0.3989189   0.4274768), wk =   0.1280000
        k(   28) = (   0.1994595   0.3989189   0.6412152), wk =   0.1280000
        k(   29) = (   0.1994595   0.3989189   0.8549536), wk =   0.1280000
        k(   30) = (   0.1994595   0.3989189  -1.0686920), wk =   0.0640000
        k(   31) = (   0.3989189   0.3989189   0.0000000), wk =   0.0320000
        k(   32) = (   0.3989189   0.3989189   0.2137384), wk =   0.0640000
        k(   33) = (   0.3989189   0.3989189   0.4274768), wk =   0.0640000
        k(   34) = (   0.3989189   0.3989189   0.6412152), wk =   0.0640000
        k(   35) = (   0.3989189   0.3989189   0.8549536), wk =   0.0640000
        k(   36) = (   0.3989189   0.3989189  -1.0686920), wk =   0.0320000

     Dense  grid:    36881 G-vectors     FFT dimensions: (  54,  54,  25)

     Estimated max dynamical RAM per process >      20.10 MB

     Estimated total dynamical RAM >     160.81 MB

     Initial potential from superposition of free atoms

     starting charge      19.9805, renormalised to      20.0000
     Starting wfcs are   16 randomized atomic wfcs

     total cpu time spent up to now is       72.8 secs

     Self-consistent Calculation

     iteration #  1     ecut=    80.00 Ry     beta= 0.70
     Davidson diagonalization with overlap
     c_bands:  1 eigenvalues not converged
     c_bands:  1 eigenvalues not converged
     c_bands:  1 eigenvalues not converged
     c_bands:  1 eigenvalues not converged
     c_bands:  1 eigenvalues not converged
     c_bands:  2 eigenvalues not converged
     c_bands:  1 eigenvalues not converged
     c_bands:  1 eigenvalues not converged
     c_bands:  1 eigenvalues not converged
     c_bands:  1 eigenvalues not converged
     c_bands:  1 eigenvalues not converged
     c_bands:  1 eigenvalues not converged
     ethr =  1.00E-06,  avg # of iterations = 17.6

     total cpu time spent up to now is       74.8 secs

     total energy              =     -74.26104434 Ry
     estimated scf accuracy    <       0.04617856 Ry

     iteration #  2     ecut=    80.00 Ry     beta= 0.70
     Davidson diagonalization with overlap
     ethr =  2.31E-04,  avg # of iterations =  2.0

     total cpu time spent up to now is       75.4 secs

     total energy              =     -74.26805359 Ry
     estimated scf accuracy    <       0.00489150 Ry

     iteration #  3     ecut=    80.00 Ry     beta= 0.70
     Davidson diagonalization with overlap
     ethr =  2.45E-05,  avg # of iterations =  2.0

     total cpu time spent up to now is       75.9 secs

     total energy              =     -74.26884778 Ry
     estimated scf accuracy    <       0.00027698 Ry

     iteration #  4     ecut=    80.00 Ry     beta= 0.70
     Davidson diagonalization with overlap
     ethr =  1.38E-06,  avg # of iterations =  2.3

     total cpu time spent up to now is       76.4 secs

     total energy              =     -74.26885779 Ry
     estimated scf accuracy    <       0.00000542 Ry

     iteration #  5     ecut=    80.00 Ry     beta= 0.70
     Davidson diagonalization with overlap
     ethr =  2.71E-08,  avg # of iterations =  2.4

     total cpu time spent up to now is       77.0 secs

     total energy              =     -74.26885965 Ry
     estimated scf accuracy    <       0.00000059 Ry

     iteration #  6     ecut=    80.00 Ry     beta= 0.70
     Davidson diagonalization with overlap
     ethr =  2.97E-09,  avg # of iterations =  2.0

     total cpu time spent up to now is       77.6 secs

     total energy              =     -74.26885975 Ry
     estimated scf accuracy    <          5.6E-09 Ry

     iteration #  7     ecut=    80.00 Ry     beta= 0.70
     Davidson diagonalization with overlap
     ethr =  2.81E-11,  avg # of iterations =  3.7

     total cpu time spent up to now is       78.3 secs

     total energy              =     -74.26885976 Ry
     estimated scf accuracy    <          2.4E-10 Ry

     iteration #  8     ecut=    80.00 Ry     beta= 0.70
     Davidson diagonalization with overlap
     ethr =  1.21E-12,  avg # of iterations =  2.2

     total cpu time spent up to now is       78.9 secs

     End of self-consistent calculation

          k = 0.0000 0.0000 0.0000 (  4589 PWs)   bands (ev):

   -37.7095 -37.6425 -37.4695 -37.4695  -2.8370  -1.6042   3.4758   3.4758
     6.3322   7.2488   7.2488   9.8825  12.6091  16.7099

          k = 0.0000 0.0000 0.2137 (  4617 PWs)   bands (ev):

   -37.6970 -37.6313 -37.4592 -37.4592  -2.6083  -1.3389   3.7060   3.7060
     6.5788   7.4455   7.4455   9.8369  12.5146  16.3753

          k = 0.0000 0.0000 0.4275 (  4593 PWs)   bands (ev):

   -37.6643 -37.6018 -37.4322 -37.4322  -1.9277  -0.5509   4.3860   4.3860
     7.2989   8.0293   8.0293   9.2750  12.2727  14.6435

          k = 0.0000 0.0000 0.6412 (  4588 PWs)   bands (ev):

   -37.6236 -37.5653 -37.3986 -37.3986  -0.8125   0.7310   5.4718   5.4718
     7.4660   8.3969   8.9673   8.9673  11.2528  12.0462

          k = 0.0000 0.0000 0.8550 (  4592 PWs)   bands (ev):

   -37.5905 -37.5355 -37.3714 -37.3714   0.6912   2.4064   5.1258   6.8070
     6.8070   8.2653   9.5019  10.0900  10.0900  12.2518

          k = 0.0000 0.0000-1.0687 (  4596 PWs)   bands (ev):

   -37.5778 -37.5241 -37.3609 -37.3609   2.0619   3.4307   3.6785   6.5499
     7.6470   7.6470   9.9137  10.5789  10.5789  12.2927

          k = 0.0000 0.1995 0.0000 (  4607 PWs)   bands (ev):

   -37.7033 -37.6491 -37.4694 -37.4693  -2.7541  -1.7766   3.5895   3.7662
     5.5392   6.6098   8.3199  10.7043  13.0957  15.7926

          k = 0.0000 0.1995 0.2137 (  4594 PWs)   bands (ev):

   -37.6909 -37.6378 -37.4591 -37.4590  -2.5220  -1.5149   3.8208   3.9823
     5.7880   6.7745   8.5043  10.7234  13.0284  15.6068

          k = 0.0000 0.1995 0.4275 (  4596 PWs)   bands (ev):

   -37.6585 -37.6081 -37.4320 -37.4320  -1.8311  -0.7368   4.5043   4.6118
     6.5326   7.1991   9.0196  10.3164  12.8445  14.2786

          k = 0.0000 0.1995 0.6412 (  4595 PWs)   bands (ev):

   -37.6182 -37.5711 -37.3984 -37.3984  -0.6990   0.5324   5.5686   5.5857
     7.1416   7.7599   9.2869   9.6845  10.9976  12.7814

          k = 0.0000 0.1995 0.8550 (  4612 PWs)   bands (ev):

   -37.5855 -37.5411 -37.3712 -37.3711   0.8322   2.2163   5.1496   6.3299
     7.0113   8.3928   9.4976   9.8764  10.3058  12.3773

          k = 0.0000 0.1995-1.0687 (  4602 PWs)   bands (ev):

   -37.5729 -37.5295 -37.3607 -37.3606   2.2873   3.4287   3.6240   5.4488
     7.8510   8.2360  10.3510  10.6975  10.9459  11.5058

          k = 0.0000 0.3989 0.0000 (  4616 PWs)   bands (ev):

   -37.6869 -37.6662 -37.4691 -37.4690  -2.5130  -2.1505   3.9289   4.2945
     4.8858   5.5928   9.9706  11.3659  14.4647  14.7724

          k = 0.0000 0.3989 0.2137 (  4608 PWs)   bands (ev):

   -37.6748 -37.6546 -37.4587 -37.4587  -2.2718  -1.8980   4.1600   4.4910
     5.1244   5.7637  10.1425  11.5328  14.4526  14.4609

          k = 0.0000 0.3989 0.4275 (  4601 PWs)   bands (ev):

   -37.6433 -37.6240 -37.4317 -37.4316  -1.5540  -1.1469   4.8398   5.0495
     5.8340   6.2305  10.6111  11.6539  12.9181  13.2007

          k = 0.0000 0.3989 0.6412 (  4601 PWs)   bands (ev):

   -37.6040 -37.5861 -37.3981 -37.3980  -0.3777   0.0829   5.7935   5.8390
     6.7324   6.9828   9.8151  10.3531  11.2175  13.0518

          k = 0.0000 0.3989 0.8550 (  4607 PWs)   bands (ev):

   -37.5721 -37.5552 -37.3708 -37.3707   1.2213   1.7478   5.2917   5.6770
     7.5880   8.4022   8.8676   9.3473  11.6489  12.6867

          k = 0.0000 0.3989-1.0687 (  4616 PWs)   bands (ev):

   -37.5599 -37.5434 -37.3603 -37.3602   2.9567   3.4464   3.5180   4.0421
     8.4325   8.8723   9.7055  10.2601  11.0431  11.5766

          k = 0.1995 0.1995 0.0000 (  4595 PWs)   bands (ev):

   -37.6980 -37.6542 -37.4701 -37.4689  -2.6823  -1.8983   3.2724   4.4921
     4.7103   7.2735   8.3626  11.1231  13.6529  15.5181

          k = 0.1995 0.1995 0.2137 (  4592 PWs)   bands (ev):

   -37.6858 -37.6427 -37.4598 -37.4586  -2.4467  -1.6382   3.4787   4.7276
     4.9216   7.4877   8.5336  11.1302  13.6532  15.7892

          k = 0.1995 0.1995 0.4275 (  4584 PWs)   bands (ev):

   -37.6536 -37.6128 -37.4327 -37.4315  -1.7457  -0.8644   4.0815   5.4189
     5.5253   8.1195   8.9638  10.6900  13.4723  13.8663

          k = 0.1995 0.1995 0.6412 (  4605 PWs)   bands (ev):

   -37.6137 -37.5755 -37.3990 -37.3979  -0.5966   0.4008   5.0144   6.2516
     6.4695   8.5466   9.0663  10.0993  10.8772  12.8245

          k = 0.1995 0.1995 0.8550 (  4616 PWs)   bands (ev):

   -37.5812 -37.5453 -37.3716 -37.3707   0.9616   2.0940   5.1618   6.1417
     6.7413   8.5412   8.9188  10.6108  10.7029  12.0890

          k = 0.1995 0.1995-1.0687 (  4602 PWs)   bands (ev):

   -37.5688 -37.5337 -37.3611 -37.3602   2.5098   3.4236   3.5779   5.2406
     6.7243   9.2762   9.7332  10.7203  11.3781  12.0015

          k = 0.1995 0.3989 0.0000 (  4590 PWs)   bands (ev):

   -37.6843 -37.6675 -37.4701 -37.4693  -2.4771  -2.1818   3.3432   3.8413
     5.5257   6.5744   9.9874  11.5482  13.8484  14.9921

          k = 0.1995 0.3989 0.2137 (  4600 PWs)   bands (ev):

   -37.6723 -37.6558 -37.4598 -37.4590  -2.2330  -1.9279   3.5390   4.0390
     5.7574   6.7927  10.1717  11.6757  13.7599  14.8296

          k = 0.1995 0.3989 0.4275 (  4591 PWs)   bands (ev):

   -37.6409 -37.6252 -37.4326 -37.4319  -1.5061  -1.1720   4.1076   4.6090
     6.4313   7.4218  10.6551  11.5722  12.9572  13.0121

          k = 0.1995 0.3989 0.6412 (  4605 PWs)   bands (ev):

   -37.6019 -37.5873 -37.3988 -37.3982  -0.3139   0.0674   4.9643   5.4118
     7.3650   8.1217   9.6653  10.3034  11.3909  12.8952

          k = 0.1995 0.3989 0.8550 (  4595 PWs)   bands (ev):

   -37.5701 -37.5564 -37.3714 -37.3708   1.3097   1.7497   5.2743   5.6154
     6.9201   7.5694   9.6933  10.4353  11.5382  12.2153

          k = 0.1995 0.3989-1.0687 (  4602 PWs)   bands (ev):

   -37.5580 -37.5446 -37.3609 -37.3604   3.1662   3.4321   3.4889   4.1989
     6.9268   7.9149  10.9329  10.9566  11.4002  11.9591

          k = 0.3989 0.3989 0.0000 (  4583 PWs)   bands (ev):

   -37.6780 -37.6715 -37.4711 -37.4706  -2.3830  -2.2689   3.0156   3.1978
     6.7063   7.3180  10.5851  12.2228  12.4778  13.4956

          k = 0.3989 0.3989 0.2137 (  4591 PWs)   bands (ev):

   -37.6662 -37.6598 -37.4607 -37.4602  -2.1325  -2.0143   3.1965   3.3800
     6.9529   7.5649  10.7745  12.3045  12.6747  13.5525

          k = 0.3989 0.3989 0.4275 (  4583 PWs)   bands (ev):

   -37.6351 -37.6291 -37.4334 -37.4329  -1.3860  -1.2554   3.7233   3.9089
     7.6773   8.3016  11.0704  12.0404  12.2263  13.2461

          k = 0.3989 0.3989 0.6412 (  4592 PWs)   bands (ev):

   -37.5966 -37.5910 -37.3995 -37.3991  -0.1592  -0.0078   4.5328   4.7070
     8.5286   9.1009   9.4481  10.0074  12.1246  12.8923

          k = 0.3989 0.3989 0.8550 (  4609 PWs)   bands (ev):

   -37.5653 -37.5600 -37.3720 -37.3716   1.5169   1.6948   5.2967   5.4541
     6.4532   6.7263  10.8551  11.3090  11.5769  11.7789

          k = 0.3989 0.3989-1.0687 (  4614 PWs)   bands (ev):

   -37.5533 -37.5481 -37.3614 -37.3611   3.4157   3.4367   3.7534   4.3564
     5.9235   6.5151  10.9404  11.1008  12.6731  13.3347

     the Fermi energy is     8.6136 ev

!    total energy              =     -74.26885976 Ry
     estimated scf accuracy    <          3.8E-11 Ry
     smearing contrib. (-TS)   =       0.00012977 Ry
     internal energy E=F+TS    =     -74.26898953 Ry

     The total energy is F=E-TS. E is the sum of the following terms:
     one-electron contribution =     -17.92964489 Ry
     hartree contribution      =      12.10437504 Ry
     xc contribution           =     -20.58372357 Ry
     ewald contribution        =     -47.85999612 Ry

     convergence has been achieved in   8 iterations

     Forces acting on atoms (cartesian axes, Ry/au):

     atom    1 type  1   force =     0.00000000    0.00000000    0.00000000
     atom    2 type  1   force =     0.00000000    0.00000000    0.00000000
     atom    3 type  2   force =     0.00000808   -0.00000808    0.00000235
     atom    4 type  2   force =    -0.00000808   -0.00000808   -0.00000235
     atom    5 type  2   force =    -0.00000808    0.00000808    0.00000235
     atom    6 type  2   force =     0.00000808    0.00000808   -0.00000235
     The non-local contrib.  to forces
     atom    1 type  1   force =     0.00000000    0.00000000   -0.00000000
     atom    2 type  1   force =     0.00000000    0.00000000    0.00000000
     atom    3 type  2   force =    -0.07195817    0.07195817    0.00000050
     atom    4 type  2   force =     0.07195817    0.07195817   -0.00000050
     atom    5 type  2   force =     0.07195817   -0.07195817    0.00000050
     atom    6 type  2   force =    -0.07195817   -0.07195817   -0.00000050
     The ionic contribution  to forces
     atom    1 type  1   force =    -0.00000000   -0.00000000    0.00000000
     atom    2 type  1   force =     0.00000000    0.00000000    0.00000000
     atom    3 type  2   force =    -0.10188354    0.10188354    0.00000505
     atom    4 type  2   force =     0.10188354    0.10188354   -0.00000505
     atom    5 type  2   force =     0.10188354   -0.10188354    0.00000505
     atom    6 type  2   force =    -0.10188354   -0.10188354   -0.00000505
     The local contribution  to forces
     atom    1 type  1   force =     0.00000000   -0.00000000   -0.00000000
     atom    2 type  1   force =    -0.00000000    0.00000000   -0.00000000
     atom    3 type  2   force =     0.17385163   -0.17385163   -0.00000320
     atom    4 type  2   force =    -0.17385163   -0.17385163    0.00000320
     atom    5 type  2   force =    -0.17385163    0.17385163   -0.00000320
     atom    6 type  2   force =     0.17385163    0.17385163    0.00000320
     The core correction contribution to forces
     atom    1 type  1   force =     0.00000000    0.00000000   -0.00000000
     atom    2 type  1   force =    -0.00000000   -0.00000000   -0.00000000
     atom    3 type  2   force =     0.00000000    0.00000000    0.00000000
     atom    4 type  2   force =     0.00000000    0.00000000    0.00000000
     atom    5 type  2   force =     0.00000000    0.00000000    0.00000000
     atom    6 type  2   force =     0.00000000    0.00000000    0.00000000
     The Hubbard contrib.    to forces
     atom    1 type  1   force =     0.00000000    0.00000000    0.00000000
     atom    2 type  1   force =     0.00000000    0.00000000    0.00000000
     atom    3 type  2   force =     0.00000000    0.00000000    0.00000000
     atom    4 type  2   force =     0.00000000    0.00000000    0.00000000
     atom    5 type  2   force =     0.00000000    0.00000000    0.00000000
     atom    6 type  2   force =     0.00000000    0.00000000    0.00000000
     The SCF correction term to forces
     atom    1 type  1   force =     0.00000000   -0.00000000   -0.00000000
     atom    2 type  1   force =    -0.00000000   -0.00000000   -0.00000000
     atom    3 type  2   force =    -0.00000184    0.00000184    0.00000000
     atom    4 type  2   force =     0.00000184    0.00000184   -0.00000000
     atom    5 type  2   force =     0.00000184   -0.00000184    0.00000000
     atom    6 type  2   force =    -0.00000184   -0.00000184   -0.00000000

     Total force =     0.000023     Total SCF correction =     0.000005
     SCF correction compared to forces is large: reduce conv_thr to get better values


     Computing stress (Cartesian axis) and pressure

          total   stress  (Ry/bohr**3)                   (kbar)     P=      500.06
   0.00340044   0.00000000   0.00000000          500.22        0.00        0.00
   0.00000000   0.00340044   0.00000000            0.00      500.22        0.00
   0.00000000   0.00000000   0.00339709            0.00        0.00      499.73


     Writing all to output data dir ./output/SiLi.save/

     init_run     :      1.09s CPU      1.28s WALL (       2 calls)
     electrons    :     51.89s CPU     55.88s WALL (      13 calls)
     update_pot   :      4.34s CPU      4.41s WALL (      11 calls)
     forces       :      3.41s CPU      3.52s WALL (      13 calls)
     stress       :     13.88s CPU     14.72s WALL (      13 calls)

     Called by init_run:
     wfcinit      :      0.41s CPU      0.42s WALL (       2 calls)
     potinit      :      0.34s CPU      0.42s WALL (       2 calls)
     hinit0       :      0.30s CPU      0.34s WALL (       2 calls)

     Called by electrons:
     c_bands      :     44.92s CPU     47.97s WALL (      85 calls)
     sum_band     :      6.18s CPU      6.53s WALL (      85 calls)
     v_of_rho     :      0.78s CPU      1.29s WALL (      91 calls)
     mix_rho      :      0.07s CPU      0.11s WALL (      85 calls)

     Called by c_bands:
     init_us_2    :      1.45s CPU      1.70s WALL (    7128 calls)
     init_us_2:cp :      1.43s CPU      1.69s WALL (    7128 calls)
     cegterg      :     41.46s CPU     42.84s WALL (    3060 calls)

     Called by *egterg:
     cdiaghg      :      2.81s CPU      2.93s WALL (   10858 calls)
     h_psi        :     34.19s CPU     35.32s WALL (   11578 calls)
     g_psi        :      0.17s CPU      0.18s WALL (    8446 calls)

     Called by h_psi:
     h_psi:calbec :      3.22s CPU      3.34s WALL (   11578 calls)
     vloc_psi     :     28.54s CPU     29.49s WALL (   11578 calls)
     add_vuspsi   :      2.22s CPU      2.28s WALL (   11578 calls)

     General routines
     calbec       :      4.01s CPU      4.16s WALL (   13918 calls)
     fft          :      0.74s CPU      1.41s WALL (    1240 calls)
     ffts         :      0.04s CPU      0.06s WALL (      85 calls)
     fftw         :     29.44s CPU     30.39s WALL (  280630 calls)

     Parallel routines

     PWSCF        :   1m14.95s CPU   1m20.52s WALL


   This run was terminated on:  15: 4:24  27Dec2024            

=------------------------------------------------------------------------------=
   JOB DONE.
=------------------------------------------------------------------------------=
