
     Program PWSCF v.7.3.1 starts on  3Mar2025 at 19:53:28 

     This program is part of the open-source Quantum ESPRESSO suite
     for quantum simulation of materials; please cite
         "P. Giannozzi et al., J. Phys.:Condens. Matter 21 395502 (2009);
         "P. Giannozzi et al., J. Phys.:Condens. Matter 29 465901 (2017);
         "P. Giannozzi et al., J. Chem. Phys. 152 154105 (2020);
          URL http://www.quantum-espresso.org", 
     in publications or presentations arising from this work. More details at
     http://www.quantum-espresso.org/quote

     Parallel version (MPI & OpenMP), running on      16 processor cores
     Number of MPI processes:                16
     Threads/MPI process:                     1

     MPI processes distributed on     1 nodes
     492439 MiB available memory on the printing compute node when the environment starts

     Waiting for input...
     Reading input from standard input

     Current dimensions of program PWSCF are:
     Max number of different atomic species (ntypx) = 10
     Max number of k-points (npk) =  40000
     Max angular momentum in pseudopotentials (lmaxx) =  4

     R & G space division:  proc/nbgrp/npool/nimage =      16
     Subspace diagonalization in iterative solution of the eigenvalue problem:
     a serial algorithm will be used


     Parallelization info
     --------------------
     sticks:   dense  smooth     PW     G-vecs:    dense   smooth      PW
     Min         203     203     63                 3889     3889     679
     Max         204     204     64                 3890     3890     681
     Sum        3261    3261   1021                62231    62231   10881

     Using Slab Decomposition



     bravais-lattice index     =            5
     lattice parameter (alat)  =      22.1463  a.u.
     unit-cell volume          =     643.1943 (a.u.)^3
     number of atoms/cell      =            6
     number of atomic types    =            2
     number of electrons       =        22.00
     number of Kohn-Sham states=           15
     kinetic-energy cutoff     =      80.0000  Ry
     charge density cutoff     =     320.0000  Ry
     scf convergence threshold =      1.0E-08
     mixing beta               =       0.7000
     number of iterations used =            8  plain     mixing
     energy convergence thresh.=      5.0E-04
     force convergence thresh. =      1.0E-03
     press convergence thresh. =      1.0E+00
     Exchange-correlation= PBE
                           (   1   4   3   4   0   0   0)
     nstep                     =           50


     celldm(1)=  22.146345  celldm(2)=   0.000000  celldm(3)=   0.000000
     celldm(4)=   0.965411  celldm(5)=   0.000000  celldm(6)=   0.000000

     crystal axes: (cart. coord. in units of alat)
               a(1) = (   0.131509  -0.075927   0.988403 )  
               a(2) = (   0.000000   0.151854   0.988403 )  
               a(3) = (  -0.131509  -0.075927   0.988403 )  

     reciprocal axes: (cart. coord. in units 2 pi/alat)
               b(1) = (  3.802019 -2.195097  0.337244 )  
               b(2) = (  0.000000  4.390194  0.337244 )  
               b(3) = ( -3.802019 -2.195097  0.337244 )  


     PseudoPot. # 1 for Si read from file:
     ../pseudo/Si_ONCV_PBE_sr.upf
     MD5 check sum: e543d271109d17c80368dfa7c482276d
     Pseudo is Norm-conserving + core correction, Zval =  4.0
     Generated using ONCVPSP code by D. R. Hamann
     Using radial grid of 1510 points,  6 beta functions with: 
                l(1) =   0
                l(2) =   0
                l(3) =   1
                l(4) =   1
                l(5) =   2
                l(6) =   2

     PseudoPot. # 2 for Li read from file:
     ../pseudo/Li_ONCV_PBE_sr.upf
     MD5 check sum: 50ff420e78310ffa21704f3361e624a4
     Pseudo is Norm-conserving, Zval =  3.0
     Generated using ONCVPSP code by D. R. Hamann
     Using radial grid of 1944 points,  4 beta functions with: 
                l(1) =   0
                l(2) =   0
                l(3) =   1
                l(4) =   1

     atomic species   valence    mass     pseudopotential
     Si                4.00    28.08550     Si( 1.00)
     Li                3.00     6.94100     Li( 1.00)

     12 Sym. Ops., with inversion, found



   Cartesian axes

     site n.     atom                  positions (alat units)
         1        Si     tau(   1) = (  -0.0000000  -0.0000000   0.7770824  )
         2        Si     tau(   2) = (  -0.0000000  -0.0000000   2.1881266  )
         3        Si     tau(   3) = (   0.0000000   0.0000000   0.0000000  )
         4        Si     tau(   4) = (   0.0000000  -0.0000000   1.4826045  )
         5        Li     tau(   5) = (   0.0000000  -0.0000000   0.5933205  )
         6        Li     tau(   6) = (  -0.0000000  -0.0000000   2.3718885  )

     number of k points=    44  Marzari-Vanderbilt smearing, width (Ry)=  0.0200
                       cart. coord. in units 2pi/alat
        k(    1) = (   0.0000000   0.0000000   0.0000000), wk =   0.0058309
        k(    2) = (  -0.5431456  -0.3135853   0.0481778), wk =   0.0349854
        k(    3) = (  -1.0862913  -0.6271706   0.0963555), wk =   0.0349854
        k(    4) = (  -1.6294369  -0.9407558   0.1445333), wk =   0.0349854
        k(    5) = (  -0.5431456   0.3135853   0.0963555), wk =   0.0349854
        k(    6) = (  -1.0862913  -0.0000000   0.1445333), wk =   0.0699708
        k(    7) = (  -1.6294369  -0.3135853   0.1927111), wk =   0.0699708
        k(    8) = (   1.6294369   1.5679264  -0.0963555), wk =   0.0699708
        k(    9) = (   1.0862913   1.2543411  -0.0481778), wk =   0.0699708
        k(   10) = (   0.5431456   0.9407558   0.0000000), wk =   0.0349854
        k(   11) = (  -1.0862913   0.6271706   0.1927111), wk =   0.0349854
        k(   12) = (  -1.6294369   0.3135853   0.2408888), wk =   0.0699708
        k(   13) = (   1.6294369   2.1950970  -0.0481778), wk =   0.0699708
        k(   14) = (   1.0862913   1.8815117   0.0000000), wk =   0.0349854
        k(   15) = (  -1.6294369   0.9407558   0.2890666), wk =   0.0349854
        k(   16) = (   1.6294369   2.8222675   0.0000000), wk =   0.0349854
        k(   17) = (  -0.0000000  -0.0000000   0.1445333), wk =   0.0116618
        k(   18) = (  -0.5431456  -0.3135853   0.1927111), wk =   0.0349854
        k(   19) = (  -1.0862913  -0.6271706   0.2408888), wk =   0.0349854
        k(   20) = (   2.1725826   1.2543411  -0.0481778), wk =   0.0349854
        k(   21) = (   1.6294369   0.9407558   0.0000000), wk =   0.0349854
        k(   22) = (   1.0862913   0.6271706   0.0481778), wk =   0.0349854
        k(   23) = (  -0.5431456   0.3135853   0.2408888), wk =   0.0349854
        k(   24) = (  -1.0862913   0.0000000   0.2890666), wk =   0.0699708
        k(   25) = (   2.1725826   1.8815117   0.0000000), wk =   0.0699708
        k(   26) = (   1.6294369   1.5679264   0.0481778), wk =   0.0699708
        k(   27) = (   1.0862913   1.2543411   0.0963555), wk =   0.0699708
        k(   28) = (  -1.0862913   0.6271706   0.3372444), wk =   0.0349854
        k(   29) = (   2.1725826   2.5086823   0.0481778), wk =   0.0699708
        k(   30) = (   1.6294369   2.1950970   0.0963555), wk =   0.0699708
        k(   31) = (   1.0862913   1.8815117   0.1445333), wk =   0.0699708
        k(   32) = (   2.1725826  -1.2543411  -0.2408888), wk =   0.0349854
        k(   33) = (   1.6294369  -1.5679264  -0.1927111), wk =   0.0699708
        k(   34) = (   1.6294369  -0.9407558  -0.1445333), wk =   0.0349854
        k(   35) = (  -0.0000000  -0.0000000   0.2890666), wk =   0.0116618
        k(   36) = (  -0.5431456  -0.3135853   0.3372444), wk =   0.0349854
        k(   37) = (   2.7157282   1.5679264   0.0481778), wk =   0.0349854
        k(   38) = (   2.1725826   1.2543411   0.0963555), wk =   0.0349854
        k(   39) = (  -0.5431456   0.3135853   0.3854221), wk =   0.0349854
        k(   40) = (   2.7157282   2.1950970   0.0963555), wk =   0.0699708
        k(   41) = (   2.1725826   1.8815117   0.1445333), wk =   0.0699708
        k(   42) = (   2.7157282  -1.5679264  -0.1927111), wk =   0.0349854
        k(   43) = (  -0.0000000  -0.0000000   0.4335999), wk =   0.0116618
        k(   44) = (   3.2588738   1.8815117   0.1445333), wk =   0.0349854

     Dense  grid:    62231 G-vectors     FFT dimensions: ( 128, 128, 128)

     Estimated max dynamical RAM per process >      28.38 MB

     Estimated total dynamical RAM >     454.04 MB

     Initial potential from superposition of free atoms

     starting charge      21.9884, renormalised to      22.0000
     Starting wfcs are   20 randomized atomic wfcs

     total cpu time spent up to now is        3.3 secs

     per-process dynamical memory:    60.5 Mb

     Self-consistent Calculation

     iteration #  1     ecut=    80.00 Ry     beta= 0.70
     Davidson diagonalization with overlap
     ethr =  1.00E-02,  avg # of iterations =  3.4

     total cpu time spent up to now is        8.9 secs

     total energy              =     -57.74812567 Ry
     estimated scf accuracy    <       5.46211364 Ry

     iteration #  2     ecut=    80.00 Ry     beta= 0.70
     Davidson diagonalization with overlap
     ethr =  1.00E-02,  avg # of iterations =  8.6

     total cpu time spent up to now is       18.9 secs

     total energy              =     -57.48591185 Ry
     estimated scf accuracy    <     123.33546829 Ry

     iteration #  3     ecut=    80.00 Ry     beta= 0.70
     Davidson diagonalization with overlap
     ethr =  1.00E-02,  avg # of iterations =  6.2

     total cpu time spent up to now is       26.6 secs

     total energy              =     -61.62237475 Ry
     estimated scf accuracy    <      14.46672088 Ry

     iteration #  4     ecut=    80.00 Ry     beta= 0.70
     Davidson diagonalization with overlap
     ethr =  1.00E-02,  avg # of iterations =  3.1

     total cpu time spent up to now is       31.6 secs

     total energy              =     -61.97026532 Ry
     estimated scf accuracy    <       4.39311964 Ry

     iteration #  5     ecut=    80.00 Ry     beta= 0.70
     Davidson diagonalization with overlap
     ethr =  1.00E-02,  avg # of iterations =  2.3

     total cpu time spent up to now is       36.0 secs

     total energy              =     -62.16960908 Ry
     estimated scf accuracy    <       0.42020174 Ry

     iteration #  6     ecut=    80.00 Ry     beta= 0.70
     Davidson diagonalization with overlap
     ethr =  1.91E-03,  avg # of iterations =  3.1

     total cpu time spent up to now is       40.6 secs

     total energy              =     -62.20181726 Ry
     estimated scf accuracy    <       0.06448465 Ry

     iteration #  7     ecut=    80.00 Ry     beta= 0.70
     Davidson diagonalization with overlap
     ethr =  2.93E-04,  avg # of iterations =  6.5

     total cpu time spent up to now is       46.4 secs

     total energy              =     -62.21125487 Ry
     estimated scf accuracy    <       0.00289665 Ry

     iteration #  8     ecut=    80.00 Ry     beta= 0.70
     Davidson diagonalization with overlap
     ethr =  1.32E-05,  avg # of iterations =  4.7

     total cpu time spent up to now is       51.6 secs

     total energy              =     -62.21185464 Ry
     estimated scf accuracy    <       0.00084314 Ry

     iteration #  9     ecut=    80.00 Ry     beta= 0.70
     Davidson diagonalization with overlap
     ethr =  3.83E-06,  avg # of iterations =  2.1

     total cpu time spent up to now is       55.9 secs

     total energy              =     -62.21191997 Ry
     estimated scf accuracy    <       0.00001023 Ry

     iteration # 10     ecut=    80.00 Ry     beta= 0.70
     Davidson diagonalization with overlap
     ethr =  4.65E-08,  avg # of iterations =  5.1

     total cpu time spent up to now is       61.9 secs

     total energy              =     -62.21190465 Ry
     estimated scf accuracy    <       0.00019924 Ry

     iteration # 11     ecut=    80.00 Ry     beta= 0.70
     Davidson diagonalization with overlap
     ethr =  4.65E-08,  avg # of iterations =  3.3

     total cpu time spent up to now is       67.0 secs

     total energy              =     -62.21192155 Ry
     estimated scf accuracy    <       0.00003148 Ry

     iteration # 12     ecut=    80.00 Ry     beta= 0.70
     Davidson diagonalization with overlap
     ethr =  4.65E-08,  avg # of iterations =  1.2

     total cpu time spent up to now is       71.1 secs

     total energy              =     -62.21192334 Ry
     estimated scf accuracy    <       0.00000004 Ry

     iteration # 13     ecut=    80.00 Ry     beta= 0.70
     Davidson diagonalization with overlap
     ethr =  1.76E-10,  avg # of iterations =  5.4

     total cpu time spent up to now is       77.2 secs

     total energy              =     -62.21192338 Ry
     estimated scf accuracy    <       0.00000007 Ry

     iteration # 14     ecut=    80.00 Ry     beta= 0.70
     Davidson diagonalization with overlap
     ethr =  1.76E-10,  avg # of iterations =  1.6

     total cpu time spent up to now is       81.4 secs

     total energy              =     -62.21192339 Ry
     estimated scf accuracy    <       0.00000001 Ry

     iteration # 15     ecut=    80.00 Ry     beta= 0.70
     Davidson diagonalization with overlap
     ethr =  4.91E-11,  avg # of iterations =  1.0

     total cpu time spent up to now is       85.5 secs

     End of self-consistent calculation

          k = 0.0000 0.0000 0.0000 (  7809 PWs)   bands (ev):

   -39.2862 -39.2608  -4.8448  -3.6050  -3.6013  -1.6227   1.8132   5.1928
     5.2919  10.4785  11.5050  11.5050  12.2706  12.2706  12.5540

          k =-0.5431-0.3136 0.0482 (  7806 PWs)   bands (ev):

   -39.2820 -39.2590  -4.4416  -3.2923  -3.1825  -1.2348   2.1560   5.2835
     5.7008   8.9336   9.2924  10.2049  10.3119  10.5131  11.0178

          k =-1.0863-0.6272 0.0964 (  7773 PWs)   bands (ev):

   -39.2720 -39.2555  -3.2456  -2.3159  -2.0003  -0.1070   3.0879   5.0285
     5.4250   6.0199   6.5411   6.8938   8.3250   8.8211   9.7109

          k =-1.6294-0.9408 0.1445 (  7773 PWs)   bands (ev):

   -39.2628 -39.2539  -1.3399  -0.8573  -0.2303   1.1676   2.1415   2.7126
     3.2394   4.6121   5.2259   6.8912   7.4946   8.0958   9.0110

          k =-0.5431 0.3136 0.0964 (  7802 PWs)   bands (ev):

   -39.2820 -39.2590  -4.4408  -3.3270  -3.1440  -1.2444   2.1824   5.0523
     5.9489   8.9199   9.2748  10.1997  10.3336  10.4742  11.0447

          k =-1.0863-0.0000 0.1445 (  7766 PWs)   bands (ev):

   -39.2749 -39.2564  -3.6395  -2.6720  -2.3470  -0.4937   2.8736   5.2600
     6.4248   7.0257   7.2497   7.6830   8.1959   8.6839   9.2401

          k =-1.6294-0.3136 0.1927 (  7745 PWs)   bands (ev):

   -39.2652 -39.2539  -2.0712  -1.4002  -0.8307   0.8937   3.4188   4.0757
     4.3514   5.1426   5.6745   6.2670   6.8755   7.3081   7.9412

          k = 1.6294 1.5679-0.0964 (  7776 PWs)   bands (ev):

   -39.2598 -39.2539  -0.2602  -0.1329   0.2940   1.1880   2.0335   2.3746
     3.6577   3.7902   5.7116   5.9231   6.4976   6.9787   7.3312

          k = 1.0863 1.2543-0.0482 (  7753 PWs)   bands (ev):

   -39.2652 -39.2539  -2.0798  -1.3477  -0.8958   0.9344   3.4466   4.0113
     4.2857   5.0801   5.7848   6.3939   6.9160   7.3565   7.8418

          k = 0.5431 0.9408 0.0000 (  7769 PWs)   bands (ev):

   -39.2749 -39.2564  -3.6426  -2.6109  -2.4191  -0.4642   2.7932   5.6706
     6.0567   6.9910   7.2543   7.6796   8.1828   8.6830   9.2556

          k =-1.0863 0.6272 0.1927 (  7768 PWs)   bands (ev):

   -39.2720 -39.2555  -3.2416  -2.3652  -1.9372  -0.1465   3.2427   4.7298
     5.3385   6.1066   6.5541   7.2897   8.1577   8.8095   9.7840

          k =-1.6294 0.3136 0.2409 (  7754 PWs)   bands (ev):

   -39.2652 -39.2539  -2.0682  -1.4187  -0.8025   0.8594   3.6551   3.8853
     4.3529   4.9277   5.8262   6.5010   6.6799   7.4395   7.7215

          k = 1.6294 2.1951-0.0482 (  7757 PWs)   bands (ev):

   -39.2583 -39.2541  -0.2366  -0.0380   0.7943   1.6928   3.0507   3.3015
     3.5957   3.9961   4.3512   4.6403   5.7175   6.0218   6.5528

          k = 1.0863 1.8815 0.0000 (  7766 PWs)   bands (ev):

   -39.2583 -39.2541  -0.2747   0.0323   0.7412   1.7063   3.0563   3.2368
     3.7079   4.0008   4.4603   4.5730   5.5174   6.1789   6.2613

          k =-1.6294 0.9408 0.2891 (  7777 PWs)   bands (ev):

   -39.2628 -39.2539  -1.3278  -0.9016  -0.1655   1.0925   2.2798   2.5013
     3.4255   4.5834   5.1614   6.8533   7.5336   8.0810   9.1108

          k = 1.6294 2.8223 0.0000 (  7766 PWs)   bands (ev):

   -39.2598 -39.2539  -0.2663  -0.1222   0.2807   1.2435   1.8764   2.5255
     3.5204   3.8916   5.7830   5.7922   6.4972   7.0753   7.4457

          k =-0.0000-0.0000 0.1445 (  7800 PWs)   bands (ev):

   -39.2862 -39.2608  -4.8426  -3.7211  -3.4740  -1.6494   1.8844   4.6028
     5.9246  10.1759  11.5054  11.5054  12.2496  12.2500  12.5958

          k =-0.5431-0.3136 0.1927 (  7805 PWs)   bands (ev):

   -39.2820 -39.2590  -4.4377  -3.3969  -3.0601  -1.2784   2.2759   4.6716
     6.3620   8.9113   9.3208  10.1495  10.2043  10.3140  11.0233

          k =-1.0863-0.6272 0.2409 (  7780 PWs)   bands (ev):

   -39.2720 -39.2555  -3.2381  -2.3956  -1.8988  -0.1666   3.2449   4.8639
     5.5141   5.6842   6.4836   7.2888   8.4121   8.8204   9.7155

          k = 2.1726 1.2543-0.0482 (  7779 PWs)   bands (ev):

   -39.2628 -39.2539  -1.3225  -0.9089  -0.1771   1.1586   2.1300   2.6760
     3.2136   4.6586   5.5526   6.4198   7.4278   8.0937   9.0239

          k = 1.6294 0.9408 0.0000 (  7780 PWs)   bands (ev):

   -39.2628 -39.2539  -1.3485  -0.8307  -0.2522   1.1480   2.1874   2.6710
     3.3414   4.5562   5.0304   7.2076   7.5626   8.0921   9.0328

          k = 1.0863 0.6272 0.0482 (  7766 PWs)   bands (ev):

   -39.2720 -39.2555  -3.2471  -2.2945  -2.0249  -0.0982   3.0852   4.9747
     5.3409   6.3230   6.5279   6.8107   8.2255   8.8161   9.7396

          k =-0.5431 0.3136 0.2409 (  7791 PWs)   bands (ev):

   -39.2820 -39.2590  -4.4358  -3.4265  -3.0213  -1.3001   2.3454   4.4693
     6.6127   8.8550   9.2848  10.0837  10.1930  10.3349  11.0877

          k =-1.0863 0.0000 0.2891 (  7776 PWs)   bands (ev):

   -39.2749 -39.2564  -3.6321  -2.7554  -2.2375  -0.5606   3.0889   4.7366
     6.7359   7.1816   7.2557   7.6837   8.2279   8.7117   9.1860

          k = 2.1726 1.8815 0.0000 (  7750 PWs)   bands (ev):

   -39.2652 -39.2539  -2.0582  -1.4620  -0.7479   0.8267   3.4576   4.0913
     4.4583   5.1664   5.5056   6.2386   6.7578   7.3740   7.8883

          k = 1.6294 1.5679 0.0482 (  7767 PWs)   bands (ev):

   -39.2598 -39.2539  -0.2624  -0.1291   0.2893   1.2066   1.9687   2.4387
     3.5831   3.8551   5.6543   5.9867   6.4519   7.0395   7.3536

          k = 1.0863 1.2543 0.0964 (  7762 PWs)   bands (ev):

   -39.2652 -39.2539  -2.0786  -1.3580  -0.8814   0.9191   3.5508   3.9247
     4.2794   5.0170   5.8187   6.4987   6.8361   7.5144   7.6160

          k =-1.0863 0.6272 0.3372 (  7761 PWs)   bands (ev):

   -39.2720 -39.2555  -3.2329  -2.4374  -1.8383  -0.2163   3.5194   4.3999
     5.3630   5.9112   6.5361   7.7473   8.1646   8.8060   9.8105

          k = 2.1726 2.5087 0.0482 (  7755 PWs)   bands (ev):

   -39.2652 -39.2539  -2.0556  -1.4744  -0.7269   0.7992   3.6187   3.9716
     4.5193   4.8342   5.7582   6.3879   6.6069   7.4323   7.7892

          k = 1.6294 2.1951 0.0964 (  7770 PWs)   bands (ev):

   -39.2583 -39.2541  -0.2001  -0.0905   0.8225   1.6847   3.0476   3.3692
     3.5096   3.9543   4.3948   4.6063   5.8535   5.9548   6.7508

          k = 1.0863 1.8815 0.1445 (  7765 PWs)   bands (ev):

   -39.2583 -39.2541  -0.2647   0.0119   0.7579   1.7023   3.0546   3.2534
     3.6732   4.0132   4.3830   4.6270   5.5767   6.1017   6.3722

          k = 2.1726-1.2543-0.2409 (  7774 PWs)   bands (ev):

   -39.2628 -39.2539  -1.3111  -0.9426  -0.1273   1.0957   2.2375   2.5133
     3.3520   4.6437   5.4879   6.4134   7.4556   8.0817   9.1045

          k = 1.6294-1.5679-0.1927 (  7775 PWs)   bands (ev):

   -39.2598 -39.2539  -0.2651  -0.1243   0.2833   1.2316   1.9031   2.5012
     3.5349   3.8864   5.6784   5.9244   6.4706   7.0709   7.4118

          k = 1.6294-0.9408-0.1445 (  7787 PWs)   bands (ev):

   -39.2628 -39.2539  -1.3436  -0.8519  -0.2218   1.1158   2.2446   2.5813
     3.4290   4.5368   5.0047   7.1792   7.5836   8.0855   9.0764

          k =-0.0000-0.0000 0.2891 (  7763 PWs)   bands (ev):

   -39.2862 -39.2608  -4.8376  -3.8105  -3.3579  -1.7101   2.0687   4.0527
     6.5986   9.5691  11.5063  11.5063  12.2136  12.2136  12.6885

          k =-0.5431-0.3136 0.3372 (  7795 PWs)   bands (ev):

   -39.2820 -39.2590  -4.4318  -3.4745  -2.9544  -1.3433   2.4929   4.1555
     6.9832   8.8360   9.3090   9.7845  10.1985  10.2437  11.0583

          k = 2.7157 1.5679 0.0482 (  7778 PWs)   bands (ev):

   -39.2720 -39.2555  -3.2299  -2.4560  -1.8127  -0.2328   3.5088   4.5060
     5.4384   5.7028   6.4652   7.6400   8.4354   8.8145   9.7508

          k = 2.1726 1.2543 0.0964 (  7776 PWs)   bands (ev):

   -39.2628 -39.2539  -1.3084  -0.9462  -0.1329   1.1256   2.1666   2.5916
     3.2661   4.6723   5.9283   5.9624   7.4102   8.0873   9.0640

          k =-0.5431 0.3136 0.3854 (  7794 PWs)   bands (ev):

   -39.2820 -39.2590  -4.4302  -3.4907  -2.9301  -1.3611   2.5697   4.0144
     7.1876   8.7283   9.2895   9.7214  10.1898  10.2782  11.1149

          k = 2.7157 2.1951 0.0964 (  7779 PWs)   bands (ev):

   -39.2749 -39.2564  -3.6259  -2.8043  -2.1657  -0.6153   3.3390   4.3334
     6.8175   7.2174   7.4538   7.6573   8.2572   8.7972   9.0953

          k = 2.1726 1.8815 0.1445 (  7759 PWs)   bands (ev):

   -39.2652 -39.2539  -2.0508  -1.4920  -0.7041   0.7842   3.5334   4.0545
     4.5696   4.9442   5.5931   6.2861   6.6530   7.4287   7.8307

          k = 2.7157-1.5679-0.1927 (  7765 PWs)   bands (ev):

   -39.2720 -39.2555  -3.2275  -2.4715  -1.7881  -0.2553   3.7256   4.2068
     5.3910   5.7901   6.4919   7.8415   8.3319   8.8082   9.7943

          k =-0.0000-0.0000 0.4336 (  7742 PWs)   bands (ev):

   -39.2862 -39.2608  -4.8334  -3.8587  -3.2865  -1.7598   2.2600   3.6838
     7.1302   9.0381  11.5070  11.5071  12.1908  12.1908  12.7751

          k = 3.2589 1.8815 0.1445 (  7797 PWs)   bands (ev):

   -39.2820 -39.2590  -4.4284  -3.5077  -2.9040  -1.3807   2.6605   3.8697
     7.3753   8.6855   9.2683   9.6225  10.1921  10.2378  11.1003

     the Fermi energy is     6.4510 ev

!    total energy              =     -62.21192339 Ry
     estimated scf accuracy    <          3.2E-11 Ry
     smearing contrib. (-TS)   =      -0.00165617 Ry
     internal energy E=F+TS    =     -62.21026722 Ry

     The total energy is F=E-TS. E is the sum of the following terms:
     one-electron contribution =     -11.75745723 Ry
     hartree contribution      =      12.07788115 Ry
     xc contribution           =     -18.91939242 Ry
     ewald contribution        =     -43.61129872 Ry

     convergence has been achieved in  15 iterations

     Forces acting on atoms (cartesian axes, Ry/au):

     atom    1 type  1   force =    -0.00000000   -0.00000000    0.10146679
     atom    2 type  1   force =    -0.00000000   -0.00000000   -0.10146679
     atom    3 type  1   force =     0.00000000    0.00000000    0.00000000
     atom    4 type  1   force =     0.00000000   -0.00000000    0.00000000
     atom    5 type  2   force =    -0.00000000   -0.00000000    0.05177920
     atom    6 type  2   force =    -0.00000000   -0.00000000   -0.05177920

     Total force =     0.161100     Total SCF correction =     0.000009


     Computing stress (Cartesian axis) and pressure

          total   stress  (Ry/bohr**3)                   (kbar)     P=       72.25
   0.00011236   0.00000000  -0.00000000           16.53        0.00       -0.00
   0.00000000   0.00011236   0.00000000            0.00       16.53        0.00
  -0.00000000   0.00000000   0.00124869           -0.00        0.00      183.69


     BFGS Geometry Optimization
     Energy error            =      0.0E+00 Ry
     Gradient error          =      1.0E-01 Ry/Bohr
     Cell gradient error     =      4.8E+02 kbar

     number of scf cycles    =   1
     number of bfgs steps    =   0

     enthalpy           new  =     -60.0257503393 Ry

     new trust radius        =       0.4167575815 bohr
ibrav =      5
 celldm(1) =     20.94154984
 celldm(4) =      0.96741199
Input lattice vectors:
     0.12070373    -0.06968833     0.93527033
    -0.00000000     0.13937666     0.93527033
    -0.12070373    -0.06968833     0.93527033
New lattice vectors in INITIAL alat:
     0.12070373    -0.06968833     0.93527033
     0.00000000     0.13937666     0.93527033
    -0.12070373    -0.06968833     0.93527033
New lattice vectors in NEW alat (for information only):
     0.12764797    -0.07369759     0.98907768
     0.00000000     0.14739518     0.98907768
    -0.12764797    -0.07369759     0.98907768
Discrepancy in bohr =     0.000000    0.000000    0.000000
     new conv_thr            =       0.0000000100 Ry

     new unit-cell volume =    512.71418 a.u.^3 (    75.97640 Ang^3 )
     density =      2.75875 g/cm^3

CELL_PARAMETERS (alat= 22.14634508)
   0.120703727  -0.069688329   0.935270334
   0.000000000   0.139376658   0.935270334
  -0.120703727  -0.069688329   0.935270334

ATOMIC_POSITIONS (crystal)
Si               0.2636118055        0.2636118055        0.2636118055
Si               0.7363881945        0.7363881945        0.7363881945
Si               0.0000000000        0.0000000000        0.0000000000
Si               0.5000000000        0.5000000000        0.5000000000
Li               0.2008824931        0.2008824931        0.2008824931
Li               0.7991175069        0.7991175069        0.7991175069



     Writing config-only to output data dir ./output/SiLi.save/ :
     XML data file
     NEW-OLD atomic charge density approx. for the potential

     total cpu time spent up to now is       86.9 secs

     per-process dynamical memory:    68.5 Mb

     Self-consistent Calculation

     iteration #  1     ecut=    80.00 Ry     beta= 0.70
     Davidson diagonalization with overlap
     c_bands:  1 eigenvalues not converged
     c_bands:  1 eigenvalues not converged
     c_bands:  2 eigenvalues not converged
     c_bands:  1 eigenvalues not converged
     c_bands:  1 eigenvalues not converged
     c_bands:  1 eigenvalues not converged
     ethr =  1.00E-06,  avg # of iterations = 13.6

     total cpu time spent up to now is      103.9 secs

     total energy              =     -62.02626728 Ry
     estimated scf accuracy    <       0.11333673 Ry

     iteration #  2     ecut=    80.00 Ry     beta= 0.70
     Davidson diagonalization with overlap
     ethr =  5.15E-04,  avg # of iterations =  7.4

     total cpu time spent up to now is      111.3 secs

     total energy              =     -61.46000656 Ry
     estimated scf accuracy    <      14.11148656 Ry

     iteration #  3     ecut=    80.00 Ry     beta= 0.70
     Davidson diagonalization with overlap
     ethr =  5.15E-04,  avg # of iterations =  7.6

     total cpu time spent up to now is      118.5 secs

     total energy              =     -62.11800924 Ry
     estimated scf accuracy    <       0.01507395 Ry

     iteration #  4     ecut=    80.00 Ry     beta= 0.70
     Davidson diagonalization with overlap
     ethr =  6.85E-05,  avg # of iterations =  4.2

     total cpu time spent up to now is      123.7 secs

     total energy              =     -62.12027205 Ry
     estimated scf accuracy    <       0.00059260 Ry

     iteration #  5     ecut=    80.00 Ry     beta= 0.70
     Davidson diagonalization with overlap
     c_bands:  2 eigenvalues not converged
     ethr =  2.69E-06,  avg # of iterations =  6.5

     total cpu time spent up to now is      129.8 secs

     total energy              =     -62.12039708 Ry
     estimated scf accuracy    <       0.00003314 Ry

     iteration #  6     ecut=    80.00 Ry     beta= 0.70
     Davidson diagonalization with overlap
     ethr =  1.51E-07,  avg # of iterations =  2.9

     total cpu time spent up to now is      134.5 secs

     total energy              =     -62.12039961 Ry
     estimated scf accuracy    <       0.00001638 Ry

     iteration #  7     ecut=    80.00 Ry     beta= 0.70
     Davidson diagonalization with overlap
     ethr =  7.44E-08,  avg # of iterations =  1.1

     total cpu time spent up to now is      138.5 secs

     total energy              =     -62.12040052 Ry
     estimated scf accuracy    <       0.00000033 Ry

     iteration #  8     ecut=    80.00 Ry     beta= 0.70
     Davidson diagonalization with overlap
     ethr =  1.51E-09,  avg # of iterations =  4.2

     total cpu time spent up to now is      143.9 secs

     total energy              =     -62.12040067 Ry
     estimated scf accuracy    <       0.00000036 Ry

     iteration #  9     ecut=    80.00 Ry     beta= 0.70
     Davidson diagonalization with overlap
     ethr =  1.51E-09,  avg # of iterations =  1.0

     total cpu time spent up to now is      148.0 secs

     total energy              =     -62.12040068 Ry
     estimated scf accuracy    <       0.00000001 Ry

     iteration # 10     ecut=    80.00 Ry     beta= 0.70
     Davidson diagonalization with overlap
     ethr =  5.21E-11,  avg # of iterations =  3.2

     total cpu time spent up to now is      152.6 secs

     End of self-consistent calculation

          k = 0.0000 0.0000 0.0000 (  7809 PWs)   bands (ev):

   -37.0881 -37.0387  -4.2224  -2.6506  -2.1616  -0.1720   3.2406   7.2195
     7.4689  13.3490  15.2280  15.9870  15.9870  16.6660  16.6660

          k =-0.5918-0.3417 0.0509 (  7806 PWs)   bands (ev):

   -37.0777 -37.0333  -3.7333  -2.1714  -1.7696   0.3074   3.6460   7.4145
     7.8623  12.4228  12.5750  13.5670  14.0014  14.0026  14.7785

          k =-1.1835-0.6833 0.1018 (  7773 PWs)   bands (ev):

   -37.0536 -37.0221  -2.2749  -0.7794  -0.5664   1.7287   4.7523   7.5016
     7.7964   8.3662   9.1715   9.8405  11.3895  12.2939  13.1097

          k =-1.7753-1.0250 0.1527 (  7773 PWs)   bands (ev):

   -37.0319 -37.0156   0.1143   1.1368   1.6485   3.4797   3.9830   4.4299
     5.0686   7.0542   7.4873   9.3268  10.2582  11.4249  12.2512

          k =-0.5918 0.3417 0.1018 (  7802 PWs)   bands (ev):

   -37.0777 -37.0333  -3.7330  -2.1803  -1.7568   0.2974   3.6721   7.1584
     8.1432  12.3650  12.5812  13.4878  13.9928  14.0117  14.8182

          k =-1.1835-0.0000 0.1527 (  7766 PWs)   bands (ev):

   -37.0605 -37.0250  -2.7587  -1.2598  -0.9373   1.2354   4.4884   7.4444
     8.8326  10.2240  10.2602  10.5411  11.2396  11.9894  12.2077

          k =-1.7753-0.3417 0.2037 (  7745 PWs)   bands (ev):

   -37.0374 -37.0163  -0.8295   0.4101   0.8186   3.0739   5.3816   6.0693
     6.8179   7.5037   8.1581   9.0290   9.6229   9.8890  10.5699

          k = 1.7753 1.7083-0.1018 (  7776 PWs)   bands (ev):

   -37.0251 -37.0146   1.8110   2.0249   2.2175   3.4129   3.8166   3.9157
     5.7797   6.0081   8.0195   8.5325   8.8893   9.4827  10.0654

          k = 1.1835 1.3666-0.0509 (  7753 PWs)   bands (ev):

   -37.0374 -37.0163  -0.8332   0.5055   0.7018   3.1421   5.3447   6.0333
     6.6700   7.5273   8.4822   9.0629   9.4545  10.0577  10.4843

          k = 0.5918 1.0250 0.0000 (  7769 PWs)   bands (ev):

   -37.0605 -37.0250  -2.7598  -1.2081  -1.0014   1.2694   4.4026   7.9333
     8.3349  10.2358  10.2486  10.5386  11.2224  12.0058  12.2228

          k =-1.1835 0.6833 0.2037 (  7768 PWs)   bands (ev):

   -37.0536 -37.0221  -2.2737  -0.8371  -0.4924   1.6788   4.9276   6.9636
     7.7599   8.9548   9.1744   9.8336  11.3100  12.2749  13.1951

          k =-1.7753 0.3417 0.2546 (  7754 PWs)   bands (ev):

   -37.0374 -37.0163  -0.8290   0.3908   0.8501   3.0199   5.7421   5.9372
     6.4584   7.4952   8.4196   9.2154   9.2440  10.1345  10.4416

          k = 1.7753 2.3916-0.0509 (  7757 PWs)   bands (ev):

   -37.0220 -37.0141   1.5334   2.2433   3.0647   4.5569   5.0694   5.1755
     5.3170   6.1125   6.4065   6.6970   8.1831   8.4642   9.0415

          k = 1.1835 2.0499 0.0000 (  7766 PWs)   bands (ev):

   -37.0220 -37.0141   1.5180   2.3274   2.9457   4.5415   5.0751   5.2476
     5.5561   5.8550   6.4195   6.7586   7.9041   8.5366   8.9256

          k =-1.7753 1.0250 0.3055 (  7777 PWs)   bands (ev):

   -37.0319 -37.0156   0.1156   1.1019   1.7161   3.4156   3.9071   4.4085
     5.3084   7.0593   7.2961   9.3423  10.2897  11.4007  12.3645

          k = 1.7753 3.0749 0.0000 (  7766 PWs)   bands (ev):

   -37.0251 -37.0146   1.7650   2.1512   2.1561   3.3996   3.6616   4.0853
     5.6512   6.1254   8.1512   8.2859   8.9776   9.6435  10.0487

          k =-0.0000-0.0000 0.1527 (  7800 PWs)   bands (ev):

   -37.0881 -37.0387  -4.2218  -2.6693  -2.1320  -0.1982   3.3061   6.6542
     8.0996  12.9154  15.6904  15.9869  15.9870  16.6150  16.6152

          k =-0.5918-0.3417 0.2037 (  7805 PWs)   bands (ev):

   -37.0777 -37.0333  -3.7321  -2.2096  -1.7133   0.2626   3.7605   6.7573
     8.6067  12.3294  12.4959  13.3290  13.9324  14.0041  14.7743

          k =-1.1835-0.6833 0.2546 (  7780 PWs)   bands (ev):

   -37.0536 -37.0221  -2.2721  -0.8726  -0.4468   1.6563   4.9308   7.1975
     7.7470   8.3571   9.1582  10.2299  11.4550  12.2934  13.1122

          k = 2.3671 1.3666-0.0509 (  7779 PWs)   bands (ev):

   -37.0319 -37.0156   0.1216   1.0701   1.7425   3.5223   3.7955   4.5021
     5.0658   7.0816   7.8598   8.7542  10.1843  11.4214  12.2656

          k = 1.7753 1.0250 0.0000 (  7780 PWs)   bands (ev):

   -37.0319 -37.0156   0.1091   1.1910   1.5845   3.4429   4.1355   4.3104
     5.1612   7.0336   7.2317   9.7425  10.3314  11.4186  11.8923

          k = 1.1835 0.6833 0.0509 (  7766 PWs)   bands (ev):

   -37.0536 -37.0221  -2.2756  -0.7433  -0.6067   1.7387   4.7491   7.3428
     7.7758   8.8237   9.1087   9.6268  11.3278  12.2854  13.1451

          k =-0.5918 0.3417 0.2546 (  7791 PWs)   bands (ev):

   -37.0777 -37.0333  -3.7315  -2.2252  -1.6884   0.2401   3.8260   6.5436
     8.8943  12.1050  12.5642  13.1871  13.9826  13.9956  14.8671

          k =-1.1835 0.0000 0.3055 (  7776 PWs)   bands (ev):

   -37.0605 -37.0250  -2.7562  -1.3327  -0.8350   1.1596   4.7084   6.8699
     9.4178  10.1580  10.3350  10.5464  11.2791  11.9620  12.1507

          k = 2.3671 2.0499 0.0000 (  7750 PWs)   bands (ev):

   -37.0374 -37.0163  -0.8246   0.3329   0.9301   2.9675   5.5240   6.1011
     6.9271   7.4275   7.8633   9.0507   9.6916   9.8264  10.5381

          k = 1.7753 1.7083 0.0509 (  7767 PWs)   bands (ev):

   -37.0251 -37.0146   1.7918   2.0599   2.2084   3.4074   3.7375   4.0012
     5.7106   6.0786   7.9738   8.6172   8.8469   9.5052  10.0664

          k = 1.1835 1.3666 0.1018 (  7762 PWs)   bands (ev):

   -37.0374 -37.0163  -0.8330   0.4870   0.7255   3.1165   5.4735   5.9934
     6.5386   7.5319   8.5647   9.1649   9.3170  10.2555  10.2636

          k =-1.1835 0.6833 0.3564 (  7761 PWs)   bands (ev):

   -37.0536 -37.0221  -2.2707  -0.9128  -0.3848   1.5952   5.2176   6.5593
     7.7537   8.8060   9.1960  10.3621  11.3455  12.2701  13.2458

          k = 2.3671 2.7333 0.0509 (  7755 PWs)   bands (ev):

   -37.0374 -37.0163  -0.8242   0.3225   0.9512   2.9267   5.8324   6.0229
     6.5170   7.4171   8.1523   9.1445   9.3536  10.0676  10.5073

          k = 1.7753 2.3916 0.1018 (  7770 PWs)   bands (ev):

   -37.0220 -37.0141   1.5426   2.2032   3.1259   4.5649   5.0593   5.1284
     5.2471   6.2047   6.4123   6.6597   8.2677   8.5211   9.1817

          k = 1.1835 2.0499 0.1527 (  7765 PWs)   bands (ev):

   -37.0220 -37.0141   1.5226   2.2993   2.9842   4.5463   5.0746   5.2259
     5.4552   5.9587   6.4160   6.7375   7.9944   8.5033   8.9586

          k = 2.3671-1.3666-0.2546 (  7774 PWs)   bands (ev):

   -37.0319 -37.0156   0.1227   1.0486   1.7923   3.4510   3.7702   4.4657
     5.2503   7.0859   7.6568   8.8366  10.2065  11.4021  12.3569

          k = 1.7753-1.7083-0.2037 (  7775 PWs)   bands (ev):

   -37.0251 -37.0146   1.7725   2.1082   2.1878   3.4017   3.6818   4.0630
     5.6644   6.1182   8.0282   8.4636   8.9335   9.5810  10.0613

          k = 1.7753-1.0250-0.1527 (  7787 PWs)   bands (ev):

   -37.0319 -37.0156   0.1097   1.1694   1.6198   3.4186   4.0683   4.3318
     5.2718   7.0347   7.1508   9.7305  10.3483  11.4079  11.9937

          k =-0.0000-0.0000 0.3055 (  7763 PWs)   bands (ev):

   -37.0881 -37.0387  -4.2204  -2.7058  -2.0699  -0.2572   3.4679   6.0994
     8.8507  12.1386  15.9866  15.9867  16.5578  16.5580  16.5693

          k =-0.5918-0.3417 0.3564 (  7795 PWs)   bands (ev):

   -37.0777 -37.0333  -3.7303  -2.2540  -1.6406   0.1967   3.9552   6.2343
     9.3266  11.8846  12.4696  13.1642  13.8801  13.9960  14.8085

          k = 2.9588 1.7083 0.0509 (  7778 PWs)   bands (ev):

   -37.0536 -37.0221  -2.2694  -0.9325  -0.3564   1.5770   5.2108   6.6897
     7.7418   8.5207   9.1416  10.5976  11.4747  12.2843  13.1510

          k = 2.3671 1.3666 0.1018 (  7776 PWs)   bands (ev):

   -37.0319 -37.0156   0.1255   1.0361   1.8023   3.5219   3.6993   4.5030
     5.1476   7.0958   8.1365   8.3561  10.1616  11.4111  12.3114

          k =-0.5918 0.3417 0.4073 (  7794 PWs)   bands (ev):

   -37.0777 -37.0333  -3.7298  -2.2642  -1.6225   0.1787   4.0195   6.0984
     9.5689  11.6403  12.5235  13.0713  13.9441  13.9793  14.8865

          k = 2.9588 2.3916 0.1018 (  7779 PWs)   bands (ev):

   -37.0605 -37.0250  -2.7542  -1.3752  -0.7673   1.0990   4.9355   6.4699
     9.8282  10.0450  10.4457  10.5497  11.3123  11.9683  12.0483

          k = 2.3671 2.0499 0.1527 (  7759 PWs)   bands (ev):

   -37.0374 -37.0163  -0.8222   0.3017   0.9826   2.9033   5.6918   6.1104
     6.7938   7.3444   7.9114   9.0912   9.5177   9.9707  10.5132

          k = 2.9588-1.7083-0.2037 (  7765 PWs)   bands (ev):

   -37.0536 -37.0221  -2.2687  -0.9466  -0.3319   1.5501   5.3963   6.3813
     7.7475   8.6714   9.1572  10.6987  11.4199  12.2740  13.1096

          k =-0.0000-0.0000 0.4582 (  7742 PWs)   bands (ev):

   -37.0881 -37.0387  -4.2192  -2.7311  -2.0227  -0.3047   3.6192   5.7561
     9.4675  11.4813  15.9864  15.9864  16.5272  16.5275  17.1757

          k = 3.5506 2.0499 0.1527 (  7797 PWs)   bands (ev):

   -37.0777 -37.0333  -3.7293  -2.2753  -1.6024   0.1592   4.0887   5.9707
     9.8032  11.4561  12.4855  13.0936  13.8901  13.9850  14.8587

     the Fermi energy is     9.0383 ev

!    total energy              =     -62.12040068 Ry
     estimated scf accuracy    <          1.3E-09 Ry
     smearing contrib. (-TS)   =      -0.00142698 Ry
     internal energy E=F+TS    =     -62.11897370 Ry

     The total energy is F=E-TS. E is the sum of the following terms:
     one-electron contribution =      -6.25557865 Ry
     hartree contribution      =      11.34483525 Ry
     xc contribution           =     -19.52918359 Ry
     ewald contribution        =     -47.67904672 Ry

     convergence has been achieved in  10 iterations

     Forces acting on atoms (cartesian axes, Ry/au):

     atom    1 type  1   force =     0.00000000    0.00000000    0.11353927
     atom    2 type  1   force =    -0.00000000    0.00000000   -0.11353927
     atom    3 type  1   force =    -0.00000000    0.00000000    0.00000000
     atom    4 type  1   force =     0.00000000   -0.00000000    0.00000000
     atom    5 type  2   force =     0.00000000    0.00000000    0.10229360
     atom    6 type  2   force =    -0.00000000   -0.00000000   -0.10229360

     Total force =     0.216126     Total SCF correction =     0.000083


     Computing stress (Cartesian axis) and pressure

          total   stress  (Ry/bohr**3)                   (kbar)     P=      267.67
   0.00121967  -0.00000000  -0.00000000          179.42       -0.00       -0.00
   0.00000000   0.00121967   0.00000000            0.00      179.42        0.00
  -0.00000000   0.00000000   0.00301941           -0.00        0.00      444.17

     Energy error            =      3.5E-01 Ry
     Gradient error          =      1.1E-01 Ry/Bohr
     Cell gradient error     =      3.2E+02 kbar

     number of scf cycles    =   2
     number of bfgs steps    =   1

     enthalpy           old  =     -60.0257503393 Ry
     enthalpy           new  =     -60.3777206081 Ry

     CASE: enthalpy          _new < enthalpy          _old

     new trust radius        =       0.3000000000 bohr
ibrav =      5
 celldm(1) =     20.57110927
 celldm(4) =      0.97055403
Input lattice vectors:
     0.11270770    -0.06507182     0.91970916
    -0.00000000     0.13014364     0.91970916
    -0.11270770    -0.06507182     0.91970916
New lattice vectors in INITIAL alat:
     0.11270770    -0.06507182     0.91970916
     0.00000000     0.13014364     0.91970916
    -0.11270770    -0.06507182     0.91970916
New lattice vectors in NEW alat (for information only):
     0.12133831    -0.07005470     0.99013603
     0.00000000     0.14010941     0.99013603
    -0.12133831    -0.07005470     0.99013603
Discrepancy in bohr =     0.000000    0.000000    0.000000
     new conv_thr            =       0.0000000100 Ry

     new unit-cell volume =    439.59677 a.u.^3 (    65.14152 Ang^3 )
     density =      3.21761 g/cm^3

CELL_PARAMETERS (alat= 22.14634508)
   0.112707699  -0.065071820   0.919709159
   0.000000000   0.130143641   0.919709159
  -0.112707699  -0.065071820   0.919709159

ATOMIC_POSITIONS (crystal)
Si               0.2655362613        0.2655362613        0.2655362613
Si               0.7344637387        0.7344637387        0.7344637387
Si              -0.0000000000        0.0000000000        0.0000000000
Si               0.5000000000        0.5000000000        0.5000000000
Li               0.2025334968        0.2025334968        0.2025334968
Li               0.7974665032        0.7974665032        0.7974665032



     Writing config-only to output data dir ./output/SiLi.save/ :
     XML data file
     NEW-OLD atomic charge density approx. for the potential

     total cpu time spent up to now is      153.9 secs

     per-process dynamical memory:    68.8 Mb

     Self-consistent Calculation

     iteration #  1     ecut=    80.00 Ry     beta= 0.70
     Davidson diagonalization with overlap
     c_bands:  1 eigenvalues not converged
     c_bands:  1 eigenvalues not converged
     c_bands:  2 eigenvalues not converged
     c_bands:  2 eigenvalues not converged
     c_bands:  2 eigenvalues not converged
     ethr =  1.00E-06,  avg # of iterations = 13.2

     total cpu time spent up to now is      170.2 secs

     total energy              =     -62.02035871 Ry
     estimated scf accuracy    <       0.00632768 Ry

     iteration #  2     ecut=    80.00 Ry     beta= 0.70
     Davidson diagonalization with overlap
     ethr =  2.88E-05,  avg # of iterations =  5.6

     total cpu time spent up to now is      176.7 secs

     total energy              =     -61.99490403 Ry
     estimated scf accuracy    <       0.55755259 Ry

     iteration #  3     ecut=    80.00 Ry     beta= 0.70
     Davidson diagonalization with overlap
     ethr =  2.88E-05,  avg # of iterations =  5.4

     total cpu time spent up to now is      182.9 secs

     total energy              =     -62.02358828 Ry
     estimated scf accuracy    <       0.00479993 Ry

     iteration #  4     ecut=    80.00 Ry     beta= 0.70
     Davidson diagonalization with overlap
     ethr =  2.18E-05,  avg # of iterations =  2.4

     total cpu time spent up to now is      187.6 secs

     total energy              =     -62.02448306 Ry
     estimated scf accuracy    <       0.00023733 Ry

     iteration #  5     ecut=    80.00 Ry     beta= 0.70
     Davidson diagonalization with overlap
     ethr =  1.08E-06,  avg # of iterations =  4.7

     total cpu time spent up to now is      192.7 secs

     total energy              =     -62.02451677 Ry
     estimated scf accuracy    <       0.00001307 Ry

     iteration #  6     ecut=    80.00 Ry     beta= 0.70
     Davidson diagonalization with overlap
     ethr =  5.94E-08,  avg # of iterations =  3.0

     total cpu time spent up to now is      197.6 secs

     total energy              =     -62.02452001 Ry
     estimated scf accuracy    <       0.00000071 Ry

     iteration #  7     ecut=    80.00 Ry     beta= 0.70
     Davidson diagonalization with overlap
     ethr =  3.24E-09,  avg # of iterations =  3.2

     total cpu time spent up to now is      202.4 secs

     total energy              =     -62.02452013 Ry
     estimated scf accuracy    <       0.00000018 Ry

     iteration #  8     ecut=    80.00 Ry     beta= 0.70
     Davidson diagonalization with overlap
     ethr =  8.03E-10,  avg # of iterations =  2.0

     total cpu time spent up to now is      206.9 secs

     End of self-consistent calculation

          k = 0.0000 0.0000 0.0000 (  7809 PWs)   bands (ev):

   -35.3338 -35.2760  -3.8639  -2.0437  -1.2395   0.7132   4.3220   8.5434
     8.8149  14.8066  16.7623  20.2379  20.2379  20.5992  20.5992

          k =-0.6338-0.3659 0.0518 (  7806 PWs)   bands (ev):

   -35.3153 -35.2636  -3.3000  -1.4879  -0.7889   1.2671   4.7915   8.7938
     9.2283  14.8183  15.3643  15.8192  16.9648  17.5104  17.7433

          k =-1.2675-0.7318 0.1036 (  7773 PWs)   bands (ev):

   -35.2726 -35.2367  -1.6183   0.1604   0.5641   2.9118   6.0873   9.1992
     9.6639  10.2677  11.3460  12.0435  13.8621  15.5599  16.1177

          k =-1.9013-1.0977 0.1553 (  7773 PWs)   bands (ev):

   -35.2355 -35.2179   1.1492   2.6352   2.9693   4.9154   5.6240   5.8569
     6.7496   9.0209   9.2423  11.0100  12.4635  13.9534  14.5790

          k =-0.6338 0.3659 0.1036 (  7802 PWs)   bands (ev):

   -35.3153 -35.2636  -3.2999  -1.4899  -0.7846   1.2610   4.8105   8.5551
     9.4928  14.7405  15.3142  15.7646  16.9608  17.4932  18.0629

          k =-1.2675-0.0000 0.1553 (  7766 PWs)   bands (ev):

   -35.2847 -35.2440  -2.1770  -0.3929   0.1272   2.3507   5.7476   8.9095
    10.3472  12.8964  12.9409  13.0379  13.7892  14.6158  14.8053

          k =-1.9013-0.3659 0.2071 (  7745 PWs)   bands (ev):

   -35.2447 -35.2212   0.0490   1.6989   2.0150   4.4887   6.9901   7.7648
     8.8694   9.4803  10.0029  11.3877  11.6133  12.4298  12.5316

          k = 1.9013 1.8295-0.1036 (  7776 PWs)   bands (ev):

   -35.2244 -35.2135   3.2611   3.3912   3.9831   4.8139   5.1825   5.4197
     7.5569   7.8090   9.8980  10.8418  11.0029  11.5200  12.1045

          k = 1.2675 1.4636-0.0518 (  7753 PWs)   bands (ev):

   -35.2447 -35.2212   0.0476   1.7903   1.9068   4.5456   6.9109   7.7711
     8.7154   9.5174  10.3997  11.3901  11.4932  12.2853  12.5620

          k = 0.6338 1.0977 0.0000 (  7769 PWs)   bands (ev):

   -35.2847 -35.2440  -2.1773  -0.3796   0.1060   2.3737   5.6786   9.3781
     9.8347  12.9187  12.9459  13.0587  13.7732  14.6239  14.8118

          k =-1.2675 0.7318 0.2071 (  7768 PWs)   bands (ev):

   -35.2726 -35.2367  -1.6181   0.1402   0.5960   2.8730   6.2412   8.5886
     9.7784  11.0093  11.2067  11.9424  13.8317  15.5281  15.6690

          k =-1.9013 0.3659 0.2589 (  7754 PWs)   bands (ev):

   -35.2447 -35.2212   0.0489   1.6805   2.0444   4.4352   7.2834   7.8100
     8.2524   9.4913  10.4523  11.3256  11.6482  12.2958  12.6371

          k = 1.9013 2.5613-0.0518 (  7757 PWs)   bands (ev):

   -35.2199 -35.2112   2.7921   3.9946   4.6318   6.4297   6.6384   6.7755
     7.2193   7.7538   8.3050   8.5540  10.2799  10.4368  11.1591

          k = 1.2675 2.1954 0.0000 (  7766 PWs)   bands (ev):

   -35.2199 -35.2112   2.7865   4.0987   4.4755   6.4701   6.6129   6.9101
     7.3712   7.6273   8.0961   8.6707   9.9107  10.5524  11.1676

          k =-1.9013 1.0977 0.3107 (  7777 PWs)   bands (ev):

   -35.2355 -35.2179   1.1487   2.5909   3.0497   4.9892   5.1417   6.2753
     6.8484   8.8318   9.1634  11.0828  12.4750  14.2698  14.5384

          k = 1.9013 3.2931 0.0000 (  7766 PWs)   bands (ev):

   -35.2244 -35.2135   3.2287   3.4009   4.1006   4.6443   5.2554   5.4046
     7.4738   7.9653   9.9654  10.4996  11.0250  11.8333  12.0350

          k =-0.0000-0.0000 0.1553 (  7800 PWs)   bands (ev):

   -35.3338 -35.2760  -3.8638  -2.0479  -1.2296   0.6989   4.3659   8.0360
     9.3994  14.3625  17.2581  20.2362  20.2365  20.3506  20.3509

          k =-0.6338-0.3659 0.2071 (  7805 PWs)   bands (ev):

   -35.3153 -35.2636  -3.2997  -1.4977  -0.7691   1.2408   4.8725   8.1812
     9.9553  14.2250  15.4096  16.0263  17.0054  17.5148  17.9087

          k =-1.2675-0.7318 0.2589 (  7780 PWs)   bands (ev):

   -35.2726 -35.2367  -1.6175   0.1245   0.6176   2.8606   6.2388   8.7358
     9.7516  10.4650  11.3783  12.2380  13.9025  15.5598  16.1182

          k = 2.5350 1.4636-0.0518 (  7779 PWs)   bands (ev):

   -35.2355 -35.2179   1.1518   2.5603   3.0757   4.8921   5.4520   6.0015
     6.7450   9.0358   9.6007  10.4267  12.4101  14.5427  14.5730

          k = 1.9013 1.0977 0.0000 (  7780 PWs)   bands (ev):

   -35.2355 -35.2179   1.1469   2.7147   2.8780   4.9449   5.4934   6.0080
     6.7800   8.8991   9.0884  11.4568  12.5097  13.5721  14.5678

          k = 1.2675 0.7318 0.0518 (  7766 PWs)   bands (ev):

   -35.2726 -35.2367  -1.6185   0.1689   0.5531   2.9173   6.0873   9.0552
     9.7280  10.4996  11.2851  11.9384  13.8300  15.5450  16.1565

          k =-0.6338 0.3659 0.2589 (  7791 PWs)   bands (ev):

   -35.3153 -35.2636  -3.2996  -1.5021  -0.7595   1.2272   4.9190   7.9891
    10.2232  14.0269  15.3794  15.8758  17.0027  17.4786  18.1555

          k =-1.2675 0.0000 0.3107 (  7776 PWs)   bands (ev):

   -35.2847 -35.2440  -2.1763  -0.4197   0.1724   2.2997   5.9199   8.3689
    11.0204  12.7635  12.9295  13.0331  13.8296  14.5750  14.7836

          k = 2.5350 2.1954 0.0000 (  7750 PWs)   bands (ev):

   -35.2447 -35.2212   0.0506   1.6324   2.1086   4.3968   7.2087   7.7604
     8.8011   9.3974   9.8180  11.3569  11.8267  12.2390  12.6961

          k = 1.9013 1.8295 0.0518 (  7767 PWs)   bands (ev):

   -35.2244 -35.2135   3.2486   3.3953   4.0211   4.7530   5.2128   5.4150
     7.5094   7.8868   9.8667  10.9016  10.9686  11.4299  12.1778

          k = 1.2675 1.4636 0.1036 (  7762 PWs)   bands (ev):

   -35.2447 -35.2212   0.0476   1.7682   1.9335   4.5202   7.0202   7.7835
     8.4955   9.5202  10.5957  11.3431  11.5457  12.1799  12.6012

          k =-1.2675 0.7318 0.3624 (  7761 PWs)   bands (ev):

   -35.2726 -35.2367  -1.6172   0.1041   0.6531   2.8133   6.4762   8.1627
     9.7903  11.1106  11.3308  12.1694  13.8666  15.1772  15.5212

          k = 2.5350 2.9272 0.0518 (  7755 PWs)   bands (ev):

   -35.2447 -35.2212   0.0506   1.6228   2.1276   4.3566   7.5344   7.8325
     8.1174   9.4419  10.1818  11.3191  11.8062  12.2423  12.7622

          k = 1.9013 2.5613 0.1036 (  7770 PWs)   bands (ev):

   -35.2199 -35.2112   2.7953   3.9530   4.7057   6.3840   6.6448   6.7684
     7.1118   7.8438   8.3838   8.5012  10.3709  10.5778  11.1714

          k = 1.2675 2.1954 0.1553 (  7765 PWs)   bands (ev):

   -35.2199 -35.2112   2.7882   4.0601   4.5295   6.4629   6.6208   6.8520
     7.3398   7.6491   8.1740   8.6314  10.0165  10.5138  11.1665

          k = 2.5350-1.4636-0.2589 (  7774 PWs)   bands (ev):

   -35.2355 -35.2179   1.1515   2.5368   3.1303   4.9294   5.1565   6.2647
     6.8172   8.9617   9.3772  10.5861  12.4184  14.5408  15.2445

          k = 1.9013-1.8295-0.2071 (  7775 PWs)   bands (ev):

   -35.2244 -35.2135   3.2345   3.3994   4.0740   4.6788   5.2433   5.4081
     7.4807   7.9470   9.9040  10.6547  11.0193  11.6177  12.1526

          k = 1.9013-1.0977-0.1553 (  7787 PWs)   bands (ev):

   -35.2355 -35.2179   1.1467   2.6738   2.9342   4.9763   5.2872   6.1892
     6.8263   8.7808   9.0967  11.4660  12.5157  13.6934  14.5497

          k =-0.0000-0.0000 0.3107 (  7763 PWs)   bands (ev):

   -35.3338 -35.2760  -3.8635  -2.0573  -1.2075   0.6669   4.4708   7.5463
    10.1135  13.5820  18.2163  20.2314  20.2316  20.3262  20.3264

          k =-0.6338-0.3659 0.3624 (  7795 PWs)   bands (ev):

   -35.3153 -35.2636  -3.2993  -1.5112  -0.7405   1.2021   5.0051   7.7189
    10.6603  13.5267  15.4051  16.0969  16.9859  17.5034  18.0845

          k = 3.1688 1.8295 0.0518 (  7778 PWs)   bands (ev):

   -35.2726 -35.2367  -1.6167   0.0935   0.6686   2.8034   6.4696   8.2436
     9.7820  10.7520  11.3893  12.4523  13.9203  15.2915  15.5448

          k = 2.5350 1.4636 0.1036 (  7776 PWs)   bands (ev):

   -35.2355 -35.2179   1.1529   2.5255   3.1395   4.8888   5.2708   6.1670
     6.7696   9.0222   9.7829  10.1264  12.3902  14.5555  15.1990

          k =-0.6338 0.3659 0.4142 (  7794 PWs)   bands (ev):

   -35.3153 -35.2636  -3.2993  -1.5146  -0.7328   1.1913   5.0474   7.6048
    10.8772  13.3294  15.3969  15.9841  17.0073  17.4757  18.1657

          k = 3.1688 2.5613 0.1036 (  7779 PWs)   bands (ev):

   -35.2847 -35.2440  -2.1758  -0.4389   0.2068   2.2593   6.0852   8.0206
    11.5709  12.5237  12.9252  13.0459  13.8735  14.4830  14.7602

          k = 2.5350 2.1954 0.1553 (  7759 PWs)   bands (ev):

   -35.2447 -35.2212   0.0513   1.6059   2.1520   4.3397   7.4694   7.7622
     8.4269   9.3959   9.9362  11.3319  12.0136  12.0532  12.7772

          k = 3.1688-1.8295-0.2071 (  7765 PWs)   bands (ev):

   -35.2726 -35.2367  -1.6166   0.0856   0.6835   2.7826   6.6058   7.9935
     9.7907  10.9700  11.3906  12.4635  13.9056  14.9807  15.5280

          k =-0.0000-0.0000 0.4660 (  7742 PWs)   bands (ev):

   -35.3338 -35.2760  -3.8633  -2.0645  -1.1898   0.6413   4.5631   7.2620
    10.6845  12.9505  19.2815  20.2273  20.2274  20.3110  20.3110

          k = 3.8025 2.1954 0.1553 (  7797 PWs)   bands (ev):

   -35.3153 -35.2636  -3.2991  -1.5185  -0.7244   1.1801   5.0902   7.5015
    11.1087  13.0751  15.4007  16.0669  16.9873  17.4861  18.1335

     the Fermi energy is    11.1240 ev

!    total energy              =     -62.02452016 Ry
     estimated scf accuracy    <          3.1E-09 Ry
     smearing contrib. (-TS)   =      -0.00149713 Ry
     internal energy E=F+TS    =     -62.02302303 Ry

     The total energy is F=E-TS. E is the sum of the following terms:
     one-electron contribution =      -1.27454289 Ry
     hartree contribution      =      10.42032404 Ry
     xc contribution           =     -20.01955234 Ry
     ewald contribution        =     -51.14925183 Ry

     convergence has been achieved in   8 iterations

     Forces acting on atoms (cartesian axes, Ry/au):

     atom    1 type  1   force =    -0.00000000   -0.00000000    0.09722751
     atom    2 type  1   force =    -0.00000000    0.00000000   -0.09722751
     atom    3 type  1   force =     0.00000000    0.00000000   -0.00000000
     atom    4 type  1   force =     0.00000000    0.00000000    0.00000000
     atom    5 type  2   force =    -0.00000000   -0.00000000    0.16067950
     atom    6 type  2   force =     0.00000000    0.00000000   -0.16067950

     Total force =     0.265598     Total SCF correction =     0.000129


     Computing stress (Cartesian axis) and pressure

          total   stress  (Ry/bohr**3)                   (kbar)     P=      490.07
   0.00246555  -0.00000000  -0.00000000          362.69       -0.00       -0.00
   0.00000000   0.00246555   0.00000000            0.00      362.69        0.00
   0.00000000   0.00000000   0.00506319            0.00        0.00      744.82

     Energy error            =      1.5E-01 Ry
     Gradient error          =      1.6E-01 Ry/Bohr
     Cell gradient error     =      2.4E+02 kbar

     number of scf cycles    =   3
     number of bfgs steps    =   2

     enthalpy           old  =     -60.3777206081 Ry
     enthalpy           new  =     -60.5303611082 Ry

     CASE: enthalpy          _new < enthalpy          _old

     new trust radius        =       0.3000000000 bohr
ibrav =      5
 celldm(1) =     20.88929262
 celldm(4) =      0.97538398
Input lattice vectors:
     0.10464431    -0.06041642     0.93546722
     0.00000000     0.12083284     0.93546722
    -0.10464431    -0.06041642     0.93546722
New lattice vectors in INITIAL alat:
     0.10464431    -0.06041642     0.93546722
     0.00000000     0.12083284     0.93546722
    -0.10464431    -0.06041642     0.93546722
New lattice vectors in NEW alat (for information only):
     0.11094148    -0.06405209     0.99176072
     0.00000000     0.12810419     0.99176072
    -0.11094148    -0.06405209     0.99176072
Discrepancy in bohr =     0.000000    0.000000    0.000000
     new conv_thr            =       0.0000000100 Ry

     new unit-cell volume =    385.43986 a.u.^3 (    57.11629 Ang^3 )
     density =      3.66970 g/cm^3

CELL_PARAMETERS (alat= 22.14634508)
   0.104644310  -0.060416421   0.935467217
   0.000000000   0.120832842   0.935467217
  -0.104644310  -0.060416421   0.935467217

ATOMIC_POSITIONS (crystal)
Si               0.2680941865        0.2680941865        0.2680941865
Si               0.7319058135        0.7319058135        0.7319058135
Si              -0.0000000000        0.0000000000        0.0000000000
Si               0.5000000000        0.5000000000        0.5000000000
Li               0.2058427449        0.2058427449        0.2058427449
Li               0.7941572551        0.7941572551        0.7941572551



     Writing config-only to output data dir ./output/SiLi.save/ :
     XML data file
     NEW-OLD atomic charge density approx. for the potential

     total cpu time spent up to now is      208.3 secs

     per-process dynamical memory:    69.0 Mb

     Self-consistent Calculation

     iteration #  1     ecut=    80.00 Ry     beta= 0.70
     Davidson diagonalization with overlap
     c_bands:  1 eigenvalues not converged
     c_bands:  1 eigenvalues not converged
     c_bands:  1 eigenvalues not converged
     c_bands:  1 eigenvalues not converged
     c_bands:  3 eigenvalues not converged
     c_bands:  1 eigenvalues not converged
     c_bands:  1 eigenvalues not converged
     c_bands:  1 eigenvalues not converged
     c_bands:  3 eigenvalues not converged
     c_bands:  2 eigenvalues not converged
     c_bands:  1 eigenvalues not converged
     c_bands:  2 eigenvalues not converged
     c_bands:  2 eigenvalues not converged
     c_bands:  1 eigenvalues not converged
     c_bands:  1 eigenvalues not converged
     ethr =  1.00E-06,  avg # of iterations = 17.2

     total cpu time spent up to now is      226.6 secs

     total energy              =     -61.81063559 Ry
     estimated scf accuracy    <       0.20349671 Ry

     iteration #  2     ecut=    80.00 Ry     beta= 0.70
     Davidson diagonalization with overlap
     ethr =  9.25E-04,  avg # of iterations =  7.5

     total cpu time spent up to now is      234.4 secs

     total energy              =     -60.72257512 Ry
     estimated scf accuracy    <      21.28932705 Ry

     iteration #  3     ecut=    80.00 Ry     beta= 0.70
     Davidson diagonalization with overlap
     ethr =  9.25E-04,  avg # of iterations =  6.2

     total cpu time spent up to now is      241.4 secs

     total energy              =     -61.96925120 Ry
     estimated scf accuracy    <       0.03142323 Ry

     iteration #  4     ecut=    80.00 Ry     beta= 0.70
     Davidson diagonalization with overlap
     ethr =  1.43E-04,  avg # of iterations =  3.5

     total cpu time spent up to now is      246.2 secs

     total energy              =     -61.97496124 Ry
     estimated scf accuracy    <       0.00144230 Ry

     iteration #  5     ecut=    80.00 Ry     beta= 0.70
     Davidson diagonalization with overlap
     c_bands:  1 eigenvalues not converged
     c_bands:  1 eigenvalues not converged
     c_bands:  1 eigenvalues not converged
     ethr =  6.56E-06,  avg # of iterations =  8.5

     total cpu time spent up to now is      252.1 secs

     total energy              =     -61.97518771 Ry
     estimated scf accuracy    <       0.00016655 Ry

     iteration #  6     ecut=    80.00 Ry     beta= 0.70
     Davidson diagonalization with overlap
     c_bands:  1 eigenvalues not converged
     c_bands:  1 eigenvalues not converged
     ethr =  7.57E-07,  avg # of iterations =  3.3

     total cpu time spent up to now is      256.8 secs

     total energy              =     -61.97521689 Ry
     estimated scf accuracy    <       0.00000264 Ry

     iteration #  7     ecut=    80.00 Ry     beta= 0.70
     Davidson diagonalization with overlap
     ethr =  1.20E-08,  avg # of iterations =  4.1

     total cpu time spent up to now is      262.3 secs

     total energy              =     -61.97521822 Ry
     estimated scf accuracy    <       0.00000058 Ry

     iteration #  8     ecut=    80.00 Ry     beta= 0.70
     Davidson diagonalization with overlap
     ethr =  2.62E-09,  avg # of iterations =  1.8

     total cpu time spent up to now is      266.5 secs

     total energy              =     -61.97521827 Ry
     estimated scf accuracy    <       0.00000003 Ry

     iteration #  9     ecut=    80.00 Ry     beta= 0.70
     Davidson diagonalization with overlap
     ethr =  1.51E-10,  avg # of iterations =  3.8

     total cpu time spent up to now is      271.6 secs

     End of self-consistent calculation

          k = 0.0000 0.0000 0.0000 (  7809 PWs)   bands (ev):

   -33.4249 -33.3843  -3.6621  -1.6566  -0.9026   1.2144   5.1704   9.3357
     9.4379  15.1332  17.6583  23.7883  24.5223  25.1604  25.5722

          k =-0.6826-0.3941 0.0509 (  7806 PWs)   bands (ev):

   -33.3928 -33.3570  -3.0089  -1.0116  -0.3483   1.8509   5.7336   9.5426
    10.0423  15.5270  17.4659  18.8167  19.7158  20.5778  21.7627

          k =-1.3652-0.7882 0.1018 (  7773 PWs)   bands (ev):

   -33.3198 -33.2960  -1.0643   0.9039   1.3006   3.7333   7.3311  10.2568
    11.2803  12.3346  13.5355  14.1429  16.2090  17.9365  18.3971

          k =-2.0478-1.1823 0.1527 (  7773 PWs)   bands (ev):

   -33.2591 -33.2486   2.1222   3.9105   4.0798   6.1739   7.0947   7.5074
     8.6312  10.6707  11.0021  12.2925  14.5850  15.0252  17.8438

          k =-0.6826 0.3941 0.1018 (  7802 PWs)   bands (ev):

   -33.3928 -33.3570  -3.0089  -1.0118  -0.3476   1.8494   5.7421   9.4003
    10.2036  15.4519  17.4262  18.8688  19.8133  20.7260  21.7142

          k =-1.3652-0.0000 0.1527 (  7766 PWs)   bands (ev):

   -33.3403 -33.3128  -1.7099   0.2673   0.7575   3.1063   6.8573   9.8908
    11.2921  15.1584  15.7429  15.9979  16.3511  16.9954  17.4927

          k =-2.0478-0.3941 0.2036 (  7745 PWs)   bands (ev):

   -33.2735 -33.2585   0.8571   2.7531   2.9750   5.5382   8.6131   9.6528
    10.7022  11.5322  11.6260  13.3302  14.0430  14.2797  15.2475

          k = 2.0478 1.9705-0.1018 (  7776 PWs)   bands (ev):

   -33.2419 -33.2360   4.5218   4.6970   5.7857   5.9679   6.5843   6.9742
     9.2701   9.4467  11.6932  13.0865  13.5171  13.6165  13.9740

          k = 1.3652 1.5764-0.0509 (  7753 PWs)   bands (ev):

   -33.2735 -33.2585   0.8568   2.7918   2.9296   5.5615   8.5375   9.6938
    10.6389  11.5603  11.8477  13.2472  13.8773  14.2635  15.2591

          k = 0.6826 1.1823 0.0000 (  7769 PWs)   bands (ev):

   -33.3403 -33.3128  -1.7099   0.2702   0.7524   3.1134   6.8198  10.1754
    10.9526  15.2815  15.8162  16.0851  16.2613  16.8881  17.5682

          k =-1.3652 0.7882 0.2036 (  7768 PWs)   bands (ev):

   -33.3198 -33.2960  -1.0643   0.8978   1.3108   3.7178   7.4226   9.8681
    11.5766  12.5181  13.5113  14.1865  16.1333  16.8631  19.5014

          k =-2.0478 0.3941 0.2545 (  7754 PWs)   bands (ev):

   -33.2735 -33.2585   0.8570   2.7380   2.9963   5.5089   8.8250   9.7845
     9.9858  11.5411  12.1053  13.4459  13.9271  14.3788  15.0377

          k = 2.0478 2.7586-0.0509 (  7757 PWs)   bands (ev):

   -33.2350 -33.2298   4.0020   5.5260   5.9611   7.8140   8.1996   8.7840
     9.1780   9.5797  10.2109  11.0146  12.0810  12.7429  13.3914

          k = 1.3652 2.3645 0.0000 (  7766 PWs)   bands (ev):

   -33.2350 -33.2298   4.0005   5.6081   5.8455   7.9148   8.1981   8.8378
     8.9605   9.8746  10.0379  10.9984  11.7547  12.8931  13.4540

          k =-2.0478 1.1823 0.3054 (  7777 PWs)   bands (ev):

   -33.2591 -33.2486   2.1219   3.8472   4.1725   6.1159   6.8514   7.9346
     8.6277  10.2700  11.1324  12.3354  14.5782  15.5177  17.1296

          k = 2.0478 3.5468 0.0000 (  7766 PWs)   bands (ev):

   -33.2419 -33.2360   4.5218   4.6816   5.8462   6.1177   6.2971   7.0281
     9.2337   9.6315  11.5793  12.7283  13.4620  13.8441  14.2729

          k =-0.0000-0.0000 0.1527 (  7800 PWs)   bands (ev):

   -33.4249 -33.3843  -3.6621  -1.6569  -0.9017   1.2118   5.1871   8.9167
     9.9175  14.8432  18.0346  23.2085  24.5230  24.5231  25.1501

          k =-0.6826-0.3941 0.2036 (  7805 PWs)   bands (ev):

   -33.3928 -33.3570  -3.0089  -1.0128  -0.3453   1.8450   5.7687   9.1281
    10.5567  15.0264  18.1105  18.7866  19.6307  20.4750  21.8009

          k =-1.3652-0.7882 0.2545 (  7780 PWs)   bands (ev):

   -33.3198 -33.2960  -1.0642   0.8939   1.3158   3.7158   7.4220   9.8686
    11.6685  12.4130  13.4756  14.1225  16.1884  17.3563  18.9394

          k = 2.7303 1.5764-0.0509 (  7779 PWs)   bands (ev):

   -33.2591 -33.2486   2.1228   3.8489   4.1582   6.1299   7.0881   7.5355
     8.6271  10.8730  11.0688  11.8234  14.5915  15.5002  17.6334

          k = 2.0478 1.1823 0.0000 (  7780 PWs)   bands (ev):

   -33.2591 -33.2486   2.1216   3.9688   4.0185   6.1915   6.9693   7.6748
     8.6333  10.4027  11.0393  12.6583  14.5008  14.8495  17.7000

          k = 1.3652 0.7882 0.0509 (  7766 PWs)   bands (ev):

   -33.3198 -33.2960  -1.0643   0.9058   1.2982   3.7342   7.3313  10.2606
    11.2436  12.3735  13.5483  14.1683  16.1949  17.4261  19.0523

          k =-0.6826 0.3941 0.2545 (  7791 PWs)   bands (ev):

   -33.3928 -33.3570  -3.0089  -1.0134  -0.3439   1.8418   5.7886   8.9963
    10.7400  14.8822  17.8836  18.9446  19.9258  20.9463  21.6871

          k =-1.3652 0.0000 0.3054 (  7776 PWs)   bands (ev):

   -33.3403 -33.3128  -1.7098   0.2609   0.7686   3.0903   6.9479   9.4980
    11.8391  14.7895  15.6602  15.9477  16.4426  17.1705  17.3618

          k = 2.7303 2.3645 0.0000 (  7750 PWs)   bands (ev):

   -33.2735 -33.2585   0.8575   2.7152   3.0242   5.4966   8.8208   9.5940
    10.4271  11.5039  11.6760  13.4306  14.1980  14.3489  15.1850

          k = 2.0478 1.9705 0.0509 (  7767 PWs)   bands (ev):

   -33.2419 -33.2360   4.5218   4.6914   5.8105   5.9965   6.4981   6.9989
     9.2460   9.5233  11.6421  13.0445  13.4128  13.5591  14.2538

          k = 1.3652 1.5764 0.1018 (  7762 PWs)   bands (ev):

   -33.2735 -33.2585   0.8568   2.7805   2.9436   5.5481   8.6150   9.7331
    10.3521  11.5548  12.0907  13.2978  13.8064  14.2925  15.1838

          k =-1.3652 0.7882 0.3563 (  7761 PWs)   bands (ev):

   -33.3198 -33.2960  -1.0642   0.8868   1.3280   3.6967   7.5537   9.5108
    11.8187  12.7969  13.3882  14.1812  15.9882  16.5999  19.4884

          k = 2.7303 3.1527 0.0509 (  7755 PWs)   bands (ev):

   -33.2735 -33.2585   0.8574   2.7066   3.0379   5.4738   9.0868   9.6217
     9.8778  11.5253  11.9834  13.5006  14.1429  14.5127  14.9412

          k = 2.0478 2.7586 0.1018 (  7770 PWs)   bands (ev):

   -33.2350 -33.2298   4.0028   5.4949   6.0121   7.7601   8.2001   8.7876
     9.3021   9.4386  10.2352  11.0461  12.3673  12.6101  13.2955

          k = 1.3652 2.3645 0.1527 (  7765 PWs)   bands (ev):

   -33.2350 -33.2298   4.0010   5.5766   5.8869   7.8831   8.1987   8.8031
     9.0430   9.7500  10.1312  10.9964  11.8475  12.8471  13.4377

          k = 2.7303-1.5764-0.2545 (  7774 PWs)   bands (ev):

   -33.2591 -33.2486   2.1226   3.8157   4.2159   6.0814   6.8917   7.8753
     8.6238  10.4696  11.2148  11.9184  14.5813  16.2247  16.6552

          k = 2.0478-1.9705-0.2036 (  7775 PWs)   bands (ev):

   -33.2419 -33.2360   4.5218   4.6846   5.8366   6.0607   6.3758   7.0205
     9.2351   9.6004  11.5947  12.8272  13.4530  13.7057  14.3242

          k = 2.0478-1.1823-0.1527 (  7787 PWs)   bands (ev):

   -33.2591 -33.2486   2.1214   3.9055   4.0945   6.1666   6.8737   7.8537
     8.6320  10.2485  11.0797  12.6553  14.5303  15.0040  17.4706

          k =-0.0000-0.0000 0.3054 (  7763 PWs)   bands (ev):

   -33.4249 -33.3843  -3.6621  -1.6576  -0.8994   1.2062   5.2259   8.5641
    10.4296  14.2965  18.8663  22.1687  24.5245  24.5247  25.1125

          k =-0.6826-0.3941 0.3563 (  7795 PWs)   bands (ev):

   -33.3928 -33.3570  -3.0089  -1.0146  -0.3410   1.8363   5.8238   8.8028
    11.0635  14.4609  18.5904  19.0210  19.5887  20.4347  21.7526

          k = 3.4129 1.9705 0.0509 (  7778 PWs)   bands (ev):

   -33.3198 -33.2960  -1.0641   0.8839   1.3319   3.6951   7.5530   9.5131
    11.8919  12.7156  13.3469  14.1209  16.0930  16.8272  19.5424

          k = 2.7303 1.5764 0.1018 (  7776 PWs)   bands (ev):

   -33.2591 -33.2486   2.1230   3.8160   4.2098   6.0891   6.9792   7.7143
     8.6238  10.7295  11.3280  11.5671  14.5819  16.0693  16.9997

          k =-0.6826 0.3941 0.4072 (  7794 PWs)   bands (ev):

   -33.3928 -33.3570  -3.0089  -1.0151  -0.3399   1.8337   5.8408   8.7279
    11.1945  14.3430  18.3048  19.0662  20.0094  21.2013  21.4268

          k = 3.4129 2.7586 0.1018 (  7779 PWs)   bands (ev):

   -33.3403 -33.3128  -1.7098   0.2559   0.7774   3.0776   7.0289   9.2543
    12.2637  14.4196  15.6355  15.9277  16.5037  17.1803  17.3697

          k = 2.7303 2.3645 0.1527 (  7759 PWs)   bands (ev):

   -33.2735 -33.2585   0.8576   2.6982   3.0486   5.4684   9.0902   9.5017
    10.0836  11.5127  11.8224  13.4913  14.2378  14.4663  15.0685

          k = 3.4129-1.9705-0.2036 (  7765 PWs)   bands (ev):

   -33.3198 -33.2960  -1.0641   0.8809   1.3372   3.6866   7.6208   9.3662
    11.9130  13.0815  13.1471  14.1476  15.9533  16.6033  19.5026

          k =-0.0000-0.0000 0.4581 (  7742 PWs)   bands (ev):

   -33.4249 -33.3843  -3.6622  -1.6582  -0.8977   1.2017   5.2583   8.3711
    10.7855  13.8884  19.8318  21.1061  24.5258  24.5258  25.0954

          k = 4.0955 2.3645 0.1527 (  7797 PWs)   bands (ev):

   -33.3928 -33.3570  -3.0089  -1.0156  -0.3386   1.8313   5.8573   8.6578
    11.3405  14.1601  18.5295  19.2028  19.8982  20.6085  21.7067

     the Fermi energy is    13.1844 ev

!    total energy              =     -61.97521828 Ry
     estimated scf accuracy    <          1.0E-09 Ry
     smearing contrib. (-TS)   =      -0.00054537 Ry
     internal energy E=F+TS    =     -61.97467291 Ry

     The total energy is F=E-TS. E is the sum of the following terms:
     one-electron contribution =       4.58527612 Ry
     hartree contribution      =       8.96906507 Ry
     xc contribution           =     -20.50492139 Ry
     ewald contribution        =     -55.02409271 Ry

     convergence has been achieved in   9 iterations

     Forces acting on atoms (cartesian axes, Ry/au):

     atom    1 type  1   force =    -0.00000000   -0.00000000    0.06144243
     atom    2 type  1   force =     0.00000000    0.00000000   -0.06144243
     atom    3 type  1   force =    -0.00000000   -0.00000000   -0.00000000
     atom    4 type  1   force =    -0.00000000    0.00000000    0.00000000
     atom    5 type  2   force =     0.00000000   -0.00000000    0.21283225
     atom    6 type  2   force =     0.00000000   -0.00000000   -0.21283225

     Total force =     0.313282     Total SCF correction =     0.000023


     Computing stress (Cartesian axis) and pressure

          total   stress  (Ry/bohr**3)                   (kbar)     P=      751.65
   0.00418630   0.00000000  -0.00000000          615.83        0.00       -0.00
   0.00000000   0.00418630   0.00000000            0.00      615.83        0.00
   0.00000000   0.00000000   0.00695629            0.00        0.00     1023.31

     Energy error            =      1.3E-01 Ry
     Gradient error          =      2.1E-01 Ry/Bohr
     Cell gradient error     =      5.2E+02 kbar

     number of scf cycles    =   4
     number of bfgs steps    =   3

     enthalpy           old  =     -60.5303611082 Ry
     enthalpy           new  =     -60.6651348229 Ry

     CASE: enthalpy          _new < enthalpy          _old

     new trust radius        =       0.3000000000 bohr
ibrav =      5
 celldm(1) =     21.68748960
 celldm(4) =      0.97998195
Input lattice vectors:
     0.09797225    -0.05656431     0.97272438
    -0.00000000     0.11312861     0.97272438
    -0.09797225    -0.05656431     0.97272438
New lattice vectors in INITIAL alat:
     0.09797225    -0.05656431     0.97272438
     0.00000000     0.11312861     0.97272438
    -0.09797225    -0.05656431     0.97272438
New lattice vectors in NEW alat (for information only):
     0.10004511    -0.05776107     0.99330490
     0.00000000     0.11552215     0.99330490
    -0.10004511    -0.05776107     0.99330490
Discrepancy in bohr =     0.000000    0.000000    0.000000
     new conv_thr            =       0.0000000100 Ry

     new unit-cell volume =    351.31186 a.u.^3 (    52.05905 Ang^3 )
     density =      4.02620 g/cm^3

CELL_PARAMETERS (alat= 22.14634508)
   0.097972254  -0.056564307   0.972724380
   0.000000000   0.113128615   0.972724380
  -0.097972254  -0.056564307   0.972724380

ATOMIC_POSITIONS (crystal)
Si               0.2708914042        0.2708914042        0.2708914042
Si               0.7291085958        0.7291085958        0.7291085958
Si              -0.0000000000        0.0000000000        0.0000000000
Si               0.5000000000        0.5000000000        0.5000000000
Li               0.2106696567        0.2106696567        0.2106696567
Li               0.7893303433        0.7893303433        0.7893303433



     Writing config-only to output data dir ./output/SiLi.save/ :
     XML data file
     NEW-OLD atomic charge density approx. for the potential

     total cpu time spent up to now is      272.9 secs

     per-process dynamical memory:    69.3 Mb

     Self-consistent Calculation

     iteration #  1     ecut=    80.00 Ry     beta= 0.70
     Davidson diagonalization with overlap
     c_bands:  2 eigenvalues not converged
     c_bands:  1 eigenvalues not converged
     c_bands:  1 eigenvalues not converged
     c_bands:  1 eigenvalues not converged
     c_bands:  1 eigenvalues not converged
     c_bands:  1 eigenvalues not converged
     c_bands:  1 eigenvalues not converged
     c_bands:  1 eigenvalues not converged
     c_bands:  1 eigenvalues not converged
     c_bands:  2 eigenvalues not converged
     c_bands:  2 eigenvalues not converged
     c_bands:  1 eigenvalues not converged
     c_bands:  1 eigenvalues not converged
     c_bands:  1 eigenvalues not converged
     c_bands:  1 eigenvalues not converged
     c_bands:  1 eigenvalues not converged
     c_bands:  2 eigenvalues not converged
     c_bands:  1 eigenvalues not converged
     c_bands:  1 eigenvalues not converged
     c_bands:  3 eigenvalues not converged
     c_bands:  1 eigenvalues not converged
     c_bands:  1 eigenvalues not converged
     c_bands:  1 eigenvalues not converged
     c_bands:  1 eigenvalues not converged
     ethr =  1.00E-06,  avg # of iterations = 18.0

     total cpu time spent up to now is      290.9 secs

     total energy              =     -61.28666082 Ry
     estimated scf accuracy    <       0.78482716 Ry

     iteration #  2     ecut=    80.00 Ry     beta= 0.70
     Davidson diagonalization with overlap
     ethr =  3.57E-03,  avg # of iterations =  7.0

     total cpu time spent up to now is      299.6 secs

     total energy              =     -56.81357846 Ry
     estimated scf accuracy    <     103.49375763 Ry

     iteration #  3     ecut=    80.00 Ry     beta= 0.70
     Davidson diagonalization with overlap
     ethr =  3.57E-03,  avg # of iterations =  6.8

     total cpu time spent up to now is      307.3 secs

     total energy              =     -61.94073461 Ry
     estimated scf accuracy    <       0.01884607 Ry

     iteration #  4     ecut=    80.00 Ry     beta= 0.70
     Davidson diagonalization with overlap
     ethr =  8.57E-05,  avg # of iterations =  5.8

     total cpu time spent up to now is      313.1 secs

     total energy              =     -61.94930555 Ry
     estimated scf accuracy    <       0.00372146 Ry

     iteration #  5     ecut=    80.00 Ry     beta= 0.70
     Davidson diagonalization with overlap
     c_bands:  1 eigenvalues not converged
     ethr =  1.69E-05,  avg # of iterations =  3.4

     total cpu time spent up to now is      317.8 secs

     total energy              =     -61.94975666 Ry
     estimated scf accuracy    <       0.00062810 Ry

     iteration #  6     ecut=    80.00 Ry     beta= 0.70
     Davidson diagonalization with overlap
     c_bands:  2 eigenvalues not converged
     c_bands:  2 eigenvalues not converged
     ethr =  2.85E-06,  avg # of iterations =  5.4

     total cpu time spent up to now is      323.0 secs

     total energy              =     -61.94987079 Ry
     estimated scf accuracy    <       0.00004633 Ry

     iteration #  7     ecut=    80.00 Ry     beta= 0.70
     Davidson diagonalization with overlap
     ethr =  2.11E-07,  avg # of iterations =  2.0

     total cpu time spent up to now is      327.2 secs

     total energy              =     -61.94987546 Ry
     estimated scf accuracy    <       0.00000099 Ry

     iteration #  8     ecut=    80.00 Ry     beta= 0.70
     Davidson diagonalization with overlap
     ethr =  4.52E-09,  avg # of iterations =  4.1

     total cpu time spent up to now is      332.6 secs

     total energy              =     -61.94987603 Ry
     estimated scf accuracy    <       0.00000081 Ry

     iteration #  9     ecut=    80.00 Ry     beta= 0.70
     Davidson diagonalization with overlap
     ethr =  3.70E-09,  avg # of iterations =  1.5

     total cpu time spent up to now is      336.8 secs

     total energy              =     -61.94987612 Ry
     estimated scf accuracy    <       0.00000003 Ry

     iteration # 10     ecut=    80.00 Ry     beta= 0.70
     Davidson diagonalization with overlap
     ethr =  1.41E-10,  avg # of iterations =  2.2

     total cpu time spent up to now is      341.3 secs

     total energy              =     -61.94987612 Ry
     estimated scf accuracy    <       0.00000002 Ry

     iteration # 11     ecut=    80.00 Ry     beta= 0.70
     Davidson diagonalization with overlap
     ethr =  9.89E-11,  avg # of iterations =  1.2

     total cpu time spent up to now is      345.3 secs

     End of self-consistent calculation

          k = 0.0000 0.0000 0.0000 (  7809 PWs)   bands (ev):

   -31.8567 -31.8414  -3.6534  -1.6673  -0.6733   1.2032   5.4447   8.9838
     9.7503  14.8968  18.0333  22.9916  25.4690  28.4671  28.4672

          k =-0.7291-0.4209 0.0490 (  7806 PWs)   bands (ev):

   -31.8065 -31.7933  -2.9117  -0.9350   0.0024   1.9207   6.1095   9.4127
    10.3742  15.4391  18.1048  21.6413  22.2148  23.3597  24.1844

          k =-1.4581-0.8419 0.0979 (  7773 PWs)   bands (ev):

   -31.6927 -31.6845  -0.7108   1.2347   1.9979   4.0307   8.0527  10.6786
    12.0517  14.2675  15.5163  16.0027  17.5872  18.8157  19.1752

          k =-2.1872-1.2628 0.1469 (  7773 PWs)   bands (ev):

   -31.6001 -31.5971   2.8643   4.7100   5.1917   6.8946   8.4088   9.4525
    10.0911  11.7182  12.3166  13.2445  15.3751  16.3115  18.6646

          k =-0.7291 0.4209 0.0979 (  7802 PWs)   bands (ev):

   -31.8065 -31.7933  -2.9117  -0.9350   0.0024   1.9206   6.1115   9.3838
    10.4121  15.3968  18.1439  21.7374  22.2595  23.3329  23.8302

          k =-1.4581-0.0000 0.1469 (  7766 PWs)   bands (ev):

   -31.7245 -31.7148  -1.4403   0.5164   1.3389   3.3355   7.4296  10.2146
    11.6606  16.0748  17.7885  18.2249  18.6444  19.1678  19.6464

          k =-2.1872-0.4209 0.1958 (  7745 PWs)   bands (ev):

   -31.6213 -31.6164   1.4524   3.3562   3.9537   6.0413   9.8468  11.2872
    11.9421  13.1695  13.1877  14.4061  15.2277  16.9439  17.6002

[...]
        k(   41) = (   2.7789349   2.4066283   0.1383285), wk =   0.0699708
        k(   42) = (   3.4736687  -2.0055235  -0.1844380), wk =   0.0349854
        k(   43) = (  -0.0000000   0.0000000   0.4149856), wk =   0.0116618
        k(   44) = (   4.1684024   2.4066283   0.1383285), wk =   0.0349854

     Dense  grid:    39671 G-vectors     FFT dimensions: ( 135, 135, 135)

     Estimated max dynamical RAM per process >      27.87 MB

     Estimated total dynamical RAM >     445.95 MB

     Initial potential from superposition of free atoms

     starting charge      21.9884, renormalised to      22.0000
     Starting wfcs are   20 randomized atomic wfcs

     total cpu time spent up to now is      695.6 secs

     per-process dynamical memory:    72.9 Mb

     Self-consistent Calculation

     iteration #  1     ecut=    80.00 Ry     beta= 0.70
     Davidson diagonalization with overlap
     c_bands:  2 eigenvalues not converged
     c_bands:  2 eigenvalues not converged
     c_bands:  1 eigenvalues not converged
     c_bands:  1 eigenvalues not converged
     c_bands:  1 eigenvalues not converged
     c_bands:  1 eigenvalues not converged
     c_bands:  1 eigenvalues not converged
     c_bands:  1 eigenvalues not converged
     c_bands:  1 eigenvalues not converged
     c_bands:  1 eigenvalues not converged
     c_bands:  1 eigenvalues not converged
     c_bands:  1 eigenvalues not converged
     c_bands:  1 eigenvalues not converged
     c_bands:  3 eigenvalues not converged
     c_bands:  2 eigenvalues not converged
     c_bands:  1 eigenvalues not converged
     c_bands:  1 eigenvalues not converged
     c_bands:  1 eigenvalues not converged
     c_bands:  1 eigenvalues not converged
     c_bands:  1 eigenvalues not converged
     c_bands:  1 eigenvalues not converged
     c_bands:  1 eigenvalues not converged
     c_bands:  3 eigenvalues not converged
     c_bands:  1 eigenvalues not converged
     c_bands:  1 eigenvalues not converged
     c_bands:  1 eigenvalues not converged
     c_bands:  1 eigenvalues not converged
     c_bands:  1 eigenvalues not converged
     c_bands:  3 eigenvalues not converged
     c_bands:  3 eigenvalues not converged
     c_bands:  1 eigenvalues not converged
     c_bands:  1 eigenvalues not converged
     c_bands:  1 eigenvalues not converged
     c_bands:  1 eigenvalues not converged
     c_bands:  1 eigenvalues not converged
     c_bands:  1 eigenvalues not converged
     c_bands:  3 eigenvalues not converged
     c_bands:  1 eigenvalues not converged
     ethr =  1.00E-06,  avg # of iterations = 19.9

     total cpu time spent up to now is      723.9 secs

     total energy              =     -61.05465135 Ry
     estimated scf accuracy    <       1.52964761 Ry

     iteration #  2     ecut=    80.00 Ry     beta= 0.70
     Davidson diagonalization with overlap
     ethr =  6.95E-03,  avg # of iterations =  7.6

     total cpu time spent up to now is      735.5 secs

     total energy              =     -57.67249383 Ry
     estimated scf accuracy    <     112.20233961 Ry

     iteration #  3     ecut=    80.00 Ry     beta= 0.70
     Davidson diagonalization with overlap
     ethr =  6.95E-03,  avg # of iterations =  6.7

     total cpu time spent up to now is      746.7 secs

     total energy              =     -62.23421750 Ry
     estimated scf accuracy    <       0.81977652 Ry

     iteration #  4     ecut=    80.00 Ry     beta= 0.70
     Davidson diagonalization with overlap
     ethr =  3.73E-03,  avg # of iterations =  2.2

     total cpu time spent up to now is      752.9 secs

     total energy              =     -62.30718406 Ry
     estimated scf accuracy    <       0.02754263 Ry

     iteration #  5     ecut=    80.00 Ry     beta= 0.70
     Davidson diagonalization with overlap
     ethr =  1.25E-04,  avg # of iterations =  7.8

     total cpu time spent up to now is      761.4 secs

     total energy              =     -62.31359434 Ry
     estimated scf accuracy    <       0.03960338 Ry

     iteration #  6     ecut=    80.00 Ry     beta= 0.70
     Davidson diagonalization with overlap
     ethr =  1.25E-04,  avg # of iterations =  1.0

     total cpu time spent up to now is      767.3 secs

     total energy              =     -62.31357065 Ry
     estimated scf accuracy    <       0.00841758 Ry

     iteration #  7     ecut=    80.00 Ry     beta= 0.70
     Davidson diagonalization with overlap
     ethr =  3.83E-05,  avg # of iterations =  2.6

     total cpu time spent up to now is      773.5 secs

     total energy              =     -62.31406188 Ry
     estimated scf accuracy    <       0.00014653 Ry

     iteration #  8     ecut=    80.00 Ry     beta= 0.70
     Davidson diagonalization with overlap
     c_bands:  1 eigenvalues not converged
     c_bands:  1 eigenvalues not converged
     ethr =  6.66E-07,  avg # of iterations =  7.5

     total cpu time spent up to now is      781.3 secs

     total energy              =     -62.31405868 Ry
     estimated scf accuracy    <       0.00012354 Ry

     iteration #  9     ecut=    80.00 Ry     beta= 0.70
     Davidson diagonalization with overlap
     ethr =  5.62E-07,  avg # of iterations =  1.9

     total cpu time spent up to now is      787.6 secs

     total energy              =     -62.31407199 Ry
     estimated scf accuracy    <       0.00011174 Ry

     iteration # 10     ecut=    80.00 Ry     beta= 0.70
     Davidson diagonalization with overlap
     ethr =  5.08E-07,  avg # of iterations =  1.1

     total cpu time spent up to now is      793.5 secs

     total energy              =     -62.31407871 Ry
     estimated scf accuracy    <       0.00000016 Ry

     iteration # 11     ecut=    80.00 Ry     beta= 0.70
     Davidson diagonalization with overlap
     ethr =  7.46E-10,  avg # of iterations =  5.0

     total cpu time spent up to now is      801.7 secs

     total energy              =     -62.31407894 Ry
     estimated scf accuracy    <       0.00000120 Ry

     iteration # 12     ecut=    80.00 Ry     beta= 0.70
     Davidson diagonalization with overlap
     ethr =  7.46E-10,  avg # of iterations =  1.9

     total cpu time spent up to now is      807.9 secs

     total energy              =     -62.31407900 Ry
     estimated scf accuracy    <       0.00000001 Ry

     iteration # 13     ecut=    80.00 Ry     beta= 0.70
     Davidson diagonalization with overlap
     ethr =  5.55E-11,  avg # of iterations =  2.1

     total cpu time spent up to now is      814.1 secs

     total energy              =     -62.31407900 Ry
     estimated scf accuracy    <          3.0E-09 Ry

     iteration # 14     ecut=    80.00 Ry     beta= 0.70
     Davidson diagonalization with overlap
     ethr =  1.38E-11,  avg # of iterations =  2.0

     total cpu time spent up to now is      820.3 secs

     total energy              =     -62.31407900 Ry
     estimated scf accuracy    <          1.3E-10 Ry

     iteration # 15     ecut=    80.00 Ry     beta= 0.70
     Davidson diagonalization with overlap
     ethr =  6.13E-13,  avg # of iterations =  4.0

     total cpu time spent up to now is      827.8 secs

     End of self-consistent calculation

          k = 0.0000 0.0000 0.0000 (  5015 PWs)   bands (ev):

   -33.8044 -33.8029  -5.2946  -3.1067  -1.6414   0.1514   4.0689   6.4701
     8.5288  13.3438  15.0169  19.8871  22.2591  24.3815  24.3819

          k =-0.6947-0.4011 0.0461 (  4988 PWs)   bands (ev):

   -33.7750 -33.7737  -4.6190  -2.4386  -0.9897   0.8084   4.6778   6.9950
     9.0842  13.7736  15.2096  17.9428  19.3396  20.5200  21.1304

          k =-1.3895-0.8022 0.0922 (  4994 PWs)   bands (ev):

   -33.7087 -33.7079  -2.6091  -0.4530   0.9441   2.7461   6.4752   8.5399
    10.3183  11.4416  13.0509  13.6866  15.5005  16.2533  16.4532

          k =-2.0842-1.2033 0.1383 (  4942 PWs)   bands (ev):

   -33.6551 -33.6548   0.6797   2.7699   4.0775   4.9213   6.1565   7.5992
     8.2926   9.7331  10.2589  11.2496  13.3002  13.9254  16.3587

          k =-0.6947 0.4011 0.0922 (  4991 PWs)   bands (ev):

   -33.7750 -33.7737  -4.6190  -2.4386  -0.9897   0.8082   4.6798   6.9857
     9.1003  13.7121  15.2716  18.0004  19.3691  20.3888  20.9228

          k =-1.3895-0.0000 0.1383 (  4986 PWs)   bands (ev):

   -33.7271 -33.7262  -3.2762  -1.1116   0.3035   2.1068   5.8919   8.0118
    10.1799  13.8978  14.7597  15.1707  15.8876  16.3552  17.2794

          k =-2.0842-0.4011 0.1844 (  4948 PWs)   bands (ev):

   -33.6671 -33.6667  -0.6252   1.5014   2.8469   4.6016   8.0477   8.6719
     9.9941  10.5241  11.4544  12.2001  12.9625  14.0255  15.0799

          k = 2.0842 2.0055-0.0922 (  4938 PWs)   bands (ev):

   -33.6403 -33.6402   3.1218   3.3677   4.8838   5.7956   6.1879   7.0290
     8.5134   8.6842  11.3258  12.0376  12.5827  12.7697  14.0476

          k = 1.3895 1.6044-0.0461 (  4961 PWs)   bands (ev):

   -33.6671 -33.6667  -0.6252   1.5017   2.8452   4.6059   8.0176   8.6733
    10.0871  10.5342  11.3521  12.2527  12.8743  14.0284  15.0994

          k = 0.6947 1.2033 0.0000 (  4997 PWs)   bands (ev):

   -33.7271 -33.7262  -3.2762  -1.1116   0.3032   2.1077   5.8811   8.0540
    10.1097  14.0176  14.7888  15.3766  15.5286  16.3235  17.2847

          k =-1.3895 0.8022 0.1844 (  4987 PWs)   bands (ev):

   -33.7087 -33.7079  -2.6091  -0.4531   0.9446   2.7443   6.4930   8.4872
    10.3327  11.5055  13.0469  13.8997  14.8966  15.8006  17.6578

          k =-2.0842 0.4011 0.2305 (  4955 PWs)   bands (ev):

   -33.6671 -33.6667  -0.6252   1.5013   2.8477   4.5986   8.0497   8.7291
     9.8726  10.5267  11.4103  12.3486  13.0200  14.1270  14.9494

          k = 2.0842 2.8077-0.0461 (  4948 PWs)   bands (ev):

   -33.6338 -33.6337   2.6159   4.6530   5.9300   6.7068   6.9185   8.1037
     8.7893   9.7378  10.2423  10.7822  11.5474  12.1423  12.7074

          k = 1.3895 2.4066 0.0000 (  4944 PWs)   bands (ev):

   -33.6338 -33.6337   2.6159   4.6547   5.9195   6.7184   6.9172   8.1134
     8.7930   9.7363  10.1887  10.8904  11.3034  12.2060  12.8474

          k =-2.0842 1.2033 0.2767 (  4943 PWs)   bands (ev):

   -33.6551 -33.6548   0.6796   2.7696   4.0811   4.9224   6.1285   7.5970
     8.4412   9.5049  10.4392  10.9967  13.7555  14.2145  15.1856

          k = 2.0842 3.6099 0.0000 (  4940 PWs)   bands (ev):

   -33.6403 -33.6402   3.1217   3.3672   4.8880   5.8073   6.1683   7.0108
     8.4993   8.7716  11.1821  11.9141  12.6402  13.0169  14.2168

          k =-0.0000-0.0000 0.1383 (  5009 PWs)   bands (ev):

   -33.8044 -33.8029  -5.2946  -3.1067  -1.6414   0.1512   4.0729   6.4483
     8.5698  13.1632  15.2960  19.4951  22.6896  24.3815  24.3815

          k =-0.6947-0.4011 0.1844 (  4995 PWs)   bands (ev):

   -33.7750 -33.7737  -4.6190  -2.4386  -0.9896   0.8078   4.6870   6.9516
     9.1644  13.4470  15.7061  17.8698  19.1513  20.1418  21.1294

          k =-1.3895-0.8022 0.2305 (  4984 PWs)   bands (ev):

   -33.7087 -33.7079  -2.6091  -0.4532   0.9449   2.7435   6.5037   8.4389
    10.4268  11.5169  13.0721  13.4565  15.4457  16.0512  16.9497

          k = 2.7789 1.6044-0.0461 (  4938 PWs)   bands (ev):

   -33.6551 -33.6548   0.6797   2.7692   4.0823   4.9165   6.1519   7.5988
     8.2964   9.8285  10.2687  11.0024  13.6378  13.9075  16.0538

          k = 2.0842 1.2033 0.0000 (  4947 PWs)   bands (ev):

   -33.6551 -33.6548   0.6796   2.7704   4.0749   4.9255   6.1501   7.5987
     8.3392   9.5927  10.3056  11.3616  13.2207  13.9496  16.1343

          k = 1.3895 0.8022 0.0461 (  4980 PWs)   bands (ev):

   -33.7087 -33.7079  -2.6091  -0.4530   0.9439   2.7465   6.4707   8.5634
    10.2736  11.4410  13.0445  13.8716  15.2652  15.8726  17.0035

          k =-0.6947 0.4011 0.2305 (  4984 PWs)   bands (ev):

   -33.7750 -33.7737  -4.6190  -2.4386  -0.9896   0.8075   4.6915   6.9316
     9.2008  13.3522  15.7990  18.0572  19.1210  19.8655  21.0814

          k =-1.3895 0.0000 0.2767 (  4988 PWs)   bands (ev):

   -33.7271 -33.7262  -3.2762  -1.1117   0.3041   2.1046   5.9167   7.9219
    10.3387  13.6333  14.7159  15.0756  16.1687  16.5864  17.2672

          k = 2.7789 2.4066 0.0000 (  4949 PWs)   bands (ev):

   -33.6671 -33.6667  -0.6252   1.5010   2.8493   4.5950   8.0876   8.6973
     9.8328  10.5182  11.5382  12.2100  13.1056  14.0631  14.9908

          k = 2.0842 2.0055 0.0461 (  4948 PWs)   bands (ev):

   -33.6403 -33.6402   3.1217   3.3675   4.8853   5.7997   6.1810   7.0224
     8.5066   8.7168  11.2742  11.9806  12.6273  12.8431  14.0866

          k = 1.3895 1.6044 0.0922 (  4961 PWs)   bands (ev):

   -33.6671 -33.6667  -0.6252   1.5017   2.8456   4.6046   8.0190   8.6956
    10.0316  10.5348  11.3398  12.3239  12.8883  14.0614  15.0746

          k =-1.3895 0.8022 0.3228 (  4988 PWs)   bands (ev):

   -33.7087 -33.7079  -2.6091  -0.4532   0.9455   2.7412   6.5272   8.3771
    10.4342  11.6094  13.0620  13.6480  14.8336  15.7985  18.3236

          k = 2.7789 3.2088 0.0461 (  4959 PWs)   bands (ev):

   -33.6671 -33.6667  -0.6252   1.5009   2.8500   4.5926   8.0878   8.7526
     9.7341  10.5203  11.4917  12.3207  13.1744  14.2048  14.7571

          k = 2.0842 2.8077 0.0922 (  4942 PWs)   bands (ev):

   -33.6338 -33.6337   2.6159   4.6521   5.9359   6.7003   6.9191   8.0985
     8.7871   9.7385  10.2767  10.7353  11.7041  12.0947  12.5847

          k = 1.3895 2.4066 0.1383 (  4946 PWs)   bands (ev):

   -33.6338 -33.6337   2.6159   4.6542   5.9227   6.7149   6.9176   8.1103
     8.7919   9.7368  10.2043  10.8507  11.3802  12.1873  12.8117

          k = 2.7789-1.6044-0.2305 (  4949 PWs)   bands (ev):

   -33.6551 -33.6548   0.6797   2.7689   4.0852   4.9173   6.1296   7.5970
     8.4099   9.6219  10.5113  10.7549  13.8565  14.5838  14.8127

          k = 2.0842-2.0055-0.1844 (  4943 PWs)   bands (ev):

   -33.6403 -33.6402   3.1217   3.3673   4.8871   5.8049   6.1723   7.0143
     8.5011   8.7551  11.2103  11.9315  12.6397  12.9613  14.1573

          k = 2.0842-1.2033-0.1383 (  4942 PWs)   bands (ev):

   -33.6551 -33.6548   0.6796   2.7703   4.0765   4.9260   6.1376   7.5977
     8.4074   9.4977  10.3664  11.2442  13.4537  14.0014  15.6964

          k =-0.0000-0.0000 0.2767 (  5021 PWs)   bands (ev):

   -33.8044 -33.8029  -5.2946  -3.1067  -1.6414   0.1508   4.0819   6.4012
     8.6625  12.8520  15.9032  18.7280  23.5826  24.3814  24.3814

          k =-0.6947-0.4011 0.3228 (  4995 PWs)   bands (ev):

   -33.7750 -33.7737  -4.6190  -2.4386  -0.9895   0.8070   4.7006   6.8914
     9.2817  13.1165  16.3660  17.7631  18.7752  19.8803  21.1294

          k = 3.4737 2.0055 0.0461 (  4978 PWs)   bands (ev):

   -33.7087 -33.7079  -2.6091  -0.4533   0.9458   2.7406   6.5362   8.3415
    10.5037  11.6339  13.1288  13.2591  15.2329  15.8783  17.6980

          k = 2.7789 1.6044 0.0922 (  4947 PWs)   bands (ev):

   -33.6551 -33.6548   0.6797   2.7687   4.0858   4.9147   6.1399   7.5978
     8.3457   9.7709  10.4064  10.7792  13.8874  14.1045  15.4234

          k =-0.6947 0.4011 0.3689 (  4987 PWs)   bands (ev):

   -33.7750 -33.7737  -4.6190  -2.4386  -0.9894   0.8068   4.7044   6.8762
     9.3114  13.0552  16.4110  18.0929  18.5077  19.7454  21.1288

          k = 3.4737 2.8077 0.0922 (  4987 PWs)   bands (ev):

   -33.7271 -33.7262  -3.2762  -1.1118   0.3046   2.1030   5.9375   7.8538
    10.4699  13.4280  14.6953  15.0492  16.2175  16.9742  17.2375

          k = 2.7789 2.4066 0.1383 (  4950 PWs)   bands (ev):

   -33.6671 -33.6667  -0.6252   1.5008   2.8507   4.5909   8.1054   8.7376
     9.7183  10.5174  11.5439  12.2650  13.2115  14.1576  14.8031

          k = 3.4737-2.0055-0.1844 (  4981 PWs)   bands (ev):

   -33.7087 -33.7079  -2.6091  -0.4533   0.9461   2.7396   6.5472   8.3150
    10.5038  11.6809  13.1073  13.3366  14.9945  15.8198  18.3909

          k =-0.0000 0.0000 0.4150 (  5015 PWs)   bands (ev):

   -33.8044 -33.8029  -5.2946  -3.1067  -1.6414   0.1505   4.0892   6.3650
     8.7377  12.6488  16.5359  18.0059  24.3814  24.3828  24.5878

          k = 4.1684 2.4066 0.1383 (  4998 PWs)   bands (ev):

   -33.7750 -33.7737  -4.6190  -2.4386  -0.9894   0.8065   4.7085   6.8589
     9.3481  12.9651  16.7660  17.7763  18.4286  19.7713  21.2696

     the Fermi energy is    12.2374 ev

!    total energy              =     -62.31407900 Ry
     estimated scf accuracy    <          6.3E-12 Ry
     smearing contrib. (-TS)   =      -0.00130177 Ry
     internal energy E=F+TS    =     -62.31277723 Ry

     The total energy is F=E-TS. E is the sum of the following terms:
     one-electron contribution =       8.36914421 Ry
     hartree contribution      =       6.33667151 Ry
     xc contribution           =     -20.35695215 Ry
     ewald contribution        =     -56.66164080 Ry

     convergence has been achieved in  15 iterations

     Forces acting on atoms (cartesian axes, Ry/au):

     atom    1 type  1   force =    -0.00000000    0.00000000   -0.00010119
     atom    2 type  1   force =     0.00000000    0.00000000    0.00010119
     atom    3 type  1   force =     0.00000000    0.00000000    0.00000000
     atom    4 type  1   force =     0.00000000   -0.00000000    0.00000000
     atom    5 type  2   force =     0.00000000    0.00000000    0.00002839
     atom    6 type  2   force =     0.00000000    0.00000000   -0.00002839

     Total force =     0.000149     Total SCF correction =     0.000005


     Computing stress (Cartesian axis) and pressure

          total   stress  (Ry/bohr**3)                   (kbar)     P=      499.82
   0.00339789   0.00000000   0.00000000          499.85        0.00        0.00
   0.00000000   0.00339789   0.00000000            0.00      499.85        0.00
   0.00000000   0.00000000   0.00339727            0.00        0.00      499.76


     Writing all to output data dir ./output/SiLi.save/ :
     XML data file, charge density, pseudopotentials, collected wavefunctions

     init_run     :      5.71s CPU      6.18s WALL (       2 calls)
     electrons    :    746.90s CPU    805.41s WALL (      13 calls)
     update_pot   :      0.92s CPU      1.01s WALL (      11 calls)
     forces       :      2.36s CPU      2.53s WALL (      13 calls)
     stress       :     12.22s CPU     12.47s WALL (      13 calls)

     Called by init_run:
     wfcinit      :      4.84s CPU      5.06s WALL (       2 calls)
     potinit      :      0.19s CPU      0.20s WALL (       2 calls)
     hinit0       :      0.63s CPU      0.82s WALL (       2 calls)

     Called by electrons:
     c_bands      :    638.73s CPU    687.92s WALL (     128 calls)
     sum_band     :     97.75s CPU    105.50s WALL (     128 calls)
     v_of_rho     :     10.79s CPU     11.49s WALL (     139 calls)
     mix_rho      :      0.34s CPU      0.60s WALL (     128 calls)

     Called by c_bands:
     init_us_2    :      3.07s CPU      3.61s WALL (   12496 calls)
     cegterg      :    631.13s CPU    676.86s WALL (    5632 calls)

     Called by *egterg:
     cdiaghg      :      9.60s CPU     10.41s WALL (   30666 calls)
     h_psi        :    616.19s CPU    660.38s WALL (   31326 calls)
     g_psi        :      0.38s CPU      0.41s WALL (   25606 calls)

     Called by h_psi:
     h_psi:calbec :      7.75s CPU      8.73s WALL (   31326 calls)
     vloc_psi     :    603.45s CPU    645.87s WALL (   31326 calls)
     add_vuspsi   :      4.55s CPU      5.06s WALL (   31326 calls)

     General routines
     calbec       :      8.91s CPU      9.91s WALL (   34186 calls)
     fft          :      3.50s CPU      4.24s WALL (    1715 calls)
     ffts         :      0.19s CPU      0.25s WALL (     128 calls)
     fftw         :    611.29s CPU    656.78s WALL (  615872 calls)

     Parallel routines

     PWSCF        :    768.45s CPU    829.07s WALL


   This run was terminated on:  20: 7:17   3Mar2025            

=------------------------------------------------------------------------------=
   JOB DONE.
=------------------------------------------------------------------------------=
