
     Program PWSCF v.7.2 starts on 10Jan2025 at 22: 9: 6 

     This program is part of the open-source Quantum ESPRESSO suite
     for quantum simulation of materials; please cite
         "P. Giannozzi et al., J. Phys.:Condens. Matter 21 395502 (2009);
         "P. Giannozzi et al., J. Phys.:Condens. Matter 29 465901 (2017);
         "P. Giannozzi et al., J. Chem. Phys. 152 154105 (2020);
          URL http://www.quantum-espresso.org", 
     in publications or presentations arising from this work. More details at
     http://www.quantum-espresso.org/quote

     Parallel version (MPI & OpenMP), running on       8 processor cores
     Number of MPI processes:                 8
     Threads/MPI process:                     1

     MPI processes distributed on     1 nodes
     482045 MiB available memory on the printing compute node when the environment starts

     Waiting for input...
     Reading input from standard input

     Current dimensions of program PWSCF are:
     Max number of different atomic species (ntypx) = 10
     Max number of k-points (npk) =  40000
     Max angular momentum in pseudopotentials (lmaxx) =  4

     R & G space division:  proc/nbgrp/npool/nimage =       8
     Subspace diagonalization in iterative solution of the eigenvalue problem:
     a serial algorithm will be used


     Parallelization info
     --------------------
     sticks:   dense  smooth     PW     G-vecs:    dense   smooth      PW
     Min         221     221     66                 4873     4873     802
     Max         222     222     67                 4876     4876     804
     Sum        1773    1773    529                38997    38997    6421

     Using Slab Decomposition



     bravais-lattice index     =            5
     lattice parameter (alat)  =      10.7875  a.u.
     unit-cell volume          =     403.0293 (a.u.)^3
     number of atoms/cell      =            6
     number of atomic types    =            2
     number of electrons       =        22.00
     number of Kohn-Sham states=           15
     kinetic-energy cutoff     =      80.0000  Ry
     charge density cutoff     =     320.0000  Ry
     scf convergence threshold =      1.0E-08
     mixing beta               =       0.7000
     number of iterations used =            8  plain     mixing
     energy convergence thresh.=      1.0E-04
     force convergence thresh. =      1.0E-03
     press convergence thresh. =      1.0E+00
     Exchange-correlation= PBE
                           (   1   4   3   4   0   0   0)
     nstep                     =           50


     celldm(1)=  10.787513  celldm(2)=   0.000000  celldm(3)=   0.000000
     celldm(4)=   0.800967  celldm(5)=   0.000000  celldm(6)=   0.000000

     crystal axes: (cart. coord. in units of alat)
               a(1) = (   0.315462  -0.182132   0.931296 )  
               a(2) = (   0.000000   0.364264   0.931296 )  
               a(3) = (  -0.315462  -0.182132   0.931296 )  

     reciprocal axes: (cart. coord. in units 2 pi/alat)
               b(1) = (  1.584976 -0.915086  0.357924 )  
               b(2) = (  0.000000  1.830173  0.357924 )  
               b(3) = ( -1.584976 -0.915086  0.357924 )  


     PseudoPot. # 1 for Si read from file:
     ../pseudo/Si_ONCV_PBE_sr.upf
     MD5 check sum: e543d271109d17c80368dfa7c482276d
     Pseudo is Norm-conserving + core correction, Zval =  4.0
     Generated using ONCVPSP code by D. R. Hamann
     Using radial grid of 1510 points,  6 beta functions with: 
                l(1) =   0
                l(2) =   0
                l(3) =   1
                l(4) =   1
                l(5) =   2
                l(6) =   2

     PseudoPot. # 2 for Li read from file:
     ../pseudo/Li_ONCV_PBE_sr.upf
     MD5 check sum: 50ff420e78310ffa21704f3361e624a4
     Pseudo is Norm-conserving, Zval =  3.0
     Generated using ONCVPSP code by D. R. Hamann
     Using radial grid of 1944 points,  4 beta functions with: 
                l(1) =   0
                l(2) =   0
                l(3) =   1
                l(4) =   1

     atomic species   valence    mass     pseudopotential
        Si             4.00    28.08550     Si( 1.00)
        Li             3.00     6.94100     Li( 1.00)

     12 Sym. Ops., with inversion, found



   Cartesian axes

     site n.     atom                  positions (alat units)
         1           Si  tau(   1) = (  -0.0000000  -0.0000000   0.3827490  )
         2           Si  tau(   2) = (  -0.0000000  -0.0000000   2.4111378  )
         3           Si  tau(   3) = (  -0.0000000  -0.0000000   0.8551524  )
         4           Si  tau(   4) = (  -0.0000000  -0.0000000   1.9387344  )
         5           Li  tau(   5) = (   0.0000000  -0.0000000   1.2631316  )
         6           Li  tau(   6) = (  -0.0000000  -0.0000000   1.5307552  )

     number of k points=    19  Marzari-Vanderbilt smearing, width (Ry)=  0.0200
                       cart. coord. in units 2pi/alat
        k(    1) = (   0.0000000   0.0000000   0.0000000), wk =   0.0160000
        k(    2) = (  -0.3169953  -0.1830173   0.0715849), wk =   0.0960000
        k(    3) = (  -0.6339905  -0.3660346   0.1431697), wk =   0.0960000
        k(    4) = (  -0.3169953   0.1830173   0.1431697), wk =   0.0960000
        k(    5) = (  -0.6339905  -0.0000000   0.2147546), wk =   0.1920000
        k(    6) = (   0.6339905   0.7320692  -0.0715849), wk =   0.1920000
        k(    7) = (   0.3169953   0.5490519   0.0000000), wk =   0.0960000
        k(    8) = (  -0.6339905   0.3660346   0.2863394), wk =   0.0960000
        k(    9) = (   0.6339905   1.0981038   0.0000000), wk =   0.0960000
        k(   10) = (   0.0000000  -0.0000000   0.2147546), wk =   0.0320000
        k(   11) = (  -0.3169953  -0.1830173   0.2863394), wk =   0.0960000
        k(   12) = (   0.9509858   0.5490519   0.0000000), wk =   0.0960000
        k(   13) = (   0.6339905   0.3660346   0.0715849), wk =   0.0960000
        k(   14) = (  -0.3169953   0.1830173   0.3579243), wk =   0.0960000
        k(   15) = (   0.9509858   0.9150865   0.0715849), wk =   0.1920000
        k(   16) = (   0.6339905   0.7320692   0.1431697), wk =   0.1920000
        k(   17) = (   0.9509858  -0.5490519  -0.2147546), wk =   0.0960000
        k(   18) = (   0.0000000  -0.0000000   0.4295092), wk =   0.0320000
        k(   19) = (   1.2679810   0.7320692   0.1431697), wk =   0.0960000

     Dense  grid:    38997 G-vectors     FFT dimensions: (  64,  64,  64)

     Estimated max dynamical RAM per process >      20.13 MB

     Estimated total dynamical RAM >     161.06 MB

     Initial potential from superposition of free atoms

     starting charge      21.9884, renormalised to      22.0000
     Starting wfcs are   20 randomized atomic wfcs

     total cpu time spent up to now is        1.9 secs

     Self-consistent Calculation

     iteration #  1     ecut=    80.00 Ry     beta= 0.70
     Davidson diagonalization with overlap
     ethr =  1.00E-02,  avg # of iterations =  5.3

     total cpu time spent up to now is        2.9 secs

     total energy              =     -62.05614301 Ry
     estimated scf accuracy    <       0.27613313 Ry

     iteration #  2     ecut=    80.00 Ry     beta= 0.70
     Davidson diagonalization with overlap
     ethr =  1.26E-03,  avg # of iterations =  4.4

     total cpu time spent up to now is        3.7 secs

     total energy              =     -62.06654545 Ry
     estimated scf accuracy    <       0.60082037 Ry

     iteration #  3     ecut=    80.00 Ry     beta= 0.70
     Davidson diagonalization with overlap
     ethr =  1.26E-03,  avg # of iterations =  2.7

     total cpu time spent up to now is        4.4 secs

     total energy              =     -62.19231517 Ry
     estimated scf accuracy    <       0.00360260 Ry

     iteration #  4     ecut=    80.00 Ry     beta= 0.70
     Davidson diagonalization with overlap
     ethr =  1.64E-05,  avg # of iterations =  5.7

     total cpu time spent up to now is        5.2 secs

     total energy              =     -62.19312210 Ry
     estimated scf accuracy    <       0.00071648 Ry

     iteration #  5     ecut=    80.00 Ry     beta= 0.70
     Davidson diagonalization with overlap
     ethr =  3.26E-06,  avg # of iterations =  4.6

     total cpu time spent up to now is        5.9 secs

     total energy              =     -62.19325692 Ry
     estimated scf accuracy    <       0.00000525 Ry

     iteration #  6     ecut=    80.00 Ry     beta= 0.70
     Davidson diagonalization with overlap
     ethr =  2.39E-08,  avg # of iterations =  4.5

     total cpu time spent up to now is        6.6 secs

     total energy              =     -62.19326069 Ry
     estimated scf accuracy    <       0.00000097 Ry

     iteration #  7     ecut=    80.00 Ry     beta= 0.70
     Davidson diagonalization with overlap
     ethr =  4.40E-09,  avg # of iterations =  2.4

     total cpu time spent up to now is        7.2 secs

     total energy              =     -62.19326094 Ry
     estimated scf accuracy    <       0.00000004 Ry

     iteration #  8     ecut=    80.00 Ry     beta= 0.70
     Davidson diagonalization with overlap
     ethr =  1.83E-10,  avg # of iterations =  2.8

     total cpu time spent up to now is        7.8 secs

     End of self-consistent calculation

          k = 0.0000 0.0000 0.0000 (  4865 PWs)   bands (ev):

   -35.3054 -34.2573  -2.3938   1.3588   3.3397   9.5860   9.5860  10.6938
    10.6938  11.4001  11.4001  12.8399  13.5806  13.5806  14.2784

          k =-0.3170-0.1830 0.0716 (  4866 PWs)   bands (ev):

   -35.3033 -34.2564  -1.9149   1.6628   3.9818   6.2083   7.9727   8.6406
     9.8536  11.2449  11.9401  13.3847  13.8637  15.7888  15.8414

          k =-0.6340-0.3660 0.1432 (  4874 PWs)   bands (ev):

   -35.3000 -34.2549  -0.5801   1.9236   3.7516   5.3837   5.9718   6.9446
     8.7077   8.9760  11.5524  12.1266  16.3688  16.6916  17.9444

          k =-0.3170 0.1830 0.1432 (  4885 PWs)   bands (ev):

   -35.3033 -34.2564  -1.8575   1.3368   4.3983   6.5209   7.6612   7.8755
    10.7586  11.0280  12.9980  13.6410  13.7813  14.5121  15.9882

          k =-0.6340-0.0000 0.2148 (  4875 PWs)   bands (ev):

   -35.3006 -34.2552  -0.8749   1.8167   3.9522   5.5101   6.1131   6.9975
     8.1345  10.9135  12.8277  13.4859  14.6380  15.2937  15.5750

          k = 0.6340 0.7321-0.0716 (  4868 PWs)   bands (ev):

   -35.2989 -34.2545   0.3824   1.5858   3.5554   4.6339   5.9241   6.4496
     7.0497   9.5697  13.3693  13.7060  14.3320  15.9297  16.8952

          k = 0.3170 0.5491 0.0000 (  4874 PWs)   bands (ev):

   -35.3006 -34.2552  -1.0399   2.6881   3.7919   4.7861   6.4702   6.6162
     7.3207  12.2726  12.9302  13.8756  14.0378  15.5717  15.5830

          k =-0.6340 0.3660 0.2863 (  4858 PWs)   bands (ev):

   -35.2999 -34.2550  -0.4365   1.9838   3.4718   3.9690   6.4491   7.4276
    10.4992  10.5295  11.7713  12.8875  13.0199  13.8588  14.8465

          k = 0.6340 1.0981 0.0000 (  4868 PWs)   bands (ev):

   -35.2989 -34.2545   0.4690   2.2021   3.0589   3.1017   5.7051   8.0220
     8.9835   9.5243  11.3701  12.9646  14.5350  14.9283  16.9632

          k = 0.0000-0.0000 0.2148 (  4904 PWs)   bands (ev):

   -35.3053 -34.2574  -2.2123   0.4430   4.6011   9.5582   9.5582  10.4447
    10.4447  11.6282  11.6282  12.0750  12.9575  14.2377  14.2377

          k =-0.3170-0.1830 0.2863 (  4879 PWs)   bands (ev):

   -35.3032 -34.2565  -1.6183   0.4965   5.7310   6.0053   7.9860   9.3614
     9.8076  11.1844  11.3517  11.8465  13.2107  14.7695  16.2417

          k = 0.9510 0.5491 0.0000 (  4871 PWs)   bands (ev):

   -35.2999 -34.2550  -0.2604   1.2686   3.1924   6.0837   6.7803   7.4079
     8.5373   9.0874  11.0132  11.9021  14.7155  15.3118  17.3338

          k = 0.6340 0.3660 0.0716 (  4865 PWs)   bands (ev):

   -35.3000 -34.2549  -0.6483   2.5528   3.6429   4.2534   5.9113   6.6680
     9.4246  10.2694  11.8022  12.7242  14.5624  15.5984  15.9605

          k =-0.3170 0.1830 0.3579 (  4868 PWs)   bands (ev):

   -35.3032 -34.2566  -1.4538   0.1322   6.3385   6.4070   7.5288   8.0464
    10.6013  11.4028  11.4287  13.5115  13.8655  14.0168  15.0285

          k = 0.9510 0.9151 0.0716 (  4869 PWs)   bands (ev):

   -35.3005 -34.2553  -0.4403   0.7824   3.9056   5.5524   7.0061   7.9107
     9.1116   9.9685  11.3465  12.7972  13.2296  14.8704  16.3870

          k = 0.6340 0.7321 0.1432 (  4860 PWs)   bands (ev):

   -35.2989 -34.2545   0.4278   1.9500   2.9763   3.8683   6.0416   7.1511
     7.6834  10.7478  11.8211  12.7999  13.8240  16.4038  16.8671

          k = 0.9510-0.5491-0.2148 (  4880 PWs)   bands (ev):

   -35.2999 -34.2550  -0.1084   1.1447   3.1289   5.0324   6.4973   8.6947
    10.1521  10.1574  10.2916  11.5668  13.3728  14.3902  15.6691

          k = 0.0000-0.0000 0.4295 (  4867 PWs)   bands (ev):

   -35.3051 -34.2576  -1.6845  -0.7208   6.7966   9.4040   9.5999   9.5999
    10.0096  10.0096  12.1889  12.1889  12.9307  14.8711  15.1606

          k = 1.2680 0.7321 0.1432 (  4880 PWs)   bands (ev):

   -35.3031 -34.2566  -1.0695  -0.4786   6.0703   7.6732   7.9374   8.6901
     9.1093  10.6547  11.5090  12.5412  13.2728  14.4942  15.3810

     the Fermi energy is    12.5915 ev

!    total energy              =     -62.19326095 Ry
     estimated scf accuracy    <          1.1E-09 Ry
     smearing contrib. (-TS)   =      -0.00034630 Ry
     internal energy E=F+TS    =     -62.19291465 Ry

     The total energy is F=E-TS. E is the sum of the following terms:
     one-electron contribution =       5.62288935 Ry
     hartree contribution      =       7.78200872 Ry
     xc contribution           =     -20.33999408 Ry
     ewald contribution        =     -55.25781865 Ry

     convergence has been achieved in   8 iterations

     Forces acting on atoms (cartesian axes, Ry/au):

     atom    1 type  1   force =    -0.00000000   -0.00000000   -0.03834144
     atom    2 type  1   force =     0.00000000   -0.00000000    0.03834144
     atom    3 type  1   force =    -0.00000000   -0.00000000   -0.04466677
     atom    4 type  1   force =    -0.00000000    0.00000000    0.04466677
     atom    5 type  2   force =     0.00000000    0.00000000   -0.16787494
     atom    6 type  2   force =    -0.00000000    0.00000000    0.16787494
     The non-local contrib.  to forces
     atom    1 type  1   force =    -0.00000000   -0.00000000   -0.02341914
     atom    2 type  1   force =     0.00000000    0.00000000    0.02341914
     atom    3 type  1   force =     0.00000000    0.00000000   -0.09892923
     atom    4 type  1   force =     0.00000000    0.00000000    0.09892923
     atom    5 type  2   force =    -0.00000000   -0.00000000    0.08454089
     atom    6 type  2   force =    -0.00000000   -0.00000000   -0.08454089
     The ionic contribution  to forces
     atom    1 type  1   force =    -0.00000000    0.00000000   -1.22430229
     atom    2 type  1   force =     0.00000000   -0.00000000    1.22430229
     atom    3 type  1   force =     0.00000000    0.00000000    0.32159646
     atom    4 type  1   force =     0.00000000   -0.00000000   -0.32159646
     atom    5 type  2   force =    -0.00000000   -0.00000000   -2.03642924
     atom    6 type  2   force =     0.00000000    0.00000000    2.03642924
     The local contribution  to forces
     atom    1 type  1   force =     0.00000000   -0.00000000    1.20441538
     atom    2 type  1   force =    -0.00000000    0.00000000   -1.20441538
     atom    3 type  1   force =    -0.00000000   -0.00000000   -0.27534659
     atom    4 type  1   force =     0.00000000    0.00000000    0.27534659
     atom    5 type  2   force =     0.00000000   -0.00000000    1.78403389
     atom    6 type  2   force =     0.00000000    0.00000000   -1.78403389
     The core correction contribution to forces
     atom    1 type  1   force =    -0.00000000    0.00000000    0.00498263
     atom    2 type  1   force =    -0.00000000   -0.00000000   -0.00498263
     atom    3 type  1   force =     0.00000000   -0.00000000    0.00799425
     atom    4 type  1   force =    -0.00000000    0.00000000   -0.00799425
     atom    5 type  2   force =     0.00000000    0.00000000    0.00000000
     atom    6 type  2   force =     0.00000000    0.00000000    0.00000000
     The Hubbard contrib.    to forces
     atom    1 type  1   force =     0.00000000    0.00000000    0.00000000
     atom    2 type  1   force =     0.00000000    0.00000000    0.00000000
     atom    3 type  1   force =     0.00000000    0.00000000    0.00000000
     atom    4 type  1   force =     0.00000000    0.00000000    0.00000000
     atom    5 type  2   force =     0.00000000    0.00000000    0.00000000
     atom    6 type  2   force =     0.00000000    0.00000000    0.00000000
     The SCF correction term to forces
     atom    1 type  1   force =     0.00000000   -0.00000000   -0.00001802
     atom    2 type  1   force =    -0.00000000    0.00000000    0.00001802
     atom    3 type  1   force =    -0.00000000    0.00000000    0.00001834
     atom    4 type  1   force =     0.00000000   -0.00000000   -0.00001834
     atom    5 type  2   force =    -0.00000000    0.00000000   -0.00002048
     atom    6 type  2   force =     0.00000000   -0.00000000    0.00002048

     Total force =     0.251584     Total SCF correction =     0.000046


     Computing stress (Cartesian axis) and pressure

          total   stress  (Ry/bohr**3)                   (kbar)     P=      587.75
   0.00415500  -0.00000000  -0.00000000          611.22       -0.00       -0.00
   0.00000000   0.00415500   0.00000000            0.00      611.22        0.00
   0.00000000   0.00000000   0.00367636            0.00        0.00      540.81


     BFGS Geometry Optimization
     Energy error            =      0.0E+00 Ry
     Gradient error          =      1.7E-01 Ry/Bohr
     Cell gradient error     =      1.1E+02 kbar

     number of scf cycles    =   1
     number of bfgs steps    =   0

     enthalpy           new  =     -60.8233921936 Ry

     new trust radius        =       0.1678749407 bohr
ibrav =      5
 celldm(1) =     10.87954871
 celldm(4) =      0.79685318
Input lattice vectors:
     0.32142494    -0.18557478     0.93775487
    -0.00000000     0.37114955     0.93775487
    -0.32142494    -0.18557478     0.93775487
New lattice vectors in INITIAL alat:
     0.32142494    -0.18557478     0.93775487
     0.00000000     0.37114955     0.93775487
    -0.32142494    -0.18557478     0.93775487
New lattice vectors in NEW alat (for information only):
     0.31870584    -0.18400490     0.92982191
     0.00000000     0.36800980     0.92982191
    -0.31870584    -0.18400490     0.92982191
Discrepancy in bohr =     0.000000    0.000000    0.000000
     new conv_thr            =       0.0000000100 Ry

     new unit-cell volume =    421.31127 a.u.^3 (    62.43189 Ang^3 )
     density =      3.35726 g/cm^3

CELL_PARAMETERS (alat= 10.78751286)
   0.321424942  -0.185574777   0.937754874
   0.000000000   0.371149553   0.937754874
  -0.321424942  -0.185574777   0.937754874

ATOMIC_POSITIONS (crystal)
Si            0.1357230202        0.1357230202        0.1357230202
Si            0.8642769798        0.8642769798        0.8642769798
Si            0.3045978088        0.3045978088        0.3045978088
Si            0.6954021912        0.6954021912        0.6954021912
Li            0.4465354931        0.4465354931        0.4465354931
Li            0.5534645069        0.5534645069        0.5534645069



     Writing config-only to output data dir ./output/SiLi.save/
     NEW-OLD atomic charge density approx. for the potential
     extrapolated charge   22.95414, renormalised to   22.00000

     total cpu time spent up to now is        9.7 secs

     Self-consistent Calculation

     iteration #  1     ecut=    80.00 Ry     beta= 0.70
     Davidson diagonalization with overlap
     c_bands:  1 eigenvalues not converged
     c_bands:  1 eigenvalues not converged
     ethr =  1.00E-06,  avg # of iterations = 12.7

     total cpu time spent up to now is       11.5 secs

     total energy              =     -62.26542977 Ry
     estimated scf accuracy    <       0.04596418 Ry

     iteration #  2     ecut=    80.00 Ry     beta= 0.70
     Davidson diagonalization with overlap
     ethr =  2.09E-04,  avg # of iterations =  4.6

     total cpu time spent up to now is       12.3 secs

     total energy              =     -62.28313480 Ry
     estimated scf accuracy    <       0.21089608 Ry

     iteration #  3     ecut=    80.00 Ry     beta= 0.70
     Davidson diagonalization with overlap
     ethr =  2.09E-04,  avg # of iterations =  2.8

     total cpu time spent up to now is       12.9 secs

     total energy              =     -62.30771362 Ry
     estimated scf accuracy    <       0.00813130 Ry

     iteration #  4     ecut=    80.00 Ry     beta= 0.70
     Davidson diagonalization with overlap
     ethr =  3.70E-05,  avg # of iterations =  2.9

     total cpu time spent up to now is       13.6 secs

     total energy              =     -62.30797824 Ry
     estimated scf accuracy    <       0.00146285 Ry

     iteration #  5     ecut=    80.00 Ry     beta= 0.70
     Davidson diagonalization with overlap
     ethr =  6.65E-06,  avg # of iterations =  3.8

     total cpu time spent up to now is       14.3 secs

     total energy              =     -62.30839033 Ry
     estimated scf accuracy    <       0.00001010 Ry

     iteration #  6     ecut=    80.00 Ry     beta= 0.70
     Davidson diagonalization with overlap
     ethr =  4.59E-08,  avg # of iterations =  4.6

     total cpu time spent up to now is       15.1 secs

     total energy              =     -62.30840139 Ry
     estimated scf accuracy    <       0.00000778 Ry

     iteration #  7     ecut=    80.00 Ry     beta= 0.70
     Davidson diagonalization with overlap
     ethr =  3.54E-08,  avg # of iterations =  2.1

     total cpu time spent up to now is       15.6 secs

     total energy              =     -62.30840219 Ry
     estimated scf accuracy    <       0.00000035 Ry

     iteration #  8     ecut=    80.00 Ry     beta= 0.70
     Davidson diagonalization with overlap
     ethr =  1.59E-09,  avg # of iterations =  4.1

     total cpu time spent up to now is       16.3 secs

     total energy              =     -62.30840233 Ry
     estimated scf accuracy    <       0.00000009 Ry

     iteration #  9     ecut=    80.00 Ry     beta= 0.70
     Davidson diagonalization with overlap
     ethr =  4.25E-10,  avg # of iterations =  2.3

     total cpu time spent up to now is       16.9 secs

     End of self-consistent calculation

          k = 0.0000 0.0000 0.0000 (  4865 PWs)   bands (ev):

   -35.1429 -34.6249  -2.6672   1.0194   2.9715   9.0537   9.0537  10.4490
    10.4490  10.7602  10.7602  11.8669  12.8376  12.8376  13.5536

          k =-0.3111-0.1796 0.0711 (  4866 PWs)   bands (ev):

   -35.1413 -34.6241  -2.1937   1.3248   3.5777   5.7458   7.6476   8.0908
     9.2225  10.5318  11.2686  12.8736  13.2879  14.9937  15.1029

          k =-0.6222-0.3592 0.1422 (  4874 PWs)   bands (ev):

   -35.1387 -34.6229  -0.8586   1.5503   3.3020   4.9110   5.5618   6.6942
     8.0790   8.3042  10.9331  11.3888  15.6747  16.1975  17.1535

          k =-0.3111 0.1796 0.1422 (  4885 PWs)   bands (ev):

   -35.1413 -34.6242  -2.1372   1.0008   3.9875   6.0818   7.2805   7.2983
    10.2058  10.3730  12.2500  13.1710  13.2650  13.7593  15.3224

          k =-0.6222 0.0000 0.2133 (  4875 PWs)   bands (ev):

   -35.1392 -34.6232  -1.1609   1.4593   3.5864   4.9390   5.7321   6.4983
     7.6458  10.3268  12.1760  12.9235  13.9467  14.4648  14.8351

          k = 0.6222 0.7185-0.0711 (  4868 PWs)   bands (ev):

   -35.1379 -34.6225   0.1130   1.2045   3.1434   4.2128   5.4147   5.9755
     6.5401   9.0909  12.8313  13.0091  13.5307  15.2231  16.2583

          k = 0.3111 0.5389 0.0000 (  4874 PWs)   bands (ev):

   -35.1393 -34.6231  -1.3261   2.3467   3.3907   4.3178   5.9665   6.1715
     6.8252  11.6573  12.3409  13.2368  13.3159  14.7035  14.7960

          k =-0.6222 0.3592 0.2844 (  4858 PWs)   bands (ev):

   -35.1386 -34.6230  -0.7126   1.6209   3.0576   3.4645   6.1028   6.9872
     9.7975  10.0526  11.0734  12.1393  12.4125  13.2209  14.3093

          k = 0.6222 1.0777 0.0000 (  4868 PWs)   bands (ev):

   -35.1378 -34.6226   0.1984   1.8691   2.5736   2.6899   5.2392   7.5431
     8.3806   9.0631  10.8608  12.1950  14.1334  14.2068  16.2156

          k = 0.0000 0.0000 0.2133 (  4904 PWs)   bands (ev):

   -35.1428 -34.6251  -2.4892   0.1176   4.2165   9.0341   9.0341  10.0549
    10.0549  11.1000  11.1000  11.5530  11.9233  13.5470  13.5470

          k =-0.3111-0.1796 0.2844 (  4879 PWs)   bands (ev):

   -35.1411 -34.6243  -1.9011   0.1675   5.3136   5.5368   7.6689   8.7875
     9.1637  10.5715  10.6437  11.3308  12.6772  14.1568  15.4029

          k = 0.9333 0.5389 0.0000 (  4871 PWs)   bands (ev):

   -35.1386 -34.6230  -0.5246   0.8814   2.7610   5.6380   6.4829   6.8968
     7.9265   8.5111  10.4893  11.1060  14.1662  14.6150  16.5400

          k = 0.6222 0.3592 0.0711 (  4865 PWs)   bands (ev):

   -35.1387 -34.6229  -0.9288   2.2107   3.1866   3.7454   5.5161   6.3491
     8.8784   9.5122  11.1222  12.1051  13.8748  14.9220  15.4238

          k =-0.3111 0.1796 0.3555 (  4868 PWs)   bands (ev):

   -35.1411 -34.6244  -1.7380  -0.1925   5.8580   5.9976   7.1361   7.4853
     9.9315  10.8959  10.9874  12.8590  13.1604  13.4545  14.3070

          k = 0.9333 0.8981 0.0711 (  4869 PWs)   bands (ev):

   -35.1390 -34.6233  -0.7156   0.4166   3.5354   5.0318   6.5340   7.4051
     8.6731   9.3873  10.7640  12.2831  12.5872  14.0433  15.7197

          k = 0.6222 0.7185 0.1422 (  4860 PWs)   bands (ev):

   -35.1379 -34.6226   0.1563   1.5887   2.5410   3.4393   5.5598   6.6613
     7.1826  10.2187  11.2978  12.1249  13.1709  15.7147  16.1373

          k = 0.9333-0.5389-0.2133 (  4880 PWs)   bands (ev):

   -35.1386 -34.6231  -0.3605   0.7474   2.7020   4.5574   6.1562   8.1743
     9.5713   9.6658   9.6672  10.9686  12.6584  13.6168  15.0687

          k = 0.0000 0.0000 0.4266 (  4867 PWs)   bands (ev):

   -35.1425 -34.6253  -1.9704  -1.0279   6.3885   8.9367   9.0890   9.0890
     9.5463   9.5463  11.7376  11.7376  11.9215  13.7669  14.5558

          k = 1.2445 0.7185 0.1422 (  4880 PWs)   bands (ev):

   -35.1410 -34.6245  -1.3489  -0.8058   5.6070   7.2969   7.4934   8.1635
     8.5278  10.0814  10.9571  11.8817  12.7303  13.7828  14.7337

     the Fermi energy is    11.9177 ev

!    total energy              =     -62.30840235 Ry
     estimated scf accuracy    <          7.8E-10 Ry
     smearing contrib. (-TS)   =      -0.00051629 Ry
     internal energy E=F+TS    =     -62.30788606 Ry

     The total energy is F=E-TS. E is the sum of the following terms:
     one-electron contribution =       5.59779509 Ry
     hartree contribution      =       7.36215675 Ry
     xc contribution           =     -20.16416892 Ry
     ewald contribution        =     -55.10366898 Ry

     convergence has been achieved in   9 iterations

     Forces acting on atoms (cartesian axes, Ry/au):

     atom    1 type  1   force =     0.00000000    0.00000000   -0.01375180
     atom    2 type  1   force =    -0.00000000   -0.00000000    0.01375180
     atom    3 type  1   force =    -0.00000000    0.00000000   -0.03477319
     atom    4 type  1   force =    -0.00000000    0.00000000    0.03477319
     atom    5 type  2   force =     0.00000000    0.00000000   -0.10012777
     atom    6 type  2   force =    -0.00000000    0.00000000    0.10012777
     The non-local contrib.  to forces
     atom    1 type  1   force =    -0.00000000    0.00000000    0.00485029
     atom    2 type  1   force =     0.00000000   -0.00000000   -0.00485029
     atom    3 type  1   force =     0.00000000   -0.00000000   -0.07800716
     atom    4 type  1   force =    -0.00000000    0.00000000    0.07800716
     atom    5 type  2   force =     0.00000000   -0.00000000    0.03748004
     atom    6 type  2   force =    -0.00000000    0.00000000   -0.03748004
     The ionic contribution  to forces
     atom    1 type  1   force =    -0.00000000    0.00000000   -1.01513131
     atom    2 type  1   force =    -0.00000000   -0.00000000    1.01513131
     atom    3 type  1   force =    -0.00000000    0.00000000    0.26088750
     atom    4 type  1   force =    -0.00000000   -0.00000000   -0.26088750
     atom    5 type  2   force =    -0.00000000   -0.00000000   -1.40798947
     atom    6 type  2   force =    -0.00000000    0.00000000    1.40798947
     The local contribution  to forces
     atom    1 type  1   force =     0.00000000   -0.00000000    0.99391063
     atom    2 type  1   force =    -0.00000000    0.00000000   -0.99391063
     atom    3 type  1   force =     0.00000000   -0.00000000   -0.22414898
     atom    4 type  1   force =    -0.00000000    0.00000000    0.22414898
     atom    5 type  2   force =     0.00000000    0.00000000    1.27040412
     atom    6 type  2   force =     0.00000000   -0.00000000   -1.27040412
     The core correction contribution to forces
     atom    1 type  1   force =     0.00000000    0.00000000    0.00263438
     atom    2 type  1   force =     0.00000000    0.00000000   -0.00263438
     atom    3 type  1   force =     0.00000000   -0.00000000    0.00648100
     atom    4 type  1   force =    -0.00000000    0.00000000   -0.00648100
     atom    5 type  2   force =     0.00000000    0.00000000    0.00000000
     atom    6 type  2   force =     0.00000000    0.00000000    0.00000000
     The Hubbard contrib.    to forces
     atom    1 type  1   force =     0.00000000    0.00000000    0.00000000
     atom    2 type  1   force =     0.00000000    0.00000000    0.00000000
     atom    3 type  1   force =     0.00000000    0.00000000    0.00000000
     atom    4 type  1   force =     0.00000000    0.00000000    0.00000000
     atom    5 type  2   force =     0.00000000    0.00000000    0.00000000
     atom    6 type  2   force =     0.00000000    0.00000000    0.00000000
     The SCF correction term to forces
     atom    1 type  1   force =     0.00000000    0.00000000   -0.00001579
     atom    2 type  1   force =    -0.00000000   -0.00000000    0.00001579
     atom    3 type  1   force =    -0.00000000    0.00000000    0.00001445
     atom    4 type  1   force =     0.00000000   -0.00000000   -0.00001445
     atom    5 type  2   force =     0.00000000    0.00000000   -0.00002247
     atom    6 type  2   force =    -0.00000000   -0.00000000    0.00002247

     Total force =     0.151155     Total SCF correction =     0.000044


     Computing stress (Cartesian axis) and pressure

          total   stress  (Ry/bohr**3)                   (kbar)     P=      456.43
   0.00306000  -0.00000000  -0.00000000          450.14       -0.00       -0.00
  -0.00000000   0.00306000   0.00000000           -0.00      450.14        0.00
  -0.00000000   0.00000000   0.00318832           -0.00        0.00      469.02

     Energy error            =      5.3E-02 Ry
     Gradient error          =      1.0E-01 Ry/Bohr
     Cell gradient error     =      5.0E+01 kbar

     number of scf cycles    =   2
     number of bfgs steps    =   1

     enthalpy           old  =     -60.8233921936 Ry
     enthalpy           new  =     -60.8763944350 Ry

     CASE: enthalpy          _new < enthalpy          _old

     new trust radius        =       0.2606520240 bohr
ibrav =      5
 celldm(1) =     10.81468447
 celldm(4) =      0.79671112
Input lattice vectors:
     0.31962029    -0.18453286     0.93211289
    -0.00000000     0.36906572     0.93211289
    -0.31962029    -0.18453286     0.93211289
New lattice vectors in INITIAL alat:
     0.31962029    -0.18453286     0.93211289
     0.00000000     0.36906572     0.93211289
    -0.31962029    -0.18453286     0.93211289
New lattice vectors in NEW alat (for information only):
     0.31881725    -0.18406923     0.92977098
     0.00000000     0.36813845     0.92977098
    -0.31881725    -0.18406923     0.92977098
Discrepancy in bohr =     0.000000    0.000000    0.000000
     new conv_thr            =       0.0000000100 Ry

     new unit-cell volume =    414.08719 a.u.^3 (    61.36139 Ang^3 )
     density =      3.41583 g/cm^3

CELL_PARAMETERS (alat= 10.78751286)
   0.319620288  -0.184532859   0.932112892
   0.000000000   0.369065718   0.932112892
  -0.319620288  -0.184532859   0.932112892

ATOMIC_POSITIONS (crystal)
Si            0.1342912003        0.1342912003        0.1342912003
Si            0.8657087997        0.8657087997        0.8657087997
Si            0.3018400227        0.3018400227        0.3018400227
Si            0.6981599773        0.6981599773        0.6981599773
Li            0.4379467584        0.4379467584        0.4379467584
Li            0.5620532416        0.5620532416        0.5620532416



     Writing config-only to output data dir ./output/SiLi.save/
     NEW-OLD atomic charge density approx. for the potential
     extrapolated charge   21.61639, renormalised to   22.00000

     total cpu time spent up to now is       18.6 secs

     Self-consistent Calculation

     iteration #  1     ecut=    80.00 Ry     beta= 0.70
     Davidson diagonalization with overlap
     ethr =  1.00E-06,  avg # of iterations = 11.9

     total cpu time spent up to now is       20.3 secs

     total energy              =     -62.32036165 Ry
     estimated scf accuracy    <       0.00788982 Ry

     iteration #  2     ecut=    80.00 Ry     beta= 0.70
     Davidson diagonalization with overlap
     ethr =  3.59E-05,  avg # of iterations =  2.9

     total cpu time spent up to now is       21.0 secs

     total energy              =     -62.32138363 Ry
     estimated scf accuracy    <       0.00832817 Ry

     iteration #  3     ecut=    80.00 Ry     beta= 0.70
     Davidson diagonalization with overlap
     ethr =  3.59E-05,  avg # of iterations =  2.5

     total cpu time spent up to now is       21.6 secs

     total energy              =     -62.32333761 Ry
     estimated scf accuracy    <       0.00052304 Ry

     iteration #  4     ecut=    80.00 Ry     beta= 0.70
     Davidson diagonalization with overlap
     ethr =  2.38E-06,  avg # of iterations =  3.1

     total cpu time spent up to now is       22.2 secs

     total energy              =     -62.32343282 Ry
     estimated scf accuracy    <       0.00000593 Ry

     iteration #  5     ecut=    80.00 Ry     beta= 0.70
     Davidson diagonalization with overlap
     ethr =  2.70E-08,  avg # of iterations =  4.1

     total cpu time spent up to now is       22.9 secs

     total energy              =     -62.32343536 Ry
     estimated scf accuracy    <       0.00000122 Ry

     iteration #  6     ecut=    80.00 Ry     beta= 0.70
     Davidson diagonalization with overlap
     ethr =  5.55E-09,  avg # of iterations =  2.2

     total cpu time spent up to now is       23.4 secs

     End of self-consistent calculation

          k = 0.0000 0.0000 0.0000 (  4865 PWs)   bands (ev):

   -34.4192 -34.2202  -2.5571   1.1815   3.0516   9.3096   9.3096  10.9759
    10.9759  11.0243  11.0243  12.1470  12.9196  12.9196  13.7137

          k =-0.3129-0.1806 0.0715 (  4866 PWs)   bands (ev):

   -34.4174 -34.2193  -2.0750   1.5046   3.6375   5.9890   8.0053   8.3357
     9.3719  10.7226  11.4930  13.2975  13.5820  15.3099  15.3202

          k =-0.6257-0.3613 0.1430 (  4874 PWs)   bands (ev):

   -34.4147 -34.2179  -0.7073   1.7409   3.4428   5.0572   5.7263   7.0911
     8.1592   8.4199  11.1000  11.6131  16.0059  16.6164  17.4084

          k =-0.3129 0.1806 0.1430 (  4885 PWs)   bands (ev):

   -34.4173 -34.2194  -2.0183   1.1629   4.0643   6.3573   7.4843   7.5726
    10.4812  10.6256  12.4319  13.5124  13.5865  13.9420  15.6444

          k =-0.6257 0.0000 0.2146 (  4875 PWs)   bands (ev):

   -34.4150 -34.2183  -1.0209   1.6291   3.8227   5.0056   6.0127   6.5894
     7.8602  10.5421  12.5148  13.2113  14.1697  14.5523  15.0010

          k = 0.6257 0.7225-0.0715 (  4868 PWs)   bands (ev):

   -34.4137 -34.2175   0.2943   1.3691   3.3481   4.4939   5.4506   6.1205
     6.5908   9.3768  13.1628  13.2630  13.6285  15.5042  16.5920

          k = 0.3129 0.5419 0.0000 (  4874 PWs)   bands (ev):

   -34.4152 -34.2181  -1.1885   2.6054   3.5065   4.4525   6.0397   6.4931
     6.9652  11.9605  12.7211  13.4231  13.4891  14.7901  15.0422

          k =-0.6257 0.3613 0.2861 (  4858 PWs)   bands (ev):

   -34.4143 -34.2182  -0.5535   1.7924   3.2255   3.5794   6.3782   7.1832
     9.9391  10.4490  11.1076  12.0968  12.6596  13.4723  14.8140

          k = 0.6257 1.0838 0.0000 (  4868 PWs)   bands (ev):

   -34.4135 -34.2177   0.3906   2.0569   2.6292   2.9576   5.3704   7.7455
     8.3575   9.3811  11.1057  12.4527  14.2036  14.6007  16.6070

          k = 0.0000 0.0000 0.2146 (  4904 PWs)   bands (ev):

   -34.4188 -34.2206  -2.3794   0.2515   4.3311   9.2939   9.2939  10.4131
    10.4131  11.4916  11.4916  11.7193  12.2189  13.7239  13.7239

          k =-0.3129-0.1806 0.2861 (  4879 PWs)   bands (ev):

   -34.4170 -34.2198  -1.7817   0.3072   5.4105   5.7727   8.0343   9.1365
     9.3034  10.5959  10.7680  11.7869  13.0604  14.4444  15.7222

          k = 0.9386 0.5419 0.0000 (  4871 PWs)   bands (ev):

   -34.4144 -34.2181  -0.3609   1.0307   2.9087   5.8951   6.8127   6.9681
     8.0514   8.6735  10.7586  11.1891  14.5372  14.7893  16.9207

          k = 0.6257 0.3613 0.0715 (  4865 PWs)   bands (ev):

   -34.4146 -34.2179  -0.7777   2.4809   3.2522   3.8638   5.6923   6.6549
     9.0816   9.6470  11.2608  12.3354  14.0290  15.1498  15.9148

          k =-0.3129 0.1806 0.3576 (  4868 PWs)   bands (ev):

   -34.4168 -34.2200  -1.6180  -0.0582   5.9571   6.2569   7.4140   7.7127
    10.0851  11.3114  11.3183  12.8589  13.3315  13.9228  14.6239

          k = 0.9386 0.9032 0.0715 (  4869 PWs)   bands (ev):

   -34.4147 -34.2187  -0.5642   0.5509   3.7604   5.2174   6.6983   7.5250
     8.9838   9.5320  10.9539  12.6536  12.7790  14.2095  16.0818

          k = 0.6257 0.7225 0.1430 (  4860 PWs)   bands (ev):

   -34.4136 -34.2176   0.3434   1.7644   2.6828   3.6695   5.6676   6.8015
     7.3009  10.4794  11.5551  12.3366  13.3571  16.1540  16.3860

          k = 0.9386-0.5419-0.2146 (  4880 PWs)   bands (ev):

   -34.4142 -34.2183  -0.1810   0.8713   2.8581   4.7324   6.4370   8.3982
     9.6044   9.8142   9.9721  11.2143  12.7014  13.8365  15.5803

          k = 0.0000 0.0000 0.4291 (  4867 PWs)   bands (ev):

   -34.4181 -34.2212  -1.8633  -0.9028   6.5370   9.0879   9.3608   9.3608
     9.8422   9.8422  12.1779  12.2413  12.2413  14.1226  14.8297

          k = 1.2515 0.7225 0.1430 (  4880 PWs)   bands (ev):

   -34.4165 -34.2202  -1.2287  -0.6763   5.8293   7.5874   7.5915   8.3915
     8.7757  10.3430  11.2558  12.0438  13.0688  14.0830  14.9480

     the Fermi energy is    12.1453 ev

!    total energy              =     -62.32343559 Ry
     estimated scf accuracy    <          5.9E-09 Ry
     smearing contrib. (-TS)   =      -0.00055949 Ry
     internal energy E=F+TS    =     -62.32287610 Ry

     The total energy is F=E-TS. E is the sum of the following terms:
     one-electron contribution =       7.00798812 Ry
     hartree contribution      =       6.89320328 Ry
     xc contribution           =     -20.20708436 Ry
     ewald contribution        =     -56.01698313 Ry

     convergence has been achieved in   6 iterations

     Forces acting on atoms (cartesian axes, Ry/au):

     atom    1 type  1   force =     0.00000000    0.00000000   -0.00400819
     atom    2 type  1   force =     0.00000000   -0.00000000    0.00400819
     atom    3 type  1   force =     0.00000000    0.00000000   -0.03618767
     atom    4 type  1   force =    -0.00000000    0.00000000    0.03618767
     atom    5 type  2   force =     0.00000000    0.00000000   -0.02140471
     atom    6 type  2   force =    -0.00000000   -0.00000000    0.02140471
     The non-local contrib.  to forces
     atom    1 type  1   force =    -0.00000000    0.00000000    0.01772431
     atom    2 type  1   force =    -0.00000000   -0.00000000   -0.01772431
     atom    3 type  1   force =     0.00000000   -0.00000000   -0.07217499
     atom    4 type  1   force =    -0.00000000    0.00000000    0.07217499
     atom    5 type  2   force =    -0.00000000    0.00000000    0.01625384
     atom    6 type  2   force =    -0.00000000    0.00000000   -0.01625384
     The ionic contribution  to forces
     atom    1 type  1   force =    -0.00000000    0.00000000   -0.77791052
     atom    2 type  1   force =    -0.00000000   -0.00000000    0.77791052
     atom    3 type  1   force =    -0.00000000    0.00000000    0.19191085
     atom    4 type  1   force =    -0.00000000   -0.00000000   -0.19191085
     atom    5 type  2   force =    -0.00000000   -0.00000000   -0.74340405
     atom    6 type  2   force =    -0.00000000    0.00000000    0.74340405
     The local contribution  to forces
     atom    1 type  1   force =     0.00000000   -0.00000000    0.75467615
     atom    2 type  1   force =    -0.00000000    0.00000000   -0.75467615
     atom    3 type  1   force =     0.00000000   -0.00000000   -0.16177574
     atom    4 type  1   force =    -0.00000000    0.00000000    0.16177574
     atom    5 type  2   force =    -0.00000000    0.00000000    0.70570995
     atom    6 type  2   force =    -0.00000000   -0.00000000   -0.70570995
     The core correction contribution to forces
     atom    1 type  1   force =    -0.00000000    0.00000000    0.00149388
     atom    2 type  1   force =     0.00000000   -0.00000000   -0.00149388
     atom    3 type  1   force =    -0.00000000   -0.00000000    0.00586424
     atom    4 type  1   force =     0.00000000    0.00000000   -0.00586424
     atom    5 type  2   force =     0.00000000    0.00000000    0.00000000
     atom    6 type  2   force =     0.00000000    0.00000000    0.00000000
     The Hubbard contrib.    to forces
     atom    1 type  1   force =     0.00000000    0.00000000    0.00000000
     atom    2 type  1   force =     0.00000000    0.00000000    0.00000000
     atom    3 type  1   force =     0.00000000    0.00000000    0.00000000
     atom    4 type  1   force =     0.00000000    0.00000000    0.00000000
     atom    5 type  2   force =     0.00000000    0.00000000    0.00000000
     atom    6 type  2   force =     0.00000000    0.00000000    0.00000000
     The SCF correction term to forces
     atom    1 type  1   force =     0.00000000    0.00000000    0.00000798
     atom    2 type  1   force =    -0.00000000   -0.00000000   -0.00000798
     atom    3 type  1   force =    -0.00000000    0.00000000   -0.00001202
     atom    4 type  1   force =     0.00000000   -0.00000000    0.00001202
     atom    5 type  2   force =     0.00000000   -0.00000000    0.00003555
     atom    6 type  2   force =    -0.00000000    0.00000000   -0.00003555

     Total force =     0.059729     Total SCF correction =     0.000054


     Computing stress (Cartesian axis) and pressure

          total   stress  (Ry/bohr**3)                   (kbar)     P=      473.52
   0.00306243   0.00000000  -0.00000000          450.50        0.00       -0.00
  -0.00000000   0.00306243   0.00000000           -0.00      450.50        0.00
  -0.00000000   0.00000000   0.00353185           -0.00        0.00      519.55

     Energy error            =      4.0E-02 Ry
     Gradient error          =      3.6E-02 Ry/Bohr
     Cell gradient error     =      5.0E+01 kbar

     number of scf cycles    =   3
     number of bfgs steps    =   2

     enthalpy           old  =     -60.8763944350 Ry
     enthalpy           new  =     -60.9159818445 Ry

     CASE: enthalpy          _new < enthalpy          _old

     new trust radius        =       0.1205541541 bohr
ibrav =      5
 celldm(1) =     10.84949328
 celldm(4) =      0.80172641
Input lattice vectors:
     0.31666901    -0.18282894     0.93691967
     0.00000000     0.36565788     0.93691967
    -0.31666901    -0.18282894     0.93691967
New lattice vectors in INITIAL alat:
     0.31666901    -0.18282894     0.93691967
     0.00000000     0.36565788     0.93691967
    -0.31666901    -0.18282894     0.93691967
New lattice vectors in NEW alat (for information only):
     0.31485996    -0.18178448     0.93156729
     0.00000000     0.36356897     0.93156729
    -0.31485996    -0.18178448     0.93156729
Discrepancy in bohr =     0.000000    0.000000    0.000000
     new conv_thr            =       0.0000000036 Ry

     new unit-cell volume =    408.57152 a.u.^3 (    60.54405 Ang^3 )
     density =      3.46194 g/cm^3

CELL_PARAMETERS (alat= 10.78751286)
   0.316669011  -0.182828939   0.936919671
   0.000000000   0.365657878   0.936919671
  -0.316669011  -0.182828939   0.936919671

ATOMIC_POSITIONS (crystal)
Si            0.1335295527        0.1335295527        0.1335295527
Si            0.8664704473        0.8664704473        0.8664704473
Si            0.2992228665        0.2992228665        0.2992228665
Si            0.7007771335        0.7007771335        0.7007771335
Li            0.4339503387        0.4339503387        0.4339503387
Li            0.5660496613        0.5660496613        0.5660496613



     Writing config-only to output data dir ./output/SiLi.save/
     NEW-OLD atomic charge density approx. for the potential
     extrapolated charge   21.70316, renormalised to   22.00000

     total cpu time spent up to now is       25.0 secs

     Self-consistent Calculation

     iteration #  1     ecut=    80.00 Ry     beta= 0.70
     Davidson diagonalization with overlap
     c_bands:  1 eigenvalues not converged
     ethr =  1.00E-06,  avg # of iterations = 10.4

     total cpu time spent up to now is       26.4 secs

     total energy              =     -62.31268353 Ry
     estimated scf accuracy    <       0.00170560 Ry

     iteration #  2     ecut=    80.00 Ry     beta= 0.70
     Davidson diagonalization with overlap
     ethr =  7.75E-06,  avg # of iterations =  2.5

     total cpu time spent up to now is       27.0 secs

     total energy              =     -62.31312087 Ry
     estimated scf accuracy    <       0.00103865 Ry

     iteration #  3     ecut=    80.00 Ry     beta= 0.70
     Davidson diagonalization with overlap
     ethr =  4.72E-06,  avg # of iterations =  2.4

     total cpu time spent up to now is       27.6 secs

     total energy              =     -62.31335725 Ry
     estimated scf accuracy    <       0.00021946 Ry

     iteration #  4     ecut=    80.00 Ry     beta= 0.70
     Davidson diagonalization with overlap
     ethr =  9.98E-07,  avg # of iterations =  2.1

     total cpu time spent up to now is       28.2 secs

     total energy              =     -62.31339472 Ry
     estimated scf accuracy    <       0.00000227 Ry

     iteration #  5     ecut=    80.00 Ry     beta= 0.70
     Davidson diagonalization with overlap
     ethr =  1.03E-08,  avg # of iterations =  4.0

     total cpu time spent up to now is       28.9 secs

     total energy              =     -62.31339556 Ry
     estimated scf accuracy    <       0.00000054 Ry

     iteration #  6     ecut=    80.00 Ry     beta= 0.70
     Davidson diagonalization with overlap
     ethr =  2.45E-09,  avg # of iterations =  2.3

     total cpu time spent up to now is       29.4 secs

     total energy              =     -62.31339564 Ry
     estimated scf accuracy    <       0.00000001 Ry

     iteration #  7     ecut=    80.00 Ry     beta= 0.70
     Davidson diagonalization with overlap
     ethr =  5.53E-11,  avg # of iterations =  3.8

     total cpu time spent up to now is       30.1 secs

     End of self-consistent calculation

          k = 0.0000 0.0000 0.0000 (  4865 PWs)   bands (ev):

   -34.1227 -34.0001  -2.4800   1.2759   3.0135   9.5578   9.5578  11.3133
    11.3133  11.3519  11.3519  12.5006  13.0630  13.0630  13.7231

          k =-0.3158-0.1823 0.0712 (  4866 PWs)   bands (ev):

   -34.1207 -33.9991  -1.9916   1.6121   3.6002   6.1988   8.2440   8.5829
     9.6103  10.9704  11.6898  13.6485  13.6953  15.5097  15.6225

          k =-0.6316-0.3646 0.1423 (  4874 PWs)   bands (ev):

   -34.1176 -33.9974  -0.6093   1.9048   3.5407   5.1230   5.8552   7.3164
     8.3648   8.5161  11.2785  11.8550  16.2178  16.6454  17.5063

          k =-0.3158 0.1823 0.1423 (  4885 PWs)   bands (ev):

   -34.1205 -33.9993  -1.9364   1.2584   4.0418   6.5494   7.7371   7.8139
    10.7420  10.8919  12.6344  13.5293  13.7928  14.2193  15.9600

          k =-0.6316 0.0000 0.2135 (  4875 PWs)   bands (ev):

   -34.1179 -33.9980  -0.9285   1.7478   3.9866   5.0742   6.2254   6.6835
     8.0419  10.6764  12.7870  13.3971  14.3360  14.6617  15.1349

          k = 0.6316 0.7293-0.0712 (  4868 PWs)   bands (ev):

   -34.1165 -33.9970   0.3996   1.5233   3.4854   4.7406   5.5243   6.2213
     6.6187   9.5284  13.2652  13.5023  13.8142  15.6194  16.7508

          k = 0.3158 0.5470 0.0000 (  4874 PWs)   bands (ev):

   -34.1182 -33.9977  -1.0912   2.7798   3.5662   4.5170   6.1643   6.7967
     7.0766  12.1873  12.9130  13.6006  13.6726  14.9801  15.2997

          k =-0.6316 0.3646 0.2846 (  4858 PWs)   bands (ev):

   -34.1171 -33.9979  -0.4574   1.9171   3.3435   3.7342   6.6036   7.2635
    10.1284  10.7356  11.1424  12.1135  12.7272  13.5875  15.1331

          k = 0.6316 1.0939 0.0000 (  4868 PWs)   bands (ev):

   -34.1162 -33.9973   0.5001   2.1674   2.7424   3.1910   5.5061   7.9079
     8.3163   9.5643  11.1530  12.7247  14.1086  14.8008  16.9860

          k = 0.0000 0.0000 0.2135 (  4904 PWs)   bands (ev):

   -34.1221 -34.0007  -2.3070   0.3302   4.3101   9.5453   9.5453  10.7290
    10.7290  11.7161  11.8101  11.8101  12.5653  13.9010  13.9010

          k =-0.3158-0.1823 0.2846 (  4879 PWs)   bands (ev):

   -34.1200 -33.9998  -1.7074   0.4018   5.3837   5.9886   8.2734   9.4776
     9.5414  10.6574  10.8040  12.0784  13.3976  14.6362  16.0727

          k = 0.9474 0.5470 0.0000 (  4871 PWs)   bands (ev):

   -34.1172 -33.9978  -0.2785   1.1839   3.0330   6.0856   6.9925   7.0368
     8.1071   8.8828  10.9167  11.3740  14.6801  14.9012  17.1721

          k = 0.6316 0.3646 0.0712 (  4865 PWs)   bands (ev):

   -34.1175 -33.9975  -0.6760   2.6800   3.3120   3.9567   5.7927   6.8791
     9.2943   9.8233  11.4011  12.4880  14.1273  15.2163  16.1089

          k =-0.3158 0.1823 0.3558 (  4868 PWs)   bands (ev):

   -34.1197 -34.0001  -1.5505   0.0416   5.9657   6.4275   7.6565   7.9694
    10.1517  11.5127  11.6902  12.8365  13.4783  14.2876  14.8762

          k = 0.9474 0.9116 0.0712 (  4869 PWs)   bands (ev):

   -34.1174 -33.9985  -0.4943   0.6836   3.9231   5.4411   6.8070   7.5953
     9.1514   9.6435  11.0254  12.6930  13.1092  14.4586  16.3961

          k = 0.6316 0.7293 0.1423 (  4860 PWs)   bands (ev):

   -34.1163 -33.9972   0.4522   1.8987   2.8196   3.8749   5.7803   6.8948
     7.3823  10.6361  11.6212  12.4439  13.5360  16.4427  16.5953

          k = 0.9474-0.5470-0.2135 (  4880 PWs)   bands (ev):

   -34.1169 -33.9981  -0.1068   1.0177   2.9944   4.8866   6.6621   8.5529
     9.5686   9.8635  10.2097  11.4031  12.7669  14.0394  15.8648

          k = 0.0000 0.0000 0.4269 (  4867 PWs)   bands (ev):

   -34.1212 -34.0016  -1.8158  -0.8009   6.5087   9.0512   9.6051   9.6051
    10.1594  10.1594  12.5197  12.5702  12.5702  14.5927  15.0809

          k = 1.2631 0.7293 0.1423 (  4880 PWs)   bands (ev):

   -34.1194 -34.0004  -1.1998  -0.5379   6.0317   7.5493   7.8331   8.4631
     9.0108  10.6005  11.4630  12.1878  13.3419  14.3826  15.1101

     the Fermi energy is    12.3101 ev

!    total energy              =     -62.31339565 Ry
     estimated scf accuracy    <          1.9E-09 Ry
     smearing contrib. (-TS)   =      -0.00029180 Ry
     internal energy E=F+TS    =     -62.31310384 Ry

     The total energy is F=E-TS. E is the sum of the following terms:
     one-electron contribution =       7.57678530 Ry
     hartree contribution      =       6.76750714 Ry
     xc contribution           =     -20.24889174 Ry
     ewald contribution        =     -56.40850454 Ry

     convergence has been achieved in   7 iterations

     Forces acting on atoms (cartesian axes, Ry/au):

     atom    1 type  1   force =    -0.00000000   -0.00000000   -0.00341398
     atom    2 type  1   force =     0.00000000    0.00000000    0.00341398
     atom    3 type  1   force =    -0.00000000   -0.00000000   -0.01929194
     atom    4 type  1   force =     0.00000000   -0.00000000    0.01929194
     atom    5 type  2   force =    -0.00000000   -0.00000000    0.00394991
     atom    6 type  2   force =     0.00000000    0.00000000   -0.00394991
     The non-local contrib.  to forces
     atom    1 type  1   force =    -0.00000000    0.00000000    0.02236343
     atom    2 type  1   force =     0.00000000   -0.00000000   -0.02236343
     atom    3 type  1   force =    -0.00000000   -0.00000000   -0.05915395
     atom    4 type  1   force =     0.00000000    0.00000000    0.05915395
     atom    5 type  2   force =    -0.00000000    0.00000000    0.01830763
     atom    6 type  2   force =     0.00000000    0.00000000   -0.01830763
     The ionic contribution  to forces
     atom    1 type  1   force =    -0.00000000    0.00000000   -0.68218048
     atom    2 type  1   force =    -0.00000000   -0.00000000    0.68218048
     atom    3 type  1   force =    -0.00000000    0.00000000    0.25617052
     atom    4 type  1   force =    -0.00000000   -0.00000000   -0.25617052
     atom    5 type  2   force =    -0.00000000   -0.00000000   -0.54110970
     atom    6 type  2   force =    -0.00000000    0.00000000    0.54110970
     The local contribution  to forces
     atom    1 type  1   force =    -0.00000000   -0.00000000    0.65536446
     atom    2 type  1   force =     0.00000000    0.00000000   -0.65536446
     atom    3 type  1   force =     0.00000000   -0.00000000   -0.22106133
     atom    4 type  1   force =    -0.00000000    0.00000000    0.22106133
     atom    5 type  2   force =     0.00000000    0.00000000    0.52671409
     atom    6 type  2   force =    -0.00000000   -0.00000000   -0.52671409
     The core correction contribution to forces
     atom    1 type  1   force =    -0.00000000    0.00000000    0.00101038
     atom    2 type  1   force =     0.00000000   -0.00000000   -0.00101038
     atom    3 type  1   force =    -0.00000000   -0.00000000    0.00478247
     atom    4 type  1   force =     0.00000000    0.00000000   -0.00478247
     atom    5 type  2   force =     0.00000000    0.00000000    0.00000000
     atom    6 type  2   force =     0.00000000    0.00000000    0.00000000
     The Hubbard contrib.    to forces
     atom    1 type  1   force =     0.00000000    0.00000000    0.00000000
     atom    2 type  1   force =     0.00000000    0.00000000    0.00000000
     atom    3 type  1   force =     0.00000000    0.00000000    0.00000000
     atom    4 type  1   force =     0.00000000    0.00000000    0.00000000
     atom    5 type  2   force =     0.00000000    0.00000000    0.00000000
     atom    6 type  2   force =     0.00000000    0.00000000    0.00000000
     The SCF correction term to forces
     atom    1 type  1   force =    -0.00000000   -0.00000000    0.00002822
     atom    2 type  1   force =     0.00000000    0.00000000   -0.00002822
     atom    3 type  1   force =    -0.00000000   -0.00000000   -0.00002965
     atom    4 type  1   force =     0.00000000    0.00000000    0.00002965
     atom    5 type  2   force =     0.00000000    0.00000000    0.00003788
     atom    6 type  2   force =    -0.00000000   -0.00000000   -0.00003788

     Total force =     0.028264     Total SCF correction =     0.000079


     Computing stress (Cartesian axis) and pressure

          total   stress  (Ry/bohr**3)                   (kbar)     P=      495.12
   0.00328349   0.00000000  -0.00000000          483.02        0.00       -0.00
  -0.00000000   0.00328349   0.00000000           -0.00      483.02        0.00
   0.00000000   0.00000000   0.00353027            0.00        0.00      519.32

     Energy error            =      8.7E-03 Ry
     Gradient error          =      1.9E-02 Ry/Bohr
     Cell gradient error     =      1.9E+01 kbar

     number of scf cycles    =   4
     number of bfgs steps    =   3

     enthalpy           old  =     -60.9159818445 Ry
     enthalpy           new  =     -60.9246892678 Ry

     CASE: enthalpy          _new < enthalpy          _old

     new trust radius        =       0.0396926972 bohr
ibrav =      5
 celldm(1) =     10.89021895
 celldm(4) =      0.80485648
Input lattice vectors:
     0.31533876    -0.18206092     0.94156657
     0.00000000     0.36412183     0.94156657
    -0.31533876    -0.18206092     0.94156657
New lattice vectors in INITIAL alat:
     0.31533876    -0.18206092     0.94156657
     0.00000000     0.36412183     0.94156657
    -0.31533876    -0.18206092     0.94156657
New lattice vectors in NEW alat (for information only):
     0.31236478    -0.18034389     0.93268662
     0.00000000     0.36068778     0.93268662
    -0.31236478    -0.18034389     0.93268662
Discrepancy in bohr =     0.000000    0.000000    0.000000
     new conv_thr            =       0.0000000019 Ry

     new unit-cell volume =    407.15552 a.u.^3 (    60.33422 Ang^3 )
     density =      3.47398 g/cm^3

CELL_PARAMETERS (alat= 10.78751286)
   0.315338756  -0.182060915   0.941566568
   0.000000000   0.364121831   0.941566568
  -0.315338756  -0.182060915   0.941566568

ATOMIC_POSITIONS (crystal)
Si            0.1331815063        0.1331815063        0.1331815063
Si            0.8668184937        0.8668184937        0.8668184937
Si            0.2979137880        0.2979137880        0.2979137880
Si            0.7020862120        0.7020862120        0.7020862120
Li            0.4330971237        0.4330971237        0.4330971237
Li            0.5669028763        0.5669028763        0.5669028763



     Writing config-only to output data dir ./output/SiLi.save/
     NEW-OLD atomic charge density approx. for the potential
     extrapolated charge   21.92353, renormalised to   22.00000

     total cpu time spent up to now is       31.7 secs

     Self-consistent Calculation

     iteration #  1     ecut=    80.00 Ry     beta= 0.70
     Davidson diagonalization with overlap
     ethr =  1.00E-06,  avg # of iterations =  7.4

     total cpu time spent up to now is       32.7 secs

     total energy              =     -62.30968120 Ry
     estimated scf accuracy    <       0.00013872 Ry

     iteration #  2     ecut=    80.00 Ry     beta= 0.70
     Davidson diagonalization with overlap
     ethr =  6.31E-07,  avg # of iterations =  2.1

     total cpu time spent up to now is       33.3 secs

     total energy              =     -62.30971858 Ry
     estimated scf accuracy    <       0.00001227 Ry

     iteration #  3     ecut=    80.00 Ry     beta= 0.70
     Davidson diagonalization with overlap
     ethr =  5.58E-08,  avg # of iterations =  2.4

     total cpu time spent up to now is       33.9 secs

     total energy              =     -62.30971919 Ry
     estimated scf accuracy    <       0.00000338 Ry

     iteration #  4     ecut=    80.00 Ry     beta= 0.70
     Davidson diagonalization with overlap
     ethr =  1.54E-08,  avg # of iterations =  2.4

     total cpu time spent up to now is       34.5 secs

     total energy              =     -62.30971999 Ry
     estimated scf accuracy    <       0.00000298 Ry

     iteration #  5     ecut=    80.00 Ry     beta= 0.70
     Davidson diagonalization with overlap
     ethr =  1.35E-08,  avg # of iterations =  2.2

     total cpu time spent up to now is       35.0 secs

     total energy              =     -62.30972055 Ry
     estimated scf accuracy    <       0.00000001 Ry

     iteration #  6     ecut=    80.00 Ry     beta= 0.70
     Davidson diagonalization with overlap
     ethr =  5.50E-11,  avg # of iterations =  4.6

     total cpu time spent up to now is       35.7 secs

     total energy              =     -62.30972055 Ry
     estimated scf accuracy    <       0.00000001 Ry

     iteration #  7     ecut=    80.00 Ry     beta= 0.70
     Davidson diagonalization with overlap
     ethr =  5.04E-11,  avg # of iterations =  2.1

     total cpu time spent up to now is       36.2 secs

     End of self-consistent calculation

          k = 0.0000 0.0000 0.0000 (  4865 PWs)   bands (ev):

   -34.0554 -33.9477  -2.4637   1.3030   2.9473   9.6507   9.6507  11.4148
    11.4148  11.5045  11.5045  12.6348  13.1029  13.1029  13.6504

          k =-0.3171-0.1831 0.0708 (  4866 PWs)   bands (ev):

   -34.0533 -33.9466  -1.9734   1.6416   3.5413   6.2676   8.3155   8.6789
     9.7188  11.0661  11.7434  13.6816  13.7720  15.5694  15.6991

          k =-0.6342-0.3662 0.1416 (  4874 PWs)   bands (ev):

   -34.0500 -33.9448  -0.5881   1.9615   3.5620   5.1139   5.8950   7.3716
     8.4662   8.5274  11.3334  11.9374  16.2556  16.5650  17.4832

          k =-0.3171 0.1831 0.1416 (  4885 PWs)   bands (ev):

   -34.0531 -33.9468  -1.9192   1.2813   3.9914   6.6007   7.8469   7.8995
    10.8423  10.9855  12.7016  13.4704  13.8386  14.3162  16.0188

          k =-0.6342-0.0000 0.2124 (  4875 PWs)   bands (ev):

   -34.0504 -33.9454  -0.9089   1.7814   4.0315   5.0792   6.2941   6.7104
     8.1048  10.6941  12.8605  13.4437  14.3560  14.6818  15.1763

          k = 0.6342 0.7324-0.0708 (  4868 PWs)   bands (ev):

   -34.0489 -33.9443   0.4200   1.5762   3.5203   4.8340   5.5436   6.2425
     6.6073   9.5486  13.2391  13.5875  13.8730  15.6100  16.7610

          k = 0.3171 0.5493 0.0000 (  4874 PWs)   bands (ev):

   -34.0507 -33.9451  -1.0679   2.8388   3.5615   4.5089   6.2144   6.9191
     7.1006  12.2505  12.9197  13.6677  13.7319  15.0527  15.3802

          k =-0.6342 0.3662 0.2832 (  4858 PWs)   bands (ev):

   -34.0495 -33.9453  -0.4391   1.9537   3.3690   3.7970   6.6834   7.2555
    10.1918  10.8302  11.1330  12.1043  12.6960  13.5851  15.2185

          k = 0.6342 1.0985 0.0000 (  4868 PWs)   bands (ev):

   -34.0486 -33.9446   0.5208   2.1884   2.7874   3.2782   5.5518   7.9638
     8.2651   9.6026  11.1085  12.8157  14.0244  14.8181  17.1357

          k = 0.0000 0.0000 0.2124 (  4904 PWs)   bands (ev):

   -34.0548 -33.9483  -2.2942   0.3471   4.2539   9.6387   9.6387  10.8575
    10.8575  11.6444  11.9198  11.9198  12.6965  13.9489  13.9489

          k =-0.3171-0.1831 0.2832 (  4879 PWs)   bands (ev):

   -34.0526 -33.9473  -1.6956   0.4268   5.3296   6.0621   8.3434   9.6194
     9.6515  10.6518  10.7733  12.1575  13.5198  14.6866  16.2087

          k = 0.9514 0.5493 0.0000 (  4871 PWs)   bands (ev):

   -34.0497 -33.9452  -0.2694   1.2414   3.0681   6.1453   6.9766   7.1056
     8.0899   8.9696  10.9337  11.4465  14.6900  14.9118  17.2248

          k = 0.6342 0.3662 0.0708 (  4865 PWs)   bands (ev):

   -34.0500 -33.9449  -0.6524   2.7451   3.3238   3.9734   5.8053   6.9526
     9.3759   9.8802  11.4402  12.5099  14.1339  15.1893  16.1100

          k =-0.3171 0.1831 0.3540 (  4868 PWs)   bands (ev):

   -34.0523 -33.9476  -1.5436   0.0712   5.9251   6.4767   7.7455   8.0707
    10.1271  11.5686  11.8467  12.7910  13.5170  14.3970  14.9484

          k = 0.9514 0.9154 0.0708 (  4869 PWs)   bands (ev):

   -34.0499 -33.9459  -0.4915   0.7324   3.9689   5.5328   6.8268   7.5975
     9.1860   9.6562  11.0145  12.6545  13.2315  14.5533  16.5097

          k = 0.6342 0.7324 0.1416 (  4860 PWs)   bands (ev):

   -34.0487 -33.9445   0.4735   1.9369   2.8661   3.9491   5.8160   6.9056
     7.3970  10.6676  11.5816  12.4361  13.6006  16.4808  16.6865

          k = 0.9514-0.5493-0.2124 (  4880 PWs)   bands (ev):

   -34.0493 -33.9455  -0.1057   1.0757   3.0352   4.9377   6.7407   8.5882
     9.5081   9.8398  10.2892  11.4543  12.7735  14.1036  15.9195

          k = 0.0000 0.0000 0.4248 (  4867 PWs)   bands (ev):

   -34.0538 -33.9493  -1.8200  -0.7669   6.4420   8.9735   9.6904   9.6904
    10.2987  10.2987  12.6523  12.6638  12.6638  14.7926  15.1583

          k = 1.2685 0.7324 0.1416 (  4880 PWs)   bands (ev):

   -34.0520 -33.9480  -1.2165  -0.4840   6.1012   7.4900   7.9184   8.4229
     9.1094  10.7008  11.5109  12.2277  13.4310  14.4955  15.1434

     the Fermi energy is    12.3394 ev

!    total energy              =     -62.30972055 Ry
     estimated scf accuracy    <          7.1E-11 Ry
     smearing contrib. (-TS)   =      -0.00028584 Ry
     internal energy E=F+TS    =     -62.30943471 Ry

     The total energy is F=E-TS. E is the sum of the following terms:
     one-electron contribution =       7.67576017 Ry
     hartree contribution      =       6.75833231 Ry
     xc contribution           =     -20.25934994 Ry
     ewald contribution        =     -56.48417725 Ry

     convergence has been achieved in   7 iterations

     Forces acting on atoms (cartesian axes, Ry/au):

     atom    1 type  1   force =    -0.00000000    0.00000000   -0.00356646
     atom    2 type  1   force =     0.00000000    0.00000000    0.00356646
     atom    3 type  1   force =    -0.00000000   -0.00000000   -0.00532513
     atom    4 type  1   force =    -0.00000000    0.00000000    0.00532513
     atom    5 type  2   force =    -0.00000000   -0.00000000    0.00491314
     atom    6 type  2   force =    -0.00000000   -0.00000000   -0.00491314
     The non-local contrib.  to forces
     atom    1 type  1   force =     0.00000000    0.00000000    0.02392517
     atom    2 type  1   force =     0.00000000    0.00000000   -0.02392517
     atom    3 type  1   force =    -0.00000000   -0.00000000   -0.04884761
     atom    4 type  1   force =    -0.00000000    0.00000000    0.04884761
     atom    5 type  2   force =    -0.00000000   -0.00000000    0.02011340
     atom    6 type  2   force =     0.00000000    0.00000000   -0.02011340
     The ionic contribution  to forces
     atom    1 type  1   force =     0.00000000    0.00000000   -0.66659504
     atom    2 type  1   force =    -0.00000000   -0.00000000    0.66659504
     atom    3 type  1   force =    -0.00000000    0.00000000    0.33268724
     atom    4 type  1   force =    -0.00000000   -0.00000000   -0.33268724
     atom    5 type  2   force =    -0.00000000   -0.00000000   -0.53167212
     atom    6 type  2   force =    -0.00000000    0.00000000    0.53167212
     The local contribution  to forces
     atom    1 type  1   force =    -0.00000000   -0.00000000    0.63829003
     atom    2 type  1   force =     0.00000000    0.00000000   -0.63829003
     atom    3 type  1   force =     0.00000000   -0.00000000   -0.29313551
     atom    4 type  1   force =    -0.00000000    0.00000000    0.29313551
     atom    5 type  2   force =    -0.00000000    0.00000000    0.51647942
     atom    6 type  2   force =    -0.00000000   -0.00000000   -0.51647942
     The core correction contribution to forces
     atom    1 type  1   force =     0.00000000    0.00000000    0.00081854
     atom    2 type  1   force =     0.00000000   -0.00000000   -0.00081854
     atom    3 type  1   force =     0.00000000   -0.00000000    0.00396519
     atom    4 type  1   force =     0.00000000    0.00000000   -0.00396519
     atom    5 type  2   force =     0.00000000    0.00000000    0.00000000
     atom    6 type  2   force =     0.00000000    0.00000000    0.00000000
     The Hubbard contrib.    to forces
     atom    1 type  1   force =     0.00000000    0.00000000    0.00000000
     atom    2 type  1   force =     0.00000000    0.00000000    0.00000000
     atom    3 type  1   force =     0.00000000    0.00000000    0.00000000
     atom    4 type  1   force =     0.00000000    0.00000000    0.00000000
     atom    5 type  2   force =     0.00000000    0.00000000    0.00000000
     atom    6 type  2   force =     0.00000000    0.00000000    0.00000000
     The SCF correction term to forces
     atom    1 type  1   force =    -0.00000000   -0.00000000   -0.00000516
     atom    2 type  1   force =     0.00000000    0.00000000    0.00000516
     atom    3 type  1   force =    -0.00000000   -0.00000000    0.00000556
     atom    4 type  1   force =     0.00000000    0.00000000   -0.00000556
     atom    5 type  2   force =    -0.00000000   -0.00000000   -0.00000756
     atom    6 type  2   force =     0.00000000    0.00000000    0.00000756

     Total force =     0.011421     Total SCF correction =     0.000015


     Computing stress (Cartesian axis) and pressure

          total   stress  (Ry/bohr**3)                   (kbar)     P=      500.48
   0.00340669   0.00000000  -0.00000000          501.14        0.00       -0.00
   0.00000000   0.00340669   0.00000000            0.00      501.14        0.00
   0.00000000   0.00000000   0.00339318            0.00        0.00      499.15

     Energy error            =      1.1E-03 Ry
     Gradient error          =      5.3E-03 Ry/Bohr
     Cell gradient error     =      1.1E+00 kbar

     number of scf cycles    =   5
     number of bfgs steps    =   4

     enthalpy           old  =     -60.9246892678 Ry
     enthalpy           new  =     -60.9258270532 Ry

     CASE: enthalpy          _new < enthalpy          _old

     new trust radius        =       0.0075072792 bohr
ibrav =      5
 celldm(1) =     10.89075526
 celldm(4) =      0.80490730
Input lattice vectors:
     0.31531322    -0.18204617     0.94163127
     0.00000000     0.36409235     0.94163127
    -0.31531322    -0.18204617     0.94163127
New lattice vectors in INITIAL alat:
     0.31531322    -0.18204617     0.94163127
     0.00000000     0.36409235     0.94163127
    -0.31531322    -0.18204617     0.94163127
New lattice vectors in NEW alat (for information only):
     0.31232411    -0.18032041     0.93270478
     0.00000000     0.36064082     0.93270478
    -0.31232411    -0.18032041     0.93270478
Discrepancy in bohr =     0.000000    0.000000    0.000000
     new conv_thr            =       0.0000000005 Ry

     new unit-cell volume =    407.11757 a.u.^3 (    60.32860 Ang^3 )
     density =      3.47430 g/cm^3

CELL_PARAMETERS (alat= 10.78751286)
   0.315313223  -0.182046174   0.941631271
   0.000000000   0.364092348   0.941631271
  -0.315313223  -0.182046174   0.941631271

ATOMIC_POSITIONS (crystal)
Si            0.1330430430        0.1330430430        0.1330430430
Si            0.8669569570        0.8669569570        0.8669569570
Si            0.2976674174        0.2976674174        0.2976674174
Si            0.7023325826        0.7023325826        0.7023325826
Li            0.4332979906        0.4332979906        0.4332979906
Li            0.5667020094        0.5667020094        0.5667020094



     Writing config-only to output data dir ./output/SiLi.save/
     NEW-OLD atomic charge density approx. for the potential
     extrapolated charge   21.99795, renormalised to   22.00000

     total cpu time spent up to now is       37.8 secs

     Self-consistent Calculation

     iteration #  1     ecut=    80.00 Ry     beta= 0.70
     Davidson diagonalization with overlap
     ethr =  1.00E-06,  avg # of iterations =  3.2

     total cpu time spent up to now is       38.5 secs

     total energy              =     -62.30970993 Ry
     estimated scf accuracy    <       0.00002209 Ry

     iteration #  2     ecut=    80.00 Ry     beta= 0.70
     Davidson diagonalization with overlap
     ethr =  1.00E-07,  avg # of iterations =  3.4

     total cpu time spent up to now is       39.1 secs

     total energy              =     -62.30971234 Ry
     estimated scf accuracy    <       0.00004941 Ry

     iteration #  3     ecut=    80.00 Ry     beta= 0.70
     Davidson diagonalization with overlap
     ethr =  1.00E-07,  avg # of iterations =  2.2

     total cpu time spent up to now is       39.6 secs

     total energy              =     -62.30972186 Ry
     estimated scf accuracy    <       0.00000016 Ry

     iteration #  4     ecut=    80.00 Ry     beta= 0.70
     Davidson diagonalization with overlap
     ethr =  7.30E-10,  avg # of iterations =  4.5

     total cpu time spent up to now is       40.3 secs

     total energy              =     -62.30972195 Ry
     estimated scf accuracy    <       0.00000007 Ry

     iteration #  5     ecut=    80.00 Ry     beta= 0.70
     Davidson diagonalization with overlap
     ethr =  3.00E-10,  avg # of iterations =  2.2

     total cpu time spent up to now is       40.8 secs

     End of self-consistent calculation

          k = 0.0000 0.0000 0.0000 (  4865 PWs)   bands (ev):

   -34.0551 -33.9450  -2.4642   1.3190   2.9324   9.6523   9.6523  11.4086
    11.4086  11.5259  11.5259  12.6310  13.0929  13.0929  13.6432

          k =-0.3171-0.1831 0.0708 (  4866 PWs)   bands (ev):

   -34.0530 -33.9438  -1.9742   1.6542   3.5307   6.2663   8.3123   8.6880
     9.7303  11.0703  11.7405  13.6820  13.7699  15.5700  15.6993

          k =-0.6343-0.3662 0.1416 (  4874 PWs)   bands (ev):

   -34.0497 -33.9420  -0.5908   1.9663   3.5661   5.1131   5.8987   7.3658
     8.4778   8.5261  11.3367  11.9439  16.2561  16.5580  17.4921

          k =-0.3171 0.1831 0.1416 (  4885 PWs)   bands (ev):

   -34.0528 -33.9440  -1.9200   1.2903   3.9847   6.5966   7.8569   7.8993
    10.8535  10.9873  12.7073  13.4667  13.8353  14.3109  16.0285

          k =-0.6343 0.0000 0.2124 (  4875 PWs)   bands (ev):

   -34.0501 -33.9426  -0.9108   1.7877   4.0283   5.0810   6.2966   6.7123
     8.1131  10.6942  12.8674  13.4397  14.3549  14.6807  15.1795

          k = 0.6343 0.7324-0.0708 (  4868 PWs)   bands (ev):

   -34.0486 -33.9416   0.4152   1.5778   3.5232   4.8467   5.5436   6.2447
     6.6074   9.5505  13.2358  13.5975  13.8707  15.6133  16.7556

          k = 0.3171 0.5493 0.0000 (  4874 PWs)   bands (ev):

   -34.0504 -33.9423  -1.0695   2.8550   3.5545   4.4998   6.2173   6.9326
     7.0989  12.2627  12.9108  13.6599  13.7386  15.0570  15.3926

          k =-0.6343 0.3662 0.2832 (  4858 PWs)   bands (ev):

   -34.0492 -33.9425  -0.4420   1.9588   3.3667   3.8046   6.6830   7.2557
    10.1954  10.8419  11.1346  12.0998  12.7011  13.5808  15.2318

          k = 0.6343 1.0986 0.0000 (  4868 PWs)   bands (ev):

   -34.0483 -33.9419   0.5164   2.1838   2.7916   3.2892   5.5552   7.9783
     8.2559   9.6122  11.0989  12.8203  14.0212  14.8150  17.1539

          k = 0.0000 0.0000 0.2124 (  4904 PWs)   bands (ev):

   -34.0545 -33.9456  -2.2947   0.3541   4.2483   9.6397   9.6397  10.8665
    10.8665  11.6448  11.9205  11.9205  12.6926  13.9441  13.9441

          k =-0.3171-0.1831 0.2832 (  4879 PWs)   bands (ev):

   -34.0523 -33.9445  -1.6968   0.4326   5.3268   6.0613   8.3399   9.6393
     9.6631  10.6411  10.7742  12.1556  13.5188  14.6897  16.2083

          k = 0.9514 0.5493 0.0000 (  4871 PWs)   bands (ev):

   -34.0493 -33.9424  -0.2736   1.2477   3.0686   6.1569   6.9769   7.1031
     8.0836   8.9779  10.9376  11.4490  14.6915  14.9143  17.2300

          k = 0.6343 0.3662 0.0708 (  4865 PWs)   bands (ev):

   -34.0496 -33.9421  -0.6548   2.7500   3.3288   3.9750   5.8022   6.9511
     9.3836   9.8852  11.4419  12.5153  14.1340  15.1879  16.1148

          k =-0.3171 0.1831 0.3540 (  4868 PWs)   bands (ev):

   -34.0520 -33.9449  -1.5451   0.0765   5.9251   6.4722   7.7459   8.0800
    10.1297  11.5660  11.8711  12.7743  13.5197  14.3897  14.9555

          k = 0.9514 0.9155 0.0708 (  4869 PWs)   bands (ev):

   -34.0496 -33.9431  -0.4951   0.7386   3.9646   5.5424   6.8280   7.6001
     9.1927   9.6564  11.0199  12.6445  13.2283  14.5552  16.5168

          k = 0.6343 0.7324 0.1416 (  4860 PWs)   bands (ev):

   -34.0484 -33.9418   0.4691   1.9361   2.8695   3.9581   5.8209   6.9041
     7.4017  10.6775  11.5767  12.4328  13.5978  16.4854  16.6975

          k = 0.9514-0.5493-0.2124 (  4880 PWs)   bands (ev):

   -34.0490 -33.9427  -0.1109   1.0826   3.0351   4.9442   6.7401   8.5973
     9.4995   9.8413  10.2972  11.4554  12.7733  14.1120  15.9223

          k = 0.0000 0.0000 0.4248 (  4867 PWs)   bands (ev):

   -34.0535 -33.9465  -1.8216  -0.7614   6.4399   8.9729   9.6891   9.6891
    10.3093  10.3093  12.6471  12.6603  12.6603  14.8059  15.1636

          k = 1.2686 0.7324 0.1416 (  4880 PWs)   bands (ev):

   -34.0517 -33.9452  -1.2202  -0.4771   6.1006   7.4909   7.9182   8.4205
     9.1222  10.7109  11.5041  12.2278  13.4296  14.5045  15.1382

     the Fermi energy is    12.3397 ev

!    total energy              =     -62.30972196 Ry
     estimated scf accuracy    <          2.0E-10 Ry
     smearing contrib. (-TS)   =      -0.00027798 Ry
     internal energy E=F+TS    =     -62.30944398 Ry

     The total energy is F=E-TS. E is the sum of the following terms:
     one-electron contribution =       7.66275709 Ry
     hartree contribution      =       6.76622715 Ry
     xc contribution           =     -20.25878327 Ry
     ewald contribution        =     -56.47964494 Ry

     convergence has been achieved in   5 iterations

     Forces acting on atoms (cartesian axes, Ry/au):

     atom    1 type  1   force =    -0.00000000    0.00000000   -0.00358830
     atom    2 type  1   force =    -0.00000000   -0.00000000    0.00358830
     atom    3 type  1   force =     0.00000000   -0.00000000   -0.00212479
     atom    4 type  1   force =    -0.00000000   -0.00000000    0.00212479
     atom    5 type  2   force =     0.00000000    0.00000000    0.00255474
     atom    6 type  2   force =    -0.00000000   -0.00000000   -0.00255474
     The non-local contrib.  to forces
     atom    1 type  1   force =    -0.00000000    0.00000000    0.02440114
     atom    2 type  1   force =    -0.00000000   -0.00000000   -0.02440114
     atom    3 type  1   force =    -0.00000000   -0.00000000   -0.04612545
     atom    4 type  1   force =     0.00000000    0.00000000    0.04612545
     atom    5 type  2   force =    -0.00000000    0.00000000    0.02004458
     atom    6 type  2   force =     0.00000000   -0.00000000   -0.02004458
     The ionic contribution  to forces
     atom    1 type  1   force =     0.00000000    0.00000000   -0.67320437
     atom    2 type  1   force =    -0.00000000   -0.00000000    0.67320437
     atom    3 type  1   force =     0.00000000    0.00000000    0.35613972
     atom    4 type  1   force =    -0.00000000   -0.00000000   -0.35613972
     atom    5 type  2   force =     0.00000000   -0.00000000   -0.54970916
     atom    6 type  2   force =    -0.00000000    0.00000000    0.54970916
     The local contribution  to forces
     atom    1 type  1   force =    -0.00000000   -0.00000000    0.64444806
     atom    2 type  1   force =    -0.00000000    0.00000000   -0.64444806
     atom    3 type  1   force =     0.00000000   -0.00000000   -0.31588576
     atom    4 type  1   force =    -0.00000000    0.00000000    0.31588576
     atom    5 type  2   force =    -0.00000000    0.00000000    0.53222117
     atom    6 type  2   force =    -0.00000000   -0.00000000   -0.53222117
     The core correction contribution to forces
     atom    1 type  1   force =     0.00000000    0.00000000    0.00076891
     atom    2 type  1   force =    -0.00000000   -0.00000000   -0.00076891
     atom    3 type  1   force =    -0.00000000   -0.00000000    0.00374461
     atom    4 type  1   force =     0.00000000    0.00000000   -0.00374461
     atom    5 type  2   force =     0.00000000    0.00000000    0.00000000
     atom    6 type  2   force =     0.00000000    0.00000000    0.00000000
     The Hubbard contrib.    to forces
     atom    1 type  1   force =     0.00000000    0.00000000    0.00000000
     atom    2 type  1   force =     0.00000000    0.00000000    0.00000000
     atom    3 type  1   force =     0.00000000    0.00000000    0.00000000
     atom    4 type  1   force =     0.00000000    0.00000000    0.00000000
     atom    5 type  2   force =     0.00000000    0.00000000    0.00000000
[...]
End final coordinates



     Writing config-only to output data dir ./output/SiLi.save/

     Final scf calculation at the relaxed structure.
     The G-vectors are recalculated for the final unit cell
     Results may differ from those at the preceding step.

     Parallelization info
     --------------------
     sticks:   dense  smooth     PW     G-vecs:    dense   smooth      PW
     Min         223     223     66                 4919     4919     810
     Max         224     224     67                 4920     4920     811
     Sum        1789    1789    535                39357    39357    6481

     Using Slab Decomposition



     bravais-lattice index     =            5
     lattice parameter (alat)  =      10.7875  a.u.
     unit-cell volume          =     406.1993 (a.u.)^3
     number of atoms/cell      =            6
     number of atomic types    =            2
     number of electrons       =        22.00
     number of Kohn-Sham states=           15
     kinetic-energy cutoff     =      80.0000  Ry
     charge density cutoff     =     320.0000  Ry
     scf convergence threshold =      1.0E-10
     mixing beta               =       0.7000
     number of iterations used =            8  plain     mixing
     press convergence thresh. =      1.0E+00
     Exchange-correlation= PBE
                           (   1   4   3   4   0   0   0)

     celldm(1)=  10.787513  celldm(2)=   0.000000  celldm(3)=   0.000000
     celldm(4)=   0.800967  celldm(5)=   0.000000  celldm(6)=   0.000000

     crystal axes: (cart. coord. in units of alat)
               a(1) = (   0.315654  -0.182243   0.937480 )  
               a(2) = (   0.000000   0.364486   0.937480 )  
               a(3) = (  -0.315654  -0.182243   0.937480 )  

     reciprocal axes: (cart. coord. in units 2 pi/alat)
               b(1) = (  1.584013 -0.914530  0.355563 )  
               b(2) = (  0.000000  1.829061  0.355563 )  
               b(3) = ( -1.584013 -0.914530  0.355563 )  


     PseudoPot. # 1 for Si read from file:
     ../pseudo/Si_ONCV_PBE_sr.upf
     MD5 check sum: e543d271109d17c80368dfa7c482276d
     Pseudo is Norm-conserving + core correction, Zval =  4.0
     Generated using ONCVPSP code by D. R. Hamann
     Using radial grid of 1510 points,  6 beta functions with: 
                l(1) =   0
                l(2) =   0
                l(3) =   1
                l(4) =   1
                l(5) =   2
                l(6) =   2

     PseudoPot. # 2 for Li read from file:
     ../pseudo/Li_ONCV_PBE_sr.upf
     MD5 check sum: 50ff420e78310ffa21704f3361e624a4
     Pseudo is Norm-conserving, Zval =  3.0
     Generated using ONCVPSP code by D. R. Hamann
     Using radial grid of 1944 points,  4 beta functions with: 
                l(1) =   0
                l(2) =   0
                l(3) =   1
                l(4) =   1

     atomic species   valence    mass     pseudopotential
        Si             4.00    28.08550     Si( 1.00)
        Li             3.00     6.94100     Li( 1.00)

     12 Sym. Ops., with inversion, found



   Cartesian axes

     site n.     atom                  positions (alat units)
         1           Si  tau(   1) = (   0.0000000  -0.0000000   0.3709758  )
         2           Si  tau(   2) = (   0.0000000  -0.0000000   2.4414651  )
         3           Si  tau(   3) = (  -0.0000000  -0.0000000   0.8358569  )
         4           Si  tau(   4) = (  -0.0000000  -0.0000000   1.9765840  )
         5           Li  tau(   5) = (   0.0000000  -0.0000000   1.2198444  )
         6           Li  tau(   6) = (   0.0000000  -0.0000000   1.5925964  )

     number of k points=    19  Marzari-Vanderbilt smearing, width (Ry)=  0.0200
                       cart. coord. in units 2pi/alat
        k(    1) = (   0.0000000   0.0000000   0.0000000), wk =   0.0160000
        k(    2) = (  -0.3168026  -0.1829061   0.0711126), wk =   0.0960000
        k(    3) = (  -0.6336053  -0.3658122   0.1422252), wk =   0.0960000
        k(    4) = (  -0.3168026   0.1829061   0.1422252), wk =   0.0960000
        k(    5) = (  -0.6336053   0.0000000   0.2133378), wk =   0.1920000
        k(    6) = (   0.6336053   0.7316244  -0.0711126), wk =   0.1920000
        k(    7) = (   0.3168026   0.5487183   0.0000000), wk =   0.0960000
        k(    8) = (  -0.6336053   0.3658122   0.2844504), wk =   0.0960000
        k(    9) = (   0.6336053   1.0974366   0.0000000), wk =   0.0960000
        k(   10) = (  -0.0000000   0.0000000   0.2133378), wk =   0.0320000
        k(   11) = (  -0.3168026  -0.1829061   0.2844504), wk =   0.0960000
        k(   12) = (   0.9504079   0.5487183   0.0000000), wk =   0.0960000
        k(   13) = (   0.6336053   0.3658122   0.0711126), wk =   0.0960000
        k(   14) = (  -0.3168026   0.1829061   0.3555630), wk =   0.0960000
        k(   15) = (   0.9504079   0.9145305   0.0711126), wk =   0.1920000
        k(   16) = (   0.6336053   0.7316244   0.1422252), wk =   0.1920000
        k(   17) = (   0.9504079  -0.5487183  -0.2133378), wk =   0.0960000
        k(   18) = (  -0.0000000   0.0000000   0.4266756), wk =   0.0320000
        k(   19) = (   1.2672106   0.7316244   0.1422252), wk =   0.0960000

     Dense  grid:    39357 G-vectors     FFT dimensions: (  64,  64,  64)

     Estimated max dynamical RAM per process >      20.26 MB

     Estimated total dynamical RAM >     162.09 MB

     Initial potential from superposition of free atoms

     starting charge      21.9884, renormalised to      22.0000
     Starting wfcs are   20 randomized atomic wfcs

     total cpu time spent up to now is       70.0 secs

     Self-consistent Calculation

     iteration #  1     ecut=    80.00 Ry     beta= 0.70
     Davidson diagonalization with overlap
     c_bands:  1 eigenvalues not converged
     c_bands:  2 eigenvalues not converged
     c_bands:  2 eigenvalues not converged
     c_bands:  1 eigenvalues not converged
     c_bands:  1 eigenvalues not converged
     c_bands:  1 eigenvalues not converged
     c_bands:  1 eigenvalues not converged
     c_bands:  1 eigenvalues not converged
     c_bands:  1 eigenvalues not converged
     c_bands:  1 eigenvalues not converged
     c_bands:  1 eigenvalues not converged
     c_bands:  2 eigenvalues not converged
     c_bands:  1 eigenvalues not converged
     ethr =  1.00E-06,  avg # of iterations = 19.2

     total cpu time spent up to now is       72.1 secs

     total energy              =     -62.27925932 Ry
     estimated scf accuracy    <       0.09343317 Ry

     iteration #  2     ecut=    80.00 Ry     beta= 0.70
     Davidson diagonalization with overlap
     ethr =  4.25E-04,  avg # of iterations =  2.8

     total cpu time spent up to now is       72.6 secs

     total energy              =     -62.27729953 Ry
     estimated scf accuracy    <       0.11885585 Ry

     iteration #  3     ecut=    80.00 Ry     beta= 0.70
     Davidson diagonalization with overlap
     ethr =  4.25E-04,  avg # of iterations =  2.1

     total cpu time spent up to now is       73.2 secs

     total energy              =     -62.30575451 Ry
     estimated scf accuracy    <       0.00703812 Ry

     iteration #  4     ecut=    80.00 Ry     beta= 0.70
     Davidson diagonalization with overlap
     ethr =  3.20E-05,  avg # of iterations =  2.7

     total cpu time spent up to now is       73.6 secs

     total energy              =     -62.30674676 Ry
     estimated scf accuracy    <       0.00016492 Ry

     iteration #  5     ecut=    80.00 Ry     beta= 0.70
     Davidson diagonalization with overlap
     c_bands:  1 eigenvalues not converged
     ethr =  7.50E-07,  avg # of iterations =  5.2

     total cpu time spent up to now is       74.3 secs

     total energy              =     -62.30681867 Ry
     estimated scf accuracy    <       0.00001437 Ry

     iteration #  6     ecut=    80.00 Ry     beta= 0.70
     Davidson diagonalization with overlap
     ethr =  6.53E-08,  avg # of iterations =  2.6

     total cpu time spent up to now is       74.9 secs

     total energy              =     -62.30682235 Ry
     estimated scf accuracy    <       0.00000012 Ry

     iteration #  7     ecut=    80.00 Ry     beta= 0.70
     Davidson diagonalization with overlap
     ethr =  5.54E-10,  avg # of iterations =  4.5

     total cpu time spent up to now is       75.5 secs

     total energy              =     -62.30682242 Ry
     estimated scf accuracy    <       0.00000005 Ry

     iteration #  8     ecut=    80.00 Ry     beta= 0.70
     Davidson diagonalization with overlap
     ethr =  2.17E-10,  avg # of iterations =  2.5

     total cpu time spent up to now is       76.1 secs

     total energy              =     -62.30682244 Ry
     estimated scf accuracy    <       0.00000002 Ry

     iteration #  9     ecut=    80.00 Ry     beta= 0.70
     Davidson diagonalization with overlap
     ethr =  7.14E-11,  avg # of iterations =  2.2

     total cpu time spent up to now is       76.6 secs

     total energy              =     -62.30682244 Ry
     estimated scf accuracy    <          1.0E-10 Ry

     iteration # 10     ecut=    80.00 Ry     beta= 0.70
     Davidson diagonalization with overlap
     ethr =  4.58E-13,  avg # of iterations =  4.6

     total cpu time spent up to now is       77.3 secs

     End of self-consistent calculation

          k = 0.0000 0.0000 0.0000 (  4931 PWs)   bands (ev):

   -34.0277 -33.9084  -2.4374   1.4251   2.9329   9.6821   9.6821  11.3981
    11.3981  11.5692  11.5692  12.6201  13.0452  13.0452  13.6998

          k =-0.3168-0.1829 0.0711 (  4914 PWs)   bands (ev):

   -34.0257 -33.9073  -1.9484   1.7405   3.5492   6.2842   8.3386   8.7076
     9.7325  11.0710  11.7761  13.7529  13.7587  15.5986  15.7333

          k =-0.6336-0.3658 0.1422 (  4911 PWs)   bands (ev):

   -34.0224 -33.9055  -0.5674   1.9961   3.6234   5.1482   5.9325   7.3989
     8.4684   8.5589  11.3845  11.9712  16.2982  16.6289  17.4977

          k =-0.3168 0.1829 0.1422 (  4917 PWs)   bands (ev):

   -34.0255 -33.9075  -1.8931   1.3584   4.0212   6.6299   7.8532   7.9115
    10.8845  10.9922  12.7584  13.5534  13.8293  14.3355  16.0886

          k =-0.6336 0.0000 0.2133 (  4911 PWs)   bands (ev):

   -34.0228 -33.9061  -0.8841   1.8330   4.0544   5.1148   6.3278   6.7252
     8.1680  10.7359  12.9101  13.4605  14.4003  14.7148  15.2285

          k = 0.6336 0.7316-0.0711 (  4899 PWs)   bands (ev):

   -34.0213 -33.9051   0.4381   1.6007   3.5554   4.8901   5.5431   6.3100
     6.6563   9.6001  13.2811  13.6252  13.9145  15.6969  16.7867

          k = 0.3168 0.5487 0.0000 (  4922 PWs)   bands (ev):

   -34.0231 -33.9058  -1.0465   2.9484   3.5716   4.5093   6.2173   6.9645
     7.1353  12.3519  12.9139  13.6553  13.7749  15.0933  15.4577

          k =-0.6336 0.3658 0.2845 (  4907 PWs)   bands (ev):

   -34.0219 -33.9060  -0.4127   1.9874   3.4074   3.8275   6.6918   7.3065
    10.2136  10.8922  11.2079  12.1143  12.8039  13.6280  15.3303

          k = 0.6336 1.0974 0.0000 (  4904 PWs)   bands (ev):

   -34.0210 -33.9054   0.5473   2.2163   2.7850   3.3261   5.5909   8.0791
     8.2682   9.6953  11.1197  12.8553  14.0819  14.8886  17.2133

          k =-0.0000 0.0000 0.2133 (  4919 PWs)   bands (ev):

   -34.0271 -33.9090  -2.2644   0.4127   4.2978   9.6649   9.6649  10.8897
    10.8897  11.7522  11.9062  11.9062  12.6791  13.9324  13.9324

          k =-0.3168-0.1829 0.2845 (  4913 PWs)   bands (ev):

   -34.0250 -33.9080  -1.6646   0.4764   5.3912   6.0707   8.3671   9.6644
     9.7077  10.6199  10.8570  12.1902  13.5058  14.7046  16.2213

          k = 0.9504 0.5487 0.0000 (  4916 PWs)   bands (ev):

   -34.0220 -33.9059  -0.2411   1.2689   3.0944   6.2314   7.0217   7.1229
     8.1102   8.9849  10.9934  11.4867  14.7405  14.9723  17.3045

          k = 0.6336 0.3658 0.0711 (  4913 PWs)   bands (ev):

   -34.0223 -33.9056  -0.6319   2.7865   3.3796   4.0184   5.8108   6.9662
     9.3989   9.9186  11.5000  12.5741  14.1807  15.2438  16.2390

          k =-0.3168 0.1829 0.3556 (  4892 PWs)   bands (ev):

   -34.0247 -33.9083  -1.5081   0.1108   5.9912   6.5001   7.7545   8.0915
    10.2113  11.5869  11.9656  12.7288  13.5755  14.3984  15.0026

          k = 0.9504 0.9145 0.0711 (  4902 PWs)   bands (ev):

   -34.0223 -33.9066  -0.4539   0.7573   3.9783   5.5650   6.8728   7.6614
     9.2574   9.7026  11.1000  12.6511  13.2231  14.5658  16.5318

          k = 0.6336 0.7316 0.1422 (  4893 PWs)   bands (ev):

   -34.0211 -33.9052   0.4961   1.9668   2.8738   3.9946   5.8700   6.9238
     7.4681  10.7654  11.6313  12.4600  13.6129  16.5260  16.7771

          k = 0.9504-0.5487-0.2133 (  4909 PWs)   bands (ev):

   -34.0217 -33.9062  -0.0684   1.0930   3.0582   4.9889   6.7501   8.6734
     9.5252   9.9211  10.3296  11.4983  12.8071  14.1560  15.9976

          k =-0.0000 0.0000 0.4267 (  4930 PWs)   bands (ev):

   -34.0262 -33.9100  -1.7754  -0.7346   6.5208   9.0755   9.7123   9.7123
    10.3188  10.3188  12.6250  12.6561  12.6561  14.8240  15.1604

          k = 1.2672 0.7316 0.1422 (  4916 PWs)   bands (ev):

   -34.0244 -33.9086  -1.1642  -0.4661   6.1146   7.5785   7.9304   8.5000
     9.1672  10.7401  11.4964  12.2723  13.4217  14.5150  15.1660

     the Fermi energy is    12.3811 ev

!    total energy              =     -62.30682244 Ry
     estimated scf accuracy    <          6.7E-12 Ry
     smearing contrib. (-TS)   =      -0.00034445 Ry
     internal energy E=F+TS    =     -62.30647799 Ry

     The total energy is F=E-TS. E is the sum of the following terms:
     one-electron contribution =       7.75228728 Ry
     hartree contribution      =       6.75200558 Ry
     xc contribution           =     -20.26158381 Ry
     ewald contribution        =     -56.54918705 Ry

     convergence has been achieved in  10 iterations

     Forces acting on atoms (cartesian axes, Ry/au):

     atom    1 type  1   force =    -0.00000000   -0.00000000   -0.00008472
     atom    2 type  1   force =     0.00000000    0.00000000    0.00008472
     atom    3 type  1   force =    -0.00000000   -0.00000000    0.00012999
     atom    4 type  1   force =    -0.00000000    0.00000000   -0.00012999
     atom    5 type  2   force =     0.00000000   -0.00000000    0.00004681
     atom    6 type  2   force =    -0.00000000    0.00000000   -0.00004681
     The non-local contrib.  to forces
     atom    1 type  1   force =     0.00000000   -0.00000000    0.02971434
     atom    2 type  1   force =     0.00000000    0.00000000   -0.02971434
     atom    3 type  1   force =    -0.00000000    0.00000000   -0.04242073
     atom    4 type  1   force =     0.00000000   -0.00000000    0.04242073
     atom    5 type  2   force =    -0.00000000   -0.00000000    0.02018605
     atom    6 type  2   force =    -0.00000000    0.00000000   -0.02018605
     The ionic contribution  to forces
     atom    1 type  1   force =     0.00000000    0.00000000   -0.66116444
     atom    2 type  1   force =     0.00000000   -0.00000000    0.66116444
     atom    3 type  1   force =     0.00000000    0.00000000    0.37640253
     atom    4 type  1   force =     0.00000000   -0.00000000   -0.37640253
     atom    5 type  2   force =     0.00000000   -0.00000000   -0.55085709
     atom    6 type  2   force =     0.00000000    0.00000000    0.55085709
     The local contribution  to forces
     atom    1 type  1   force =     0.00000000   -0.00000000    0.63109164
     atom    2 type  1   force =    -0.00000000    0.00000000   -0.63109164
     atom    3 type  1   force =    -0.00000000   -0.00000000   -0.33721510
     atom    4 type  1   force =    -0.00000000    0.00000000    0.33721510
     atom    5 type  2   force =    -0.00000000    0.00000000    0.53072005
     atom    6 type  2   force =    -0.00000000   -0.00000000   -0.53072005
     The core correction contribution to forces
     atom    1 type  1   force =    -0.00000000    0.00000000    0.00027534
     atom    2 type  1   force =    -0.00000000   -0.00000000   -0.00027534
     atom    3 type  1   force =    -0.00000000   -0.00000000    0.00336156
     atom    4 type  1   force =    -0.00000000    0.00000000   -0.00336156
     atom    5 type  2   force =     0.00000000    0.00000000    0.00000000
     atom    6 type  2   force =     0.00000000    0.00000000    0.00000000
     The Hubbard contrib.    to forces
     atom    1 type  1   force =     0.00000000    0.00000000    0.00000000
     atom    2 type  1   force =     0.00000000    0.00000000    0.00000000
     atom    3 type  1   force =     0.00000000    0.00000000    0.00000000
     atom    4 type  1   force =     0.00000000    0.00000000    0.00000000
     atom    5 type  2   force =     0.00000000    0.00000000    0.00000000
     atom    6 type  2   force =     0.00000000    0.00000000    0.00000000
     The SCF correction term to forces
     atom    1 type  1   force =     0.00000000    0.00000000   -0.00000159
     atom    2 type  1   force =    -0.00000000   -0.00000000    0.00000159
     atom    3 type  1   force =     0.00000000    0.00000000    0.00000173
     atom    4 type  1   force =     0.00000000   -0.00000000   -0.00000173
     atom    5 type  2   force =    -0.00000000    0.00000000   -0.00000220
     atom    6 type  2   force =     0.00000000   -0.00000000    0.00000220

     Total force =     0.000229     Total SCF correction =     0.000005


     Computing stress (Cartesian axis) and pressure

          total   stress  (Ry/bohr**3)                   (kbar)     P=      500.00
   0.00339660   0.00000000   0.00000000          499.66        0.00        0.00
   0.00000000   0.00339660   0.00000000            0.00      499.66        0.00
  -0.00000000   0.00000000   0.00340354           -0.00        0.00      500.68


     Writing all to output data dir ./output/SiLi.save/

     init_run     :      1.42s CPU      2.22s WALL (       2 calls)
     electrons    :     50.01s CPU     57.68s WALL (      12 calls)
     update_pot   :      3.93s CPU      4.01s WALL (      10 calls)
     forces       :      2.89s CPU      2.97s WALL (      12 calls)
     stress       :     10.34s CPU     11.00s WALL (      12 calls)

     Called by init_run:
     wfcinit      :      0.56s CPU      0.82s WALL (       2 calls)
     potinit      :      0.41s CPU      0.70s WALL (       2 calls)
     hinit0       :      0.40s CPU      0.54s WALL (       2 calls)

     Called by electrons:
     c_bands      :     42.74s CPU     48.82s WALL (      86 calls)
     sum_band     :      5.73s CPU      6.75s WALL (      86 calls)
     v_of_rho     :      1.67s CPU      2.42s WALL (      95 calls)
     mix_rho      :      0.07s CPU      0.09s WALL (      86 calls)

     Called by c_bands:
     init_us_2    :      0.71s CPU      0.84s WALL (    3762 calls)
     init_us_2:cp :      0.71s CPU      0.84s WALL (    3762 calls)
     cegterg      :     40.54s CPU     45.89s WALL (    1634 calls)

     Called by *egterg:
     cdiaghg      :      1.83s CPU      1.97s WALL (    7432 calls)
     h_psi        :     36.49s CPU     41.81s WALL (    7717 calls)
     g_psi        :      0.11s CPU      0.11s WALL (    6045 calls)

     Called by h_psi:
     h_psi:calbec :      1.91s CPU      2.13s WALL (    7717 calls)
     vloc_psi     :     32.95s CPU     37.94s WALL (    7717 calls)
     add_vuspsi   :      1.55s CPU      1.66s WALL (    7717 calls)

     General routines
     calbec       :      2.30s CPU      2.53s WALL (    8857 calls)
     fft          :      0.98s CPU      1.98s WALL (    1251 calls)
     ffts         :      0.06s CPU      0.14s WALL (      86 calls)
     fftw         :     32.92s CPU     37.93s WALL (  175626 calls)

     Parallel routines

     PWSCF        :   1m 8.90s CPU   1m18.54s WALL


   This run was terminated on:  22:10:25  10Jan2025            

=------------------------------------------------------------------------------=
   JOB DONE.
=------------------------------------------------------------------------------=
