
     Program PWSCF v.7.2 starts on 10Jan2025 at 22: 9:19 

     This program is part of the open-source Quantum ESPRESSO suite
     for quantum simulation of materials; please cite
         "P. Giannozzi et al., J. Phys.:Condens. Matter 21 395502 (2009);
         "P. Giannozzi et al., J. Phys.:Condens. Matter 29 465901 (2017);
         "P. Giannozzi et al., J. Chem. Phys. 152 154105 (2020);
          URL http://www.quantum-espresso.org", 
     in publications or presentations arising from this work. More details at
     http://www.quantum-espresso.org/quote

     Parallel version (MPI & OpenMP), running on       8 processor cores
     Number of MPI processes:                 8
     Threads/MPI process:                     1

     MPI processes distributed on     1 nodes
     481384 MiB available memory on the printing compute node when the environment starts

     Waiting for input...
     Reading input from standard input

     Current dimensions of program PWSCF are:
     Max number of different atomic species (ntypx) = 10
     Max number of k-points (npk) =  40000
     Max angular momentum in pseudopotentials (lmaxx) =  4

     R & G space division:  proc/nbgrp/npool/nimage =       8
     Subspace diagonalization in iterative solution of the eigenvalue problem:
     a serial algorithm will be used


     Parallelization info
     --------------------
     sticks:   dense  smooth     PW     G-vecs:    dense   smooth      PW
     Min         153     153     49                 3330     3330     612
     Max         154     154     50                 3331     3331     615
     Sum        1227    1227    395                26643    26643    4905

     Using Slab Decomposition



     bravais-lattice index     =            7
     lattice parameter (alat)  =       7.4294  a.u.
     unit-cell volume          =     197.0684 (a.u.)^3
     number of atoms/cell      =            3
     number of atomic types    =            2
     number of electrons       =        10.00
     number of Kohn-Sham states=            9
     kinetic-energy cutoff     =     100.0000  Ry
     charge density cutoff     =     400.0000  Ry
     scf convergence threshold =      1.0E-08
     mixing beta               =       0.7000
     number of iterations used =            8  plain     mixing
     energy convergence thresh.=      1.0E-04
     force convergence thresh. =      1.0E-03
     press convergence thresh. =      1.0E+00
     Exchange-correlation= PBE
                           (   1   4   3   4   0   0   0)
     nstep                     =           50


     celldm(1)=   7.429366  celldm(2)=   0.000000  celldm(3)=   0.961151
     celldm(4)=   0.000000  celldm(5)=   0.000000  celldm(6)=   0.000000

     crystal axes: (cart. coord. in units of alat)
               a(1) = (   0.500000  -0.500000   0.480576 )  
               a(2) = (   0.500000   0.500000   0.480576 )  
               a(3) = (  -0.500000  -0.500000   0.480576 )  

     reciprocal axes: (cart. coord. in units 2 pi/alat)
               b(1) = (  1.000000 -1.000000  0.000000 )  
               b(2) = (  0.000000  1.000000  1.040419 )  
               b(3) = ( -1.000000  0.000000  1.040419 )  


     PseudoPot. # 1 for Si read from file:
     ../pseudo/Si_ONCV_PBE_sr.upf
     MD5 check sum: e543d271109d17c80368dfa7c482276d
     Pseudo is Norm-conserving + core correction, Zval =  4.0
     Generated using ONCVPSP code by D. R. Hamann
     Using radial grid of 1510 points,  6 beta functions with: 
                l(1) =   0
                l(2) =   0
                l(3) =   1
                l(4) =   1
                l(5) =   2
                l(6) =   2

     PseudoPot. # 2 for Li read from file:
     ../pseudo/Li_ONCV_PBE_sr.upf
     MD5 check sum: 50ff420e78310ffa21704f3361e624a4
     Pseudo is Norm-conserving, Zval =  3.0
     Generated using ONCVPSP code by D. R. Hamann
     Using radial grid of 1944 points,  4 beta functions with: 
                l(1) =   0
                l(2) =   0
                l(3) =   1
                l(4) =   1

     atomic species   valence    mass     pseudopotential
        Si             4.00    28.08550     Si( 1.00)
        Li             3.00     6.94100     Li( 1.00)

     16 Sym. Ops., with inversion, found



   Cartesian axes

     site n.     atom                  positions (alat units)
         1           Si  tau(   1) = (   0.0000000   0.0000000   0.0000000  )
         2           Li  tau(   2) = (   0.0000000   0.5000000   0.2402878  )
         3           Li  tau(   3) = (   0.0000000   0.5000000   0.7208635  )

     number of k points=    59  Marzari-Vanderbilt smearing, width (Ry)=  0.0200
                       cart. coord. in units 2pi/alat
        k(    1) = (   0.0000000   0.0000000   0.0000000), wk =   0.0039062
        k(    2) = (  -0.1250000   0.0000000   0.1300524), wk =   0.0312500
        k(    3) = (  -0.2500000   0.0000000   0.2601047), wk =   0.0312500
        k(    4) = (  -0.3750000   0.0000000   0.3901571), wk =   0.0312500
        k(    5) = (   0.5000000   0.0000000  -0.5202094), wk =   0.0156250
        k(    6) = (  -0.1250000   0.1250000   0.2601047), wk =   0.0312500
        k(    7) = (  -0.2500000   0.1250000   0.3901571), wk =   0.0625000
        k(    8) = (  -0.3750000   0.1250000   0.5202094), wk =   0.0625000
        k(    9) = (   0.5000000   0.1250000  -0.3901571), wk =   0.0625000
        k(   10) = (   0.3750000   0.1250000  -0.2601047), wk =   0.0625000
        k(   11) = (   0.2500000   0.1250000  -0.1300524), wk =   0.0625000
        k(   12) = (   0.1250000   0.1250000   0.0000000), wk =   0.0156250
        k(   13) = (  -0.2500000   0.2500000   0.5202094), wk =   0.0312500
        k(   14) = (  -0.3750000   0.2500000   0.6502618), wk =   0.0625000
        k(   15) = (   0.5000000   0.2500000  -0.2601047), wk =   0.0625000
        k(   16) = (   0.3750000   0.2500000  -0.1300524), wk =   0.0625000
        k(   17) = (   0.2500000   0.2500000   0.0000000), wk =   0.0156250
        k(   18) = (  -0.3750000   0.3750000   0.7803141), wk =   0.0312500
        k(   19) = (   0.5000000   0.3750000  -0.1300524), wk =   0.0625000
        k(   20) = (   0.3750000   0.3750000   0.0000000), wk =   0.0156250
        k(   21) = (   0.5000000  -0.5000000  -1.0404189), wk =   0.0078125
        k(   22) = (   0.0000000   0.0000000   0.2601047), wk =   0.0078125
        k(   23) = (  -0.1250000   0.0000000   0.3901571), wk =   0.0312500
        k(   24) = (  -0.2500000   0.0000000   0.5202094), wk =   0.0312500
        k(   25) = (   0.6250000   0.0000000  -0.3901571), wk =   0.0312500
        k(   26) = (   0.5000000   0.0000000  -0.2601047), wk =   0.0312500
        k(   27) = (   0.3750000   0.0000000  -0.1300524), wk =   0.0312500
        k(   28) = (   0.2500000   0.0000000   0.0000000), wk =   0.0156250
        k(   29) = (  -0.1250000   0.1250000   0.5202094), wk =   0.0312500
        k(   30) = (  -0.2500000   0.1250000   0.6502618), wk =   0.0625000
        k(   31) = (   0.6250000   0.1250000  -0.2601047), wk =   0.0625000
        k(   32) = (   0.5000000   0.1250000  -0.1300524), wk =   0.0625000
        k(   33) = (   0.3750000   0.1250000   0.0000000), wk =   0.0312500
        k(   34) = (  -0.2500000   0.2500000   0.7803141), wk =   0.0312500
        k(   35) = (   0.6250000   0.2500000  -0.1300524), wk =   0.0625000
        k(   36) = (   0.5000000   0.2500000   0.0000000), wk =   0.0312500
        k(   37) = (   0.2500000   0.2500000   0.2601047), wk =   0.0312500
        k(   38) = (   0.6250000  -0.6250000  -1.0404189), wk =   0.0156250
        k(   39) = (   0.3750000  -0.6250000  -0.7803141), wk =   0.0312500
        k(   40) = (   0.2500000  -0.6250000  -0.6502618), wk =   0.0625000
        k(   41) = (   0.5000000  -0.5000000  -0.7803141), wk =   0.0156250
        k(   42) = (   0.3750000  -0.5000000  -0.6502618), wk =   0.0625000
        k(   43) = (   0.2500000  -0.5000000  -0.5202094), wk =   0.0312500
        k(   44) = (   0.3750000  -0.3750000  -0.5202094), wk =   0.0312500
        k(   45) = (   0.0000000   0.0000000   0.5202094), wk =   0.0078125
        k(   46) = (  -0.1250000   0.0000000   0.6502618), wk =   0.0312500
        k(   47) = (   0.7500000   0.0000000  -0.2601047), wk =   0.0312500
        k(   48) = (   0.6250000   0.0000000  -0.1300524), wk =   0.0312500
        k(   49) = (   0.5000000   0.0000000   0.0000000), wk =   0.0156250
        k(   50) = (  -0.1250000   0.1250000   0.7803141), wk =   0.0312500
        k(   51) = (   0.7500000   0.1250000  -0.1300524), wk =   0.0625000
        k(   52) = (   0.6250000   0.1250000   0.0000000), wk =   0.0312500
        k(   53) = (   0.7500000  -0.7500000  -1.0404189), wk =   0.0156250
        k(   54) = (   0.5000000  -0.5000000  -0.5202094), wk =   0.0078125
        k(   55) = (   0.0000000   0.0000000   0.7803141), wk =   0.0078125
        k(   56) = (   0.8750000   0.0000000  -0.1300524), wk =   0.0312500
        k(   57) = (   0.7500000   0.0000000   0.0000000), wk =   0.0156250
        k(   58) = (   0.8750000  -0.8750000  -1.0404189), wk =   0.0156250
        k(   59) = (   0.0000000   0.0000000  -1.0404189), wk =   0.0039062

     Dense  grid:    26643 G-vectors     FFT dimensions: (  45,  45,  45)

     Estimated max dynamical RAM per process >      19.06 MB

     Estimated total dynamical RAM >     152.44 MB

     Initial potential from superposition of free atoms

     starting charge       9.9903, renormalised to      10.0000
     Starting wfcs are    8 randomized atomic wfcs +    1 random wfcs

     total cpu time spent up to now is        1.1 secs

     Self-consistent Calculation

     iteration #  1     ecut=   100.00 Ry     beta= 0.70
     Davidson diagonalization with overlap
     ethr =  1.00E-02,  avg # of iterations =  6.7

     Threshold (ethr) on eigenvalues was too large:
     Diagonalizing with lowered threshold

     Davidson diagonalization with overlap
     ethr =  2.82E-04,  avg # of iterations =  2.5

     total cpu time spent up to now is        2.8 secs

     total energy              =     -37.03195125 Ry
     estimated scf accuracy    <       0.02848459 Ry

     iteration #  2     ecut=   100.00 Ry     beta= 0.70
     Davidson diagonalization with overlap
     ethr =  2.85E-04,  avg # of iterations =  1.0

     total cpu time spent up to now is        3.4 secs

     total energy              =     -37.03365385 Ry
     estimated scf accuracy    <       0.00058582 Ry

     iteration #  3     ecut=   100.00 Ry     beta= 0.70
     Davidson diagonalization with overlap
     ethr =  5.86E-06,  avg # of iterations =  4.6

     total cpu time spent up to now is        4.2 secs

     total energy              =     -37.03370950 Ry
     estimated scf accuracy    <       0.00002467 Ry

     iteration #  4     ecut=   100.00 Ry     beta= 0.70
     Davidson diagonalization with overlap
     ethr =  2.47E-07,  avg # of iterations =  2.1

     total cpu time spent up to now is        4.8 secs

     total energy              =     -37.03371136 Ry
     estimated scf accuracy    <       0.00000024 Ry

     iteration #  5     ecut=   100.00 Ry     beta= 0.70
     Davidson diagonalization with overlap
     ethr =  2.44E-09,  avg # of iterations =  3.4

     total cpu time spent up to now is        5.5 secs

     total energy              =     -37.03371149 Ry
     estimated scf accuracy    <       0.00000001 Ry

     iteration #  6     ecut=   100.00 Ry     beta= 0.70
     Davidson diagonalization with overlap
     ethr =  1.43E-10,  avg # of iterations =  1.7

     total cpu time spent up to now is        6.0 secs

     End of self-consistent calculation

          k = 0.0000 0.0000 0.0000 (  3319 PWs)   bands (ev):

   -38.3047 -37.7267  -2.1280  10.0622  10.0622  11.8082  12.2486  13.6081
    13.6084

          k =-0.1250 0.0000 0.1301 (  3326 PWs)   bands (ev):

   -38.2822 -37.7484  -1.9296   9.0549   9.3161  10.8928  12.4478  12.9425
    14.1951

          k =-0.2500 0.0000 0.2601 (  3324 PWs)   bands (ev):

   -38.2184 -37.8101  -1.3366   6.5594   8.2080  10.3865  11.6811  12.7799
    15.1691

          k =-0.3750 0.0000 0.3902 (  3325 PWs)   bands (ev):

   -38.1237 -37.9028  -0.4058   4.2145   7.4555  10.2004  10.8303  12.9702
    16.5382

          k = 0.5000 0.0000-0.5202 (  3324 PWs)   bands (ev):

   -38.0131 -38.0125   0.3013   3.0113   7.1965  10.1575  10.5390  13.0114
    17.7055

          k =-0.1250 0.1250 0.2601 (  3320 PWs)   bands (ev):

   -38.2228 -37.8072  -1.4958   7.4323   8.3415   9.8947  12.9097  12.9978
    13.8226

          k =-0.2500 0.1250 0.3902 (  3324 PWs)   bands (ev):

   -38.1310 -37.8970  -0.7022   5.1863   7.2361   9.2814  12.4401  13.5645
    14.9350

          k =-0.3750 0.1250 0.5202 (  3327 PWs)   bands (ev):

   -38.0213 -38.0043   0.2164   3.3909   6.6735   8.9995  12.1899  13.7500
    16.3538

          k = 0.5000 0.1250-0.3902 (  3329 PWs)   bands (ev):

   -38.1133 -37.9110   0.0695   3.5780   6.6377   8.9894  12.3076  13.5202
    17.8201

          k = 0.3750 0.1250-0.2601 (  3319 PWs)   bands (ev):

   -38.2079 -37.8169  -0.8947   5.4887   7.1438   9.2209  12.7029  13.2396
    17.1043

          k = 0.2500 0.1250-0.1301 (  3315 PWs)   bands (ev):

   -38.2736 -37.7532  -1.6295   7.5364   8.4335   9.6746  12.8557  13.4633
    15.3028

          k = 0.1250 0.1250 0.0000 (  3311 PWs)   bands (ev):

   -38.2999 -37.7293  -1.9768   8.8187   9.6369  10.6153  12.5533  13.8295
    14.3803

          k =-0.2500 0.2500 0.5202 (  3323 PWs)   bands (ev):

   -38.0249 -38.0007   0.1414   3.9023   5.9722   8.6738  13.1047  14.5539
    16.1820

          k =-0.3750 0.2500 0.6503 (  3325 PWs)   bands (ev):

   -38.1060 -37.9168   0.4393   3.5517   5.4333   8.4378  13.4811  15.0841
    16.3590

          k = 0.5000 0.2500-0.2601 (  3330 PWs)   bands (ev):

   -38.1974 -37.8237  -0.3219   4.8222   5.6892   8.4466  13.7759  14.4157
    17.1712

          k = 0.3750 0.2500-0.1301 (  3318 PWs)   bands (ev):

   -38.2615 -37.7601  -1.1052   5.8032   7.4698   8.6716  13.6923  13.8193
    15.3702

          k = 0.2500 0.2500 0.0000 (  3319 PWs)   bands (ev):

   -38.2885 -37.7355  -1.5554   6.7305   8.8551   9.3283  13.1947  13.3966
    14.4136

          k =-0.3750 0.3750 0.7803 (  3335 PWs)   bands (ev):

   -38.1930 -37.8266  -0.0152   4.6868   4.9314   8.2152  14.4659  15.3621
    15.7008

          k = 0.5000 0.3750-0.1301 (  3329 PWs)   bands (ev):

   -38.2530 -37.7650  -0.6070   4.5928   6.9389   8.1962  13.4026  15.2060
    15.8996

          k = 0.3750 0.3750 0.0000 (  3320 PWs)   bands (ev):

   -38.2771 -37.7417  -1.0054   5.0271   8.2555   8.5299  12.3413  14.7098
    15.0921

          k = 0.5000-0.5000-1.0404 (  3336 PWs)   bands (ev):

   -38.2723 -37.7443  -0.7086   4.3306   8.0399   8.2616  12.0491  15.4117
    15.8759

          k = 0.0000 0.0000 0.2601 (  3339 PWs)   bands (ev):

   -38.2272 -37.8044  -1.6471   8.6144   8.6144   9.8751  12.5385  13.4430
    13.4431

          k =-0.1250 0.0000 0.3902 (  3317 PWs)   bands (ev):

   -38.1386 -37.8913  -0.9877   6.4362   7.4119   9.3202  12.8812  13.0081
    14.0251

          k =-0.2500 0.0000 0.5202 (  3320 PWs)   bands (ev):

   -38.0302 -37.9961  -0.0418   4.1593   6.5760   9.3623  12.2216  13.3964
    14.7240

          k = 0.6250 0.0000-0.3902 (  3319 PWs)   bands (ev):

   -38.1034 -37.9195   0.4647   3.2091   6.2531   9.5468  12.0554  12.9703
    15.9046

          k = 0.5000 0.0000-0.2601 (  3327 PWs)   bands (ev):

   -38.1979 -37.8239  -0.3930   4.5838   6.4703   9.6638  12.4370  12.4582
    17.2095

          k = 0.3750 0.0000-0.1301 (  3317 PWs)   bands (ev):

   -38.2654 -37.7582  -1.2930   6.8336   7.2108   9.6561  12.2807  13.3313
    16.8438

          k = 0.2500 0.0000 0.0000 (  3312 PWs)   bands (ev):

   -38.2953 -37.7319  -1.8158   8.3681   8.7598  10.0029  12.3740  14.1802
    15.2633

          k =-0.1250 0.1250 0.5202 (  3324 PWs)   bands (ev):

   -38.0339 -37.9926  -0.1580   4.9503   6.1039   8.8427  12.8771  13.5016
    15.2604

          k =-0.2500 0.1250 0.6503 (  3324 PWs)   bands (ev):

   -38.0964 -37.9254   0.6548   3.5596   5.4194   8.9734  12.5294  14.1237
    14.8065

          k = 0.6250 0.1250-0.2601 (  3331 PWs)   bands (ev):

   -38.1879 -37.8309   0.2563   4.0759   5.3716   9.1053  12.3028  13.8320
    15.4757

          k = 0.5000 0.1250-0.1301 (  3328 PWs)   bands (ev):

   -38.2537 -37.7652  -0.6996   5.5835   6.2370   8.9829  12.2667  14.0606
    16.5278

          k = 0.3750 0.1250 0.0000 (  3328 PWs)   bands (ev):

   -38.2841 -37.7381  -1.3660   6.5916   7.9982   9.0390  12.5311  14.5143
    14.8596

          k =-0.2500 0.2500 0.7803 (  3336 PWs)   bands (ev):

   -38.1837 -37.8338   0.6030   4.0927   4.6039   8.9061  12.4650  14.4723
    14.6101

          k = 0.6250 0.2500-0.1301 (  3343 PWs)   bands (ev):

   -38.2455 -37.7701  -0.1204   4.4874   5.7479   8.5840  12.7550  14.3269
    15.3233

          k = 0.5000 0.2500 0.0000 (  3330 PWs)   bands (ev):

   -38.2729 -37.7444  -0.7730   4.9615   7.4243   8.3656  13.0595  14.0546
    15.5878

          k = 0.2500 0.2500 0.2601 (  3316 PWs)   bands (ev):

   -38.2121 -37.8140  -1.0756   6.1085   7.8119   7.9136  13.8328  14.8476
    14.8928

          k = 0.6250-0.6250-1.0404 (  3336 PWs)   bands (ev):

   -38.2683 -37.7470  -0.4474   4.2693   7.2106   8.1316  13.0936  14.8840
    15.4067

          k = 0.3750-0.6250-0.7803 (  3329 PWs)   bands (ev):

   -38.2013 -37.8208  -0.5328   5.1551   6.2890   7.3878  15.1589  15.6832
    16.0841

          k = 0.2500-0.6250-0.6503 (  3328 PWs)   bands (ev):

   -38.1203 -37.9050  -0.2258   4.3565   6.7205   7.4462  14.5069  14.6346
    16.8029

          k = 0.5000-0.5000-0.7803 (  3324 PWs)   bands (ev):

   -38.1969 -37.8236  -0.2440   4.7192   5.7386   7.2321  15.6077  16.3161
    16.6150

          k = 0.3750-0.5000-0.6503 (  3333 PWs)   bands (ev):

   -38.1127 -37.9107   0.1841   4.2059   5.4779   6.8723  15.9414  16.4265
    18.4364

          k = 0.2500-0.5000-0.5202 (  3338 PWs)   bands (ev):

   -38.0126 -38.0123   0.3775   3.3543   6.4065   7.2954  14.4148  14.8665
    18.1063

          k = 0.3750-0.3750-0.5202 (  3332 PWs)   bands (ev):

   -38.0159 -38.0088   0.3938   3.6729   5.8496   6.8191  15.9237  15.9986
    17.7100

          k = 0.0000 0.0000 0.5202 (  3343 PWs)   bands (ev):

   -38.0376 -37.9893  -0.2822   6.1617   6.1617   7.3937  13.1227  14.9574
    14.9574

          k =-0.1250 0.0000 0.6503 (  3318 PWs)   bands (ev):

   -38.0897 -37.9316   0.6526   4.4255   5.3138   7.4637  13.4056  13.6613
    15.0547

          k = 0.7500 0.0000-0.2601 (  3330 PWs)   bands (ev):

   -38.1783 -37.8380   0.9626   3.7393   4.9961   8.1179  11.7590  14.2385
    15.0045

          k = 0.6250 0.0000-0.1301 (  3345 PWs)   bands (ev):

   -38.2427 -37.7723   0.0284   5.1040   5.2306   8.4591  11.0414  15.2024
    15.4097

          k = 0.5000 0.0000 0.0000 (  3336 PWs)   bands (ev):

   -38.2735 -37.7445  -0.8323   6.0018   6.7035   8.4729  11.4799  15.8679
    16.4127

          k =-0.1250 0.1250 0.7803 (  3322 PWs)   bands (ev):

   -38.1743 -37.8410   1.2892   3.9643   4.5145   7.5235  11.5770  13.8118
    15.9452

          k = 0.7500 0.1250-0.1301 (  3345 PWs)   bands (ev):

   -38.2349 -37.7773   0.7768   4.3196   4.7993   8.0247  10.4979  14.2835
    16.2700

          k = 0.6250 0.1250 0.0000 (  3329 PWs)   bands (ev):

   -38.2628 -37.7508  -0.1075   4.7762   6.0988   8.0190  11.0891  15.1219
    16.7431

          k = 0.7500-0.7500-1.0404 (  3344 PWs)   bands (ev):

   -38.2584 -37.7534   0.3143   4.1179   5.9098   7.8528  11.0668  14.5356
    16.4588

          k = 0.5000-0.5000-0.5202 (  3328 PWs)   bands (ev):

   -38.0122 -38.0122   0.4607   3.9462   5.8010   5.8010  16.9497  18.7193
    19.0113

          k = 0.0000 0.0000 0.7803 (  3332 PWs)   bands (ev):

   -38.1705 -37.8439   1.5368   4.4756   4.4756   6.2251  11.3835  13.5337
    17.7871

          k = 0.8750 0.0000-0.1301 (  3340 PWs)   bands (ev):

   -38.2274 -37.7823   1.7646   4.1742   4.1754   6.9939   9.5456  13.7532
    18.4533

          k = 0.7500 0.0000 0.0000 (  3344 PWs)   bands (ev):

   -38.2527 -37.7572   0.8457   4.4324   5.0303   7.7225   9.3653  14.2055
    18.4935

          k = 0.8750-0.8750-1.0404 (  3348 PWs)   bands (ev):

   -38.2486 -37.7599   1.4734   3.9619   4.7321   7.6105   8.7335  13.8828
    19.2929

          k = 0.0000 0.0000-1.0404 (  3356 PWs)   bands (ev):

   -38.2445 -37.7625   2.4051   3.8961   3.8961   7.5184   7.8329  13.6543
    20.5726

     the Fermi energy is     7.6871 ev

!    total energy              =     -37.03371150 Ry
     estimated scf accuracy    <          2.2E-10 Ry
     smearing contrib. (-TS)   =       0.00075855 Ry
     internal energy E=F+TS    =     -37.03447004 Ry

     The total energy is F=E-TS. E is the sum of the following terms:
     one-electron contribution =     -10.12587408 Ry
     hartree contribution      =       6.48599487 Ry
     xc contribution           =     -10.23308282 Ry
     ewald contribution        =     -23.16150802 Ry

     convergence has been achieved in   6 iterations

     Forces acting on atoms (cartesian axes, Ry/au):

     atom    1 type  1   force =    -0.00000000    0.00000000   -0.00000000
     atom    2 type  2   force =    -0.00000000   -0.00000000    0.00000000
     atom    3 type  2   force =     0.00000000    0.00000000   -0.00000000
     The non-local contrib.  to forces
     atom    1 type  1   force =    -0.00000000    0.00000000    0.00000000
     atom    2 type  2   force =    -0.00000000    0.00000000   -0.00000000
     atom    3 type  2   force =     0.00000000   -0.00000000    0.00000000
     The ionic contribution  to forces
     atom    1 type  1   force =     0.00000000   -0.00000000   -0.00000000
     atom    2 type  2   force =    -0.00000000   -0.00000000   -0.00000000
     atom    3 type  2   force =     0.00000000    0.00000000    0.00000000
     The local contribution  to forces
     atom    1 type  1   force =    -0.00000000    0.00000000    0.00000000
     atom    2 type  2   force =    -0.00000000    0.00000000    0.00000000
     atom    3 type  2   force =     0.00000000    0.00000000    0.00000000
     The core correction contribution to forces
     atom    1 type  1   force =    -0.00000000    0.00000000    0.00000000
     atom    2 type  2   force =     0.00000000    0.00000000    0.00000000
     atom    3 type  2   force =     0.00000000    0.00000000    0.00000000
     The Hubbard contrib.    to forces
     atom    1 type  1   force =     0.00000000    0.00000000    0.00000000
     atom    2 type  2   force =     0.00000000    0.00000000    0.00000000
     atom    3 type  2   force =     0.00000000    0.00000000    0.00000000
     The SCF correction term to forces
     atom    1 type  1   force =    -0.00000000   -0.00000000    0.00000000
     atom    2 type  2   force =     0.00000000    0.00000000   -0.00000000
     atom    3 type  2   force =    -0.00000000   -0.00000000   -0.00000000

     Total force =     0.000000     Total SCF correction =     0.000000


     Computing stress (Cartesian axis) and pressure

          total   stress  (Ry/bohr**3)                   (kbar)     P=      529.64
   0.00371155   0.00000000  -0.00000000          545.99        0.00       -0.00
   0.00000000   0.00371155  -0.00000000            0.00      545.99       -0.00
  -0.00000000  -0.00000000   0.00337814           -0.00       -0.00      496.94


     BFGS Geometry Optimization
     Energy error            =      0.0E+00 Ry
     Gradient error          =      9.9E-32 Ry/Bohr
     Cell gradient error     =      4.6E+01 kbar

     number of scf cycles    =   1
     number of bfgs steps    =   0

     enthalpy           new  =     -36.3638896489 Ry

     new trust radius        =       0.0219428401 bohr
ibrav =      7
 celldm(1) =      7.48742942
 celldm(3) =      0.95320200
Input lattice vectors:
     0.50390773    -0.50390773     0.48032585
     0.50390773     0.50390773     0.48032585
    -0.50390773    -0.50390773     0.48032585
New lattice vectors in INITIAL alat:
     0.50390773    -0.50390773     0.48032585
     0.50390773     0.50390773     0.48032585
    -0.50390773    -0.50390773     0.48032585
New lattice vectors in NEW alat (for information only):
     0.50000000    -0.50000000     0.47660100
     0.50000000     0.50000000     0.47660100
    -0.50000000    -0.50000000     0.47660100
Discrepancy in bohr =     0.000000    0.000000    0.000000
     new conv_thr            =       0.0000000100 Ry

     new unit-cell volume =    200.05673 a.u.^3 (    29.64535 Ang^3 )
     density =      2.35075 g/cm^3

CELL_PARAMETERS (alat=  7.42936554)
   0.503907728  -0.503907728   0.480325853
   0.503907728   0.503907728   0.480325853
  -0.503907728  -0.503907728   0.480325853

ATOMIC_POSITIONS (crystal)
Si           -0.0000000000       -0.0000000000       -0.0000000000
Li           -0.5000000000        0.7500000000        0.2500000000
Li           -0.5000000000        1.2500000000        0.7500000000



     Writing config-only to output data dir ./output/SiLi.save/
     NEW-OLD atomic charge density approx. for the potential
     extrapolated charge   10.14923, renormalised to   10.00000

     total cpu time spent up to now is        7.3 secs

     Self-consistent Calculation

     iteration #  1     ecut=   100.00 Ry     beta= 0.70
     Davidson diagonalization with overlap
     ethr =  1.00E-06,  avg # of iterations =  4.5

     total cpu time spent up to now is        8.3 secs

     total energy              =     -37.04404422 Ry
     estimated scf accuracy    <       0.00012600 Ry

     iteration #  2     ecut=   100.00 Ry     beta= 0.70
     Davidson diagonalization with overlap
     ethr =  1.26E-06,  avg # of iterations =  2.7

     total cpu time spent up to now is        9.1 secs

     total energy              =     -37.04448998 Ry
     estimated scf accuracy    <       0.00014741 Ry

     iteration #  3     ecut=   100.00 Ry     beta= 0.70
     Davidson diagonalization with overlap
     ethr =  1.26E-06,  avg # of iterations =  1.0

     total cpu time spent up to now is        9.6 secs

     total energy              =     -37.04447251 Ry
     estimated scf accuracy    <       0.00004495 Ry

     iteration #  4     ecut=   100.00 Ry     beta= 0.70
     Davidson diagonalization with overlap
     ethr =  4.49E-07,  avg # of iterations =  1.0

     total cpu time spent up to now is       10.2 secs

     total energy              =     -37.04447146 Ry
     estimated scf accuracy    <       0.00000574 Ry

     iteration #  5     ecut=   100.00 Ry     beta= 0.70
     Davidson diagonalization with overlap
     ethr =  5.74E-08,  avg # of iterations =  2.0

     total cpu time spent up to now is       10.8 secs

     total energy              =     -37.04447237 Ry
     estimated scf accuracy    <       0.00000009 Ry

     iteration #  6     ecut=   100.00 Ry     beta= 0.70
     Davidson diagonalization with overlap
     ethr =  9.23E-10,  avg # of iterations =  2.3

     total cpu time spent up to now is       11.4 secs

     End of self-consistent calculation

          k = 0.0000 0.0000 0.0000 (  3319 PWs)   bands (ev):

   -38.4645 -37.8908  -2.2325   9.8412   9.8412  11.6243  12.1040  13.5129
    13.5129

          k =-0.1240 0.0000 0.1301 (  3326 PWs)   bands (ev):

   -38.4423 -37.9123  -2.0340   8.8919   9.1169  10.7065  12.2743  12.7978
    14.0317

          k =-0.2481 0.0000 0.2602 (  3324 PWs)   bands (ev):

   -38.3791 -37.9737  -1.4414   6.4387   8.0301  10.1903  11.5252  12.5701
    14.9647

          k =-0.3721 0.0000 0.3904 (  3325 PWs)   bands (ev):

   -38.2852 -38.0659  -0.5137   4.1111   7.2890  10.0004  10.6734  12.7473
    16.3009

          k = 0.4961-0.0000-0.5205 (  3324 PWs)   bands (ev):

   -38.1755 -38.1749   0.1869   2.9186   7.0337   9.9547  10.3822  12.7877
    17.4332

          k =-0.1240 0.1240 0.2602 (  3320 PWs)   bands (ev):

   -38.3831 -37.9711  -1.5990   7.2883   8.1964   9.6887  12.7129  12.8012
    13.6321

          k =-0.2481 0.1240 0.3904 (  3324 PWs)   bands (ev):

   -38.2920 -38.0606  -0.8060   5.0666   7.0929   9.0879  12.2380  13.3344
    14.7180

          k =-0.3721 0.1240 0.5205 (  3327 PWs)   bands (ev):

   -38.1831 -38.1674   0.1057   3.2907   6.5238   8.8230  11.9835  13.5225
    16.0991

          k = 0.4961 0.1240-0.3904 (  3329 PWs)   bands (ev):

   -38.2757 -38.0734  -0.0451   3.4850   6.4784   8.8277  12.1021  13.3142
    17.5243

          k = 0.3721 0.1240-0.2602 (  3319 PWs)   bands (ev):

   -38.3695 -37.9800  -1.0037   5.3807   6.9750   9.0698  12.4973  13.0556
    16.8765

          k = 0.2481 0.1240-0.1301 (  3315 PWs)   bands (ev):

   -38.4344 -37.9168  -1.7360   7.3664   8.2867   9.5309  12.6307  13.3276
    15.1407

          k = 0.1240 0.1240 0.0000 (  3311 PWs)   bands (ev):

   -38.4602 -37.8931  -2.0823   8.6099   9.4600  10.4832  12.3611  13.7276
    14.2028

          k =-0.2481 0.2481 0.5205 (  3323 PWs)   bands (ev):

   -38.1863 -38.1641   0.0335   3.7934   5.8359   8.4973  12.8636  14.3247
    15.9274

          k =-0.3721 0.2481 0.6506 (  3325 PWs)   bands (ev):

   -38.2690 -38.0788   0.3208   3.4614   5.2885   8.2862  13.2286  14.8732
    16.1488

          k = 0.4961 0.2481-0.2602 (  3330 PWs)   bands (ev):

   -38.3598 -37.9862  -0.4366   4.7102   5.5525   8.3174  13.5206  14.2662
    16.9207

          k = 0.3721 0.2481-0.1301 (  3318 PWs)   bands (ev):

   -38.4233 -37.9231  -1.2155   5.6348   7.3656   8.5570  13.5209  13.5976
    15.2333

          k = 0.2481 0.2481 0.0000 (  3319 PWs)   bands (ev):

   -38.4497 -37.8988  -1.6635   6.5449   8.7276   9.2249  13.0588  13.1485
    14.2935

          k =-0.3721 0.3721 0.7807 (  3335 PWs)   bands (ev):

   -38.3558 -37.9888  -0.1331   4.5360   4.8454   8.0923  14.2589  15.1541
    15.4228

          k = 0.4961 0.3721-0.1301 (  3329 PWs)   bands (ev):

   -38.4154 -37.9275  -0.7212   4.4343   6.8496   8.0942  13.2860  14.9170
    15.7347

          k = 0.3721 0.3721 0.0000 (  3320 PWs)   bands (ev):

   -38.4391 -37.9045  -1.1171   4.8605   8.1529   8.4413  12.2226  14.4258
    14.9494

          k = 0.4961-0.4961-1.0410 (  3336 PWs)   bands (ev):

   -38.4348 -37.9068  -0.8223   4.1715   7.9447   8.1778  11.9356  15.2577
    15.5806

          k = 0.0000 0.0000 0.2602 (  3339 PWs)   bands (ev):

   -38.3872 -37.9685  -1.7491   8.4589   8.4589   9.6731  12.3779  13.2277
    13.2277

          k =-0.1240 0.0000 0.3904 (  3317 PWs)   bands (ev):

   -38.2989 -38.0554  -1.0880   6.3002   7.2694   9.1134  12.6658  12.8167
    13.7915

          k =-0.2481 0.0000 0.5205 (  3320 PWs)   bands (ev):

   -38.1912 -38.1598  -0.1449   4.0429   6.4325   9.1508  12.0280  13.1814
    14.4998

          k = 0.6202-0.0000-0.3904 (  3319 PWs)   bands (ev):

   -38.2666 -38.0812   0.3473   3.1183   6.1020   9.3401  11.8829  12.7850
    15.6446

          k = 0.4961-0.0000-0.2602 (  3327 PWs)   bands (ev):

   -38.3602 -37.9864  -0.5079   4.4931   6.3064   9.4827  12.2716  12.2831
    16.9552

          k = 0.3721-0.0000-0.1301 (  3317 PWs)   bands (ev):

   -38.4268 -37.9213  -1.4028   6.7256   7.0299   9.5117  12.0710  13.1938
    16.6454

          k = 0.2481-0.0000 0.0000 (  3312 PWs)   bands (ev):

   -38.4559 -37.8955  -1.9225   8.1676   8.6046   9.8843  12.1678  14.0756
    15.0798

          k =-0.1240 0.1240 0.5205 (  3324 PWs)   bands (ev):

   -38.1945 -38.1567  -0.2581   4.8208   5.9695   8.6339  12.6673  13.2920
    15.0046

          k =-0.2481 0.1240 0.6506 (  3324 PWs)   bands (ev):

   -38.2602 -38.0867   0.5424   3.4567   5.2797   8.7708  12.3384  13.9029
    14.6422

          k = 0.6202 0.1240-0.2602 (  3331 PWs)   bands (ev):

   -38.3510 -37.9928   0.1342   3.9901   5.2243   8.9362  12.1106  13.6773
    15.2093

          k = 0.4961 0.1240-0.1301 (  3328 PWs)   bands (ev):

   -38.4161 -37.9277  -0.8150   5.4365   6.1299   8.8599  12.0444  13.9102
    16.2869

          k = 0.3721 0.1240 0.0000 (  3328 PWs)   bands (ev):

   -38.4456 -37.9012  -1.4762   6.4138   7.8792   8.9382  12.2962  14.3546
    14.7380

          k =-0.2481 0.2481 0.7807 (  3336 PWs)   bands (ev):

   -38.3472 -37.9954   0.4777   4.0111   4.4606   8.7452  12.2639  14.3259
    14.3484

          k = 0.6202 0.2481-0.1301 (  3343 PWs)   bands (ev):

   -38.4085 -37.9322  -0.2415   4.3367   5.6672   8.4752  12.5220  14.1573
    15.0401

          k = 0.4961 0.2481 0.0000 (  3330 PWs)   bands (ev):

   -38.4353 -37.9069  -0.8879   4.7996   7.3322   8.2763  12.8481  13.8537
    15.4422

          k = 0.2481 0.2481 0.2602 (  3316 PWs)   bands (ev):

   -38.3733 -37.9773  -1.1824   5.9744   7.6837   7.7510  13.5810  14.6838
    14.6885

          k = 0.6202-0.6202-1.0410 (  3336 PWs)   bands (ev):

   -38.4310 -37.9093  -0.5650   4.1142   7.1269   8.0462  12.9381  14.5961
    15.1186

          k = 0.3721-0.6202-0.7807 (  3329 PWs)   bands (ev):

   -38.3634 -37.9835  -0.6445   5.0109   6.1732   7.2713  14.8724  15.5464
    15.9304

          k = 0.2481-0.6202-0.6506 (  3328 PWs)   bands (ev):

   -38.2821 -38.0679  -0.3358   4.2506   6.5728   7.2979  14.2657  14.4055
    16.5702

          k = 0.4961-0.4961-0.7807 (  3324 PWs)   bands (ev):

   -38.3593 -37.9861  -0.3584   4.5655   5.6456   7.1196  15.4898  16.0265
    16.4291

          k = 0.3721-0.4961-0.6506 (  3333 PWs)   bands (ev):

   -38.2752 -38.0731   0.0684   4.1092   5.3325   6.7429  15.6605  16.2188
    18.1866

          k = 0.2481-0.4961-0.5205 (  3338 PWs)   bands (ev):

   -38.1751 -38.1748   0.2618   3.2604   6.2584   7.1476  14.1886  14.6143
    17.8173

          k = 0.3721-0.3721-0.5205 (  3332 PWs)   bands (ev):

   -38.1780 -38.1716   0.2783   3.5769   5.7123   6.6724  15.6539  15.7379
    17.4553

          k = 0.0000 0.0000 0.5205 (  3343 PWs)   bands (ev):

   -38.1979 -38.1536  -0.3794   6.0283   6.0283   7.1874  12.9186  14.7017
    14.7017

          k =-0.1240 0.0000 0.6506 (  3318 PWs)   bands (ev):

   -38.2540 -38.0923   0.5510   4.2992   5.1797   7.2623  13.2274  13.5081
    14.8282

          k = 0.7442-0.0000-0.2602 (  3330 PWs)   bands (ev):

   -38.3422 -37.9993   0.8366   3.6511   4.8559   7.9211  11.6512  13.9831
    14.8088

          k = 0.6202-0.0000-0.1301 (  3345 PWs)   bands (ev):

   -38.4059 -37.9341  -0.0958   5.0194   5.0802   8.3207  10.8648  14.9232
    15.2406

          k = 0.4961-0.0000 0.0000 (  3336 PWs)   bands (ev):

   -38.4358 -37.9070  -0.9483   5.8372   6.6002   8.3778  11.2558  15.7353
    16.1469

          k =-0.1240 0.1240 0.7807 (  3322 PWs)   bands (ev):

   -38.3385 -38.0020   1.1674   3.8635   4.3793   7.3303  11.4865  13.5587
    15.7364

          k = 0.7442 0.1240-0.1301 (  3345 PWs)   bands (ev):

   -38.3987 -37.9387   0.6444   4.1824   4.7135   7.8807  10.3466  14.0131
    16.0778

          k = 0.6202 0.1240 0.0000 (  3329 PWs)   bands (ev):

   -38.4260 -37.9128  -0.2312   4.6258   6.0101   7.9288  10.8668  14.8436
    16.5390

          k = 0.7442-0.7442-1.0410 (  3344 PWs)   bands (ev):

   -38.4219 -37.9152   0.1859   3.9723   5.8292   7.7644  10.8439  14.2583
    16.2645

          k = 0.4961-0.4961-0.5205 (  3328 PWs)   bands (ev):

   -38.1746 -38.1746   0.3435   3.8535   5.6634   5.6634  16.6732  18.4722
    18.7269

          k =-0.0000-0.0000 0.7807 (  3332 PWs)   bands (ev):

   -38.3350 -38.0047   1.4270   4.3438   4.3438   6.0488  11.3120  13.2828
    17.5317

          k = 0.8682-0.0000-0.1301 (  3340 PWs)   bands (ev):

   -38.3918 -37.9433   1.6265   4.0414   4.0667   6.8423   9.4559  13.4873
    18.2328

          k = 0.7442-0.0000 0.0000 (  3344 PWs)   bands (ev):

   -38.4167 -37.9186   0.7104   4.2922   4.9317   7.6321   9.1898  13.9311
    18.3145

          k = 0.8682-0.8682-1.0410 (  3348 PWs)   bands (ev):

   -38.4128 -37.9210   1.3314   3.8259   4.6266   7.5202   8.5814  13.6114
    19.0931

          k = 0.0000-0.0000-1.0410 (  3356 PWs)   bands (ev):

   -38.4090 -37.9235   2.2575   3.7641   3.7641   7.4274   7.7247  13.3844
    20.3485

     the Fermi energy is     7.5476 ev

!    total energy              =     -37.04447238 Ry
     estimated scf accuracy    <          2.4E-09 Ry
     smearing contrib. (-TS)   =       0.00082522 Ry
     internal energy E=F+TS    =     -37.04529761 Ry

     The total energy is F=E-TS. E is the sum of the following terms:
     one-electron contribution =     -10.29638495 Ry
     hartree contribution      =       6.50900826 Ry
     xc contribution           =     -10.21617298 Ry
     ewald contribution        =     -23.04174794 Ry

     convergence has been achieved in   6 iterations

     Forces acting on atoms (cartesian axes, Ry/au):

     atom    1 type  1   force =    -0.00000000    0.00000000    0.00000000
     atom    2 type  2   force =     0.00000000   -0.00000000    0.00000000
     atom    3 type  2   force =    -0.00000000    0.00000000   -0.00000000
     The non-local contrib.  to forces
     atom    1 type  1   force =    -0.00000000   -0.00000000    0.00000000
     atom    2 type  2   force =     0.00000000   -0.00000000   -0.00000000
     atom    3 type  2   force =    -0.00000000    0.00000000    0.00000000
     The ionic contribution  to forces
     atom    1 type  1   force =    -0.00000000    0.00000000    0.00000000
     atom    2 type  2   force =    -0.00000000    0.00000000    0.00000000
     atom    3 type  2   force =     0.00000000    0.00000000    0.00000000
     The local contribution  to forces
     atom    1 type  1   force =    -0.00000000    0.00000000    0.00000000
     atom    2 type  2   force =    -0.00000000   -0.00000000   -0.00000000
     atom    3 type  2   force =     0.00000000    0.00000000   -0.00000000
     The core correction contribution to forces
     atom    1 type  1   force =     0.00000000   -0.00000000    0.00000000
     atom    2 type  2   force =     0.00000000    0.00000000    0.00000000
     atom    3 type  2   force =     0.00000000    0.00000000    0.00000000
     The Hubbard contrib.    to forces
     atom    1 type  1   force =     0.00000000    0.00000000    0.00000000
     atom    2 type  2   force =     0.00000000    0.00000000    0.00000000
     atom    3 type  2   force =     0.00000000    0.00000000    0.00000000
     The SCF correction term to forces
     atom    1 type  1   force =    -0.00000000    0.00000000    0.00000000
     atom    2 type  2   force =    -0.00000000    0.00000000    0.00000000
     atom    3 type  2   force =     0.00000000    0.00000000    0.00000000

     Total force =     0.000000     Total SCF correction =     0.000000


     Computing stress (Cartesian axis) and pressure

          total   stress  (Ry/bohr**3)                   (kbar)     P=      499.87
   0.00347271  -0.00000000   0.00000000          510.85       -0.00        0.00
  -0.00000000   0.00347271   0.00000000           -0.00      510.85        0.00
  -0.00000000   0.00000000   0.00324865           -0.00        0.00      477.89

     Energy error            =      6.0E-04 Ry
     Gradient error          =      2.0E-31 Ry/Bohr
     Cell gradient error     =      2.2E+01 kbar

     number of scf cycles    =   2
     number of bfgs steps    =   1

     enthalpy           old  =     -36.3638896489 Ry
     enthalpy           new  =     -36.3644933663 Ry

     CASE: enthalpy          _new < enthalpy          _old

     new trust radius        =       0.0147596195 bohr
ibrav =      7
 celldm(1) =      7.51749278
 celldm(3) =      0.94443652
Input lattice vectors:
     0.50593101    -0.50593101     0.47781972
     0.50593101     0.50593101     0.47781972
    -0.50593101    -0.50593101     0.47781972
New lattice vectors in INITIAL alat:
     0.50593101    -0.50593101     0.47781972
     0.50593101     0.50593101     0.47781972
    -0.50593101    -0.50593101     0.47781972
New lattice vectors in NEW alat (for information only):
     0.50000000    -0.50000000     0.47221826
     0.50000000     0.50000000     0.47221826
    -0.50000000    -0.50000000     0.47221826
Discrepancy in bohr =     0.000000    0.000000    0.000000
     new conv_thr            =            1.0E-10 Ry

     new unit-cell volume =    200.61428 a.u.^3 (    29.72797 Ang^3 )
     density =      2.34421 g/cm^3

CELL_PARAMETERS (alat=  7.42936554)
   0.505931007  -0.505931007   0.477819718
   0.505931007   0.505931007   0.477819718
  -0.505931007  -0.505931007   0.477819718

ATOMIC_POSITIONS (crystal)
Si           -0.0000000000        0.0000000000        0.0000000000
Li           -0.5000000000        0.7500000000        0.2500000000
Li           -0.5000000000        1.2500000000        0.7500000000



     Writing config-only to output data dir ./output/SiLi.save/
     NEW-OLD atomic charge density approx. for the potential
     extrapolated charge   10.02776, renormalised to   10.00000

     total cpu time spent up to now is       12.6 secs

     Self-consistent Calculation

     iteration #  1     ecut=   100.00 Ry     beta= 0.70
     Davidson diagonalization with overlap
     ethr =  1.00E-06,  avg # of iterations =  3.5

     Threshold (ethr) on eigenvalues was too large:
     Diagonalizing with lowered threshold

     Davidson diagonalization with overlap
     ethr =  4.63E-08,  avg # of iterations =  1.9

     total cpu time spent up to now is       14.0 secs

     total energy              =     -37.04656454 Ry
     estimated scf accuracy    <       0.00000471 Ry

     iteration #  2     ecut=   100.00 Ry     beta= 0.70
     Davidson diagonalization with overlap
     ethr =  4.71E-08,  avg # of iterations =  2.4

     total cpu time spent up to now is       14.6 secs

     total energy              =     -37.04657976 Ry
     estimated scf accuracy    <       0.00000505 Ry

     iteration #  3     ecut=   100.00 Ry     beta= 0.70
     Davidson diagonalization with overlap
     ethr =  4.71E-08,  avg # of iterations =  1.0

     total cpu time spent up to now is       15.2 secs

     total energy              =     -37.04657906 Ry
     estimated scf accuracy    <       0.00000150 Ry

     iteration #  4     ecut=   100.00 Ry     beta= 0.70
     Davidson diagonalization with overlap
     ethr =  1.50E-08,  avg # of iterations =  1.3

     total cpu time spent up to now is       15.7 secs

     total energy              =     -37.04657920 Ry
     estimated scf accuracy    <       0.00000002 Ry

     iteration #  5     ecut=   100.00 Ry     beta= 0.70
     Davidson diagonalization with overlap
     ethr =  2.36E-10,  avg # of iterations =  2.2

     total cpu time spent up to now is       16.4 secs

     total energy              =     -37.04657920 Ry
     estimated scf accuracy    <          1.0E-09 Ry

     iteration #  6     ecut=   100.00 Ry     beta= 0.70
     Davidson diagonalization with overlap
     ethr =  1.03E-11,  avg # of iterations =  2.0

     total cpu time spent up to now is       16.9 secs

     End of self-consistent calculation

          k = 0.0000 0.0000 0.0000 (  3319 PWs)   bands (ev):

   -38.5243 -37.9341  -2.2521   9.7794   9.7794  11.6317  12.1012  13.5661
    13.5661

          k =-0.1235 0.0000 0.1308 (  3326 PWs)   bands (ev):

   -38.5015 -37.9563  -2.0521   8.8785   9.0638  10.6912  12.2471  12.7879
    14.0296

          k =-0.2471 0.0000 0.2616 (  3324 PWs)   bands (ev):

   -38.4367 -38.0197  -1.4555   6.4454   7.9852  10.1575  11.4905  12.5163
    14.9331

          k =-0.3706 0.0000 0.3924 (  3325 PWs)   bands (ev):

   -38.3403 -38.1147  -0.5209   4.1108   7.2486   9.9635  10.6290  12.6903
    16.2476

          k = 0.4941-0.0000-0.5232 (  3324 PWs)   bands (ev):

   -38.2275 -38.2269   0.1868   2.9104   6.9948   9.9156  10.3348  12.7336
    17.3512

          k =-0.1235 0.1235 0.2616 (  3320 PWs)   bands (ev):

   -38.4406 -38.0172  -1.6121   7.2781   8.1882   9.6329  12.6656  12.7548
    13.5928

          k =-0.2471 0.1235 0.3924 (  3324 PWs)   bands (ev):

   -38.3468 -38.1096  -0.8117   5.0576   7.0753   9.0356  12.1819  13.2654
    14.6679

          k =-0.3706 0.1235 0.5232 (  3327 PWs)   bands (ev):

   -38.2347 -38.2197   0.1068   3.2784   6.4938   8.7845  11.9229  13.4633
    16.0252

          k = 0.4941 0.1235-0.3924 (  3329 PWs)   bands (ev):

   -38.3312 -38.1219  -0.0536   3.4867   6.4367   8.8051  12.0427  13.2751
    17.4187

          k = 0.3706 0.1235-0.2616 (  3319 PWs)   bands (ev):

   -38.4275 -38.0256  -1.0207   5.3921   6.9263   9.0625  12.4356  13.0345
    16.8419

          k = 0.2471 0.1235-0.1308 (  3315 PWs)   bands (ev):

   -38.4940 -37.9606  -1.7563   7.3296   8.2781   9.5379  12.5551  13.3444
    15.1538

          k = 0.1235 0.1235 0.0000 (  3311 PWs)   bands (ev):

   -38.5201 -37.9364  -2.1029   8.5438   9.4349  10.5174  12.3145  13.7777
    14.1846

          k =-0.2471 0.2471 0.5232 (  3323 PWs)   bands (ev):

   -38.2378 -38.2166   0.0355   3.7742   5.8167   8.4583  12.7805  14.2647
    15.8439

          k =-0.3706 0.2471 0.6540 (  3325 PWs)   bands (ev):

   -38.3247 -38.1270   0.3134   3.4575   5.2569   8.2719  13.1382  14.8300
    16.1215

          k = 0.4941 0.2471-0.2616 (  3330 PWs)   bands (ev):

   -38.4182 -38.0316  -0.4573   4.7108   5.5269   8.3273  13.4263  14.2893
    16.8371

          k = 0.3706 0.2471-0.1308 (  3318 PWs)   bands (ev):

   -38.4832 -37.9666  -1.2399   5.5875   7.3911   8.5846  13.4252  13.6298
    15.2692

          k = 0.2471 0.2471 0.0000 (  3319 PWs)   bands (ev):

   -38.5100 -37.9418  -1.6873   6.4851   8.7435   9.2746  13.0504  13.0888
    14.3355

          k =-0.3706 0.3706 0.7848 (  3335 PWs)   bands (ev):

   -38.4143 -38.0341  -0.1557   4.4988   4.8640   8.1068  14.2149  15.1383
    15.3105

          k = 0.4941 0.3706-0.1308 (  3329 PWs)   bands (ev):

   -38.4757 -37.9708  -0.7500   4.3910   6.8868   8.1306  13.3468  14.7893
    15.7455

          k = 0.3706 0.3706-0.0000 (  3320 PWs)   bands (ev):

   -38.4999 -37.9472  -1.1457   4.8111   8.1877   8.4989  12.2672  14.2974
    14.9814

          k = 0.4941-0.4941-1.0464 (  3336 PWs)   bands (ev):

   -38.4957 -37.9494  -0.8539   4.1274   7.9849   8.2380  11.9844  15.2848
    15.4389

          k = 0.0000 0.0000 0.2616 (  3339 PWs)   bands (ev):

   -38.4445 -38.0147  -1.7612   8.4408   8.4408   9.6407  12.3694  13.1570
    13.1570

          k =-0.1235 0.0000 0.3924 (  3317 PWs)   bands (ev):

   -38.3534 -38.1046  -1.0917   6.2838   7.2490   9.0633  12.5862  12.7865
    13.7156

          k =-0.2471 0.0000 0.5232 (  3320 PWs)   bands (ev):

   -38.2425 -38.2124  -0.1399   4.0234   6.4011   9.0949  11.9646  13.1358
    14.4464

          k = 0.6177-0.0000-0.3924 (  3319 PWs)   bands (ev):

   -38.3224 -38.1293   0.3441   3.1147   6.0582   9.2918  11.8411  12.7659
    15.5621

          k = 0.4941-0.0000-0.2616 (  3327 PWs)   bands (ev):

   -38.4186 -38.0317  -0.5267   4.5137   6.2506   9.4603  12.2451  12.2654
    16.8693

          k = 0.3706-0.0000-0.1308 (  3317 PWs)   bands (ev):

   -38.4867 -37.9649  -1.4251   6.7526   6.9634   9.5246  12.0145  13.2022
    16.6366

          k = 0.2471-0.0000 0.0000 (  3312 PWs)   bands (ev):

   -38.5160 -37.9386  -1.9442   8.0950   8.6012   9.9260  12.1081  14.1240
    15.0640

          k =-0.1235 0.1235 0.5232 (  3324 PWs)   bands (ev):

   -38.2457 -38.2094  -0.2516   4.7930   5.9448   8.5731  12.6010  13.2546
    14.9134

          k =-0.2471 0.1235 0.6540 (  3324 PWs)   bands (ev):

   -38.3163 -38.1345   0.5481   3.4386   5.2436   8.7166  12.2942  13.8530
    14.6514

          k = 0.6177 0.1235-0.2616 (  3331 PWs)   bands (ev):

   -38.4097 -38.0378   0.1146   4.0075   5.1785   8.9180  12.0710  13.6820
    15.1182

          k = 0.4941 0.1235-0.1308 (  3328 PWs)   bands (ev):

   -38.4763 -37.9709  -0.8410   5.4012   6.1434   8.8882  11.9750  13.9231
    16.2066

          k = 0.3706 0.1235 0.0000 (  3328 PWs)   bands (ev):

   -38.5061 -37.9440  -1.5011   6.3545   7.8993   8.9898  12.2113  14.3706
    14.7783

          k =-0.2471 0.2471 0.7848 (  3336 PWs)   bands (ev):

   -38.4060 -38.0403   0.4593   4.0254   4.4203   8.7310  12.2102  14.2645
    14.3547

          k = 0.6177 0.2471-0.1308 (  3343 PWs)   bands (ev):

   -38.4690 -37.9752  -0.2713   4.2922   5.7037   8.5134  12.4368  14.1669
    14.9278

          k = 0.4941 0.2471-0.0000 (  3330 PWs)   bands (ev):

   -38.4962 -37.9495  -0.9175   4.7496   7.3717   8.3341  12.7827  13.8358
    15.4718

          k = 0.2471 0.2471 0.2616 (  3316 PWs)   bands (ev):

   -38.4311 -38.0231  -1.1986   5.9654   7.6907   7.7112  13.4838  14.6546
    14.6888

          k = 0.6177-0.6177-1.0464 (  3336 PWs)   bands (ev):

   -38.4921 -37.9517  -0.5974   4.0689   7.1725   8.1061  12.9383  14.4914
    14.9934

          k = 0.3706-0.6177-0.7848 (  3329 PWs)   bands (ev):

   -38.4217 -38.0290  -0.6649   4.9861   6.1683   7.2881  14.7478  15.6105
    15.9492

          k = 0.2471-0.6177-0.6540 (  3328 PWs)   bands (ev):

   -38.3373 -38.1166  -0.3449   4.2461   6.5497   7.2742  14.1797  14.3534
    16.5208

          k = 0.4941-0.4941-0.7848 (  3324 PWs)   bands (ev):

   -38.4177 -38.0315  -0.3813   4.5296   5.6597   7.1397  15.5759  15.8954
    16.4225

          k = 0.3706-0.4941-0.6540 (  3333 PWs)   bands (ev):

   -38.3307 -38.1216   0.0567   4.1042   5.3047   6.7419  15.5520  16.1895
    18.1306

          k = 0.2471-0.4941-0.5232 (  3338 PWs)   bands (ev):

   -38.2271 -38.2268   0.2594   3.2494   6.2351   7.1228  14.1269  14.5343
    17.7223

          k = 0.3706-0.3706-0.5232 (  3332 PWs)   bands (ev):

   -38.2299 -38.2237   0.2751   3.5619   5.6979   6.6500  15.5686  15.6458
    17.3821

          k = 0.0000 0.0000 0.5232 (  3343 PWs)   bands (ev):

   -38.2489 -38.2065  -0.3713   6.0012   6.0012   7.1224  12.8888  14.6085
    14.6085

          k =-0.1235 0.0000 0.6540 (  3318 PWs)   bands (ev):

   -38.3103 -38.1399   0.5672   4.2657   5.1420   7.1950  13.2051  13.5502
    14.7615

          k = 0.7412-0.0000-0.2616 (  3330 PWs)   bands (ev):

   -38.4012 -38.0440   0.8266   3.6562   4.8080   7.8659  11.6965  13.9108
    14.7735

          k = 0.6177-0.0000-0.1308 (  3345 PWs)   bands (ev):

   -38.4666 -37.9771  -0.1238   5.0233   5.0542   8.3318  10.8335  14.8196
    15.2371

          k = 0.4941-0.0000 0.0000 (  3336 PWs)   bands (ev):

   -38.4967 -37.9495  -0.9759   5.7732   6.6340   8.4331  11.1795  15.7689
    16.0462

          k =-0.1235 0.1235 0.7848 (  3322 PWs)   bands (ev):

   -38.3977 -38.0466   1.1695   3.8499   4.3361   7.2690  11.5472  13.4934
    15.7021

          k = 0.7412 0.1235-0.1308 (  3345 PWs)   bands (ev):

   -38.4596 -37.9815   0.6162   4.1389   4.7356   7.8790  10.3312  13.9271
    16.0668

          k = 0.6177 0.1235-0.0000 (  3329 PWs)   bands (ev):

   -38.4873 -37.9550  -0.2627   4.5744   6.0453   7.9873  10.7830  14.7383
    16.5368

          k = 0.7412-0.7412-1.0464 (  3344 PWs)   bands (ev):

   -38.4834 -37.9573   0.1523   3.9245   5.8680   7.8240  10.7520  14.1605
    16.2693

          k = 0.4941-0.4941-0.5232 (  3328 PWs)   bands (ev):

   -38.2266 -38.2266   0.3383   3.8355   5.6509   5.6509  16.5630  18.4428
    18.6399

          k =-0.0000-0.0000 0.7848 (  3332 PWs)   bands (ev):

   -38.3943 -38.0492   1.4478   4.2995   4.2995   5.9918  11.3946  13.2238
    17.4648

          k = 0.8647-0.0000-0.1308 (  3340 PWs)   bands (ev):

   -38.4530 -37.9859   1.6133   3.9914   4.0553   6.8162   9.5009  13.4152
    18.2032

          k = 0.7412-0.0000-0.0000 (  3344 PWs)   bands (ev):

   -38.4783 -37.9606   0.6787   4.2378   4.9514   7.6912   9.1323  13.8439
    18.3226

          k = 0.8647-0.8647-1.0464 (  3348 PWs)   bands (ev):

   -38.4746 -37.9629   1.3027   3.7760   4.6279   7.5796   8.5374  13.5326
    19.0904

          k = 0.0000-0.0000-1.0464 (  3356 PWs)   bands (ev):

   -38.4710 -37.9652   2.2537   3.7134   3.7134   7.4867   7.7138  13.3122
    20.3295

     the Fermi energy is     7.5473 ev

!    total energy              =     -37.04657920 Ry
     estimated scf accuracy    <          8.6E-11 Ry
     smearing contrib. (-TS)   =       0.00088930 Ry
     internal energy E=F+TS    =     -37.04746850 Ry

     The total energy is F=E-TS. E is the sum of the following terms:
     one-electron contribution =     -10.33332905 Ry
     hartree contribution      =       6.51356608 Ry
     xc contribution           =     -10.21202008 Ry
     ewald contribution        =     -23.01568546 Ry

     convergence has been achieved in   6 iterations

     Forces acting on atoms (cartesian axes, Ry/au):

     atom    1 type  1   force =    -0.00000000    0.00000000    0.00000000
     atom    2 type  2   force =    -0.00000000   -0.00000000    0.00000000
     atom    3 type  2   force =    -0.00000000    0.00000000   -0.00000000
     The non-local contrib.  to forces
     atom    1 type  1   force =    -0.00000000   -0.00000000    0.00000000
     atom    2 type  2   force =    -0.00000000   -0.00000000    0.00000000
     atom    3 type  2   force =     0.00000000    0.00000000    0.00000000
     The ionic contribution  to forces
     atom    1 type  1   force =     0.00000000    0.00000000    0.00000000
     atom    2 type  2   force =     0.00000000   -0.00000000    0.00000000
     atom    3 type  2   force =    -0.00000000   -0.00000000   -0.00000000
     The local contribution  to forces
     atom    1 type  1   force =    -0.00000000    0.00000000    0.00000000
     atom    2 type  2   force =     0.00000000   -0.00000000   -0.00000000
     atom    3 type  2   force =     0.00000000    0.00000000   -0.00000000
     The core correction contribution to forces
     atom    1 type  1   force =     0.00000000    0.00000000    0.00000000
     atom    2 type  2   force =     0.00000000    0.00000000    0.00000000
     atom    3 type  2   force =     0.00000000    0.00000000    0.00000000
     The Hubbard contrib.    to forces
     atom    1 type  1   force =     0.00000000    0.00000000    0.00000000
     atom    2 type  2   force =     0.00000000    0.00000000    0.00000000
     atom    3 type  2   force =     0.00000000    0.00000000    0.00000000
     The SCF correction term to forces
     atom    1 type  1   force =     0.00000000   -0.00000000   -0.00000000
     atom    2 type  2   force =     0.00000000   -0.00000000    0.00000000
     atom    3 type  2   force =    -0.00000000    0.00000000   -0.00000000

     Total force =     0.000000     Total SCF correction =     0.000000


     Computing stress (Cartesian axis) and pressure

          total   stress  (Ry/bohr**3)                   (kbar)     P=      491.99
   0.00339186  -0.00000000   0.00000000          498.96       -0.00        0.00
  -0.00000000   0.00339186   0.00000000           -0.00      498.96        0.00
   0.00000000   0.00000000   0.00324981            0.00        0.00      478.06

     Energy error            =      2.1E-04 Ry
     Gradient error          =      2.6E-31 Ry/Bohr
     Cell gradient error     =      2.2E+01 kbar

     number of scf cycles    =   3
     number of bfgs steps    =   2

     enthalpy           old  =     -36.3644933663 Ry
     enthalpy           new  =     -36.3647051399 Ry

     CASE: enthalpy          _new < enthalpy          _old

     new trust radius        =       0.0163434626 bohr
ibrav =      7
 celldm(1) =      7.53460225
 celldm(3) =      0.93685541
Input lattice vectors:
     0.50708248    -0.50708248     0.47506297
     0.50708248     0.50708248     0.47506297
    -0.50708248    -0.50708248     0.47506297
New lattice vectors in INITIAL alat:
     0.50708248    -0.50708248     0.47506297
     0.50708248     0.50708248     0.47506297
    -0.50708248    -0.50708248     0.47506297
New lattice vectors in NEW alat (for information only):
     0.50000000    -0.50000000     0.46842771
     0.50000000     0.50000000     0.46842771
    -0.50000000    -0.50000000     0.46842771
Discrepancy in bohr =     0.000000    0.000000    0.000000
     new conv_thr            =            1.0E-10 Ry

     new unit-cell volume =    200.36579 a.u.^3 (    29.69115 Ang^3 )
     density =      2.34712 g/cm^3

CELL_PARAMETERS (alat=  7.42936554)
   0.507082483  -0.507082483   0.475062969
   0.507082483   0.507082483   0.475062969
  -0.507082483  -0.507082483   0.475062969

ATOMIC_POSITIONS (crystal)
Si           -0.0000000000        0.0000000000        0.0000000000
Li           -0.5000000000        0.7500000000        0.2500000000
Li           -0.5000000000        1.2500000000        0.7500000000



     Writing config-only to output data dir ./output/SiLi.save/
     NEW-OLD atomic charge density approx. for the potential
     extrapolated charge    9.98761, renormalised to   10.00000

     total cpu time spent up to now is       18.1 secs

     Self-consistent Calculation

     iteration #  1     ecut=   100.00 Ry     beta= 0.70
     Davidson diagonalization with overlap
     ethr =  1.00E-06,  avg # of iterations =  3.2

     Threshold (ethr) on eigenvalues was too large:
     Diagonalizing with lowered threshold

     Davidson diagonalization with overlap
     ethr =  1.40E-08,  avg # of iterations =  2.8

     total cpu time spent up to now is       19.4 secs

     total energy              =     -37.04586132 Ry
     estimated scf accuracy    <       0.00000143 Ry

     iteration #  2     ecut=   100.00 Ry     beta= 0.70
     Davidson diagonalization with overlap
     ethr =  1.43E-08,  avg # of iterations =  2.2

     total cpu time spent up to now is       20.1 secs

     total energy              =     -37.04586458 Ry
     estimated scf accuracy    <       0.00000102 Ry

     iteration #  3     ecut=   100.00 Ry     beta= 0.70
     Davidson diagonalization with overlap
     ethr =  1.02E-08,  avg # of iterations =  1.0

     total cpu time spent up to now is       20.6 secs

     total energy              =     -37.04586446 Ry
     estimated scf accuracy    <       0.00000026 Ry

     iteration #  4     ecut=   100.00 Ry     beta= 0.70
     Davidson diagonalization with overlap
     ethr =  2.64E-09,  avg # of iterations =  2.0

     total cpu time spent up to now is       21.2 secs

     total energy              =     -37.04586450 Ry
     estimated scf accuracy    <          3.5E-09 Ry

     iteration #  5     ecut=   100.00 Ry     beta= 0.70
     Davidson diagonalization with overlap
     ethr =  3.51E-11,  avg # of iterations =  2.0

     total cpu time spent up to now is       21.8 secs

     End of self-consistent calculation

          k = 0.0000 0.0000 0.0000 (  3319 PWs)   bands (ev):

   -38.5459 -37.9351  -2.2443   9.7722   9.7722  11.6943  12.1408  13.6555
    13.6555

          k =-0.1233-0.0000 0.1316 (  3326 PWs)   bands (ev):

   -38.5224 -37.9582  -2.0428   8.9101   9.0605  10.7280  12.2676  12.8193
    14.0751

          k =-0.2465-0.0000 0.2631 (  3324 PWs)   bands (ev):

   -38.4555 -38.0239  -1.4414   6.4886   7.9857  10.1762  11.4973  12.5169
    14.9568

          k =-0.3698 0.0000 0.3947 (  3325 PWs)   bands (ev):

   -38.3558 -38.1223  -0.4978   4.1408   7.2513   9.9788  10.6246  12.6906
    16.2557

          k = 0.4930 0.0000-0.5262 (  3324 PWs)   bands (ev):

   -38.2391 -38.2386   0.2202   2.9281   6.9982   9.9293  10.3268  12.7373
    17.3355

          k =-0.1233 0.1233 0.2631 (  3320 PWs)   bands (ev):

   -38.4592 -38.0215  -1.5973   7.3086   8.2213   9.6290  12.6679  12.7598
    13.6049

          k =-0.2465 0.1233 0.3947 (  3324 PWs)   bands (ev):

   -38.3621 -38.1174  -0.7882   5.0823   7.0973   9.0321  12.1769  13.2536
    14.6747

          k =-0.3698 0.1233 0.5262 (  3327 PWs)   bands (ev):

   -38.2462 -38.2315   0.1403   3.2935   6.5034   8.7917  11.9137  13.4621
    16.0153

          k = 0.4930 0.1233-0.3947 (  3329 PWs)   bands (ev):

   -38.3469 -38.1293  -0.0301   3.5159   6.4358   8.8263  12.0343  13.2908
    17.3833

          k = 0.3698 0.1233-0.2631 (  3319 PWs)   bands (ev):

   -38.4464 -38.0297  -1.0085   5.4369   6.9199   9.0979  12.4238  13.0659
    16.8686

          k = 0.2465 0.1233-0.1316 (  3315 PWs)   bands (ev):

   -38.5150 -37.9623  -1.7488   7.3351   8.3127   9.5877  12.5351  13.4037
    15.2159

          k = 0.1233 0.1233 0.0000 (  3311 PWs)   bands (ev):

   -38.5418 -37.9373  -2.0961   8.5286   9.4568  10.5956  12.3184  13.8656
    14.2155

          k =-0.2465 0.2465 0.5262 (  3323 PWs)   bands (ev):

   -38.2492 -38.2285   0.0693   3.7842   5.8346   8.4650  12.7561  14.2631
    15.8230

          k =-0.3698 0.2465 0.6578 (  3325 PWs)   bands (ev):

   -38.3405 -38.1343   0.3394   3.4797   5.2630   8.2996  13.1084  14.8396
    16.1528

          k = 0.4930 0.2465-0.2631 (  3330 PWs)   bands (ev):

   -38.4373 -38.0355  -0.4477   4.7434   5.5385   8.3760  13.3919  14.3599
    16.8123

          k = 0.3698 0.2465-0.1316 (  3318 PWs)   bands (ev):

   -38.5045 -37.9681  -1.2358   5.5821   7.4514   8.6497  13.3796  13.7186
    15.3505

          k = 0.2465 0.2465 0.0000 (  3319 PWs)   bands (ev):

   -38.5319 -37.9425  -1.6834   6.4705   8.7984   9.3621  13.0114  13.1634
    14.4192

          k =-0.3698 0.3698 0.7894 (  3335 PWs)   bands (ev):

   -38.4335 -38.0379  -0.1474   4.5001   4.9107   8.1591  14.2145  15.1924
    15.2637

          k = 0.4930 0.3698-0.1316 (  3329 PWs)   bands (ev):

   -38.4970 -37.9722  -0.7498   4.3874   6.9559   8.2021  13.4511  14.7277
    15.8029

          k = 0.3698 0.3698-0.0000 (  3320 PWs)   bands (ev):

   -38.5220 -37.9478  -1.1461   4.8029   8.2576   8.5913  12.3535  14.2342
    15.0602

          k = 0.4930-0.4930-1.0525 (  3336 PWs)   bands (ev):

   -38.5179 -37.9500  -0.8570   4.1232   8.0589   8.3318  12.0737  15.3613
    15.3639

          k = 0.0000-0.0000 0.2631 (  3339 PWs)   bands (ev):

   -38.4631 -38.0191  -1.7455   8.4658   8.4658   9.6627  12.4072  13.1387
    13.1387

          k =-0.1233-0.0000 0.3947 (  3317 PWs)   bands (ev):

   -38.3686 -38.1125  -1.0669   6.3050   7.2677   9.0664  12.5583  12.8076
    13.6976

          k =-0.2465-0.0000 0.5262 (  3320 PWs)   bands (ev):

   -38.2537 -38.2244  -0.1041   4.0350   6.4076   9.0923  11.9491  13.1459
    14.4509

          k = 0.6163 0.0000-0.3947 (  3319 PWs)   bands (ev):

   -38.3383 -38.1366   0.3745   3.1373   6.0526   9.2955  11.8442  12.7981
    15.5441

          k = 0.4930 0.0000-0.2631 (  3327 PWs)   bands (ev):

   -38.4377 -38.0356  -0.5149   4.5641   6.2348   9.4854  12.2708  12.2909
    16.8414

          k = 0.3698-0.0000-0.1316 (  3317 PWs)   bands (ev):

   -38.5078 -37.9665  -1.4189   6.8152   6.9403   9.5800  12.0128  13.2527
    16.6841

          k = 0.2465 0.0000 0.0000 (  3312 PWs)   bands (ev):

   -38.5378 -37.9395  -1.9383   8.0703   8.6416  10.0089  12.1011  14.2105
    15.0995

          k =-0.1233 0.1233 0.5262 (  3324 PWs)   bands (ev):

   -38.2569 -38.2215  -0.2150   4.7993   5.9561   8.5643  12.5867  13.2734
    14.8840

          k =-0.2465 0.1233 0.6578 (  3324 PWs)   bands (ev):

   -38.3323 -38.1417   0.5872   3.4482   5.2433   8.7128  12.2997  13.8601
    14.7096

          k = 0.6163 0.1233-0.2631 (  3331 PWs)   bands (ev):

   -38.4290 -38.0415   0.1275   4.0529   5.1693   8.9443  12.0834  13.7330
    15.0927

          k = 0.4930 0.1233-0.1316 (  3328 PWs)   bands (ev):

   -38.4977 -37.9724  -0.8374   5.4010   6.1931   8.9554  11.9618  13.9826
    16.1810

          k = 0.3698 0.1233-0.0000 (  3328 PWs)   bands (ev):

   -38.5281 -37.9448  -1.4977   6.3381   7.9571   9.0787  12.1835  14.4361
    14.8606

          k =-0.2465 0.2465 0.7894 (  3336 PWs)   bands (ev):

   -38.4254 -38.0440   0.4743   4.0662   4.4160   8.7595  12.2092  14.2452
    14.4317

          k = 0.6163 0.2465-0.1316 (  3343 PWs)   bands (ev):

   -38.4905 -37.9765  -0.2703   4.2852   5.7697   8.5879  12.4081  14.2286
    14.8827

          k = 0.4930 0.2465-0.0000 (  3330 PWs)   bands (ev):

   -38.5184 -37.9500  -0.9179   4.7394   7.4440   8.4268  12.7659  13.8784
    15.5488

          k = 0.2465 0.2465 0.2631 (  3316 PWs)   bands (ev):

   -38.4500 -38.0272  -1.1862   5.9941   7.7135   7.7361  13.4462  14.6814
    14.7359

          k = 0.6163-0.6163-1.0525 (  3336 PWs)   bands (ev):

   -38.5143 -37.9522  -0.6005   4.0623   7.2492   8.2001  12.9801  14.4608
    14.9347

          k = 0.3698-0.6163-0.7894 (  3329 PWs)   bands (ev):

   -38.4407 -38.0330  -0.6558   4.9994   6.1973   7.3415  14.6897  15.7223
    16.0149

          k = 0.2465-0.6163-0.6578 (  3328 PWs)   bands (ev):

   -38.3529 -38.1242  -0.3233   4.2719   6.5660   7.2910  14.1500  14.3622
    16.5320

          k = 0.4930-0.4930-0.7894 (  3324 PWs)   bands (ev):

   -38.4369 -38.0353  -0.3742   4.5332   5.7033   7.1957  15.7087  15.8307
    16.4649

          k = 0.3698-0.4930-0.6578 (  3333 PWs)   bands (ev):

   -38.3464 -38.1291   0.0771   4.1269   5.3153   6.7786  15.5092  16.2132
    18.1363

          k = 0.2465-0.4930-0.5262 (  3338 PWs)   bands (ev):

   -38.2387 -38.2384   0.2905   3.2641   6.2517   7.1375  14.1215  14.5170
    17.6970

          k = 0.3698-0.3698-0.5262 (  3332 PWs)   bands (ev):

   -38.2415 -38.2354   0.3052   3.5727   5.7215   6.6672  15.5484  15.6172
    17.3719

          k = 0.0000-0.0000 0.5262 (  3343 PWs)   bands (ev):

   -38.2601 -38.2186  -0.3338   6.0095   6.0095   7.1080  12.9147  14.5766
    14.5766

          k =-0.1233 0.0000 0.6578 (  3318 PWs)   bands (ev):

   -38.3265 -38.1469   0.6153   4.2643   5.1384   7.1764  13.2301  13.6435
    14.7519

          k = 0.7395-0.0000-0.2631 (  3330 PWs)   bands (ev):

   -38.4207 -38.0475   0.8510   3.6888   4.7945   7.8584  11.7815  13.9029
    14.7908

          k = 0.6163 0.0000-0.1316 (  3345 PWs)   bands (ev):

   -38.4881 -37.9783  -0.1201   5.0023   5.1191   8.3823  10.8523  14.7830
    15.2832

          k = 0.4930 0.0000 0.0000 (  3336 PWs)   bands (ev):

   -38.5188 -37.9501  -0.9741   5.7482   6.7026   8.5246  11.1583  15.8467
    16.0074

          k =-0.1233 0.1233 0.7894 (  3322 PWs)   bands (ev):

   -38.4173 -38.0500   1.2065   3.8647   4.3263   7.2540  11.6444  13.4928
    15.7246

          k = 0.7395 0.1233-0.1316 (  3345 PWs)   bands (ev):

   -38.4813 -37.9825   0.6219   4.1285   4.7873   7.9159  10.3617  13.9079
    16.1110

          k = 0.6163 0.1233-0.0000 (  3329 PWs)   bands (ev):

   -38.5096 -37.9554  -0.2630   4.5592   6.1118   8.0808  10.7527  14.6992
    16.5946

          k = 0.7395-0.7395-1.0525 (  3344 PWs)   bands (ev):

   -38.5058 -37.9576   0.1508   3.9124   5.9360   7.9183  10.7128  14.1296
    16.3323

          k = 0.4930-0.4930-0.5262 (  3328 PWs)   bands (ev):

   -38.2383 -38.2383   0.3667   3.8418   5.6768   5.6768  16.5186  18.4765
    18.6206

          k =-0.0000-0.0000 0.7894 (  3332 PWs)   bands (ev):

   -38.4139 -38.0526   1.5034   4.2874   4.2874   5.9776  11.5109  13.2295
    17.4633

          k = 0.8628-0.0000-0.1316 (  3340 PWs)   bands (ev):

   -38.4748 -37.9868   1.6369   3.9734   4.0744   6.8295   9.5812  13.4102
    18.2344

          k = 0.7395-0.0000-0.0000 (  3344 PWs)   bands (ev):

   -38.5008 -37.9608   0.6811   4.2168   5.0023   7.7856   9.1191  13.8244
    18.3851

          k = 0.8628-0.8628-1.0525 (  3348 PWs)   bands (ev):

   -38.4972 -37.9630   1.3102   3.7587   4.6602   7.6742   8.5333  13.5217
    19.1464

          k =-0.0000 0.0000-1.0525 (  3356 PWs)   bands (ev):

   -38.4936 -37.9652   2.2909   3.6940   3.6940   7.5815   7.7349  13.3082
    20.3740

     the Fermi energy is     7.5904 ev

!    total energy              =     -37.04586450 Ry
     estimated scf accuracy    <          8.0E-11 Ry
     smearing contrib. (-TS)   =       0.00090866 Ry
     internal energy E=F+TS    =     -37.04677316 Ry

     The total energy is F=E-TS. E is the sum of the following terms:
     one-electron contribution =     -10.32598888 Ry
     hartree contribution      =       6.51215797 Ry
     xc contribution           =     -10.21221329 Ry
     ewald contribution        =     -23.02072895 Ry

     convergence has been achieved in   5 iterations

     Forces acting on atoms (cartesian axes, Ry/au):

     atom    1 type  1   force =     0.00000000    0.00000000    0.00000000
     atom    2 type  2   force =     0.00000000   -0.00000000   -0.00000000
     atom    3 type  2   force =     0.00000000   -0.00000000    0.00000000
     The non-local contrib.  to forces
     atom    1 type  1   force =    -0.00000000    0.00000000   -0.00000000
     atom    2 type  2   force =    -0.00000000   -0.00000000    0.00000000
     atom    3 type  2   force =     0.00000000    0.00000000    0.00000000
     The ionic contribution  to forces
     atom    1 type  1   force =     0.00000000    0.00000000    0.00000000
     atom    2 type  2   force =    -0.00000000   -0.00000000    0.00000000
     atom    3 type  2   force =    -0.00000000   -0.00000000    0.00000000
     The local contribution  to forces
     atom    1 type  1   force =    -0.00000000    0.00000000    0.00000000
     atom    2 type  2   force =     0.00000000   -0.00000000   -0.00000000
     atom    3 type  2   force =    -0.00000000    0.00000000   -0.00000000
     The core correction contribution to forces
     atom    1 type  1   force =     0.00000000   -0.00000000   -0.00000000
     atom    2 type  2   force =     0.00000000    0.00000000    0.00000000
     atom    3 type  2   force =     0.00000000    0.00000000    0.00000000
     The Hubbard contrib.    to forces
     atom    1 type  1   force =     0.00000000    0.00000000    0.00000000
     atom    2 type  2   force =     0.00000000    0.00000000    0.00000000
     atom    3 type  2   force =     0.00000000    0.00000000    0.00000000
     The SCF correction term to forces
     atom    1 type  1   force =    -0.00000000   -0.00000000    0.00000000
     atom    2 type  2   force =    -0.00000000    0.00000000   -0.00000000
     atom    3 type  2   force =     0.00000000    0.00000000   -0.00000000

     Total force =     0.000000     Total SCF correction =     0.000000


     Computing stress (Cartesian axis) and pressure

          total   stress  (Ry/bohr**3)                   (kbar)     P=      491.51
   0.00336498  -0.00000000  -0.00000000          495.01       -0.00       -0.00
  -0.00000000   0.00336498  -0.00000000           -0.00      495.01       -0.00
   0.00000000  -0.00000000   0.00329372            0.00       -0.00      484.52

     Energy error            =      1.3E-04 Ry
     Gradient error          =      1.2E-30 Ry/Bohr
     Cell gradient error     =      1.5E+01 kbar

     number of scf cycles    =   4
     number of bfgs steps    =   3

     enthalpy           old  =     -36.3647051399 Ry
     enthalpy           new  =     -36.3648350314 Ry

     CASE: enthalpy          _new < enthalpy          _old

     new trust radius        =       0.0237126372 bohr
ibrav =      7
 celldm(1) =      7.54780869
 celldm(3) =      0.92738279
Input lattice vectors:
     0.50797128    -0.50797128     0.47108383
     0.50797128     0.50797128     0.47108383
    -0.50797128    -0.50797128     0.47108383
New lattice vectors in INITIAL alat:
     0.50797128    -0.50797128     0.47108383
     0.50797128     0.50797128     0.47108383
    -0.50797128    -0.50797128     0.47108383
New lattice vectors in NEW alat (for information only):
     0.50000000    -0.50000000     0.46369140
     0.50000000     0.50000000     0.46369140
    -0.50000000    -0.50000000     0.46369140
Discrepancy in bohr =     0.000000    0.000000    0.000000
     new conv_thr            =            1.0E-10 Ry

     new unit-cell volume =    199.38464 a.u.^3 (    29.54575 Ang^3 )
     density =      2.35867 g/cm^3

CELL_PARAMETERS (alat=  7.42936554)
   0.507971283  -0.507971283   0.471083828
   0.507971283   0.507971283   0.471083828
  -0.507971283  -0.507971283   0.471083828

ATOMIC_POSITIONS (crystal)
Si           -0.0000000000        0.0000000000        0.0000000000
Li           -0.5000000000        0.7500000000        0.2500000000
Li           -0.5000000000        1.2500000000        0.7500000000



     Writing config-only to output data dir ./output/SiLi.save/
     NEW-OLD atomic charge density approx. for the potential
     extrapolated charge    9.95084, renormalised to   10.00000

     total cpu time spent up to now is       23.0 secs

     Self-consistent Calculation

     iteration #  1     ecut=   100.00 Ry     beta= 0.70
     Davidson diagonalization with overlap
     ethr =  1.00E-06,  avg # of iterations =  4.0

     total cpu time spent up to now is       23.8 secs

     total energy              =     -37.04255586 Ry
     estimated scf accuracy    <       0.00001468 Ry

     iteration #  2     ecut=   100.00 Ry     beta= 0.70
     Davidson diagonalization with overlap
     ethr =  1.47E-07,  avg # of iterations =  2.8

     total cpu time spent up to now is       24.5 secs

     total energy              =     -37.04260567 Ry
     estimated scf accuracy    <       0.00001571 Ry

     iteration #  3     ecut=   100.00 Ry     beta= 0.70
     Davidson diagonalization with overlap
     ethr =  1.47E-07,  avg # of iterations =  1.0

     total cpu time spent up to now is       25.1 secs

     total energy              =     -37.04260398 Ry
     estimated scf accuracy    <       0.00000465 Ry

     iteration #  4     ecut=   100.00 Ry     beta= 0.70
     Davidson diagonalization with overlap
     ethr =  4.65E-08,  avg # of iterations =  1.0

     total cpu time spent up to now is       25.6 secs

     total energy              =     -37.04260378 Ry
     estimated scf accuracy    <       0.00000072 Ry

     iteration #  5     ecut=   100.00 Ry     beta= 0.70
     Davidson diagonalization with overlap
     ethr =  7.21E-09,  avg # of iterations =  2.0

     total cpu time spent up to now is       26.2 secs

     total energy              =     -37.04260390 Ry
     estimated scf accuracy    <       0.00000002 Ry

     iteration #  6     ecut=   100.00 Ry     beta= 0.70
     Davidson diagonalization with overlap
     ethr =  1.73E-10,  avg # of iterations =  2.3

     total cpu time spent up to now is       26.8 secs

     total energy              =     -37.04260390 Ry
     estimated scf accuracy    <          1.2E-09 Ry

     iteration #  7     ecut=   100.00 Ry     beta= 0.70
     Davidson diagonalization with overlap
     ethr =  1.23E-11,  avg # of iterations =  2.1

     total cpu time spent up to now is       27.4 secs

     total energy              =     -37.04260390 Ry
     estimated scf accuracy    <          6.7E-10 Ry

     iteration #  8     ecut=   100.00 Ry     beta= 0.70
     Davidson diagonalization with overlap
     ethr =  6.69E-12,  avg # of iterations =  1.1

     total cpu time spent up to now is       27.9 secs

     End of self-consistent calculation

          k = 0.0000 0.0000 0.0000 (  3319 PWs)   bands (ev):

   -38.5459 -37.9027  -2.2121   9.8048   9.8048  11.8261  12.2299  13.8088
    13.8088

          k =-0.1230-0.0000 0.1327 (  3326 PWs)   bands (ev):

   -38.5212 -37.9271  -2.0083   8.9894   9.0947  10.8205  12.3345  12.8963
    14.1763

          k =-0.2461-0.0000 0.2653 (  3324 PWs)   bands (ev):

   -38.4509 -37.9964  -1.3995   6.5780   8.0219  10.2424  11.5405  12.5617
    15.0339

          k =-0.3691-0.0000 0.3980 (  3325 PWs)   bands (ev):

   -38.3462 -38.1003  -0.4418   4.2068   7.2892  10.0412  10.6506  12.7372
    16.3156

          k = 0.4922 0.0000-0.5307 (  3324 PWs)   bands (ev):

   -38.2233 -38.2228   0.2932   2.9731   7.0367   9.9899  10.3472  12.7888
    17.3660

          k =-0.1230 0.1230 0.2653 (  3320 PWs)   bands (ev):

   -38.4547 -37.9941  -1.5547   7.3835   8.3002   9.6646  12.7098  12.8083
    13.6635

          k =-0.2461 0.1230 0.3980 (  3324 PWs)   bands (ev):

   -38.3524 -38.0954  -0.7323   5.1438   7.1593   9.0659  12.2105  13.2828
    14.7296

          k =-0.3691 0.1230 0.5307 (  3327 PWs)   bands (ev):

   -38.2302 -38.2158   0.2129   3.3362   6.5484   8.8381  11.9418  13.5066
    16.0525

          k = 0.4922 0.1230-0.3980 (  3329 PWs)   bands (ev):

   -38.3374 -38.1071   0.0279   3.5785   6.4667   8.8904  12.0632  13.3565
    17.3895

          k = 0.3691 0.1230-0.2653 (  3319 PWs)   bands (ev):

   -38.4420 -38.0021  -0.9687   5.5258   6.9447   9.1811  12.4473  13.1515
    16.9543

          k = 0.2461 0.1230-0.1327 (  3315 PWs)   bands (ev):

   -38.5139 -37.9311  -1.7165   7.3751   8.3959   9.6911  12.5519  13.5204
    15.3409

          k = 0.1230 0.1230 0.0000 (  3311 PWs)   bands (ev):

   -38.5419 -37.9048  -2.0651   8.5471   9.5237  10.7402  12.3644  14.0179
    14.2974

          k =-0.2461 0.2461 0.5307 (  3323 PWs)   bands (ev):

   -38.2332 -38.2128   0.1416   3.8211   5.8890   8.5107  12.7690  14.3076
    15.8437

          k =-0.3691 0.2461 0.6634 (  3325 PWs)   bands (ev):

   -38.3311 -38.1120   0.4019   3.5314   5.3015   8.3714  13.1150  14.8938
    16.2429

          k = 0.4922 0.2461-0.2653 (  3330 PWs)   bands (ev):

   -38.4330 -38.0077  -0.4105   4.8138   5.5848   8.4746  13.3918  14.4947
    16.8253

          k = 0.3691 0.2461-0.1327 (  3318 PWs)   bands (ev):

   -38.5035 -37.9367  -1.2078   5.6072   7.5634   8.7699  13.3643  13.8795
    15.4999

          k = 0.2461 0.2461 0.0000 (  3319 PWs)   bands (ev):

   -38.5321 -37.9099  -1.6560   6.4859   8.9056   9.5145  13.0046  13.3033
    14.5689

          k =-0.3691 0.3691 0.7960 (  3335 PWs)   bands (ev):

   -38.4292 -38.0101  -0.1115   4.5324   4.9985   8.2618  14.2455  15.2510
    15.3269

          k = 0.4922 0.3691-0.1327 (  3329 PWs)   bands (ev):

   -38.4962 -37.9407  -0.7267   4.4139   7.0775   8.3293  13.6308  14.6953
    15.9139

          k = 0.3691 0.3691-0.0000 (  3320 PWs)   bands (ev):

   -38.5223 -37.9150  -1.1244   4.8242   8.3824   8.7477  12.5068  14.1985
    15.2072

          k = 0.4922-0.4922-1.0614 (  3336 PWs)   bands (ev):

   -38.5182 -37.9171  -0.8390   4.1488   8.1883   8.4896  12.2303  15.3129
    15.5070

          k = 0.0000-0.0000 0.2653 (  3339 PWs)   bands (ev):

   -38.4584 -37.9917  -1.7019   8.5348   8.5348   9.7370  12.4970  13.1548
    13.1548

          k =-0.1230-0.0000 0.3980 (  3317 PWs)   bands (ev):

   -38.3588 -38.0907  -1.0098   6.3647   7.3250   9.1129  12.5606  12.8773
    13.7194

          k =-0.2461-0.0000 0.5307 (  3320 PWs)   bands (ev):

   -38.2377 -38.2089  -0.0299   4.0759   6.4466   9.1308  11.9658  13.2044
    14.5033

          k = 0.6152 0.0000-0.3980 (  3319 PWs)   bands (ev):

   -38.3289 -38.1142   0.4432   3.1897   6.0753   9.3416  11.8846  12.8840
    15.5708

          k = 0.4922 0.0000-0.2653 (  3327 PWs)   bands (ev):

   -38.4334 -38.0078  -0.4745   4.6582   6.2447   9.5571  12.3491  12.3609
    16.8476

          k = 0.3691 0.0000-0.1327 (  3317 PWs)   bands (ev):

   -38.5068 -37.9351  -1.3880   6.9306   6.9424   9.6899  12.0551  13.3569
    16.7938

          k = 0.2461 0.0000 0.0000 (  3312 PWs)   bands (ev):

   -38.5379 -37.9069  -1.9083   8.0738   8.7321  10.1575  12.1337  14.3615
    15.1893

          k =-0.1230 0.1230 0.5307 (  3324 PWs)   bands (ev):

   -38.2408 -38.2060  -0.1403   4.8352   6.0006   8.5934  12.6082  13.3444
    14.8924

          k =-0.2461 0.1230 0.6634 (  3324 PWs)   bands (ev):

   -38.3230 -38.1192   0.6682   3.4837   5.2713   8.7469  12.3470  13.9157
    14.8284

          k = 0.6152 0.1230-0.2653 (  3331 PWs)   bands (ev):

   -38.4248 -38.0136   0.1708   4.1387   5.1857   9.0152  12.1426  13.8408
    15.1103

          k = 0.4922 0.1230-0.1327 (  3328 PWs)   bands (ev):

   -38.4968 -37.9408  -0.8090   5.4272   6.2926   9.0789  11.9893  14.1027
    16.1878

          k = 0.3691 0.1230 0.0000 (  3328 PWs)   bands (ev):

   -38.5283 -37.9121  -1.4707   6.3488   8.0676   9.2325  12.1905  14.5667
    15.0086

          k =-0.2461 0.2461 0.7960 (  3336 PWs)   bands (ev):

   -38.4212 -38.0160   0.5211   4.1447   4.4386   8.8319  12.2512  14.2697
    14.5777

          k = 0.6152 0.2461-0.1327 (  3343 PWs)   bands (ev):

[...]
        k(   22) = (   0.0000000   0.0000000   0.2652240), wk =   0.0078125
        k(   23) = (  -0.1231642  -0.0000000   0.3978360), wk =   0.0312500
        k(   24) = (  -0.2463284  -0.0000000   0.5304481), wk =   0.0312500
        k(   25) = (   0.6158210  -0.0000000  -0.3978360), wk =   0.0312500
        k(   26) = (   0.4926568  -0.0000000  -0.2652240), wk =   0.0312500
        k(   27) = (   0.3694926  -0.0000000  -0.1326120), wk =   0.0312500
        k(   28) = (   0.2463284  -0.0000000  -0.0000000), wk =   0.0156250
        k(   29) = (  -0.1231642   0.1231642   0.5304481), wk =   0.0312500
        k(   30) = (  -0.2463284   0.1231642   0.6630601), wk =   0.0625000
        k(   31) = (   0.6158210   0.1231642  -0.2652240), wk =   0.0625000
        k(   32) = (   0.4926568   0.1231642  -0.1326120), wk =   0.0625000
        k(   33) = (   0.3694926   0.1231642  -0.0000000), wk =   0.0312500
        k(   34) = (  -0.2463284   0.2463284   0.7956721), wk =   0.0312500
        k(   35) = (   0.6158210   0.2463284  -0.1326120), wk =   0.0625000
        k(   36) = (   0.4926568   0.2463284  -0.0000000), wk =   0.0312500
        k(   37) = (   0.2463284   0.2463284   0.2652240), wk =   0.0312500
        k(   38) = (   0.6158210  -0.6158210  -1.0608961), wk =   0.0156250
        k(   39) = (   0.3694926  -0.6158210  -0.7956721), wk =   0.0312500
        k(   40) = (   0.2463284  -0.6158210  -0.6630601), wk =   0.0625000
        k(   41) = (   0.4926568  -0.4926568  -0.7956721), wk =   0.0156250
        k(   42) = (   0.3694926  -0.4926568  -0.6630601), wk =   0.0625000
        k(   43) = (   0.2463284  -0.4926568  -0.5304481), wk =   0.0312500
        k(   44) = (   0.3694926  -0.3694926  -0.5304481), wk =   0.0312500
        k(   45) = (   0.0000000   0.0000000   0.5304481), wk =   0.0078125
        k(   46) = (  -0.1231642   0.0000000   0.6630601), wk =   0.0312500
        k(   47) = (   0.7389852  -0.0000000  -0.2652240), wk =   0.0312500
        k(   48) = (   0.6158210  -0.0000000  -0.1326120), wk =   0.0312500
        k(   49) = (   0.4926568  -0.0000000  -0.0000000), wk =   0.0156250
        k(   50) = (  -0.1231642   0.1231642   0.7956721), wk =   0.0312500
        k(   51) = (   0.7389852   0.1231642  -0.1326120), wk =   0.0625000
        k(   52) = (   0.6158210   0.1231642   0.0000000), wk =   0.0312500
        k(   53) = (   0.7389852  -0.7389852  -1.0608961), wk =   0.0156250
        k(   54) = (   0.4926568  -0.4926568  -0.5304481), wk =   0.0078125
        k(   55) = (  -0.0000000  -0.0000000   0.7956721), wk =   0.0078125
        k(   56) = (   0.8621494  -0.0000000  -0.1326120), wk =   0.0312500
        k(   57) = (   0.7389852  -0.0000000   0.0000000), wk =   0.0156250
        k(   58) = (   0.8621494  -0.8621494  -1.0608961), wk =   0.0156250
        k(   59) = (  -0.0000000  -0.0000000  -1.0608961), wk =   0.0039062

     Dense  grid:    26943 G-vectors     FFT dimensions: (  45,  45,  45)

     Estimated max dynamical RAM per process >      19.16 MB

     Estimated total dynamical RAM >     153.28 MB

     Initial potential from superposition of free atoms

     starting charge       9.9903, renormalised to      10.0000
     Starting wfcs are    8 randomized atomic wfcs +    1 random wfcs

     total cpu time spent up to now is       38.4 secs

     Self-consistent Calculation

     iteration #  1     ecut=   100.00 Ry     beta= 0.70
     Davidson diagonalization with overlap
     c_bands:  2 eigenvalues not converged
     c_bands:  1 eigenvalues not converged
     c_bands:  1 eigenvalues not converged
     c_bands:  1 eigenvalues not converged
     c_bands:  1 eigenvalues not converged
     c_bands:  1 eigenvalues not converged
     c_bands:  1 eigenvalues not converged
     c_bands:  1 eigenvalues not converged
     c_bands:  1 eigenvalues not converged
     c_bands:  1 eigenvalues not converged
     ethr =  1.00E-06,  avg # of iterations = 16.5

     total cpu time spent up to now is       40.4 secs

     total energy              =     -37.03998060 Ry
     estimated scf accuracy    <       0.02823264 Ry

     iteration #  2     ecut=   100.00 Ry     beta= 0.70
     Davidson diagonalization with overlap
     ethr =  2.82E-04,  avg # of iterations =  1.0

     total cpu time spent up to now is       40.9 secs

     total energy              =     -37.04148001 Ry
     estimated scf accuracy    <       0.00063227 Ry

     iteration #  3     ecut=   100.00 Ry     beta= 0.70
     Davidson diagonalization with overlap
     ethr =  6.32E-06,  avg # of iterations =  2.2

     total cpu time spent up to now is       41.5 secs

     total energy              =     -37.04153366 Ry
     estimated scf accuracy    <       0.00002174 Ry

     iteration #  4     ecut=   100.00 Ry     beta= 0.70
     Davidson diagonalization with overlap
     ethr =  2.17E-07,  avg # of iterations =  2.2

     total cpu time spent up to now is       42.2 secs

     total energy              =     -37.04153650 Ry
     estimated scf accuracy    <       0.00000027 Ry

     iteration #  5     ecut=   100.00 Ry     beta= 0.70
     Davidson diagonalization with overlap
     ethr =  2.68E-09,  avg # of iterations =  3.4

     total cpu time spent up to now is       42.8 secs

     total energy              =     -37.04153666 Ry
     estimated scf accuracy    <       0.00000001 Ry

     iteration #  6     ecut=   100.00 Ry     beta= 0.70
     Davidson diagonalization with overlap
     ethr =  1.06E-10,  avg # of iterations =  1.9

     total cpu time spent up to now is       43.5 secs

     total energy              =     -37.04153666 Ry
     estimated scf accuracy    <          3.1E-10 Ry

     iteration #  7     ecut=   100.00 Ry     beta= 0.70
     Davidson diagonalization with overlap
     ethr =  3.09E-12,  avg # of iterations =  2.1

     total cpu time spent up to now is       44.0 secs

     End of self-consistent calculation

          k = 0.0000 0.0000 0.0000 (  3339 PWs)   bands (ev):

   -38.5264 -37.8844  -2.2012   9.8300   9.8300  11.8418  12.2430  13.8126
    13.8130

          k =-0.1232-0.0000 0.1326 (  3340 PWs)   bands (ev):

   -38.5017 -37.9086  -1.9975   9.0059   9.1173  10.8386  12.3516  12.9097
    14.1908

          k =-0.2463-0.0000 0.2652 (  3356 PWs)   bands (ev):

   -38.4316 -37.9779  -1.3890   6.5882   8.0415  10.2636  11.5566  12.5843
    15.0545

          k =-0.3695 0.0000 0.3978 (  3366 PWs)   bands (ev):

   -38.3270 -38.0815  -0.4316   4.2160   7.3070  10.0629  10.6678  12.7619
    16.3413

          k = 0.4927 0.0000-0.5304 (  3378 PWs)   bands (ev):

   -38.2043 -38.2038   0.3034   2.9820   7.0540  10.0119  10.3647  12.8137
    17.3979

          k =-0.1232 0.1232 0.2652 (  3341 PWs)   bands (ev):

   -38.4353 -37.9755  -1.5444   7.3973   8.3139   9.6874  12.7326  12.8291
    13.6823

          k =-0.2463 0.1232 0.3978 (  3359 PWs)   bands (ev):

   -38.3333 -38.0766  -0.7226   5.1552   7.1733   9.0875  12.2331  13.3094
    14.7526

          k =-0.3695 0.1232 0.5304 (  3367 PWs)   bands (ev):

   -38.2113 -38.1968   0.2227   3.3461   6.5639   8.8571  11.9654  13.5323
    16.0814

          k = 0.4927 0.1232-0.3978 (  3367 PWs)   bands (ev):

   -38.3181 -38.0885   0.0388   3.5866   6.4841   8.9071  12.0870  13.3782
    17.4253

          k = 0.3695 0.1232-0.2652 (  3360 PWs)   bands (ev):

   -38.4225 -37.9836  -0.9576   5.5346   6.9633   9.1957  12.4723  13.1679
    16.9774

          k = 0.2463 0.1232-0.1326 (  3357 PWs)   bands (ev):

   -38.4943 -37.9127  -1.7053   7.3945   8.4089   9.7038  12.5773  13.5311
    15.3548

          k = 0.1232 0.1232-0.0000 (  3343 PWs)   bands (ev):

   -38.5223 -37.8865  -2.0540   8.5712   9.5427  10.7493  12.3843  14.0225
    14.3151

          k =-0.2463 0.2463 0.5304 (  3369 PWs)   bands (ev):

   -38.2143 -38.1937   0.1510   3.8323   5.9025   8.5298  12.7970  14.3334
    15.8730

          k =-0.3695 0.2463 0.6631 (  3367 PWs)   bands (ev):

   -38.3118 -38.0934   0.4131   3.5397   5.3168   8.3864  13.1451  14.9187
    16.2634

          k = 0.4927 0.2463-0.2652 (  3370 PWs)   bands (ev):

   -38.4134 -37.9893  -0.3986   4.8248   5.5979   8.4857  13.4232  14.5060
    16.8568

          k = 0.3695 0.2463-0.1326 (  3352 PWs)   bands (ev):

   -38.4839 -37.9184  -1.1960   5.6262   7.5705   8.7783  13.3961  13.8872
    15.5091

          k = 0.2463 0.2463-0.0000 (  3349 PWs)   bands (ev):

   -38.5125 -37.8917  -1.6445   6.5072   8.9164   9.5197  13.0338  13.3128
    14.5758

          k =-0.3695 0.3695 0.7957 (  3368 PWs)   bands (ev):

   -38.4097 -37.9917  -0.0992   4.5488   5.0046   8.2720  14.2758  15.2847
    15.3379

          k = 0.4927 0.3695-0.1326 (  3362 PWs)   bands (ev):

   -38.4764 -37.9225  -0.7143   4.4315   7.0825   8.3357  13.6361  14.7314
    15.9307

          k = 0.3695 0.3695-0.0000 (  3357 PWs)   bands (ev):

   -38.5025 -37.8968  -1.1121   4.8430   8.3890   8.7509  12.5137  14.2336
    15.2168

          k = 0.4927-0.4927-1.0609 (  3360 PWs)   bands (ev):

   -38.4984 -37.8989  -0.8264   4.1665   8.1938   8.4922  12.2364  15.3503
    15.5180

          k = 0.0000 0.0000 0.2652 (  3327 PWs)   bands (ev):

   -38.4392 -37.9731  -1.6918   8.5502   8.5502   9.7576  12.5121  13.1795
    13.1795

          k =-0.1232-0.0000 0.3978 (  3342 PWs)   bands (ev):

   -38.3397 -38.0718  -1.0006   6.3780   7.3391   9.1354  12.5860  12.8977
    13.7457

          k =-0.2463-0.0000 0.5304 (  3357 PWs)   bands (ev):

   -38.2189 -38.1897  -0.0211   4.0878   6.4616   9.1544  11.9879  13.2281
    14.5281

          k = 0.6158-0.0000-0.3978 (  3360 PWs)   bands (ev):

   -38.3096 -38.0956   0.4540   3.1980   6.0919   9.3649  11.9031  12.9029
    15.6009

          k = 0.4927-0.0000-0.2652 (  3349 PWs)   bands (ev):

   -38.4138 -37.9894  -0.4627   4.6646   6.2635   9.5770  12.3670  12.3758
    16.8810

          k = 0.3695-0.0000-0.1326 (  3358 PWs)   bands (ev):

   -38.4872 -37.9168  -1.3764   6.9384   6.9637   9.7034  12.0768  13.3682
    16.8120

          k = 0.2463-0.0000-0.0000 (  3352 PWs)   bands (ev):

   -38.5183 -37.8886  -1.8970   8.0974   8.7475  10.1647  12.1558  14.3666
    15.2074

          k =-0.1232 0.1232 0.5304 (  3351 PWs)   bands (ev):

   -38.2220 -38.1868  -0.1319   4.8488   6.0143   8.6170  12.6322  13.3665
    14.9224

          k =-0.2463 0.1232 0.6631 (  3366 PWs)   bands (ev):

   -38.3035 -38.1007   0.6779   3.4941   5.2864   8.7700  12.3675  13.9408
    14.8427

          k = 0.6158 0.1232-0.2652 (  3367 PWs)   bands (ev):

   -38.4052 -37.9953   0.1833   4.1450   5.2022   9.0337  12.1619  13.8542
    15.1409

          k = 0.4927 0.1232-0.1326 (  3357 PWs)   bands (ev):

   -38.4771 -37.9226  -0.7966   5.4446   6.2996   9.0890  12.0134  14.1146
    16.2194

          k = 0.3695 0.1232-0.0000 (  3350 PWs)   bands (ev):

   -38.5086 -37.8938  -1.4588   6.3695   8.0773   9.2373  12.2175  14.5794
    15.0158

          k =-0.2463 0.2463 0.7957 (  3365 PWs)   bands (ev):

   -38.4016 -37.9977   0.5339   4.1506   4.4545   8.8493  12.2722  14.3001
    14.5873

          k = 0.6158 0.2463-0.1326 (  3365 PWs)   bands (ev):

   -38.4699 -37.9267  -0.2315   4.3218   5.8895   8.7277  12.4410  14.3691
    14.9083

          k = 0.4927 0.2463-0.0000 (  3361 PWs)   bands (ev):

   -38.4989 -37.8990  -0.8832   4.7751   7.5760   8.5872  12.8075  14.0028
    15.7038

          k = 0.2463 0.2463 0.2652 (  3358 PWs)   bands (ev):

   -38.4261 -37.9812  -1.1355   6.0770   7.7676   7.8410  13.4719  14.7846
    14.8523

          k = 0.6158-0.6158-1.0609 (  3366 PWs)   bands (ev):

   -38.4949 -37.9011  -0.5685   4.1011   7.3848   8.3611  13.0840  14.5125
    14.9419

          k = 0.3695-0.6158-0.7957 (  3352 PWs)   bands (ev):

   -38.4168 -37.9868  -0.6084   5.0632   6.2751   7.4539  14.6971  15.9235
    16.1555

          k = 0.2463-0.6158-0.6631 (  3366 PWs)   bands (ev):

   -38.3241 -38.0834  -0.2586   4.3420   6.6346   7.3618  14.1859  14.4445
    16.6205

          k = 0.4927-0.4927-0.7957 (  3362 PWs)   bands (ev):

   -38.4130 -37.9892  -0.3287   4.5861   5.7948   7.3106  15.8301  15.9349
    16.5811

          k = 0.3695-0.4927-0.6631 (  3365 PWs)   bands (ev):

   -38.3176 -38.0882   0.1419   4.1897   5.3756   6.8713  15.5363  16.3099
    18.2236

          k = 0.2463-0.4927-0.5304 (  3368 PWs)   bands (ev):

   -38.2039 -38.2036   0.3709   3.3142   6.3217   7.2047  14.1842  14.5724
    17.7513

          k = 0.3695-0.3695-0.5304 (  3375 PWs)   bands (ev):

   -38.2067 -38.2006   0.3842   3.6180   5.7979   6.7376  15.6038  15.6590
    17.4367

          k = 0.0000 0.0000 0.5304 (  3311 PWs)   bands (ev):

   -38.2252 -38.1840  -0.2503   6.0631   6.0631   7.1521  13.0163  14.6114
    14.6114

          k =-0.1232 0.0000 0.6631 (  3356 PWs)   bands (ev):

   -38.2977 -38.1058   0.7156   4.3018   5.1753   7.2124  13.3293  13.8168
    14.8096

          k = 0.7390-0.0000-0.2652 (  3360 PWs)   bands (ev):

   -38.3969 -38.0012   0.9243   3.7638   4.8190   7.9081  11.9374  13.9723
    14.8772

          k = 0.6158-0.0000-0.1326 (  3369 PWs)   bands (ev):

   -38.4675 -37.9285  -0.0767   5.0196   5.2386   8.4957  10.9358  14.8191
    15.4021

          k = 0.4927-0.0000-0.0000 (  3364 PWs)   bands (ev):

   -38.4994 -37.8991  -0.9357   5.7640   6.8328   8.6850  11.1979  15.9994
    16.0352

          k =-0.1232 0.1232 0.7957 (  3356 PWs)   bands (ev):

   -38.3935 -38.0037   1.2966   3.9181   4.3545   7.2919  11.8121  13.5716
    15.8227

          k = 0.7390 0.1232-0.1326 (  3362 PWs)   bands (ev):

   -38.4607 -37.9326   0.6704   4.1558   4.8894   8.0109  10.4549  13.9657
    16.2344

          k = 0.6158 0.1232 0.0000 (  3364 PWs)   bands (ev):

   -38.4902 -37.9043  -0.2252   4.5840   6.2351   8.2425  10.7790  14.7313
    16.7404

          k = 0.7390-0.7390-1.0609 (  3358 PWs)   bands (ev):

   -38.4863 -37.9065   0.1881   3.9404   6.0586   8.0804  10.7270  14.1730
    16.4830

          k = 0.4927-0.4927-0.5304 (  3360 PWs)   bands (ev):

   -38.2035 -38.2035   0.4440   3.8799   5.7564   5.7564  16.5428  18.5983
    18.6832

          k =-0.0000-0.0000 0.7957 (  3375 PWs)   bands (ev):

   -38.3901 -38.0062   1.6172   4.3114   4.3114   6.0115  11.6996  13.3169
    17.5416

          k = 0.8621-0.0000-0.1326 (  3363 PWs)   bands (ev):

   -38.4542 -37.9368   1.7120   3.9898   4.1368   6.8940   9.7255  13.4869
    18.3485

          k = 0.7390-0.0000 0.0000 (  3388 PWs)   bands (ev):

   -38.4814 -37.9096   0.7258   4.2307   5.1065   7.9482   9.1552  13.8830
    18.5303

          k = 0.8621-0.8621-1.0609 (  3372 PWs)   bands (ev):

   -38.4777 -37.9118   1.3638   3.7765   4.7403   7.8372   8.5753  13.5915
    19.2889

          k =-0.0000-0.0000-1.0609 (  3372 PWs)   bands (ev):

   -38.4742 -37.9140   2.3894   3.7077   3.7077   7.7448   7.7994  13.3873
    20.5080

     the Fermi energy is     7.6961 ev

!    total energy              =     -37.04153666 Ry
     estimated scf accuracy    <          4.7E-12 Ry
     smearing contrib. (-TS)   =       0.00086094 Ry
     internal energy E=F+TS    =     -37.04239760 Ry

     The total energy is F=E-TS. E is the sum of the following terms:
     one-electron contribution =     -10.26213235 Ry
     hartree contribution      =       6.50289990 Ry
     xc contribution           =     -10.21777379 Ry
     ewald contribution        =     -23.06539137 Ry

     convergence has been achieved in   7 iterations

     Forces acting on atoms (cartesian axes, Ry/au):

     atom    1 type  1   force =    -0.00000000    0.00000000    0.00000000
     atom    2 type  2   force =     0.00000000    0.00000000    0.00000000
     atom    3 type  2   force =     0.00000000   -0.00000000    0.00000000
     The non-local contrib.  to forces
     atom    1 type  1   force =    -0.00000000    0.00000000    0.00000000
     atom    2 type  2   force =     0.00000000    0.00000000   -0.00000000
     atom    3 type  2   force =    -0.00000000    0.00000000    0.00000000
     The ionic contribution  to forces
     atom    1 type  1   force =     0.00000000    0.00000000    0.00000000
     atom    2 type  2   force =    -0.00000000   -0.00000000    0.00000000
     atom    3 type  2   force =     0.00000000    0.00000000    0.00000000
     The local contribution  to forces
     atom    1 type  1   force =    -0.00000000   -0.00000000    0.00000000
     atom    2 type  2   force =    -0.00000000   -0.00000000   -0.00000000
     atom    3 type  2   force =    -0.00000000    0.00000000   -0.00000000
     The core correction contribution to forces
     atom    1 type  1   force =    -0.00000000   -0.00000000    0.00000000
     atom    2 type  2   force =     0.00000000    0.00000000    0.00000000
     atom    3 type  2   force =     0.00000000    0.00000000    0.00000000
     The Hubbard contrib.    to forces
     atom    1 type  1   force =     0.00000000    0.00000000    0.00000000
     atom    2 type  2   force =     0.00000000    0.00000000    0.00000000
     atom    3 type  2   force =     0.00000000    0.00000000    0.00000000
     The SCF correction term to forces
     atom    1 type  1   force =     0.00000000    0.00000000   -0.00000000
     atom    2 type  2   force =     0.00000000   -0.00000000    0.00000000
     atom    3 type  2   force =    -0.00000000    0.00000000   -0.00000000

     Total force =     0.000000     Total SCF correction =     0.000000


     Computing stress (Cartesian axis) and pressure

          total   stress  (Ry/bohr**3)                   (kbar)     P=      500.00
   0.00339896   0.00000000   0.00000000          500.00        0.00        0.00
   0.00000000   0.00339896  -0.00000000            0.00      500.00       -0.00
   0.00000000  -0.00000000   0.00339897            0.00       -0.00      500.01


     Writing all to output data dir ./output/SiLi.save/

     init_run     :      0.96s CPU      1.41s WALL (       2 calls)
     electrons    :     31.34s CPU     34.41s WALL (       8 calls)
     update_pot   :      1.82s CPU      1.85s WALL (       6 calls)
     forces       :      1.49s CPU      1.55s WALL (       8 calls)
     stress       :      5.11s CPU      5.39s WALL (       8 calls)

     Called by init_run:
     wfcinit      :      0.35s CPU      0.36s WALL (       2 calls)
     potinit      :      0.32s CPU      0.61s WALL (       2 calls)
     hinit0       :      0.25s CPU      0.31s WALL (       2 calls)

     Called by electrons:
     c_bands      :     26.22s CPU     28.60s WALL (      53 calls)
     sum_band     :      4.52s CPU      4.70s WALL (      53 calls)
     v_of_rho     :      0.68s CPU      1.39s WALL (      56 calls)
     mix_rho      :      0.04s CPU      0.08s WALL (      53 calls)

     Called by c_bands:
     init_us_2    :      0.79s CPU      0.85s WALL (    7316 calls)
     init_us_2:cp :      0.78s CPU      0.85s WALL (    7316 calls)
     cegterg      :     24.84s CPU     25.87s WALL (    3127 calls)

     Called by *egterg:
     cdiaghg      :      1.07s CPU      1.14s WALL (   10141 calls)
     h_psi        :     22.47s CPU     23.35s WALL (   10908 calls)
     g_psi        :      0.07s CPU      0.07s WALL (    7663 calls)

     Called by h_psi:
     h_psi:calbec :      0.79s CPU      0.83s WALL (   10908 calls)
     vloc_psi     :     21.09s CPU     21.90s WALL (   10908 calls)
     add_vuspsi   :      0.52s CPU      0.54s WALL (   10908 calls)

     General routines
     calbec       :      1.05s CPU      1.10s WALL (   13268 calls)
     fft          :      0.72s CPU      1.59s WALL (     763 calls)
     ffts         :      0.05s CPU      0.09s WALL (      53 calls)
     fftw         :     22.60s CPU     23.40s WALL (  172865 calls)

     Parallel routines

     PWSCF        :     40.94s CPU     45.13s WALL


   This run was terminated on:  22:10: 4  10Jan2025            

=------------------------------------------------------------------------------=
   JOB DONE.
=------------------------------------------------------------------------------=
