
     Program PWSCF v.7.2 starts on 10Jan2025 at 22: 9:19 

     This program is part of the open-source Quantum ESPRESSO suite
     for quantum simulation of materials; please cite
         "P. Giannozzi et al., J. Phys.:Condens. Matter 21 395502 (2009);
         "P. Giannozzi et al., J. Phys.:Condens. Matter 29 465901 (2017);
         "P. Giannozzi et al., J. Chem. Phys. 152 154105 (2020);
          URL http://www.quantum-espresso.org", 
     in publications or presentations arising from this work. More details at
     http://www.quantum-espresso.org/quote

     Parallel version (MPI & OpenMP), running on       8 processor cores
     Number of MPI processes:                 8
     Threads/MPI process:                     1

     MPI processes distributed on     1 nodes
     481483 MiB available memory on the printing compute node when the environment starts

     Waiting for input...
     Reading input from standard input

     Current dimensions of program PWSCF are:
     Max number of different atomic species (ntypx) = 10
     Max number of k-points (npk) =  40000
     Max angular momentum in pseudopotentials (lmaxx) =  4

     R & G space division:  proc/nbgrp/npool/nimage =       8
     Subspace diagonalization in iterative solution of the eigenvalue problem:
     a serial algorithm will be used


     Parallelization info
     --------------------
     sticks:   dense  smooth     PW     G-vecs:    dense   smooth      PW
     Min         160     160     47                 2978     2978     479
     Max         161     161     48                 2981     2981     482
     Sum        1285    1285    379                23835    23835    3837

     Using Slab Decomposition



     bravais-lattice index     =            4
     lattice parameter (alat)  =       6.8675  a.u.
     unit-cell volume          =     177.4197 (a.u.)^3
     number of atoms/cell      =            3
     number of atomic types    =            2
     number of electrons       =        10.00
     number of Kohn-Sham states=            9
     kinetic-energy cutoff     =     100.0000  Ry
     charge density cutoff     =     400.0000  Ry
     scf convergence threshold =      1.0E-08
     mixing beta               =       0.7000
     number of iterations used =            8  plain     mixing
     energy convergence thresh.=      1.0E-04
     force convergence thresh. =      1.0E-03
     press convergence thresh. =      1.0E+00
     Exchange-correlation= PBE
                           (   1   4   3   4   0   0   0)
     nstep                     =           50


     celldm(1)=   6.867473  celldm(2)=   0.000000  celldm(3)=   0.632529
     celldm(4)=   0.000000  celldm(5)=   0.000000  celldm(6)=   0.000000

     crystal axes: (cart. coord. in units of alat)
               a(1) = (   1.000000   0.000000   0.000000 )  
               a(2) = (  -0.500000   0.866025   0.000000 )  
               a(3) = (   0.000000   0.000000   0.632529 )  

     reciprocal axes: (cart. coord. in units 2 pi/alat)
               b(1) = (  1.000000  0.577350 -0.000000 )  
               b(2) = (  0.000000  1.154701  0.000000 )  
               b(3) = (  0.000000 -0.000000  1.580956 )  


     PseudoPot. # 1 for Si read from file:
     ../pseudo/Si_ONCV_PBE_sr.upf
     MD5 check sum: e543d271109d17c80368dfa7c482276d
     Pseudo is Norm-conserving + core correction, Zval =  4.0
     Generated using ONCVPSP code by D. R. Hamann
     Using radial grid of 1510 points,  6 beta functions with: 
                l(1) =   0
                l(2) =   0
                l(3) =   1
                l(4) =   1
                l(5) =   2
                l(6) =   2

     PseudoPot. # 2 for Li read from file:
     ../pseudo/Li_ONCV_PBE_sr.upf
     MD5 check sum: 50ff420e78310ffa21704f3361e624a4
     Pseudo is Norm-conserving, Zval =  3.0
     Generated using ONCVPSP code by D. R. Hamann
     Using radial grid of 1944 points,  4 beta functions with: 
                l(1) =   0
                l(2) =   0
                l(3) =   1
                l(4) =   1

     atomic species   valence    mass     pseudopotential
        Si             4.00    28.08550     Si( 1.00)
        Li             3.00     6.94100     Li( 1.00)

     24 Sym. Ops., with inversion, found



   Cartesian axes

     site n.     atom                  positions (alat units)
         1           Si  tau(   1) = (   0.0000000   0.0000000   0.0000000  )
         2           Li  tau(   2) = (  -0.0000000   0.5773503   0.3162644  )
         3           Li  tau(   3) = (   0.5000000   0.2886751   0.3162644  )

     number of k points=    70  Marzari-Vanderbilt smearing, width (Ry)=  0.0200
                       cart. coord. in units 2pi/alat
        k(    1) = (   0.0000000   0.0000000   0.0000000), wk =   0.0022222
        k(    2) = (   0.0000000   0.0000000   0.1756617), wk =   0.0044444
        k(    3) = (   0.0000000   0.0000000   0.3513235), wk =   0.0044444
        k(    4) = (   0.0000000   0.0000000   0.5269852), wk =   0.0044444
        k(    5) = (   0.0000000   0.0000000   0.7026470), wk =   0.0044444
        k(    6) = (   0.0000000   0.1154701   0.0000000), wk =   0.0133333
        k(    7) = (   0.0000000   0.1154701   0.1756617), wk =   0.0266667
        k(    8) = (   0.0000000   0.1154701   0.3513235), wk =   0.0266667
        k(    9) = (   0.0000000   0.1154701   0.5269852), wk =   0.0266667
        k(   10) = (   0.0000000   0.1154701   0.7026470), wk =   0.0266667
        k(   11) = (   0.0000000   0.2309401   0.0000000), wk =   0.0133333
        k(   12) = (   0.0000000   0.2309401   0.1756617), wk =   0.0266667
        k(   13) = (   0.0000000   0.2309401   0.3513235), wk =   0.0266667
        k(   14) = (   0.0000000   0.2309401   0.5269852), wk =   0.0266667
        k(   15) = (   0.0000000   0.2309401   0.7026470), wk =   0.0266667
        k(   16) = (   0.0000000   0.3464102   0.0000000), wk =   0.0133333
        k(   17) = (   0.0000000   0.3464102   0.1756617), wk =   0.0266667
        k(   18) = (   0.0000000   0.3464102   0.3513235), wk =   0.0266667
        k(   19) = (   0.0000000   0.3464102   0.5269852), wk =   0.0266667
        k(   20) = (   0.0000000   0.3464102   0.7026470), wk =   0.0266667
        k(   21) = (   0.0000000   0.4618802   0.0000000), wk =   0.0133333
        k(   22) = (   0.0000000   0.4618802   0.1756617), wk =   0.0266667
        k(   23) = (   0.0000000   0.4618802   0.3513235), wk =   0.0266667
        k(   24) = (   0.0000000   0.4618802   0.5269852), wk =   0.0266667
        k(   25) = (   0.0000000   0.4618802   0.7026470), wk =   0.0266667
        k(   26) = (   0.0000000  -0.5773503   0.0000000), wk =   0.0066667
        k(   27) = (   0.0000000  -0.5773503   0.1756617), wk =   0.0133333
        k(   28) = (   0.0000000  -0.5773503   0.3513235), wk =   0.0133333
        k(   29) = (   0.0000000  -0.5773503   0.5269852), wk =   0.0133333
        k(   30) = (   0.0000000  -0.5773503   0.7026470), wk =   0.0133333
        k(   31) = (   0.1000000   0.1732051   0.0000000), wk =   0.0133333
        k(   32) = (   0.1000000   0.1732051   0.1756617), wk =   0.0266667
        k(   33) = (   0.1000000   0.1732051   0.3513235), wk =   0.0266667
        k(   34) = (   0.1000000   0.1732051   0.5269852), wk =   0.0266667
        k(   35) = (   0.1000000   0.1732051   0.7026470), wk =   0.0266667
        k(   36) = (   0.1000000   0.2886751   0.0000000), wk =   0.0266667
        k(   37) = (   0.1000000   0.2886751   0.1756617), wk =   0.0533333
        k(   38) = (   0.1000000   0.2886751   0.3513235), wk =   0.0533333
        k(   39) = (   0.1000000   0.2886751   0.5269852), wk =   0.0533333
        k(   40) = (   0.1000000   0.2886751   0.7026470), wk =   0.0533333
        k(   41) = (   0.1000000   0.4041452   0.0000000), wk =   0.0266667
        k(   42) = (   0.1000000   0.4041452   0.1756617), wk =   0.0533333
        k(   43) = (   0.1000000   0.4041452   0.3513235), wk =   0.0533333
        k(   44) = (   0.1000000   0.4041452   0.5269852), wk =   0.0533333
        k(   45) = (   0.1000000   0.4041452   0.7026470), wk =   0.0533333
        k(   46) = (   0.1000000   0.5196152   0.0000000), wk =   0.0266667
        k(   47) = (   0.1000000   0.5196152   0.1756617), wk =   0.0533333
        k(   48) = (   0.1000000   0.5196152   0.3513235), wk =   0.0533333
        k(   49) = (   0.1000000   0.5196152   0.5269852), wk =   0.0533333
        k(   50) = (   0.1000000   0.5196152   0.7026470), wk =   0.0533333
        k(   51) = (   0.2000000   0.3464102   0.0000000), wk =   0.0133333
        k(   52) = (   0.2000000   0.3464102   0.1756617), wk =   0.0266667
        k(   53) = (   0.2000000   0.3464102   0.3513235), wk =   0.0266667
        k(   54) = (   0.2000000   0.3464102   0.5269852), wk =   0.0266667
        k(   55) = (   0.2000000   0.3464102   0.7026470), wk =   0.0266667
        k(   56) = (   0.2000000   0.4618802   0.0000000), wk =   0.0266667
        k(   57) = (   0.2000000   0.4618802   0.1756617), wk =   0.0533333
        k(   58) = (   0.2000000   0.4618802   0.3513235), wk =   0.0533333
        k(   59) = (   0.2000000   0.4618802   0.5269852), wk =   0.0533333
        k(   60) = (   0.2000000   0.4618802   0.7026470), wk =   0.0533333
        k(   61) = (   0.2000000   0.5773503   0.0000000), wk =   0.0133333
        k(   62) = (   0.2000000   0.5773503   0.1756617), wk =   0.0266667
        k(   63) = (   0.2000000   0.5773503   0.3513235), wk =   0.0266667
        k(   64) = (   0.2000000   0.5773503   0.5269852), wk =   0.0266667
        k(   65) = (   0.2000000   0.5773503   0.7026470), wk =   0.0266667
        k(   66) = (   0.3000000   0.5196152   0.0000000), wk =   0.0133333
        k(   67) = (   0.3000000   0.5196152   0.1756617), wk =   0.0266667
        k(   68) = (   0.3000000   0.5196152   0.3513235), wk =   0.0266667
        k(   69) = (   0.3000000   0.5196152   0.5269852), wk =   0.0266667
        k(   70) = (   0.3000000   0.5196152   0.7026470), wk =   0.0266667

     Dense  grid:    23835 G-vectors     FFT dimensions: (  45,  45,  27)

     Estimated max dynamical RAM per process >      18.80 MB

     Estimated total dynamical RAM >     150.36 MB

     Initial potential from superposition of free atoms

     starting charge       9.9903, renormalised to      10.0000
     Starting wfcs are    8 randomized atomic wfcs +    1 random wfcs

     total cpu time spent up to now is        1.5 secs

     Self-consistent Calculation

     iteration #  1     ecut=   100.00 Ry     beta= 0.70
     Davidson diagonalization with overlap
     ethr =  1.00E-02,  avg # of iterations =  5.6

     Threshold (ethr) on eigenvalues was too large:
     Diagonalizing with lowered threshold

     Davidson diagonalization with overlap
     ethr =  9.10E-05,  avg # of iterations =  3.6

     total cpu time spent up to now is        3.3 secs

     total energy              =     -37.20510316 Ry
     estimated scf accuracy    <       0.00895144 Ry

     iteration #  2     ecut=   100.00 Ry     beta= 0.70
     Davidson diagonalization with overlap
     ethr =  8.95E-05,  avg # of iterations =  1.2

     total cpu time spent up to now is        3.7 secs

     total energy              =     -37.20513411 Ry
     estimated scf accuracy    <       0.00063954 Ry

     iteration #  3     ecut=   100.00 Ry     beta= 0.70
     Davidson diagonalization with overlap
     ethr =  6.40E-06,  avg # of iterations =  2.3

     total cpu time spent up to now is        4.3 secs

     total energy              =     -37.20515694 Ry
     estimated scf accuracy    <       0.00000385 Ry

     iteration #  4     ecut=   100.00 Ry     beta= 0.70
     Davidson diagonalization with overlap
     ethr =  3.85E-08,  avg # of iterations =  2.5

     total cpu time spent up to now is        4.9 secs

     total energy              =     -37.20515813 Ry
     estimated scf accuracy    <       0.00000008 Ry

     iteration #  5     ecut=   100.00 Ry     beta= 0.70
     Davidson diagonalization with overlap
     ethr =  7.54E-10,  avg # of iterations =  2.5

     total cpu time spent up to now is        5.5 secs

     End of self-consistent calculation

          k = 0.0000 0.0000 0.0000 (  2941 PWs)   bands (ev):

   -36.7301 -36.3377  -2.2902   8.1065   8.1065  10.6903  10.6903  13.3567
    20.7426

          k = 0.0000 0.0000 0.1757 (  2966 PWs)   bands (ev):

   -36.7138 -36.3261  -2.0090   8.4212   8.4212  11.0358  11.0358  12.5464
    19.5994

          k = 0.0000 0.0000 0.3513 (  2954 PWs)   bands (ev):

   -36.6724 -36.2969  -1.1737   9.3653   9.3653  10.2615  12.0704  12.0705
    18.7531

          k = 0.0000 0.0000 0.5270 (  3002 PWs)   bands (ev):

   -36.6251 -36.2635   0.1870   7.4049  10.9382  10.9382  13.7861  13.7862
    18.7802

          k = 0.0000 0.0000 0.7026 (  3014 PWs)   bands (ev):

   -36.5940 -36.2416   1.9525   4.7832  13.1245  13.1245  16.0386  16.0386
    16.1272

          k = 0.0000 0.1155 0.0000 (  2969 PWs)   bands (ev):

   -36.7214 -36.3461  -2.2340   7.3077   7.6099  11.1763  11.4683  13.9116
    20.8659

          k = 0.0000 0.1155 0.1757 (  2966 PWs)   bands (ev):

   -36.7052 -36.3345  -1.9499   7.5928   7.9296  11.4449  11.8084  13.1580
    19.7114

          k = 0.0000 0.1155 0.3513 (  2984 PWs)   bands (ev):

   -36.6641 -36.3050  -1.1061   8.3307   8.8885  10.7418  12.6508  12.8266
    18.9202

          k = 0.0000 0.1155 0.5270 (  2990 PWs)   bands (ev):

   -36.6171 -36.2713   0.2686   7.3366  10.4256  10.4850  14.1177  14.5102
    18.1527

          k = 0.0000 0.1155 0.7026 (  3003 PWs)   bands (ev):

   -36.5863 -36.2492   2.0634   4.8117  12.3818  12.7097  15.1812  15.5285
    16.0305

          k = 0.0000 0.2309 0.0000 (  2983 PWs)   bands (ev):

   -36.6965 -36.3702  -2.0766   5.9884   6.8193  11.6230  13.1009  15.4735
    21.2314

          k = 0.0000 0.2309 0.1757 (  2980 PWs)   bands (ev):

   -36.6807 -36.3583  -1.7841   6.2442   7.1429  11.7270  13.4358  14.7349
    20.0581

          k = 0.0000 0.2309 0.3513 (  2989 PWs)   bands (ev):

   -36.6404 -36.3281  -0.9155   6.9293   8.1134  11.0902  13.6736  14.4364
    19.2451

          k = 0.0000 0.2309 0.5270 (  2993 PWs)   bands (ev):

   -36.5944 -36.2936   0.5001   7.0288   9.7051   9.7293  14.3483  16.0507
    16.7374

          k = 0.0000 0.2309 0.7026 (  3005 PWs)   bands (ev):

   -36.5642 -36.2709   2.3769   4.9081  10.8980  11.9858  13.9467  14.8535
    15.2560

          k = 0.0000 0.3464 0.0000 (  3001 PWs)   bands (ev):

   -36.6595 -36.4063  -1.8559   4.8281   6.1811  11.8244  15.1322  17.4634
    21.8201

          k = 0.0000 0.3464 0.1757 (  2991 PWs)   bands (ev):

   -36.6441 -36.3940  -1.5505   5.0629   6.5064  11.8685  15.4628  16.4362
    20.6035

          k = 0.0000 0.3464 0.3513 (  2992 PWs)   bands (ev):

   -36.6051 -36.3627  -0.6438   5.7224   7.4819  11.3693  14.4373  16.4430
    18.6760

          k = 0.0000 0.3464 0.5270 (  3007 PWs)   bands (ev):

   -36.5605 -36.3269   0.8342   6.4075   9.1065   9.4157  14.2427  15.4867
    17.4653

          k = 0.0000 0.3464 0.7026 (  3000 PWs)   bands (ev):

   -36.5313 -36.3035   2.8173   5.1264   9.2754  11.3753  13.0104  14.2795
    14.6170

          k = 0.0000 0.4619 0.0000 (  2987 PWs)   bands (ev):

   -36.6189 -36.4460  -1.6482   4.0340   5.7841  11.9210  17.4359  19.3564
    22.5587

          k = 0.0000 0.4619 0.1757 (  3002 PWs)   bands (ev):

   -36.6041 -36.4333  -1.3291   4.2525   6.1100  11.9526  17.7617  17.8229
    21.1070

          k = 0.0000 0.4619 0.3513 (  3005 PWs)   bands (ev):

   -36.5665 -36.4008  -0.3810   4.8831   7.0877  11.5774  14.9520  17.7972
    18.6972

          k = 0.0000 0.4619 0.5270 (  3002 PWs)   bands (ev):

   -36.5234 -36.3637   1.1647   5.7740   8.7159   9.4247  14.0951  14.6325
    17.3981

          k = 0.0000 0.4619 0.7026 (  3003 PWs)   bands (ev):

   -36.4951 -36.3394   3.2141   5.6044   7.7570  10.9892  12.4798  13.9135
    14.2197

          k = 0.0000-0.5774 0.0000 (  2976 PWs)   bands (ev):

   -36.5972 -36.4675  -1.5595   3.7473   5.6501  11.9511  19.3594  20.3555
    21.0486

          k = 0.0000-0.5774 0.1757 (  2990 PWs)   bands (ev):

   -36.5827 -36.4544  -1.2339   3.9586   5.9763  11.9814  18.4691  19.6959
    21.0829

          k = 0.0000-0.5774 0.3513 (  3002 PWs)   bands (ev):

   -36.5457 -36.4213  -0.2658   4.5741   6.9546  11.6550  15.1909  17.3836
    20.9486

          k = 0.0000-0.5774 0.5270 (  3006 PWs)   bands (ev):

   -36.5035 -36.3834   1.3131   5.5061   8.5838   9.4626  14.0581  14.3040
    17.3009

          k = 0.0000-0.5774 0.7026 (  2992 PWs)   bands (ev):

   -36.4758 -36.3586   3.3690   6.4145   6.5676  10.8581  12.3112  13.7889
    14.0854

          k = 0.1000 0.1732 0.0000 (  2977 PWs)   bands (ev):

   -36.7046 -36.3624  -2.1270   6.4031   6.9280  11.9411  12.1879  15.0411
    21.1104

          k = 0.1000 0.1732 0.1757 (  2971 PWs)   bands (ev):

   -36.6886 -36.3506  -1.8373   6.6672   7.2446  12.0678  12.4845  14.3784
    19.9499

          k = 0.1000 0.1732 0.3513 (  2984 PWs)   bands (ev):

   -36.6481 -36.3206  -0.9769   7.3571   8.1924  11.1420  13.3482  13.9264
    19.3126

          k = 0.1000 0.1732 0.5270 (  2996 PWs)   bands (ev):

   -36.6018 -36.2863   0.4254   7.1538   9.7640   9.9990  14.6475  15.1515
    17.7571

          k = 0.1000 0.1732 0.7026 (  3010 PWs)   bands (ev):

   -36.5714 -36.2639   2.2759   4.8738  11.5136  11.9244  14.2985  14.6936
    16.0759

          k = 0.1000 0.2887 0.0000 (  2989 PWs)   bands (ev):

   -36.6734 -36.3927  -1.9364   5.3047   6.2004  12.2678  13.7645  16.9384
    21.5888

          k = 0.1000 0.2887 0.1757 (  2988 PWs)   bands (ev):

   -36.6578 -36.3806  -1.6360   5.5498   6.5122  12.3263  13.9960  16.1215
    20.4629

          k = 0.1000 0.2887 0.3513 (  2995 PWs)   bands (ev):

   -36.6184 -36.3497  -0.7440   6.2225   7.4422  11.5797  14.2375  15.3165
    19.5200

          k = 0.1000 0.2887 0.5270 (  3001 PWs)   bands (ev):

   -36.5732 -36.3144   0.7100   6.7036   8.9376   9.7352  14.6785  15.6185
    17.2258

          k = 0.1000 0.2887 0.7026 (  3010 PWs)   bands (ev):

   -36.5436 -36.2913   2.6555   5.0286  10.1263  11.1243  13.3333  13.8000
    16.0497

          k = 0.1000 0.4041 0.0000 (  2989 PWs)   bands (ev):

   -36.6332 -36.4320  -1.7174   4.3838   5.6915  12.3938  15.7705  18.9631
    22.2633

          k = 0.1000 0.4041 0.1757 (  2999 PWs)   bands (ev):

   -36.6182 -36.4194  -1.4032   4.6122   6.0012  12.4364  15.9225  17.6983
    21.1327

          k = 0.1000 0.4041 0.3513 (  2993 PWs)   bands (ev):

   -36.5801 -36.3873  -0.4703   5.2640   6.9220  11.9202  14.8380  16.8595
    18.8062

          k = 0.1000 0.4041 0.5270 (  3000 PWs)   bands (ev):

   -36.5365 -36.3507   1.0496   6.0921   8.3599   9.7340  14.3918  14.9128
    17.4549

          k = 0.1000 0.4041 0.7026 (  3001 PWs)   bands (ev):

   -36.5079 -36.3267   3.0793   5.3744   8.5733  10.6199  12.6583  13.2294
    15.7862

          k = 0.1000 0.5196 0.0000 (  2985 PWs)   bands (ev):

   -36.5973 -36.4674  -1.5622   3.8596   5.4331  12.4477  17.9976  19.9083
    22.0615

          k = 0.1000 0.5196 0.1757 (  2999 PWs)   bands (ev):

   -36.5828 -36.4543  -1.2372   4.0762   5.7420  12.4897  17.8951  18.8021
    20.6134

          k = 0.1000 0.5196 0.3513 (  3006 PWs)   bands (ev):

   -36.5458 -36.4212  -0.2711   4.7060   6.6595  12.1120  15.2070  17.2882
    19.5901

          k = 0.1000 0.5196 0.5270 (  3002 PWs)   bands (ev):

   -36.5035 -36.3834   1.3027   5.6462   8.0779   9.8156  14.2134  14.3658
    17.3522

          k = 0.1000 0.5196 0.7026 (  2997 PWs)   bands (ev):

   -36.4758 -36.3586   3.3517   6.0684   7.1725  10.3677  12.3353  12.9460
    15.6067

          k = 0.2000 0.3464 0.0000 (  2995 PWs)   bands (ev):

   -36.6382 -36.4271  -1.7436   4.6451   5.4777  13.3064  14.3850  18.9194
    22.1584

          k = 0.2000 0.3464 0.1757 (  2992 PWs)   bands (ev):

   -36.6231 -36.4145  -1.4314   4.8816   5.7711  13.3255  14.5568  17.6526
    21.1519

          k = 0.2000 0.3464 0.3513 (  2996 PWs)   bands (ev):

   -36.5848 -36.3827  -0.5043   5.5478   6.6433  12.3469  14.9538  15.8660
    19.4654

          k = 0.2000 0.3464 0.5270 (  3009 PWs)   bands (ev):

   -36.5410 -36.3462   1.0054   6.3020   8.0598   9.9047  14.8469  14.9437
    17.5941

          k = 0.2000 0.3464 0.7026 (  2995 PWs)   bands (ev):

   -36.5123 -36.3223   3.0238   5.3068   9.3877   9.8311  12.7647  13.0288
    17.0962

          k = 0.2000 0.4619 0.0000 (  2996 PWs)   bands (ev):

   -36.5975 -36.4672  -1.5667   4.1257   5.0141  13.6817  15.9510  19.8491
    22.4004

          k = 0.2000 0.4619 0.1757 (  2992 PWs)   bands (ev):

   -36.5829 -36.4542  -1.2424   4.3544   5.2955  13.7312  16.0183  18.6272
    20.3366

          k = 0.2000 0.4619 0.3513 (  3003 PWs)   bands (ev):

   -36.5459 -36.4211  -0.2796   5.0154   6.1272  12.9479  15.3949  16.5543
    18.7315

          k = 0.2000 0.4619 0.5270 (  3006 PWs)   bands (ev):

   -36.5036 -36.3833   1.2862   5.9544   7.4356  10.1191  14.4655  14.5055
    17.7254

          k = 0.2000 0.4619 0.7026 (  3000 PWs)   bands (ev):

   -36.4759 -36.3585   3.3244   5.8783   8.0930   9.2809  12.3900  12.6254
    17.4483

          k = 0.2000 0.5774 0.0000 (  2999 PWs)   bands (ev):

   -36.5724 -36.4921  -1.4927   3.9221   4.8638  13.7420  17.8576  18.1911
    23.2764

          k = 0.2000 0.5774 0.1757 (  2987 PWs)   bands (ev):

   -36.5581 -36.4788  -1.1630   4.1469   5.1415  13.8008  17.7613  18.1437
    19.3589

          k = 0.2000 0.5774 0.3513 (  2996 PWs)   bands (ev):

   -36.5219 -36.4449  -0.1838   4.8034   5.9594  13.1691  15.5376  16.8786
    18.6560

          k = 0.2000 0.5774 0.5270 (  3002 PWs)   bands (ev):

   -36.4805 -36.4063   1.4075   5.8076   7.2180  10.2197  14.2488  14.3597
    17.7279

          k = 0.2000 0.5774 0.7026 (  3016 PWs)   bands (ev):

   -36.4534 -36.3809   3.4330   6.8155   6.8403   9.1456  12.2668  12.4952
    17.4665

          k = 0.3000 0.5196 0.0000 (  3005 PWs)   bands (ev):

   -36.5570 -36.5073  -1.4662   4.1092   4.4768  15.0531  16.3447  18.0634
    23.3698

          k = 0.3000 0.5196 0.1757 (  2996 PWs)   bands (ev):

   -36.5430 -36.4938  -1.1349   4.3454   4.7343  15.1298  16.3533  17.9803
    19.2856

          k = 0.3000 0.5196 0.3513 (  3001 PWs)   bands (ev):

   -36.5072 -36.4596  -0.1510   5.0355   5.4926  13.7922  16.0105  16.3982
    17.8667

          k = 0.3000 0.5196 0.5270 (  2989 PWs)   bands (ev):

   -36.4663 -36.4204   1.4451   6.0862   6.6850  10.3662  14.2640  14.3442
    18.4960

          k = 0.3000 0.5196 0.7026 (  2998 PWs)   bands (ev):

   -36.4395 -36.3947   3.4564   6.7168   7.7714   7.9938  12.2729  12.3556
    18.9983

     the Fermi energy is     9.6353 ev

!    total energy              =     -37.20515816 Ry
     estimated scf accuracy    <          1.1E-09 Ry
     smearing contrib. (-TS)   =      -0.00015168 Ry
     internal energy E=F+TS    =     -37.20500648 Ry

     The total energy is F=E-TS. E is the sum of the following terms:
     one-electron contribution =      -7.64843990 Ry
     hartree contribution      =       5.69540394 Ry
     xc contribution           =     -10.32089004 Ry
     ewald contribution        =     -24.93108048 Ry

     convergence has been achieved in   5 iterations

     Forces acting on atoms (cartesian axes, Ry/au):

     atom    1 type  1   force =     0.00000000    0.00000000    0.00000000
     atom    2 type  2   force =     0.00000000   -0.00000000    0.00000000
     atom    3 type  2   force =     0.00000000   -0.00000000    0.00000000
     The non-local contrib.  to forces
     atom    1 type  1   force =     0.00000000    0.00000000    0.00000000
     atom    2 type  2   force =     0.00000000   -0.00000000    0.00000000
     atom    3 type  2   force =     0.00000000    0.00000000    0.00000000
     The ionic contribution  to forces
     atom    1 type  1   force =    -0.00000000   -0.00000000    0.00000000
     atom    2 type  2   force =     0.00000008   -0.00000004    0.00000000
     atom    3 type  2   force =    -0.00000008    0.00000004    0.00000000
     The local contribution  to forces
     atom    1 type  1   force =     0.00000000    0.00000000   -0.00000000
     atom    2 type  2   force =     0.00000065   -0.00000038    0.00000000
     atom    3 type  2   force =    -0.00000065    0.00000038    0.00000000
     The core correction contribution to forces
     atom    1 type  1   force =     0.00000000   -0.00000000   -0.00000000
     atom    2 type  2   force =     0.00000000    0.00000000    0.00000000
     atom    3 type  2   force =     0.00000000    0.00000000    0.00000000
     The Hubbard contrib.    to forces
     atom    1 type  1   force =     0.00000000    0.00000000    0.00000000
     atom    2 type  2   force =     0.00000000    0.00000000    0.00000000
     atom    3 type  2   force =     0.00000000    0.00000000    0.00000000
     The SCF correction term to forces
     atom    1 type  1   force =    -0.00000000    0.00000000    0.00000000
     atom    2 type  2   force =    -0.00000000    0.00000000   -0.00000000
     atom    3 type  2   force =     0.00000000   -0.00000000   -0.00000000

     Total force =     0.000000     Total SCF correction =     0.000000


     Computing stress (Cartesian axis) and pressure

          total   stress  (Ry/bohr**3)                   (kbar)     P=      494.31
   0.00351063   0.00000000   0.00000000          516.43        0.00        0.00
   0.00000000   0.00351063   0.00000000            0.00      516.43        0.00
   0.00000000  -0.00000000   0.00305955            0.00       -0.00      450.07


     BFGS Geometry Optimization
     Energy error            =      0.0E+00 Ry
     Gradient error          =      5.1E-24 Ry/Bohr
     Cell gradient error     =      5.0E+01 kbar

     number of scf cycles    =   1
     number of bfgs steps    =   0

     enthalpy           new  =     -36.6021209074 Ry

     new trust radius        =       0.0226029093 bohr
ibrav =      4
 celldm(1) =      6.88665066
 celldm(3) =      0.62541551
Input lattice vectors:
     1.00279254     0.00000000     0.00000000
    -0.50139627     0.86844381    -0.00000000
     0.00000000     0.00000000     0.62716201
New lattice vectors in INITIAL alat:
     1.00279254     0.00000000     0.00000000
    -0.50139627     0.86844381     0.00000000
     0.00000000     0.00000000     0.62716201
New lattice vectors in NEW alat (for information only):
     1.00000000     0.00000000     0.00000000
    -0.50000000     0.86602540     0.00000000
     0.00000000     0.00000000     0.62541551
Discrepancy in bohr =     0.000000    0.000000    0.000000
     new conv_thr            =       0.0000000100 Ry

     new unit-cell volume =    176.89821 a.u.^3 (    26.21361 Ang^3 )
     density =      2.65849 g/cm^3

CELL_PARAMETERS (alat=  6.86747296)
   1.002792540   0.000000000   0.000000000
  -0.501396270   0.868443815   0.000000000
   0.000000000   0.000000000   0.627162011

ATOMIC_POSITIONS (crystal)
Si            0.0000000000        0.0000000000        0.0000000000
Li            0.3333333300        0.6666666700        0.5000000000
Li            0.6666666700        0.3333333300        0.5000000000



     Writing config-only to output data dir ./output/SiLi.save/
     NEW-OLD atomic charge density approx. for the potential
     extrapolated charge    9.97055, renormalised to   10.00000

     total cpu time spent up to now is        6.7 secs

     Self-consistent Calculation

     iteration #  1     ecut=   100.00 Ry     beta= 0.70
     Davidson diagonalization with overlap
     ethr =  1.00E-06,  avg # of iterations =  4.2

     Threshold (ethr) on eigenvalues was too large:
     Diagonalizing with lowered threshold

     Davidson diagonalization with overlap
     ethr =  5.47E-08,  avg # of iterations =  1.8

     total cpu time spent up to now is        7.9 secs

     total energy              =     -37.20379361 Ry
     estimated scf accuracy    <       0.00000553 Ry

     iteration #  2     ecut=   100.00 Ry     beta= 0.70
     Davidson diagonalization with overlap
     ethr =  5.53E-08,  avg # of iterations =  2.0

     total cpu time spent up to now is        8.5 secs

     total energy              =     -37.20380391 Ry
     estimated scf accuracy    <       0.00000196 Ry

     iteration #  3     ecut=   100.00 Ry     beta= 0.70
     Davidson diagonalization with overlap
     ethr =  1.96E-08,  avg # of iterations =  1.0

     total cpu time spent up to now is        9.0 secs

     total energy              =     -37.20380382 Ry
     estimated scf accuracy    <       0.00000033 Ry

     iteration #  4     ecut=   100.00 Ry     beta= 0.70
     Davidson diagonalization with overlap
     ethr =  3.27E-09,  avg # of iterations =  1.0

     total cpu time spent up to now is        9.5 secs

     total energy              =     -37.20380382 Ry
     estimated scf accuracy    <       0.00000003 Ry

     iteration #  5     ecut=   100.00 Ry     beta= 0.70
     Davidson diagonalization with overlap
     ethr =  2.96E-10,  avg # of iterations =  2.0

     total cpu time spent up to now is       10.0 secs

     End of self-consistent calculation

          k = 0.0000 0.0000 0.0000 (  2941 PWs)   bands (ev):

   -36.6980 -36.3126  -2.3042   8.0393   8.0393  10.6424  10.6424  13.3309
    21.2110

          k = 0.0000 0.0000 0.1772 (  2966 PWs)   bands (ev):

   -36.6807 -36.3002  -2.0170   8.3595   8.3595  10.9940  10.9940  12.5802
    19.8930

          k = 0.0000 0.0000 0.3543 (  2954 PWs)   bands (ev):

   -36.6366 -36.2686  -1.1637   9.3200   9.3200  10.3729  12.0470  12.0470
    18.8686

          k = 0.0000 0.0000 0.5315 (  3002 PWs)   bands (ev):

   -36.5861 -36.2325   0.2271   7.5172  10.9208  10.9208  13.7934  13.7934
    18.8295

          k = 0.0000 0.0000 0.7087 (  3014 PWs)   bands (ev):

   -36.5529 -36.2089   2.0449   4.8471  13.1499  13.1499  16.0978  16.0978
    16.1790

          k = 0.0000 0.1151 0.0000 (  2969 PWs)   bands (ev):

   -36.6895 -36.3209  -2.2495   7.2554   7.5506  11.1272  11.4111  13.8741
    21.3332

          k = 0.0000 0.1151 0.1772 (  2966 PWs)   bands (ev):

   -36.6722 -36.3084  -1.9595   7.5471   7.8758  11.4075  11.7573  13.1794
    19.9962

          k = 0.0000 0.1151 0.3543 (  2984 PWs)   bands (ev):

   -36.6284 -36.2765  -1.0978   8.3162   8.8512  10.8319  12.6318  12.7940
    19.0233

          k = 0.0000 0.1151 0.5315 (  2990 PWs)   bands (ev):

   -36.5783 -36.2402   0.3068   7.4404  10.4327  10.4752  14.1224  14.5094
    18.2401

          k = 0.0000 0.1151 0.7087 (  3003 PWs)   bands (ev):

   -36.5454 -36.2163   2.1528   4.8774  12.4224  12.7405  15.2528  15.6064
    16.0573

          k = 0.0000 0.2303 0.0000 (  2983 PWs)   bands (ev):

   -36.6651 -36.3446  -2.0964   5.9552   6.7683  11.5833  13.0312  15.4139
    21.6957

          k = 0.0000 0.2303 0.1772 (  2980 PWs)   bands (ev):

   -36.6482 -36.3317  -1.7980   6.2177   7.0974  11.7040  13.3723  14.7522
    20.3109

          k = 0.0000 0.2303 0.3543 (  2989 PWs)   bands (ev):

   -36.6052 -36.2992  -0.9119   6.9269   8.0845  11.1685  13.6984  14.3918
    19.3307

          k = 0.0000 0.2303 0.5315 (  2993 PWs)   bands (ev):

   -36.5561 -36.2620   0.5328   7.1061   9.7282   9.7619  14.3664  16.0453
    16.8552

          k = 0.0000 0.2303 0.7087 (  3005 PWs)   bands (ev):

   -36.5239 -36.2376   2.4562   4.9802  10.9619  12.0237  14.0187  14.9429
    15.2916

          k = 0.0000 0.3454 0.0000 (  3001 PWs)   bands (ev):

   -36.6287 -36.3800  -1.8825   4.8116   6.1353  11.7921  15.0503  17.3911
    22.2796

          k = 0.0000 0.3454 0.1772 (  2991 PWs)   bands (ev):

   -36.6123 -36.3668  -1.5714   5.0527   6.4662  11.8506  15.3873  16.4938
    20.7917

          k = 0.0000 0.3454 0.3543 (  2992 PWs)   bands (ev):

   -36.5706 -36.3331  -0.6475   5.7321   7.4584  11.4327  14.5245  16.3883
    18.8294

          k = 0.0000 0.3454 0.5315 (  3007 PWs)   bands (ev):

   -36.5230 -36.2946   0.8579   6.4631   9.1107   9.5159  14.2788  15.6147
    17.5624

          k = 0.0000 0.3454 0.7087 (  3000 PWs)   bands (ev):

   -36.4917 -36.2694   2.8782   5.2113   9.3594  11.4181  13.0822  14.3754
    14.6607

          k = 0.0000 0.4606 0.0000 (  2987 PWs)   bands (ev):

   -36.5889 -36.4191  -1.6820   4.0305   5.7412  11.8929  17.3418  19.2784
    23.0123

          k = 0.0000 0.4606 0.1772 (  3002 PWs)   bands (ev):

   -36.5730 -36.4053  -1.3573   4.2549   6.0727  11.9366  17.6746  17.9507
    21.2434

          k = 0.0000 0.4606 0.3543 (  3005 PWs)   bands (ev):

   -36.5327 -36.3704  -0.3929   4.9040   7.0671  11.6271  15.0909  17.9758
    18.6388

          k = 0.0000 0.4606 0.5315 (  3002 PWs)   bands (ev):

   -36.4867 -36.3305   1.1780   5.8277   8.7232   9.5454  14.1466  14.7598
    17.5561

          k = 0.0000 0.4606 0.7087 (  3003 PWs)   bands (ev):

   -36.4564 -36.3044   3.2526   5.7047   7.8563  11.0349  12.5522  14.0129
    14.2676

          k = 0.0000-0.5757 0.0000 (  2976 PWs)   bands (ev):

   -36.5675 -36.4401  -1.5966   3.7490   5.6081  11.9245  19.2543  20.2730
    20.9438

          k = 0.0000-0.5757 0.1772 (  2990 PWs)   bands (ev):

   -36.5520 -36.4261  -1.2656   3.9664   5.9399  11.9659  18.6437  19.5970
    21.2909

          k = 0.0000-0.5757 0.3543 (  3002 PWs)   bands (ev):

   -36.5124 -36.3905  -0.2817   4.6000   6.9349  11.6990  15.3522  17.5629
    21.0916

          k = 0.0000-0.5757 0.5315 (  3006 PWs)   bands (ev):

   -36.4672 -36.3498   1.3210   5.5626   8.5920   9.5891  14.1166  14.4283
    17.4617

          k = 0.0000-0.5757 0.7087 (  2992 PWs)   bands (ev):

   -36.4375 -36.3231   3.3974   6.5087   6.6856  10.9048  12.3839  13.8894
    14.1347

          k = 0.0997 0.1727 0.0000 (  2977 PWs)   bands (ev):

   -36.6730 -36.3369  -2.1455   6.3631   6.8785  11.8906  12.1305  14.9845
    21.5757

          k = 0.0997 0.1727 0.1772 (  2971 PWs)   bands (ev):

   -36.6560 -36.3242  -1.8498   6.6341   7.2006  12.0386  12.4334  14.3858
    20.2138

          k = 0.0997 0.1727 0.3543 (  2984 PWs)   bands (ev):

   -36.6128 -36.2918  -0.9717   7.3509   8.1652  11.2300  13.3156  13.9206
    19.3886

          k = 0.0997 0.1727 0.5315 (  2996 PWs)   bands (ev):

   -36.5633 -36.2549   0.4599   7.2399   9.7648  10.0390  14.6430  15.1710
    17.8559

          k = 0.0997 0.1727 0.7087 (  3010 PWs)   bands (ev):

   -36.5309 -36.2307   2.3587   4.9436  11.5690  11.9660  14.3739  14.7620
    16.1147

          k = 0.0997 0.2879 0.0000 (  2989 PWs)   bands (ev):

   -36.6423 -36.3667  -1.9605   5.2801   6.1585  12.2236  13.6992  16.8639
    22.0501

          k = 0.0997 0.2879 0.1772 (  2988 PWs)   bands (ev):

   -36.6257 -36.3536  -1.6542   5.5317   6.4760  12.3004  13.9422  16.1530
    20.6703

          k = 0.0997 0.2879 0.3543 (  2995 PWs)   bands (ev):

   -36.5836 -36.3204  -0.7448   6.2261   7.4233  11.6593  14.2460  15.3202
    19.6358

          k = 0.0997 0.2879 0.5315 (  3001 PWs)   bands (ev):

   -36.5354 -36.2824   0.7372   6.7658   8.9519   9.8153  14.6997  15.7038
    17.2924

          k = 0.0997 0.2879 0.7087 (  3010 PWs)   bands (ev):

   -36.5038 -36.2574   2.7238   5.1082  10.2008  11.1754  13.4074  13.8724
    16.0969

          k = 0.0997 0.4030 0.0000 (  2989 PWs)   bands (ev):

   -36.6029 -36.4053  -1.7486   4.3737   5.6539  12.3553  15.6944  18.8799
    22.7191

          k = 0.0997 0.4030 0.1772 (  2999 PWs)   bands (ev):

   -36.5869 -36.3917  -1.4288   4.6082   5.9693  12.4121  15.8692  17.7951
    21.2395

          k = 0.0997 0.4030 0.3543 (  2993 PWs)   bands (ev):

   -36.5461 -36.3572  -0.4792   5.2790   6.9076  11.9825  14.9282  16.8712
    18.9431

          k = 0.0997 0.4030 0.5315 (  3000 PWs)   bands (ev):

   -36.4995 -36.3179   1.0669   6.1447   8.3823   9.8417  14.4356  15.0364
    17.5937

          k = 0.0997 0.4030 0.7087 (  3001 PWs)   bands (ev):

   -36.4689 -36.2920   3.1260   5.4692   8.6649  10.6761  12.7311  13.3063
    15.8400

          k = 0.0997 0.5182 0.0000 (  2985 PWs)   bands (ev):

   -36.5676 -36.4400  -1.5992   3.8589   5.3974  12.4124  17.9097  19.8105
    22.0030

          k = 0.0997 0.5182 0.1772 (  2999 PWs)   bands (ev):

   -36.5521 -36.4260  -1.2687   4.0815   5.7121  12.4663  17.8957  18.8972
    20.6244

          k = 0.0997 0.5182 0.3543 (  3006 PWs)   bands (ev):

   -36.5125 -36.3904  -0.2867   4.7295   6.6472  12.1604  15.3505  17.4317
    19.5742

          k = 0.0997 0.5182 0.5315 (  3002 PWs)   bands (ev):

   -36.4673 -36.3498   1.3113   5.7008   8.1029   9.9363  14.2717  14.4883
    17.4924

          k = 0.0997 0.5182 0.7087 (  2997 PWs)   bands (ev):

   -36.4376 -36.3231   3.3816   6.1727   7.2768  10.4262  12.4078  13.0251
    15.6636

          k = 0.1994 0.3454 0.0000 (  2995 PWs)   bands (ev):

   -36.6078 -36.4005  -1.7740   4.6293   5.4470  13.2478  14.3313  18.8332
    22.6150

          k = 0.1994 0.3454 0.1772 (  2992 PWs)   bands (ev):

   -36.5917 -36.3870  -1.4560   4.8721   5.7462  13.2899  14.5106  17.7573
    21.2496

          k = 0.1994 0.3454 0.3543 (  2996 PWs)   bands (ev):

   -36.5507 -36.3527  -0.5121   5.5582   6.6358  12.4364  14.9322  15.9437
    19.6309

          k = 0.1994 0.3454 0.5315 (  3009 PWs)   bands (ev):

   -36.5039 -36.3135   1.0241   6.3553   8.0815  10.0172  14.8907  15.0550
    17.6954

          k = 0.1994 0.3454 0.7087 (  2995 PWs)   bands (ev):

   -36.4732 -36.2878   3.0738   5.3994   9.4759   9.8960  12.8399  13.0989
    17.1347

          k = 0.1994 0.4606 0.0000 (  2996 PWs)   bands (ev):

   -36.5678 -36.4399  -1.6034   4.1189   4.9894  13.6244  15.8876  19.7511
    22.3793

          k = 0.1994 0.4606 0.1772 (  2992 PWs)   bands (ev):

   -36.5522 -36.4259  -1.2736   4.3537   5.2767  13.6909  15.9727  18.7918
    20.3528

          k = 0.1994 0.4606 0.3543 (  3003 PWs)   bands (ev):

   -36.5126 -36.3903  -0.2946   5.0332   6.1262  13.0319  15.4503  16.6265
    18.8324

          k = 0.1994 0.4606 0.5315 (  3006 PWs)   bands (ev):

   -36.4673 -36.3497   1.2958   6.0058   7.4662  10.2513  14.5707  14.5886
    17.8007

          k = 0.1994 0.4606 0.7087 (  3000 PWs)   bands (ev):

   -36.4376 -36.3231   3.3564   5.9822   8.1900   9.3569  12.4633  12.6977
    17.4874

          k = 0.1994 0.5757 0.0000 (  2999 PWs)   bands (ev):

   -36.5431 -36.4643  -1.5322   3.9194   4.8409  13.6871  17.7688  18.1197
    23.7244

          k = 0.1994 0.5757 0.1772 (  2987 PWs)   bands (ev):

   -36.5279 -36.4500  -1.1972   4.1502   5.1244  13.7605  17.7288  18.1050
    19.5751

          k = 0.1994 0.5757 0.3543 (  2996 PWs)   bands (ev):

   -36.4891 -36.4137  -0.2022   4.8248   5.9604  13.2433  15.6479  16.9854
    18.6536

          k = 0.1994 0.5757 0.5315 (  3002 PWs)   bands (ev):

   -36.4447 -36.3722   1.4127   5.8596   7.2521  10.3591  14.3653  14.4377
    17.8050

          k = 0.1994 0.5757 0.7087 (  3016 PWs)   bands (ev):

   -36.4157 -36.3449   3.4582   6.9067   6.9587   9.2241  12.3391  12.5686
    17.5069

          k = 0.2992 0.5182 0.0000 (  3005 PWs)   bands (ev):

   -36.5281 -36.4792  -1.5067   4.1021   4.4624  14.9666  16.2938  17.9903
    23.8159

          k = 0.2992 0.5182 0.1772 (  2996 PWs)   bands (ev):

   -36.5130 -36.4648  -1.1700   4.3443   4.7258  15.0656  16.3167  17.9438
    19.5319

          k = 0.2992 0.5182 0.3543 (  3001 PWs)   bands (ev):

   -36.4747 -36.4280  -0.1705   5.0526   5.5020  13.9175  16.0359  16.4814
    17.9002

          k = 0.2992 0.5182 0.5315 (  2989 PWs)   bands (ev):

   -36.4309 -36.3860   1.4491   6.1345   6.7246  10.5150  14.3744  14.4393
    18.4916

          k = 0.2992 0.5182 0.7087 (  2998 PWs)   bands (ev):

   -36.4021 -36.3584   3.4805   6.8228   7.8783   8.0755  12.3453  12.4272
    19.0255

     the Fermi energy is     9.7151 ev

!    total energy              =     -37.20380383 Ry
     estimated scf accuracy    <          2.0E-09 Ry
     smearing contrib. (-TS)   =      -0.00025821 Ry
     internal energy E=F+TS    =     -37.20354562 Ry

     The total energy is F=E-TS. E is the sum of the following terms:
     one-electron contribution =      -7.60740872 Ry
     hartree contribution      =       5.68704935 Ry
     xc contribution           =     -10.32632044 Ry
     ewald contribution        =     -24.95686580 Ry

     convergence has been achieved in   5 iterations

     Forces acting on atoms (cartesian axes, Ry/au):

     atom    1 type  1   force =    -0.00000000   -0.00000000    0.00000000
     atom    2 type  2   force =     0.00000000   -0.00000000    0.00000000
     atom    3 type  2   force =     0.00000000   -0.00000000   -0.00000000
     The non-local contrib.  to forces
     atom    1 type  1   force =     0.00000000    0.00000000   -0.00000000
     atom    2 type  2   force =     0.00000000   -0.00000000    0.00000000
     atom    3 type  2   force =     0.00000000    0.00000000    0.00000000
     The ionic contribution  to forces
     atom    1 type  1   force =    -0.00000000   -0.00000000    0.00000000
     atom    2 type  2   force =     0.00000008   -0.00000004   -0.00000000
     atom    3 type  2   force =    -0.00000008    0.00000004   -0.00000000
     The local contribution  to forces
     atom    1 type  1   force =     0.00000000    0.00000000    0.00000000
     atom    2 type  2   force =     0.00000066   -0.00000038    0.00000000
     atom    3 type  2   force =    -0.00000066    0.00000038    0.00000000
     The core correction contribution to forces
     atom    1 type  1   force =     0.00000000    0.00000000   -0.00000000
     atom    2 type  2   force =     0.00000000    0.00000000    0.00000000
     atom    3 type  2   force =     0.00000000    0.00000000    0.00000000
     The Hubbard contrib.    to forces
     atom    1 type  1   force =     0.00000000    0.00000000    0.00000000
     atom    2 type  2   force =     0.00000000    0.00000000    0.00000000
     atom    3 type  2   force =     0.00000000    0.00000000    0.00000000
     The SCF correction term to forces
     atom    1 type  1   force =    -0.00000000    0.00000000    0.00000000
     atom    2 type  2   force =    -0.00000000    0.00000000    0.00000000
     atom    3 type  2   force =     0.00000000   -0.00000000    0.00000000

     Total force =     0.000000     Total SCF correction =     0.000000


     Computing stress (Cartesian axis) and pressure

          total   stress  (Ry/bohr**3)                   (kbar)     P=      503.19
   0.00347596   0.00000000   0.00000000          511.33        0.00        0.00
   0.00000000   0.00347596  -0.00000000            0.00      511.33       -0.00
   0.00000000  -0.00000000   0.00330984            0.00       -0.00      486.89

     Energy error            =      4.2E-04 Ry
     Gradient error          =      5.1E-24 Ry/Bohr
     Cell gradient error     =      1.3E+01 kbar

     number of scf cycles    =   2
     number of bfgs steps    =   1

     enthalpy           old  =     -36.6021209074 Ry
     enthalpy           new  =     -36.6025390324 Ry

     CASE: enthalpy          _new < enthalpy          _old

     new trust radius        =       0.0104479117 bohr
ibrav =      4
 celldm(1) =      6.90768859
 celldm(3) =      0.62106180
Input lattice vectors:
     1.00585596     0.00000000     0.00000000
    -0.50292798     0.87109681    -0.00000000
     0.00000000    -0.00000000     0.62469871
New lattice vectors in INITIAL alat:
     1.00585596     0.00000000     0.00000000
    -0.50292798     0.87109681     0.00000000
     0.00000000     0.00000000     0.62469871
New lattice vectors in NEW alat (for information only):
     1.00000000     0.00000000     0.00000000
    -0.50000000     0.86602540     0.00000000
     0.00000000     0.00000000     0.62106180
Discrepancy in bohr =     0.000000    0.000000    0.000000
     new conv_thr            =            1.0E-10 Ry

     new unit-cell volume =    177.28162 a.u.^3 (    26.27043 Ang^3 )
     density =      2.65274 g/cm^3

CELL_PARAMETERS (alat=  6.86747296)
   1.005855958   0.000000000   0.000000000
  -0.502927979   0.871096812   0.000000000
   0.000000000   0.000000000   0.624698709

ATOMIC_POSITIONS (crystal)
Si           -0.0000000000       -0.0000000000        0.0000000000
Li            0.3333333300        0.6666666700        0.5000000000
Li            0.6666666700        0.3333333300        0.5000000000



     Writing config-only to output data dir ./output/SiLi.save/
     NEW-OLD atomic charge density approx. for the potential
     extrapolated charge   10.02161, renormalised to   10.00000

     total cpu time spent up to now is       11.2 secs

     Self-consistent Calculation

     iteration #  1     ecut=   100.00 Ry     beta= 0.70
     Davidson diagonalization with overlap
     ethr =  1.00E-06,  avg # of iterations =  3.5

     Threshold (ethr) on eigenvalues was too large:
     Diagonalizing with lowered threshold

     Davidson diagonalization with overlap
     ethr =  4.86E-08,  avg # of iterations =  1.9

     total cpu time spent up to now is       12.4 secs

     total energy              =     -37.20517087 Ry
     estimated scf accuracy    <       0.00000526 Ry

     iteration #  2     ecut=   100.00 Ry     beta= 0.70
     Davidson diagonalization with overlap
     ethr =  5.26E-08,  avg # of iterations =  2.0

     total cpu time spent up to now is       13.0 secs

     total energy              =     -37.20517870 Ry
     estimated scf accuracy    <       0.00000217 Ry

     iteration #  3     ecut=   100.00 Ry     beta= 0.70
     Davidson diagonalization with overlap
     ethr =  2.17E-08,  avg # of iterations =  1.0

     total cpu time spent up to now is       13.5 secs

     total energy              =     -37.20517873 Ry
     estimated scf accuracy    <       0.00000031 Ry

     iteration #  4     ecut=   100.00 Ry     beta= 0.70
     Davidson diagonalization with overlap
     ethr =  3.11E-09,  avg # of iterations =  1.0

     total cpu time spent up to now is       13.9 secs

     total energy              =     -37.20517867 Ry
     estimated scf accuracy    <       0.00000010 Ry

     iteration #  5     ecut=   100.00 Ry     beta= 0.70
     Davidson diagonalization with overlap
     ethr =  9.66E-10,  avg # of iterations =  2.0

     total cpu time spent up to now is       14.4 secs

     total energy              =     -37.20517869 Ry
     estimated scf accuracy    <          1.3E-10 Ry

     iteration #  6     ecut=   100.00 Ry     beta= 0.70
     Davidson diagonalization with overlap
     ethr =  1.35E-12,  avg # of iterations =  3.8

     total cpu time spent up to now is       15.0 secs

     End of self-consistent calculation

          k = 0.0000 0.0000 0.0000 (  2941 PWs)   bands (ev):

   -36.7183 -36.3416  -2.3409   7.9557   7.9557  10.5752  10.5752  13.2561
    21.4199

          k = 0.0000 0.0000 0.1779 (  2966 PWs)   bands (ev):

   -36.7005 -36.3287  -2.0503   8.2785   8.2785  10.9296  10.9296  12.5458
    19.9849

          k = 0.0000 0.0000 0.3557 (  2954 PWs)   bands (ev):

   -36.6552 -36.2959  -1.1870   9.2470   9.2470  10.3960  11.9912  11.9912
    18.8430

          k = 0.0000 0.0000 0.5336 (  3002 PWs)   bands (ev):

   -36.6033 -36.2586   0.2208   7.5478  10.8612  10.8612  13.7519  13.7519
    18.7606

          k = 0.0000 0.0000 0.7115 (  3014 PWs)   bands (ev):

   -36.5693 -36.2341   2.0686   4.8518  13.1102  13.1102  16.0773  16.0773
    16.1586

          k = 0.0000 0.1148 0.0000 (  2969 PWs)   bands (ev):

   -36.7100 -36.3496  -2.2870   7.1835   7.4748  11.0554  11.3345  13.7919
    21.5411

          k = 0.0000 0.1148 0.1779 (  2966 PWs)   bands (ev):

   -36.6923 -36.3366  -1.9936   7.4787   7.8026  11.3416  11.6835  13.1369
    20.0830

          k = 0.0000 0.1148 0.3557 (  2984 PWs)   bands (ev):

   -36.6473 -36.3037  -1.1221   8.2649   8.7858  10.8415  12.5743  12.7291
    18.9914

          k = 0.0000 0.1148 0.5336 (  2990 PWs)   bands (ev):

   -36.5958 -36.2660   0.2992   7.4660  10.3894  10.4230  14.0757  14.4596
    18.2222

          k = 0.0000 0.1148 0.7115 (  3003 PWs)   bands (ev):

   -36.5620 -36.2413   2.1743   4.8834  12.3930  12.7072  15.2405  15.5968
    16.0210

          k = 0.0000 0.2296 0.0000 (  2983 PWs)   bands (ev):

   -36.6861 -36.3728  -2.1364   5.8979   6.7009  11.5120  12.9414  15.3166
    21.9003

          k = 0.0000 0.2296 0.1779 (  2980 PWs)   bands (ev):

   -36.6687 -36.3595  -1.8348   6.1640   7.0326  11.6427  13.2854  14.7029
    20.3794

          k = 0.0000 0.2296 0.3557 (  2989 PWs)   bands (ev):

   -36.6246 -36.3258  -0.9391   6.8871   8.0276  11.1694  13.6598  14.3139
    19.2970

          k = 0.0000 0.2296 0.5336 (  2993 PWs)   bands (ev):

   -36.5741 -36.2872   0.5214   7.1165   9.6844   9.7498  14.3218  15.9857
    16.8669

          k = 0.0000 0.2296 0.7115 (  3005 PWs)   bands (ev):

   -36.5410 -36.2620   2.4707   4.9906  10.9484  11.9985  14.0123  14.9419
    15.2572

          k = 0.0000 0.3444 0.0000 (  3001 PWs)   bands (ev):

   -36.6505 -36.4074  -1.9263   4.7662   6.0733  11.7222  14.9473  17.2825
    22.4785

          k = 0.0000 0.3444 0.1779 (  2991 PWs)   bands (ev):

   -36.6337 -36.3937  -1.6121   5.0109   6.4068  11.7901  15.2874  16.4608
    20.8248

          k = 0.0000 0.3444 0.3557 (  2992 PWs)   bands (ev):

   -36.5908 -36.3589  -0.6793   5.7021   7.4069  11.4231  14.5166  16.2981
    18.8538

          k = 0.0000 0.3444 0.5336 (  3007 PWs)   bands (ev):

   -36.5418 -36.3191   0.8406   6.4620   9.0725   9.5296  14.2421  15.6374
    17.5501

          k = 0.0000 0.3444 0.7115 (  3000 PWs)   bands (ev):

   -36.5096 -36.2930   2.8804   5.2296   9.3616  11.3986  13.0782  14.3801
    14.6300

          k = 0.0000 0.4592 0.0000 (  2987 PWs)   bands (ev):

   -36.6116 -36.4456  -1.7298   3.9939   5.6821  11.8238  17.2256  19.1639
    23.2027

          k = 0.0000 0.4592 0.1779 (  3002 PWs)   bands (ev):

   -36.5953 -36.4314  -1.4023   4.2219   6.0164  11.8756  17.5616  17.9516
    21.2472

          k = 0.0000 0.4592 0.3557 (  3005 PWs)   bands (ev):

   -36.5538 -36.3953  -0.4297   4.8821   7.0188  11.6082  15.1086  18.0248
    18.5391

          k = 0.0000 0.4592 0.5336 (  3002 PWs)   bands (ev):

   -36.5064 -36.3541   1.1539   5.8265   8.6882   9.5711  14.1174  14.7851
    17.5907

          k = 0.0000 0.4592 0.7115 (  3003 PWs)   bands (ev):

   -36.4753 -36.3271   3.2414   5.7304   7.8720  11.0185  12.5487  14.0209
    14.2394

          k = 0.0000-0.5740 0.0000 (  2976 PWs)   bands (ev):

   -36.5908 -36.4662  -1.6463   3.7158   5.5501  11.8556  19.1297  20.1561
    20.8035

          k = 0.0000-0.5740 0.1779 (  2990 PWs)   bands (ev):

   -36.5747 -36.4517  -1.3126   3.9368   5.8845  11.9048  18.6683  19.4754
    21.3465

          k = 0.0000-0.5740 0.3557 (  3002 PWs)   bands (ev):

   -36.5340 -36.4149  -0.3210   4.5816   6.8876  11.6763  15.3800  17.6163
    20.5072

          k = 0.0000-0.5740 0.5336 (  3006 PWs)   bands (ev):

   -36.4874 -36.3729   1.2935   5.5632   8.5580   9.6180  14.0898  14.4545
    17.4990

          k = 0.0000-0.5740 0.7115 (  2992 PWs)   bands (ev):

   -36.4568 -36.3454   3.3806   6.5334   6.7106  10.8894  12.3804  13.8984
    14.1074

          k = 0.0994 0.1722 0.0000 (  2977 PWs)   bands (ev):

   -36.6938 -36.3653  -2.1846   6.3009   6.8111  11.8144  12.0490  14.8901
    21.7814

          k = 0.0994 0.1722 0.1779 (  2971 PWs)   bands (ev):

   -36.6764 -36.3521  -1.8857   6.5756   7.1360  11.9744  12.3550  14.3329
    20.2887

          k = 0.0994 0.1722 0.3557 (  2984 PWs)   bands (ev):

   -36.6319 -36.3186  -0.9979   7.3076   8.1087  11.2368  13.2464  13.8657
    19.3428

          k = 0.0994 0.1722 0.5336 (  2996 PWs)   bands (ev):

   -36.5811 -36.2803   0.4497   7.2554   9.7221  10.0159  14.5884  15.1259
    17.8543

          k = 0.0994 0.1722 0.7115 (  3010 PWs)   bands (ev):

   -36.5478 -36.2553   2.3756   4.9525  11.5483  11.9428  14.3666  14.7537
    16.0792

          k = 0.0994 0.2870 0.0000 (  2989 PWs)   bands (ev):

   -36.6639 -36.3944  -2.0029   5.2293   6.0981  12.1474  13.6079  16.7560
    22.2513

          k = 0.0994 0.2870 0.1779 (  2988 PWs)   bands (ev):

   -36.6468 -36.3809  -1.6934   5.4845   6.4184  12.2354  13.8570  16.1075
    20.7141

          k = 0.0994 0.2870 0.3557 (  2995 PWs)   bands (ev):

   -36.6035 -36.3464  -0.7749   6.1916   7.3743  11.6590  14.1945  15.2657
    19.6297

          k = 0.0994 0.2870 0.5336 (  3001 PWs)   bands (ev):

   -36.5539 -36.3071   0.7222   6.7680   8.9194   9.8160  14.6566  15.6956
    17.2703

          k = 0.0994 0.2870 0.7115 (  3010 PWs)   bands (ev):

   -36.5214 -36.2813   2.7309   5.1235  10.1946  11.1594  13.4036  13.8687
    16.0638

          k = 0.0994 0.4018 0.0000 (  2989 PWs)   bands (ev):

   -36.6253 -36.4321  -1.7950   4.3329   5.5974  12.2802  15.5913  18.7635
    22.9133

          k = 0.0994 0.4018 0.1779 (  2999 PWs)   bands (ev):

   -36.6088 -36.4181  -1.4723   4.5709   5.9157  12.3463  15.7780  17.7804
    21.2296

          k = 0.0994 0.4018 0.3557 (  2993 PWs)   bands (ev):

   -36.5669 -36.3825  -0.5142   5.2530   6.8627  11.9701  14.9201  16.8145
    18.9666

          k = 0.0994 0.4018 0.5336 (  3000 PWs)   bands (ev):

   -36.5189 -36.3418   1.0454   6.1423   8.3563   9.8579  14.4051  15.0581
    17.6151

          k = 0.0994 0.4018 0.7115 (  3001 PWs)   bands (ev):

   -36.4874 -36.3151   3.1197   5.4926   8.6735  10.6640  12.7281  13.3061
    15.8108

          k = 0.0994 0.5166 0.0000 (  2985 PWs)   bands (ev):

   -36.5908 -36.4661  -1.6488   3.8242   5.3428  12.3379  17.7944  19.6865
    21.8866

          k = 0.0994 0.5166 0.1779 (  2999 PWs)   bands (ev):

   -36.5748 -36.4516  -1.3156   4.0505   5.6603  12.4000  17.8200  18.8845
    20.5631

          k = 0.0994 0.5166 0.3557 (  3006 PWs)   bands (ev):

   -36.5341 -36.4149  -0.3258   4.7095   6.6043  12.1388  15.3696  17.4592
    19.5004

          k = 0.0994 0.5166 0.5336 (  3002 PWs)   bands (ev):

   -36.4875 -36.3729   1.2842   5.7001   8.0795   9.9596  14.2489  14.5127
    17.5151

          k = 0.0994 0.5166 0.7115 (  2997 PWs)   bands (ev):

   -36.4569 -36.3453   3.3656   6.1991   7.2972  10.4161  12.4047  13.0266
    15.6364

          k = 0.1988 0.3444 0.0000 (  2995 PWs)   bands (ev):

   -36.6301 -36.4274  -1.8198   4.5850   5.3945  13.1609  14.2425  18.7156
    22.8104

          k = 0.1988 0.3444 0.1779 (  2992 PWs)   bands (ev):

   -36.6135 -36.4135  -1.4989   4.8313   5.6965  13.2170  14.4264  17.7462
    21.2355

          k = 0.1988 0.3444 0.3557 (  2996 PWs)   bands (ev):

   -36.5714 -36.3780  -0.5464   5.5292   6.5952  12.4388  14.8638  15.9251
    19.6681

          k = 0.1988 0.3444 0.5336 (  3009 PWs)   bands (ev):

   -36.5232 -36.3375   1.0036   6.3531   8.0560  10.0340  14.8669  15.0643
    17.6916

          k = 0.1988 0.3444 0.7115 (  2995 PWs)   bands (ev):

   -36.4916 -36.3109   3.0694   5.4218   9.4762   9.8933  12.8382  13.0977
    17.0925

          k = 0.1988 0.4592 0.0000 (  2996 PWs)   bands (ev):

   -36.5910 -36.4659  -1.6528   4.0807   4.9411  13.5357  15.7898  19.6276
    22.2807

          k = 0.1988 0.4592 0.1779 (  2992 PWs)   bands (ev):

   -36.5749 -36.4515  -1.3203   4.3190   5.2315  13.6130  15.8853  18.8075
    20.2999

          k = 0.1988 0.4592 0.3557 (  3003 PWs)   bands (ev):

   -36.5342 -36.4148  -0.3333   5.0095   6.0904  13.0273  15.4224  16.6069
    18.8321

          k = 0.1988 0.4592 0.5336 (  3006 PWs)   bands (ev):

   -36.4875 -36.3728   1.2694   6.0028   7.4475  10.2775  14.5644  14.6072
    17.7794

          k = 0.1988 0.4592 0.7115 (  3000 PWs)   bands (ev):

   -36.4569 -36.3453   3.3417   6.0088   8.2027   9.3585  12.4614  12.6980
    17.4441

          k = 0.1988 0.5740 0.0000 (  2999 PWs)   bands (ev):

   -36.5669 -36.4898  -1.5832   3.8839   4.7937  13.5990  17.6514  18.0141
    23.9032

          k = 0.1988 0.5740 0.1779 (  2987 PWs)   bands (ev):

   -36.5512 -36.4751  -1.2456   4.1183   5.0804  13.6818  17.6392  18.0187
    19.6311

          k = 0.1988 0.5740 0.3557 (  2996 PWs)   bands (ev):

   -36.5112 -36.4376  -0.2430   4.8036   5.9260  13.2315  15.6502  16.9930
    18.5843

          k = 0.1988 0.5740 0.5336 (  3002 PWs)   bands (ev):

   -36.4655 -36.3947   1.3835   5.8570   7.2360  10.3887  14.3878  14.4333
    17.7848

          k = 0.1988 0.5740 0.7115 (  3016 PWs)   bands (ev):

   -36.4355 -36.3666   3.4400   6.9284   6.9825   9.2268  12.3368  12.5695
    17.4641

          k = 0.2983 0.5166 0.0000 (  3005 PWs)   bands (ev):

   -36.5522 -36.5044  -1.5583   4.0642   4.4202  14.8581  16.2017  17.8830
    23.3721

          k = 0.2983 0.5166 0.1779 (  2996 PWs)   bands (ev):

   -36.5366 -36.4895  -1.2190   4.3098   4.6870  14.9703  16.2341  17.8567
    19.6023

          k = 0.2983 0.5166 0.3557 (  3001 PWs)   bands (ev):

   -36.4971 -36.4516  -0.2119   5.0287   5.4731  13.9309  15.9951  16.4710
    17.8558

          k = 0.2983 0.5166 0.5336 (  2989 PWs)   bands (ev):

   -36.4520 -36.4082   1.4193   6.1291   6.7128  10.5480  14.3929  14.4496
    18.4203

          k = 0.2983 0.5166 0.7115 (  2998 PWs)   bands (ev):

   -36.4224 -36.3797   3.4617   6.8463   7.8944   8.0882  12.3439  12.4267
    18.9710

     the Fermi energy is     9.7141 ev

!    total energy              =     -37.20517869 Ry
     estimated scf accuracy    <          1.1E-11 Ry
     smearing contrib. (-TS)   =      -0.00029853 Ry
     internal energy E=F+TS    =     -37.20488016 Ry

     The total energy is F=E-TS. E is the sum of the following terms:
     one-electron contribution =      -7.62846513 Ry
     hartree contribution      =       5.68787738 Ry
     xc contribution           =     -10.32506733 Ry
     ewald contribution        =     -24.93922508 Ry

     convergence has been achieved in   6 iterations

     Forces acting on atoms (cartesian axes, Ry/au):

     atom    1 type  1   force =     0.00000000   -0.00000000   -0.00000000
     atom    2 type  2   force =    -0.00000000   -0.00000000   -0.00000000
     atom    3 type  2   force =     0.00000000   -0.00000000   -0.00000000
     The non-local contrib.  to forces
     atom    1 type  1   force =     0.00000000    0.00000000    0.00000000
     atom    2 type  2   force =    -0.00000000    0.00000000    0.00000000
     atom    3 type  2   force =     0.00000000   -0.00000000    0.00000000
     The ionic contribution  to forces
     atom    1 type  1   force =    -0.00000000   -0.00000000    0.00000000
     atom    2 type  2   force =     0.00000008   -0.00000004    0.00000000
     atom    3 type  2   force =    -0.00000008    0.00000004    0.00000000
     The local contribution  to forces
     atom    1 type  1   force =     0.00000000    0.00000000   -0.00000000
     atom    2 type  2   force =     0.00000066   -0.00000038   -0.00000000
     atom    3 type  2   force =    -0.00000066    0.00000038    0.00000000
     The core correction contribution to forces
     atom    1 type  1   force =     0.00000000    0.00000000    0.00000000
     atom    2 type  2   force =     0.00000000    0.00000000    0.00000000
     atom    3 type  2   force =     0.00000000    0.00000000    0.00000000
     The Hubbard contrib.    to forces
     atom    1 type  1   force =     0.00000000    0.00000000    0.00000000
     atom    2 type  2   force =     0.00000000    0.00000000    0.00000000
     atom    3 type  2   force =     0.00000000    0.00000000    0.00000000
     The SCF correction term to forces
     atom    1 type  1   force =    -0.00000000   -0.00000000    0.00000000
     atom    2 type  2   force =    -0.00000000    0.00000000   -0.00000000
     atom    3 type  2   force =     0.00000000   -0.00000000   -0.00000000

     Total force =     0.000000     Total SCF correction =     0.000000


     Computing stress (Cartesian axis) and pressure

          total   stress  (Ry/bohr**3)                   (kbar)     P=      500.46
   0.00340070  -0.00000000   0.00000000          500.26       -0.00        0.00
  -0.00000000   0.00340070   0.00000000           -0.00      500.26        0.00
   0.00000000   0.00000000   0.00340481            0.00        0.00      500.87

     Energy error            =      7.2E-05 Ry
     Gradient error          =      8.8E-24 Ry/Bohr
     Cell gradient error     =      8.7E-01 kbar
ibrav =      4
 celldm(1) =      6.90768859
 celldm(3) =      0.62106180
Input lattice vectors:
     1.00585596     0.00000000     0.00000000
    -0.50292798     0.87109681     0.00000000
     0.00000000     0.00000000     0.62469871
New lattice vectors in INITIAL alat:
     1.00585596     0.00000000     0.00000000
    -0.50292798     0.87109681     0.00000000
     0.00000000     0.00000000     0.62469871
New lattice vectors in NEW alat (for information only):
     1.00000000     0.00000000     0.00000000
    -0.50000000     0.86602540     0.00000000
     0.00000000     0.00000000     0.62106180
Discrepancy in bohr =     0.000000    0.000000    0.000000

     bfgs converged in   3 scf cycles and   2 bfgs steps
     (criteria: energy <  1.0E-04 Ry, force <  1.0E-03 Ry/Bohr, cell <  1.0E+00 kbar)

     End of BFGS Geometry Optimization

     Final enthalpy           =     -36.6026107236 Ry

     File ./output/SiLi.bfgs deleted, as requested
Begin final coordinates
     new unit-cell volume =    177.28162 a.u.^3 (    26.27043 Ang^3 )
     density =      2.65274 g/cm^3

CELL_PARAMETERS (alat=  6.86747296)
   1.005855958   0.000000000   0.000000000
  -0.502927979   0.871096812   0.000000000
   0.000000000   0.000000000   0.624698709

ATOMIC_POSITIONS (crystal)
Si           -0.0000000000       -0.0000000000        0.0000000000
Li            0.3333333300        0.6666666700        0.5000000000
Li            0.6666666700        0.3333333300        0.5000000000
End final coordinates



     Writing config-only to output data dir ./output/SiLi.save/

     Final scf calculation at the relaxed structure.
     The G-vectors are recalculated for the final unit cell
     Results may differ from those at the preceding step.

     Parallelization info
     --------------------
     sticks:   dense  smooth     PW     G-vecs:    dense   smooth      PW
     Min         161     161     47                 2984     2984     471
     Max         164     164     48                 2985     2985     474
     Sum        1303    1303    379                23877    23877    3777

     Using Slab Decomposition



     bravais-lattice index     =            4
     lattice parameter (alat)  =       6.8675  a.u.
     unit-cell volume          =     177.2816 (a.u.)^3
     number of atoms/cell      =            3
     number of atomic types    =            2
     number of electrons       =        10.00
     number of Kohn-Sham states=            9
     kinetic-energy cutoff     =     100.0000  Ry
     charge density cutoff     =     400.0000  Ry
     scf convergence threshold =      1.0E-10
     mixing beta               =       0.7000
     number of iterations used =            8  plain     mixing
     press convergence thresh. =      1.0E+00
     Exchange-correlation= PBE
                           (   1   4   3   4   0   0   0)

     celldm(1)=   6.867473  celldm(2)=   0.000000  celldm(3)=   0.632529
     celldm(4)=   0.000000  celldm(5)=   0.000000  celldm(6)=   0.000000

     crystal axes: (cart. coord. in units of alat)
               a(1) = (   1.005856   0.000000   0.000000 )  
               a(2) = (  -0.502928   0.871097   0.000000 )  
               a(3) = (   0.000000   0.000000   0.624699 )  

     reciprocal axes: (cart. coord. in units 2 pi/alat)
               b(1) = (  0.994178  0.573989 -0.000000 )  
               b(2) = (  0.000000  1.147978  0.000000 )  
               b(3) = (  0.000000 -0.000000  1.600772 )  


     PseudoPot. # 1 for Si read from file:
     ../pseudo/Si_ONCV_PBE_sr.upf
     MD5 check sum: e543d271109d17c80368dfa7c482276d
     Pseudo is Norm-conserving + core correction, Zval =  4.0
     Generated using ONCVPSP code by D. R. Hamann
     Using radial grid of 1510 points,  6 beta functions with: 
                l(1) =   0
                l(2) =   0
                l(3) =   1
                l(4) =   1
                l(5) =   2
                l(6) =   2

     PseudoPot. # 2 for Li read from file:
     ../pseudo/Li_ONCV_PBE_sr.upf
     MD5 check sum: 50ff420e78310ffa21704f3361e624a4
     Pseudo is Norm-conserving, Zval =  3.0
     Generated using ONCVPSP code by D. R. Hamann
     Using radial grid of 1944 points,  4 beta functions with: 
                l(1) =   0
                l(2) =   0
                l(3) =   1
                l(4) =   1

     atomic species   valence    mass     pseudopotential
        Si             4.00    28.08550     Si( 1.00)
        Li             3.00     6.94100     Li( 1.00)

     24 Sym. Ops., with inversion, found



   Cartesian axes

     site n.     atom                  positions (alat units)
         1           Si  tau(   1) = (   0.0000000  -0.0000000   0.0000000  )
         2           Li  tau(   2) = (  -0.0000000   0.5807312   0.3123494  )
         3           Li  tau(   3) = (   0.5029280   0.2903656   0.3123494  )

     number of k points=    70  Marzari-Vanderbilt smearing, width (Ry)=  0.0200
                       cart. coord. in units 2pi/alat
        k(    1) = (   0.0000000   0.0000000   0.0000000), wk =   0.0022222
        k(    2) = (   0.0000000   0.0000000   0.1778635), wk =   0.0044444
        k(    3) = (   0.0000000   0.0000000   0.3557270), wk =   0.0044444
        k(    4) = (   0.0000000   0.0000000   0.5335906), wk =   0.0044444
        k(    5) = (   0.0000000   0.0000000   0.7114541), wk =   0.0044444
        k(    6) = (   0.0000000   0.1147978   0.0000000), wk =   0.0133333
        k(    7) = (   0.0000000   0.1147978   0.1778635), wk =   0.0266667
        k(    8) = (   0.0000000   0.1147978   0.3557270), wk =   0.0266667
        k(    9) = (   0.0000000   0.1147978   0.5335906), wk =   0.0266667
        k(   10) = (   0.0000000   0.1147978   0.7114541), wk =   0.0266667
        k(   11) = (   0.0000000   0.2295956   0.0000000), wk =   0.0133333
        k(   12) = (   0.0000000   0.2295956   0.1778635), wk =   0.0266667
        k(   13) = (   0.0000000   0.2295956   0.3557270), wk =   0.0266667
        k(   14) = (   0.0000000   0.2295956   0.5335906), wk =   0.0266667
        k(   15) = (   0.0000000   0.2295956   0.7114541), wk =   0.0266667
        k(   16) = (   0.0000000   0.3443934   0.0000000), wk =   0.0133333
        k(   17) = (   0.0000000   0.3443934   0.1778635), wk =   0.0266667
        k(   18) = (   0.0000000   0.3443934   0.3557270), wk =   0.0266667
        k(   19) = (   0.0000000   0.3443934   0.5335906), wk =   0.0266667
        k(   20) = (   0.0000000   0.3443934   0.7114541), wk =   0.0266667
        k(   21) = (   0.0000000   0.4591912   0.0000000), wk =   0.0133333
        k(   22) = (   0.0000000   0.4591912   0.1778635), wk =   0.0266667
        k(   23) = (   0.0000000   0.4591912   0.3557270), wk =   0.0266667
        k(   24) = (   0.0000000   0.4591912   0.5335906), wk =   0.0266667
        k(   25) = (   0.0000000   0.4591912   0.7114541), wk =   0.0266667
        k(   26) = (   0.0000000  -0.5739890   0.0000000), wk =   0.0066667
        k(   27) = (   0.0000000  -0.5739890   0.1778635), wk =   0.0133333
        k(   28) = (   0.0000000  -0.5739890   0.3557270), wk =   0.0133333
        k(   29) = (   0.0000000  -0.5739890   0.5335906), wk =   0.0133333
        k(   30) = (   0.0000000  -0.5739890   0.7114541), wk =   0.0133333
        k(   31) = (   0.0994178   0.1721967   0.0000000), wk =   0.0133333
        k(   32) = (   0.0994178   0.1721967   0.1778635), wk =   0.0266667
        k(   33) = (   0.0994178   0.1721967   0.3557270), wk =   0.0266667
        k(   34) = (   0.0994178   0.1721967   0.5335906), wk =   0.0266667
        k(   35) = (   0.0994178   0.1721967   0.7114541), wk =   0.0266667
        k(   36) = (   0.0994178   0.2869945   0.0000000), wk =   0.0266667
        k(   37) = (   0.0994178   0.2869945   0.1778635), wk =   0.0533333
        k(   38) = (   0.0994178   0.2869945   0.3557270), wk =   0.0533333
        k(   39) = (   0.0994178   0.2869945   0.5335906), wk =   0.0533333
        k(   40) = (   0.0994178   0.2869945   0.7114541), wk =   0.0533333
        k(   41) = (   0.0994178   0.4017923   0.0000000), wk =   0.0266667
        k(   42) = (   0.0994178   0.4017923   0.1778635), wk =   0.0533333
        k(   43) = (   0.0994178   0.4017923   0.3557270), wk =   0.0533333
        k(   44) = (   0.0994178   0.4017923   0.5335906), wk =   0.0533333
        k(   45) = (   0.0994178   0.4017923   0.7114541), wk =   0.0533333
        k(   46) = (   0.0994178   0.5165901   0.0000000), wk =   0.0266667
        k(   47) = (   0.0994178   0.5165901   0.1778635), wk =   0.0533333
        k(   48) = (   0.0994178   0.5165901   0.3557270), wk =   0.0533333
        k(   49) = (   0.0994178   0.5165901   0.5335906), wk =   0.0533333
        k(   50) = (   0.0994178   0.5165901   0.7114541), wk =   0.0533333
        k(   51) = (   0.1988356   0.3443934   0.0000000), wk =   0.0133333
        k(   52) = (   0.1988356   0.3443934   0.1778635), wk =   0.0266667
        k(   53) = (   0.1988356   0.3443934   0.3557270), wk =   0.0266667
        k(   54) = (   0.1988356   0.3443934   0.5335906), wk =   0.0266667
        k(   55) = (   0.1988356   0.3443934   0.7114541), wk =   0.0266667
        k(   56) = (   0.1988356   0.4591912   0.0000000), wk =   0.0266667
        k(   57) = (   0.1988356   0.4591912   0.1778635), wk =   0.0533333
        k(   58) = (   0.1988356   0.4591912   0.3557270), wk =   0.0533333
        k(   59) = (   0.1988356   0.4591912   0.5335906), wk =   0.0533333
        k(   60) = (   0.1988356   0.4591912   0.7114541), wk =   0.0533333
        k(   61) = (   0.1988356   0.5739890   0.0000000), wk =   0.0133333
        k(   62) = (   0.1988356   0.5739890   0.1778635), wk =   0.0266667
        k(   63) = (   0.1988356   0.5739890   0.3557270), wk =   0.0266667
        k(   64) = (   0.1988356   0.5739890   0.5335906), wk =   0.0266667
        k(   65) = (   0.1988356   0.5739890   0.7114541), wk =   0.0266667
        k(   66) = (   0.2982534   0.5165901   0.0000000), wk =   0.0133333
        k(   67) = (   0.2982534   0.5165901   0.1778635), wk =   0.0266667
        k(   68) = (   0.2982534   0.5165901   0.3557270), wk =   0.0266667
        k(   69) = (   0.2982534   0.5165901   0.5335906), wk =   0.0266667
        k(   70) = (   0.2982534   0.5165901   0.7114541), wk =   0.0266667

     Dense  grid:    23877 G-vectors     FFT dimensions: (  45,  45,  27)

     Estimated max dynamical RAM per process >      18.84 MB

     Estimated total dynamical RAM >     150.74 MB

     Initial potential from superposition of free atoms

     starting charge       9.9903, renormalised to      10.0000
     Starting wfcs are    8 randomized atomic wfcs +    1 random wfcs

     total cpu time spent up to now is       16.3 secs

     Self-consistent Calculation

     iteration #  1     ecut=   100.00 Ry     beta= 0.70
     Davidson diagonalization with overlap
     c_bands:  1 eigenvalues not converged
     c_bands:  1 eigenvalues not converged
     c_bands:  2 eigenvalues not converged
     c_bands:  1 eigenvalues not converged
     c_bands:  1 eigenvalues not converged
     c_bands:  1 eigenvalues not converged
     ethr =  1.00E-06,  avg # of iterations = 15.5

     total cpu time spent up to now is       18.0 secs

     total energy              =     -37.20512894 Ry
     estimated scf accuracy    <       0.00905936 Ry

     iteration #  2     ecut=   100.00 Ry     beta= 0.70
     Davidson diagonalization with overlap
     ethr =  9.06E-05,  avg # of iterations =  1.0

     total cpu time spent up to now is       18.5 secs

     total energy              =     -37.20515888 Ry
     estimated scf accuracy    <       0.00064759 Ry

     iteration #  3     ecut=   100.00 Ry     beta= 0.70
     Davidson diagonalization with overlap
     ethr =  6.48E-06,  avg # of iterations =  1.1

     total cpu time spent up to now is       18.9 secs

     total energy              =     -37.20517783 Ry
     estimated scf accuracy    <       0.00000427 Ry

     iteration #  4     ecut=   100.00 Ry     beta= 0.70
     Davidson diagonalization with overlap
     ethr =  4.27E-08,  avg # of iterations =  2.1

     total cpu time spent up to now is       19.4 secs

     total energy              =     -37.20517862 Ry
     estimated scf accuracy    <       0.00000014 Ry

     iteration #  5     ecut=   100.00 Ry     beta= 0.70
     Davidson diagonalization with overlap
     ethr =  1.42E-09,  avg # of iterations =  2.3

     total cpu time spent up to now is       20.0 secs

     total energy              =     -37.20517866 Ry
     estimated scf accuracy    <          1.8E-09 Ry

     iteration #  6     ecut=   100.00 Ry     beta= 0.70
     Davidson diagonalization with overlap
     ethr =  1.78E-11,  avg # of iterations =  3.0

     total cpu time spent up to now is       20.5 secs

     End of self-consistent calculation

          k = 0.0000 0.0000 0.0000 (  2941 PWs)   bands (ev):

   -36.7184 -36.3416  -2.3409   7.9557   7.9557  10.5752  10.5752  13.2561
    21.4199

          k = 0.0000 0.0000 0.1779 (  2953 PWs)   bands (ev):

   -36.7006 -36.3287  -2.0503   8.2785   8.2785  10.9296  10.9296  12.5458
    19.9849

          k = 0.0000 0.0000 0.3557 (  2954 PWs)   bands (ev):

   -36.6553 -36.2960  -1.1870   9.2470   9.2470  10.3960  11.9912  11.9912
    18.8430

          k = 0.0000 0.0000 0.5336 (  2984 PWs)   bands (ev):

   -36.6034 -36.2586   0.2208   7.5478  10.8612  10.8612  13.7519  13.7519
    18.7606

          k = 0.0000 0.0000 0.7115 (  3008 PWs)   bands (ev):

   -36.5694 -36.2341   2.0686   4.8518  13.1102  13.1102  16.0774  16.0774
    16.1586

          k = 0.0000 0.1148 0.0000 (  2959 PWs)   bands (ev):

   -36.7100 -36.3497  -2.2870   7.1835   7.4748  11.0553  11.3345  13.7919
    21.5411

          k = 0.0000 0.1148 0.1779 (  2960 PWs)   bands (ev):

   -36.6923 -36.3367  -1.9936   7.4787   7.8026  11.3416  11.6835  13.1369
    20.0830

          k = 0.0000 0.1148 0.3557 (  2968 PWs)   bands (ev):

   -36.6473 -36.3037  -1.1221   8.2650   8.7858  10.8415  12.5743  12.7291
    18.9914

          k = 0.0000 0.1148 0.5336 (  2989 PWs)   bands (ev):

   -36.5958 -36.2661   0.2993   7.4660  10.3894  10.4230  14.0757  14.4596
    18.2224

          k = 0.0000 0.1148 0.7115 (  3015 PWs)   bands (ev):

   -36.5620 -36.2414   2.1743   4.8834  12.3930  12.7072  15.2406  15.5968
    16.0210

          k = 0.0000 0.2296 0.0000 (  2997 PWs)   bands (ev):

   -36.6862 -36.3728  -2.1364   5.8979   6.7009  11.5120  12.9414  15.3166
    21.9003

          k = 0.0000 0.2296 0.1779 (  2983 PWs)   bands (ev):

   -36.6688 -36.3596  -1.8348   6.1640   7.0326  11.6427  13.2854  14.7029
    20.3794

          k = 0.0000 0.2296 0.3557 (  2992 PWs)   bands (ev):

   -36.6247 -36.3258  -0.9391   6.8871   8.0276  11.1694  13.6598  14.3139
    19.2969

          k = 0.0000 0.2296 0.5336 (  2997 PWs)   bands (ev):

   -36.5742 -36.2873   0.5214   7.1165   9.6844   9.7498  14.3218  15.9857
    16.8669

          k = 0.0000 0.2296 0.7115 (  3007 PWs)   bands (ev):

   -36.5410 -36.2621   2.4707   4.9907  10.9484  11.9985  14.0123  14.9419
    15.2572

          k = 0.0000 0.3444 0.0000 (  2999 PWs)   bands (ev):

   -36.6506 -36.4075  -1.9263   4.7662   6.0733  11.7222  14.9473  17.2825
    22.4785

          k = 0.0000 0.3444 0.1779 (  2978 PWs)   bands (ev):

   -36.6337 -36.3938  -1.6121   5.0109   6.4068  11.7901  15.2874  16.4608
    20.8248

          k = 0.0000 0.3444 0.3557 (  2998 PWs)   bands (ev):

   -36.5909 -36.3589  -0.6793   5.7021   7.4069  11.4231  14.5166  16.2981
    18.8538

          k = 0.0000 0.3444 0.5336 (  2997 PWs)   bands (ev):

   -36.5419 -36.3191   0.8406   6.4620   9.0726   9.5296  14.2421  15.6374
    17.5501

          k = 0.0000 0.3444 0.7115 (  2993 PWs)   bands (ev):

   -36.5097 -36.2930   2.8804   5.2296   9.3616  11.3986  13.0782  14.3801
    14.6300

          k = 0.0000 0.4592 0.0000 (  2987 PWs)   bands (ev):

   -36.6117 -36.4457  -1.7298   3.9939   5.6822  11.8238  17.2256  19.1639
    23.2028

          k = 0.0000 0.4592 0.1779 (  2997 PWs)   bands (ev):

   -36.5954 -36.4315  -1.4023   4.2219   6.0164  11.8756  17.5616  17.9516
    21.2472

          k = 0.0000 0.4592 0.3557 (  2993 PWs)   bands (ev):

   -36.5539 -36.3954  -0.4297   4.8821   7.0188  11.6082  15.1086  18.0248
    18.5391

          k = 0.0000 0.4592 0.5336 (  2993 PWs)   bands (ev):

   -36.5065 -36.3542   1.1539   5.8265   8.6882   9.5711  14.1174  14.7851
    17.5907

          k = 0.0000 0.4592 0.7115 (  2993 PWs)   bands (ev):

   -36.4753 -36.3271   3.2414   5.7304   7.8720  11.0185  12.5487  14.0209
    14.2394

          k = 0.0000-0.5740 0.0000 (  2994 PWs)   bands (ev):

   -36.5908 -36.4662  -1.6463   3.7158   5.5501  11.8556  19.1297  20.1561
    20.8035

          k = 0.0000-0.5740 0.1779 (  2996 PWs)   bands (ev):

   -36.5748 -36.4518  -1.3126   3.9368   5.8845  11.9048  18.6683  19.4754
    21.0708

          k = 0.0000-0.5740 0.3557 (  2998 PWs)   bands (ev):

   -36.5341 -36.4150  -0.3210   4.5816   6.8876  11.6763  15.3800  17.6163
    20.5073

          k = 0.0000-0.5740 0.5336 (  2990 PWs)   bands (ev):

   -36.4875 -36.3730   1.2935   5.5632   8.5580   9.6180  14.0898  14.4545
    17.4990

          k = 0.0000-0.5740 0.7115 (  2998 PWs)   bands (ev):

   -36.4569 -36.3454   3.3807   6.5334   6.7106  10.8894  12.3804  13.8984
    14.1073

          k = 0.0994 0.1722 0.0000 (  2987 PWs)   bands (ev):

   -36.6939 -36.3653  -2.1846   6.3009   6.8112  11.8144  12.0490  14.8901
    21.7814

          k = 0.0994 0.1722 0.1779 (  2974 PWs)   bands (ev):

   -36.6764 -36.3521  -1.8857   6.5756   7.1360  11.9744  12.3550  14.3330
    20.2887

          k = 0.0994 0.1722 0.3557 (  2975 PWs)   bands (ev):

   -36.6320 -36.3187  -0.9979   7.3076   8.1087  11.2368  13.2464  13.8657
    19.3428

          k = 0.0994 0.1722 0.5336 (  2990 PWs)   bands (ev):

   -36.5812 -36.2804   0.4498   7.2554   9.7221  10.0159  14.5884  15.1259
    17.8541

          k = 0.0994 0.1722 0.7115 (  3006 PWs)   bands (ev):

   -36.5478 -36.2553   2.3756   4.9525  11.5483  11.9428  14.3666  14.7537
    16.0792

          k = 0.0994 0.2870 0.0000 (  2991 PWs)   bands (ev):

   -36.6639 -36.3945  -2.0028   5.2293   6.0981  12.1474  13.6079  16.7560
    22.2513

          k = 0.0994 0.2870 0.1779 (  2991 PWs)   bands (ev):

   -36.6469 -36.3809  -1.6934   5.4845   6.4184  12.2354  13.8570  16.1075
    20.7141

          k = 0.0994 0.2870 0.3557 (  2989 PWs)   bands (ev):

   -36.6036 -36.3465  -0.7749   6.1916   7.3743  11.6590  14.1945  15.2657
    19.6297

          k = 0.0994 0.2870 0.5336 (  2996 PWs)   bands (ev):

   -36.5540 -36.3072   0.7222   6.7680   8.9194   9.8160  14.6566  15.6956
    17.2704

          k = 0.0994 0.2870 0.7115 (  2996 PWs)   bands (ev):

   -36.5215 -36.2814   2.7309   5.1235  10.1946  11.1594  13.4036  13.8687
    16.0638

          k = 0.0994 0.4018 0.0000 (  2992 PWs)   bands (ev):

   -36.6254 -36.4322  -1.7950   4.3329   5.5974  12.2802  15.5913  18.7635
    22.9133

          k = 0.0994 0.4018 0.1779 (  2989 PWs)   bands (ev):

   -36.6089 -36.4182  -1.4723   4.5709   5.9157  12.3463  15.7780  17.7804
    21.2296

          k = 0.0994 0.4018 0.3557 (  2995 PWs)   bands (ev):

   -36.5669 -36.3825  -0.5142   5.2530   6.8628  11.9701  14.9201  16.8145
    18.9666

          k = 0.0994 0.4018 0.5336 (  3004 PWs)   bands (ev):

   -36.5189 -36.3418   1.0454   6.1423   8.3563   9.8580  14.4051  15.0581
    17.6151

          k = 0.0994 0.4018 0.7115 (  3000 PWs)   bands (ev):

   -36.4874 -36.3151   3.1197   5.4927   8.6735  10.6640  12.7281  13.3061
    15.8108

          k = 0.0994 0.5166 0.0000 (  2994 PWs)   bands (ev):

   -36.5909 -36.4661  -1.6488   3.8242   5.3428  12.3379  17.7944  19.6865
    21.8866

          k = 0.0994 0.5166 0.1779 (  2998 PWs)   bands (ev):

   -36.5749 -36.4517  -1.3155   4.0505   5.6603  12.4000  17.8200  18.8845
    20.5631

          k = 0.0994 0.5166 0.3557 (  2999 PWs)   bands (ev):

   -36.5341 -36.4150  -0.3257   4.7095   6.6043  12.1388  15.3696  17.4592
    19.5004

          k = 0.0994 0.5166 0.5336 (  3002 PWs)   bands (ev):

   -36.4875 -36.3730   1.2842   5.7001   8.0795   9.9596  14.2489  14.5127
    17.5151

          k = 0.0994 0.5166 0.7115 (  2998 PWs)   bands (ev):

   -36.4569 -36.3454   3.3656   6.1991   7.2972  10.4161  12.4047  13.0266
    15.6364

          k = 0.1988 0.3444 0.0000 (  2997 PWs)   bands (ev):

   -36.6302 -36.4275  -1.8198   4.5850   5.3945  13.1609  14.2425  18.7156
    22.8104

          k = 0.1988 0.3444 0.1779 (  2992 PWs)   bands (ev):

   -36.6136 -36.4135  -1.4989   4.8313   5.6965  13.2170  14.4264  17.7462
    21.2355

          k = 0.1988 0.3444 0.3557 (  2991 PWs)   bands (ev):

   -36.5715 -36.3781  -0.5464   5.5292   6.5952  12.4388  14.8638  15.9251
    19.6681

          k = 0.1988 0.3444 0.5336 (  3006 PWs)   bands (ev):

   -36.5233 -36.3375   1.0036   6.3531   8.0560  10.0340  14.8669  15.0643
    17.6956

          k = 0.1988 0.3444 0.7115 (  2994 PWs)   bands (ev):

   -36.4916 -36.3110   3.0695   5.4218   9.4762   9.8933  12.8382  13.0977
    17.0925

          k = 0.1988 0.4592 0.0000 (  2991 PWs)   bands (ev):

   -36.5911 -36.4660  -1.6527   4.0807   4.9411  13.5357  15.7898  19.6276
    22.2807

          k = 0.1988 0.4592 0.1779 (  2990 PWs)   bands (ev):

   -36.5750 -36.4515  -1.3202   4.3190   5.2315  13.6130  15.8853  18.8075
    20.2999

          k = 0.1988 0.4592 0.3557 (  2996 PWs)   bands (ev):

   -36.5342 -36.4148  -0.3333   5.0095   6.0904  13.0274  15.4224  16.6069
    18.8321

          k = 0.1988 0.4592 0.5336 (  2999 PWs)   bands (ev):

   -36.4876 -36.3729   1.2694   6.0028   7.4475  10.2776  14.5644  14.6072
    17.7793

          k = 0.1988 0.4592 0.7115 (  2993 PWs)   bands (ev):

   -36.4570 -36.3454   3.3417   6.0088   8.2027   9.3585  12.4614  12.6980
    17.4441

          k = 0.1988 0.5740 0.0000 (  3003 PWs)   bands (ev):

   -36.5669 -36.4899  -1.5832   3.8839   4.7937  13.5990  17.6514  18.0141
    22.9804

          k = 0.1988 0.5740 0.1779 (  3001 PWs)   bands (ev):

   -36.5512 -36.4751  -1.2455   4.1183   5.0804  13.6818  17.6393  18.0187
    19.6311

          k = 0.1988 0.5740 0.3557 (  2999 PWs)   bands (ev):

   -36.5113 -36.4376  -0.2430   4.8036   5.9260  13.2315  15.6502  16.9930
    18.5843

          k = 0.1988 0.5740 0.5336 (  2995 PWs)   bands (ev):

   -36.4656 -36.3948   1.3835   5.8570   7.2360  10.3887  14.3878  14.4333
    17.7848

          k = 0.1988 0.5740 0.7115 (  2995 PWs)   bands (ev):

   -36.4356 -36.3667   3.4400   6.9284   6.9825   9.2268  12.3368  12.5695
    17.4641

          k = 0.2983 0.5166 0.0000 (  3005 PWs)   bands (ev):

   -36.5522 -36.5045  -1.5582   4.0642   4.4202  14.8581  16.2017  17.8830
    23.3721

          k = 0.2983 0.5166 0.1779 (  3009 PWs)   bands (ev):

   -36.5367 -36.4896  -1.2189   4.3098   4.6870  14.9703  16.2341  17.8567
    19.6023

          k = 0.2983 0.5166 0.3557 (  2992 PWs)   bands (ev):

   -36.4972 -36.4516  -0.2119   5.0287   5.4731  13.9309  15.9951  16.4710
    17.8558

          k = 0.2983 0.5166 0.5336 (  2990 PWs)   bands (ev):

   -36.4521 -36.4083   1.4193   6.1291   6.7128  10.5481  14.3929  14.4496
    18.4203

          k = 0.2983 0.5166 0.7115 (  3001 PWs)   bands (ev):

   -36.4224 -36.3798   3.4618   6.8463   7.8944   8.0882  12.3439  12.4267
    18.9710

     the Fermi energy is     9.7141 ev

!    total energy              =     -37.20517866 Ry
     estimated scf accuracy    <          6.1E-11 Ry
     smearing contrib. (-TS)   =      -0.00029853 Ry
     internal energy E=F+TS    =     -37.20488012 Ry

     The total energy is F=E-TS. E is the sum of the following terms:
     one-electron contribution =      -7.62846886 Ry
     hartree contribution      =       5.68788176 Ry
     xc contribution           =     -10.32506795 Ry
     ewald contribution        =     -24.93922508 Ry

     convergence has been achieved in   6 iterations

     Forces acting on atoms (cartesian axes, Ry/au):

     atom    1 type  1   force =     0.00000000    0.00000000    0.00000000
     atom    2 type  2   force =    -0.00000000   -0.00000000   -0.00000000
     atom    3 type  2   force =     0.00000000    0.00000000    0.00000000
     The non-local contrib.  to forces
     atom    1 type  1   force =     0.00000000   -0.00000000   -0.00000000
     atom    2 type  2   force =     0.00000000    0.00000000    0.00000000
     atom    3 type  2   force =     0.00000000   -0.00000000    0.00000000
     The ionic contribution  to forces
     atom    1 type  1   force =    -0.00000000   -0.00000000    0.00000000
     atom    2 type  2   force =     0.00000008   -0.00000004    0.00000000
     atom    3 type  2   force =    -0.00000008    0.00000004    0.00000000
     The local contribution  to forces
     atom    1 type  1   force =     0.00000000    0.00000000   -0.00000000
     atom    2 type  2   force =     0.00000066   -0.00000038   -0.00000000
     atom    3 type  2   force =    -0.00000066    0.00000038    0.00000000
     The core correction contribution to forces
     atom    1 type  1   force =     0.00000000    0.00000000   -0.00000000
     atom    2 type  2   force =     0.00000000    0.00000000    0.00000000
     atom    3 type  2   force =     0.00000000    0.00000000    0.00000000
     The Hubbard contrib.    to forces
     atom    1 type  1   force =     0.00000000    0.00000000    0.00000000
     atom    2 type  2   force =     0.00000000    0.00000000    0.00000000
     atom    3 type  2   force =     0.00000000    0.00000000    0.00000000
     The SCF correction term to forces
     atom    1 type  1   force =    -0.00000000    0.00000000    0.00000000
     atom    2 type  2   force =    -0.00000000    0.00000000   -0.00000000
     atom    3 type  2   force =     0.00000000   -0.00000000   -0.00000000

     Total force =     0.000000     Total SCF correction =     0.000000


     Computing stress (Cartesian axis) and pressure

          total   stress  (Ry/bohr**3)                   (kbar)     P=      500.46
   0.00340069  -0.00000000   0.00000000          500.26       -0.00        0.00
  -0.00000000   0.00340069   0.00000000           -0.00      500.26        0.00
   0.00000000   0.00000000   0.00340484            0.00        0.00      500.87


     Writing all to output data dir ./output/SiLi.save/

     init_run     :      0.93s CPU      1.70s WALL (       2 calls)
     electrons    :     13.15s CPU     15.37s WALL (       4 calls)
     update_pot   :      0.56s CPU      0.58s WALL (       2 calls)
     forces       :      0.70s CPU      0.77s WALL (       4 calls)
     stress       :      2.41s CPU      2.62s WALL (       4 calls)

     Called by init_run:
     wfcinit      :      0.30s CPU      0.34s WALL (       2 calls)
     potinit      :      0.31s CPU      0.78s WALL (       2 calls)
     hinit0       :      0.29s CPU      0.43s WALL (       2 calls)

     Called by electrons:
     c_bands      :     11.13s CPU     12.78s WALL (      25 calls)
     sum_band     :      1.70s CPU      1.86s WALL (      25 calls)
     v_of_rho     :      0.41s CPU      1.25s WALL (      26 calls)
     mix_rho      :      0.02s CPU      0.04s WALL (      25 calls)

     Called by c_bands:
     init_us_2    :      0.38s CPU      0.43s WALL (    4200 calls)
     init_us_2:cp :      0.38s CPU      0.43s WALL (    4200 calls)
     cegterg      :     10.45s CPU     11.29s WALL (    1750 calls)

     Called by *egterg:
     cdiaghg      :      0.67s CPU      0.76s WALL (    6316 calls)
     h_psi        :      9.13s CPU      9.80s WALL (    6806 calls)
     g_psi        :      0.04s CPU      0.04s WALL (    4916 calls)

     Called by h_psi:
     h_psi:calbec :      0.43s CPU      0.48s WALL (    6806 calls)
     vloc_psi     :      8.37s CPU      8.95s WALL (    6806 calls)
     add_vuspsi   :      0.28s CPU      0.31s WALL (    6806 calls)

     General routines
     calbec       :      0.56s CPU      0.61s WALL (    8206 calls)
     fft          :      0.60s CPU      1.66s WALL (     361 calls)
     ffts         :      0.04s CPU      0.06s WALL (      25 calls)
     fftw         :      8.79s CPU      9.39s WALL (  104114 calls)

     Parallel routines

     PWSCF        :     17.99s CPU     21.59s WALL


   This run was terminated on:  22: 9:41  10Jan2025            

=------------------------------------------------------------------------------=
   JOB DONE.
=------------------------------------------------------------------------------=
