
     Program PWSCF v.7.2 starts on 27Dec2024 at 16: 5:13 

     This program is part of the open-source Quantum ESPRESSO suite
     for quantum simulation of materials; please cite
         "P. Giannozzi et al., J. Phys.:Condens. Matter 21 395502 (2009);
         "P. Giannozzi et al., J. Phys.:Condens. Matter 29 465901 (2017);
         "P. Giannozzi et al., J. Chem. Phys. 152 154105 (2020);
          URL http://www.quantum-espresso.org", 
     in publications or presentations arising from this work. More details at
     http://www.quantum-espresso.org/quote

     Parallel version (MPI & OpenMP), running on       8 processor cores
     Number of MPI processes:                 8
     Threads/MPI process:                     1

     MPI processes distributed on     1 nodes
     482673 MiB available memory on the printing compute node when the environment starts

     Waiting for input...
     Reading input from standard input

     Current dimensions of program PWSCF are:
     Max number of different atomic species (ntypx) = 10
     Max number of k-points (npk) =  40000
     Max angular momentum in pseudopotentials (lmaxx) =  4

     R & G space division:  proc/nbgrp/npool/nimage =       8
     Subspace diagonalization in iterative solution of the eigenvalue problem:
     a serial algorithm will be used


     Parallelization info
     --------------------
     sticks:   dense  smooth     PW     G-vecs:    dense   smooth      PW
     Min         111     111     31                 9253     9253    1403
     Max         112     112     32                 9266     9266    1418
     Sum         889     889    253                74045    74045   11299

     Using Slab Decomposition



     bravais-lattice index     =            4
     lattice parameter (alat)  =       6.3709  a.u.
     unit-cell volume          =     766.2454 (a.u.)^3
     number of atoms/cell      =            6
     number of atomic types    =            2
     number of electrons       =        22.00
     number of Kohn-Sham states=           15
     kinetic-energy cutoff     =      80.0000  Ry
     charge density cutoff     =     320.0000  Ry
     scf convergence threshold =      1.0E-08
     mixing beta               =       0.7000
     number of iterations used =            8  plain     mixing
     energy convergence thresh.=      1.0E-04
     force convergence thresh. =      1.0E-03
     press convergence thresh. =      1.0E+00
     Exchange-correlation= PBE
                           (   1   4   3   4   0   0   0)
     nstep                     =           50


     celldm(1)=   6.370910  celldm(2)=   0.000000  celldm(3)=   3.421628
     celldm(4)=   0.000000  celldm(5)=   0.000000  celldm(6)=   0.000000

     crystal axes: (cart. coord. in units of alat)
               a(1) = (   1.000000   0.000000   0.000000 )  
               a(2) = (  -0.500000   0.866025   0.000000 )  
               a(3) = (   0.000000   0.000000   3.421628 )  

     reciprocal axes: (cart. coord. in units 2 pi/alat)
               b(1) = (  1.000000  0.577350 -0.000000 )  
               b(2) = (  0.000000  1.154701  0.000000 )  
               b(3) = (  0.000000 -0.000000  0.292259 )  


     PseudoPot. # 1 for Si read from file:
     ../pseudo/Si_ONCV_PBE_sr.upf
     MD5 check sum: e543d271109d17c80368dfa7c482276d
     Pseudo is Norm-conserving + core correction, Zval =  4.0
     Generated using ONCVPSP code by D. R. Hamann
     Using radial grid of 1510 points,  6 beta functions with: 
                l(1) =   0
                l(2) =   0
                l(3) =   1
                l(4) =   1
                l(5) =   2
                l(6) =   2

     PseudoPot. # 2 for Li read from file:
     ../pseudo/Li_ONCV_PBE_sr.upf
     MD5 check sum: 50ff420e78310ffa21704f3361e624a4
     Pseudo is Norm-conserving, Zval =  3.0
     Generated using ONCVPSP code by D. R. Hamann
     Using radial grid of 1944 points,  4 beta functions with: 
                l(1) =   0
                l(2) =   0
                l(3) =   1
                l(4) =   1

     atomic species   valence    mass     pseudopotential
        Si             4.00    28.08550     Si( 1.00)
        Li             3.00     6.94100     Li( 1.00)

     12 Sym. Ops. (no inversion) found



   Cartesian axes

     site n.     atom                  positions (alat units)
         1           Si  tau(   1) = (   0.0000000   0.0000000   1.0181277  )
         2           Si  tau(   2) = (   0.0000000   0.0000000   2.4035005  )
         3           Si  tau(   3) = (  -0.0000000   0.5773503   0.0000000  )
         4           Si  tau(   4) = (   0.5000000   0.2886751   1.7108141  )
         5           Li  tau(   5) = (  -0.0000000   0.5773503   2.7342590  )
         6           Li  tau(   6) = (   0.0000000   0.5773503   0.6873692  )

     number of k points=    28  Marzari-Vanderbilt smearing, width (Ry)=  0.0200
                       cart. coord. in units 2pi/alat
        k(    1) = (   0.0000000   0.0000000   0.0000000), wk =   0.0066667
        k(    2) = (   0.0000000   0.0000000   0.0974195), wk =   0.0133333
        k(    3) = (   0.0000000   0.1154701   0.0000000), wk =   0.0400000
        k(    4) = (   0.0000000   0.1154701   0.0974195), wk =   0.0800000
        k(    5) = (   0.0000000   0.2309401   0.0000000), wk =   0.0400000
        k(    6) = (   0.0000000   0.2309401   0.0974195), wk =   0.0800000
        k(    7) = (   0.0000000   0.3464102   0.0000000), wk =   0.0400000
        k(    8) = (   0.0000000   0.3464102   0.0974195), wk =   0.0800000
        k(    9) = (   0.0000000   0.4618802   0.0000000), wk =   0.0400000
        k(   10) = (   0.0000000   0.4618802   0.0974195), wk =   0.0800000
        k(   11) = (   0.0000000  -0.5773503   0.0000000), wk =   0.0200000
        k(   12) = (   0.0000000  -0.5773503   0.0974195), wk =   0.0400000
        k(   13) = (   0.1000000   0.1732051   0.0000000), wk =   0.0400000
        k(   14) = (   0.1000000   0.1732051   0.0974195), wk =   0.0800000
        k(   15) = (   0.1000000   0.2886751   0.0000000), wk =   0.0800000
        k(   16) = (   0.1000000   0.2886751   0.0974195), wk =   0.1600000
        k(   17) = (   0.1000000   0.4041452   0.0000000), wk =   0.0800000
        k(   18) = (   0.1000000   0.4041452   0.0974195), wk =   0.1600000
        k(   19) = (   0.1000000   0.5196152   0.0000000), wk =   0.0800000
        k(   20) = (   0.1000000   0.5196152   0.0974195), wk =   0.1600000
        k(   21) = (   0.2000000   0.3464102   0.0000000), wk =   0.0400000
        k(   22) = (   0.2000000   0.3464102   0.0974195), wk =   0.0800000
        k(   23) = (   0.2000000   0.4618802   0.0000000), wk =   0.0800000
        k(   24) = (   0.2000000   0.4618802   0.0974195), wk =   0.1600000
        k(   25) = (   0.2000000   0.5773503   0.0000000), wk =   0.0400000
        k(   26) = (   0.2000000   0.5773503   0.0974195), wk =   0.0800000
        k(   27) = (   0.3000000   0.5196152   0.0000000), wk =   0.0400000
        k(   28) = (   0.3000000   0.5196152   0.0974195), wk =   0.0800000

     Dense  grid:    74045 G-vectors     FFT dimensions: (  40,  40, 125)

     Estimated max dynamical RAM per process >      27.73 MB

     Estimated total dynamical RAM >     221.85 MB

     Initial potential from superposition of free atoms

     starting charge      21.9884, renormalised to      22.0000
     Starting wfcs are   20 randomized atomic wfcs

     total cpu time spent up to now is        1.5 secs

     Self-consistent Calculation

     iteration #  1     ecut=    80.00 Ry     beta= 0.70
     Davidson diagonalization with overlap
     ethr =  1.00E-02,  avg # of iterations =  2.6

     total cpu time spent up to now is        2.6 secs

     total energy              =     -61.94821874 Ry
     estimated scf accuracy    <       0.40980935 Ry

     iteration #  2     ecut=    80.00 Ry     beta= 0.70
     Davidson diagonalization with overlap
     ethr =  1.86E-03,  avg # of iterations =  5.6

     total cpu time spent up to now is        4.0 secs

     total energy              =     -61.05756008 Ry
     estimated scf accuracy    <      13.35960885 Ry

     iteration #  3     ecut=    80.00 Ry     beta= 0.70
     Davidson diagonalization with overlap
     ethr =  1.86E-03,  avg # of iterations =  6.6

     total cpu time spent up to now is        5.3 secs

     total energy              =     -61.95922197 Ry
     estimated scf accuracy    <       3.91703943 Ry

     iteration #  4     ecut=    80.00 Ry     beta= 0.70
     Davidson diagonalization with overlap
     ethr =  1.86E-03,  avg # of iterations =  2.4

     total cpu time spent up to now is        6.2 secs

     total energy              =     -62.21085988 Ry
     estimated scf accuracy    <       0.00741229 Ry

     iteration #  5     ecut=    80.00 Ry     beta= 0.70
     Davidson diagonalization with overlap
     ethr =  3.37E-05,  avg # of iterations =  8.7

     total cpu time spent up to now is        7.6 secs

     total energy              =     -62.21256764 Ry
     estimated scf accuracy    <       0.00209435 Ry

     iteration #  6     ecut=    80.00 Ry     beta= 0.70
     Davidson diagonalization with overlap
     ethr =  9.52E-06,  avg # of iterations =  2.5

     total cpu time spent up to now is        8.5 secs

     total energy              =     -62.21293963 Ry
     estimated scf accuracy    <       0.00004939 Ry

     iteration #  7     ecut=    80.00 Ry     beta= 0.70
     Davidson diagonalization with overlap
     ethr =  2.25E-07,  avg # of iterations =  4.9

     total cpu time spent up to now is        9.7 secs

     total energy              =     -62.21295632 Ry
     estimated scf accuracy    <       0.00010536 Ry

     iteration #  8     ecut=    80.00 Ry     beta= 0.70
     Davidson diagonalization with overlap
     ethr =  2.25E-07,  avg # of iterations =  1.9

     total cpu time spent up to now is       10.5 secs

     total energy              =     -62.21295956 Ry
     estimated scf accuracy    <       0.00000585 Ry

     iteration #  9     ecut=    80.00 Ry     beta= 0.70
     Davidson diagonalization with overlap
     ethr =  2.66E-08,  avg # of iterations =  3.0

     total cpu time spent up to now is       11.5 secs

     total energy              =     -62.21296116 Ry
     estimated scf accuracy    <       0.00000139 Ry

     iteration # 10     ecut=    80.00 Ry     beta= 0.70
     Davidson diagonalization with overlap
     ethr =  6.30E-09,  avg # of iterations =  1.3

     total cpu time spent up to now is       12.2 secs

     total energy              =     -62.21296127 Ry
     estimated scf accuracy    <       0.00000009 Ry

     iteration # 11     ecut=    80.00 Ry     beta= 0.70
     Davidson diagonalization with overlap
     ethr =  4.07E-10,  avg # of iterations =  3.8

     total cpu time spent up to now is       13.2 secs

     End of self-consistent calculation

          k = 0.0000 0.0000 0.0000 (  9225 PWs)   bands (ev):

   -40.9231 -40.9231  -5.6574  -4.3902  -3.8787  -1.9886   1.0713   3.6440
     5.2723   8.1806   8.1806   8.5862   8.5862   9.1885   9.1885

          k = 0.0000 0.0000 0.0974 (  9200 PWs)   bands (ev):

   -40.9231 -40.9231  -5.6507  -4.4827  -3.7214  -2.1406   1.5697   2.7054
     6.2739   8.2017   8.2017   8.5240   8.5243   8.8307   9.3255

          k = 0.0000 0.1155 0.0000 (  9219 PWs)   bands (ev):

   -40.9226 -40.9225  -5.5009  -4.2457  -3.7288  -1.8598   1.2016   3.7602
     5.3078   6.9176   7.5462   7.6402   8.1733   8.3538   8.9890

          k = 0.0000 0.1155 0.0974 (  9205 PWs)   bands (ev):

   -40.9226 -40.9225  -5.4941  -4.3381  -3.5708  -2.0120   1.6958   2.8246
     6.2544   6.9561   7.4767   7.6658   8.0976   8.4950   8.7881

          k = 0.0000 0.2309 0.0000 (  9246 PWs)   bands (ev):

   -40.9212 -40.9212  -5.0357  -3.8187  -3.2863  -1.4907   1.5845   4.0604
     4.6088   5.4878   5.6451   6.6471   6.8111   7.4229   7.6251

          k = 0.0000 0.2309 0.0974 (  9249 PWs)   bands (ev):

   -40.9212 -40.9212  -5.0284  -3.9102  -3.1274  -1.6408   2.0556   3.1450
     4.7455   5.5507   6.1658   6.7161   6.8385   7.3386   7.6826

          k = 0.0000 0.3464 0.0000 (  9250 PWs)   bands (ev):

   -40.9196 -40.9195  -4.2782  -3.1365  -2.5808  -0.9717   2.1488   2.6719
     3.5629   4.2853   4.7351   5.3755   6.1373   6.7747   6.8734

          k = 0.0000 0.3464 0.0974 (  9251 PWs)   bands (ev):

   -40.9196 -40.9195  -4.2702  -3.2239  -2.4267  -1.1044   2.4280   2.6718
     3.4879   4.0286   4.7102   5.2700   6.1653   6.6879   7.2301

          k = 0.0000 0.4619 0.0000 (  9260 PWs)   bands (ev):

   -40.9182 -40.9181  -3.2884  -2.3024  -1.7210  -0.7447   1.3048   1.7262
     2.8736   3.2504   3.9610   4.9227   5.7143   6.3605   7.1206

          k = 0.0000 0.4619 0.0974 (  9266 PWs)   bands (ev):

   -40.9182 -40.9181  -3.2797  -2.3717  -1.6020  -0.8044   1.2949   1.6655
     2.7968   3.6639   3.9247   4.6464   5.7427   6.2728   6.9477

          k = 0.0000-0.5774 0.0000 (  9266 PWs)   bands (ev):

   -40.9177 -40.9176  -2.5261  -1.7905  -1.3050  -1.0960   0.9487   1.0024
     2.5272   3.0676   3.8509   4.6384   5.5710   6.2194   7.3043

          k = 0.0000-0.5774 0.0974 (  9260 PWs)   bands (ev):

   -40.9177 -40.9176  -2.5184  -1.8216  -1.2550  -1.1314   0.9877   1.1146
     2.1558   2.9841   4.3634   4.7496   5.5994   6.1315   6.7513

          k = 0.1000 0.1732 0.0000 (  9237 PWs)   bands (ev):

   -40.9217 -40.9216  -5.1900  -3.9597  -3.4324  -1.6101   1.4589   3.9738
     5.2101   5.6844   6.3584   6.5695   7.2232   7.2698   7.9668

          k = 0.1000 0.1732 0.0974 (  9227 PWs)   bands (ev):

   -40.9217 -40.9216  -5.1829  -4.0517  -3.2736  -1.7614   1.9404   3.0491
     5.5645   6.0938   6.3218   6.7201   6.9591   7.5114   8.1800

          k = 0.1000 0.2887 0.0000 (  9260 PWs)   bands (ev):

   -40.9201 -40.9201  -4.5773  -3.4026  -2.8562  -1.1545   1.9494   3.6592
     4.1371   4.8500   4.8840   5.5296   6.0537   6.2723   7.0147

          k = 0.1000 0.2887 0.0974 (  9250 PWs)   bands (ev):

   -40.9201 -40.9201  -4.5696  -3.4924  -2.6987  -1.2978   2.3691   3.3071
     3.8444   4.6584   5.1980   5.5527   6.1513   6.2955   7.2592

          k = 0.1000 0.4041 0.0000 (  9257 PWs)   bands (ev):

   -40.9186 -40.9185  -3.6931  -2.6270  -2.0568  -0.6968   1.9570   2.2965
     3.1372   3.5755   4.3907   4.9300   5.1916   5.6965   6.5517

          k = 0.1000 0.4041 0.0974 (  9260 PWs)   bands (ev):

   -40.9186 -40.9185  -3.6846  -2.7076  -1.9149  -0.7986   1.9219   2.3114
     3.3349   3.7653   4.2661   4.6113   5.1260   5.6226   6.7652

          k = 0.1000 0.5196 0.0000 (  9250 PWs)   bands (ev):

   -40.9177 -40.9176  -2.6807  -1.8554  -1.2820  -0.9239   1.1478   1.3006
     2.6472   3.3693   3.7127   4.6497   4.8424   5.4022   6.3121

          k = 0.1000 0.5196 0.0974 (  9277 PWs)   bands (ev):

   -40.9177 -40.9176  -2.6722  -1.9021  -1.2046  -0.9578   1.2024   1.2966
     2.4249   3.2409   4.2127   4.6115   4.8354   5.3689   6.4403

          k = 0.2000 0.3464 0.0000 (  9241 PWs)   bands (ev):

   -40.9188 -40.9187  -3.8326  -2.7425  -2.1774  -0.7101   2.4390   2.7191
     3.4982   3.5549   4.4063   4.8268   5.0197   5.0362   6.3976

          k = 0.2000 0.3464 0.0974 (  9257 PWs)   bands (ev):

   -40.9188 -40.9187  -3.8242  -2.8262  -2.0294  -0.8268   2.5671   2.7251
     3.4936   3.6955   4.1801   4.6509   5.0326   5.2387   6.2023

          k = 0.2000 0.4619 0.0000 (  9267 PWs)   bands (ev):

   -40.9177 -40.9176  -2.8612  -1.9483  -1.3724  -0.5770   1.7176   1.9602
     2.9303   3.2658   3.5508   4.0929   4.1618   5.2060   5.3773

          k = 0.2000 0.4619 0.0974 (  9269 PWs)   bands (ev):

   -40.9177 -40.9176  -2.8522  -2.0117  -1.2651  -0.6269   1.7196   1.9212
     2.9321   3.0413   3.9109   4.1011   4.3642   4.9861   5.2992

          k = 0.2000 0.5774 0.0000 (  9267 PWs)   bands (ev):

   -40.9172 -40.9172  -2.0972  -1.4765  -1.0837  -0.8437   1.3495   1.3788
     2.6623   3.0691   3.4709   3.7331   4.4136   4.9139   4.9664

          k = 0.2000 0.5774 0.0974 (  9300 PWs)   bands (ev):

   -40.9172 -40.9172  -2.0890  -1.5040  -1.0565  -0.8585   1.3296   1.5085
     2.5571   3.0092   3.2607   3.7068   4.7870   5.0301   5.0994

          k = 0.3000 0.5196 0.0000 (  9285 PWs)   bands (ev):

   -40.9171 -40.9170  -1.9156  -1.3427  -0.9409  -0.7369   1.6654   1.7761
     2.0838   2.9630   2.9936   3.5363   4.4566   4.5028   5.1934

          k = 0.3000 0.5196 0.0974 (  9291 PWs)   bands (ev):

   -40.9171 -40.9170  -1.9065  -1.3717  -0.9234  -0.7346   1.6242   1.8051
     2.1885   2.8682   3.1972   3.2541   4.0716   4.9307   5.0842

     the Fermi energy is     4.7345 ev

!    total energy              =     -62.21296129 Ry
     estimated scf accuracy    <          1.4E-09 Ry
     smearing contrib. (-TS)   =      -0.00179673 Ry
     internal energy E=F+TS    =     -62.21116457 Ry

     The total energy is F=E-TS. E is the sum of the following terms:
     one-electron contribution =      -8.29890730 Ry
     hartree contribution      =       8.98930781 Ry
     xc contribution           =     -18.54031995 Ry
     ewald contribution        =     -44.36124514 Ry

     convergence has been achieved in  11 iterations

     Forces acting on atoms (cartesian axes, Ry/au):

     atom    1 type  1   force =     0.00000000   -0.00000000    0.13049996
     atom    2 type  1   force =     0.00000000   -0.00000000   -0.13049996
     atom    3 type  1   force =     0.00000000   -0.00000000    0.00000000
     atom    4 type  1   force =     0.00000000   -0.00000000    0.00000000
     atom    5 type  2   force =     0.00000000   -0.00000000    0.05217137
     atom    6 type  2   force =    -0.00000000   -0.00000000   -0.05217137
     The non-local contrib.  to forces
     atom    1 type  1   force =    -0.00000000   -0.00000000    0.21384359
     atom    2 type  1   force =    -0.00000000   -0.00000000   -0.21384359
     atom    3 type  1   force =     0.00000000   -0.00000000    0.00000000
     atom    4 type  1   force =     0.00000000    0.00000000    0.00000000
     atom    5 type  2   force =    -0.00000000   -0.00000000    0.01842899
     atom    6 type  2   force =     0.00000000    0.00000000   -0.01842899
     The ionic contribution  to forces
     atom    1 type  1   force =     0.00000002    0.00000001    0.49807514
     atom    2 type  1   force =    -0.00000001    0.00000001   -0.49807514
     atom    3 type  1   force =    -0.00000001   -0.00000000   -0.00000000
     atom    4 type  1   force =    -0.00000000    0.00000000   -0.00000000
     atom    5 type  2   force =     0.00000001   -0.00000001    0.88694883
     atom    6 type  2   force =    -0.00000001   -0.00000001   -0.88694883
     The local contribution  to forces
     atom    1 type  1   force =     0.00000000   -0.00000000   -0.56817341
     atom    2 type  1   force =     0.00000000   -0.00000000    0.56817341
     atom    3 type  1   force =     0.00000003   -0.00000002   -0.00000000
     atom    4 type  1   force =    -0.00000002    0.00000001   -0.00000000
     atom    5 type  2   force =     0.00000063   -0.00000037   -0.85319709
     atom    6 type  2   force =    -0.00000063   -0.00000037    0.85319709
     The core correction contribution to forces
     atom    1 type  1   force =    -0.00000000   -0.00000000   -0.01327957
     atom    2 type  1   force =    -0.00000000   -0.00000000    0.01327957
     atom    3 type  1   force =    -0.00000000    0.00000000    0.00000000
     atom    4 type  1   force =     0.00000000   -0.00000000   -0.00000000
     atom    5 type  2   force =     0.00000000    0.00000000    0.00000000
     atom    6 type  2   force =     0.00000000    0.00000000    0.00000000
     The Hubbard contrib.    to forces
     atom    1 type  1   force =     0.00000000    0.00000000    0.00000000
     atom    2 type  1   force =     0.00000000    0.00000000    0.00000000
     atom    3 type  1   force =     0.00000000    0.00000000    0.00000000
     atom    4 type  1   force =     0.00000000    0.00000000    0.00000000
     atom    5 type  2   force =     0.00000000    0.00000000    0.00000000
     atom    6 type  2   force =     0.00000000    0.00000000    0.00000000
     The SCF correction term to forces
     atom    1 type  1   force =     0.00000000    0.00000000    0.00003422
     atom    2 type  1   force =    -0.00000000    0.00000000   -0.00003422
     atom    3 type  1   force =     0.00000000   -0.00000000    0.00000000
     atom    4 type  1   force =    -0.00000000    0.00000000    0.00000000
     atom    5 type  2   force =     0.00000000   -0.00000000   -0.00000936
     atom    6 type  2   force =    -0.00000000   -0.00000000    0.00000936

     Total force =     0.198757     Total SCF correction =     0.000050


     Computing stress (Cartesian axis) and pressure

          total   stress  (Ry/bohr**3)                   (kbar)     P=       -7.93
  -0.00026563  -0.00000000   0.00000000          -39.08       -0.00        0.00
  -0.00000000  -0.00026563  -0.00000000           -0.00      -39.08       -0.00
   0.00000000  -0.00000000   0.00036946            0.00       -0.00       54.35


     BFGS Geometry Optimization
     Energy error            =      0.0E+00 Ry
     Gradient error          =      1.3E-01 Ry/Bohr
     Cell gradient error     =      5.4E+02 kbar

     number of scf cycles    =   1
     number of bfgs steps    =   0

     enthalpy           new  =     -59.6085462649 Ry

     new trust radius        =       0.5000000000 bohr
ibrav =      4
 celldm(1) =      5.79552632
 celldm(3) =      3.48050032
Input lattice vectors:
     0.90968579     0.00000000     0.00000000
    -0.45484290     0.78781100    -0.00000000
     0.00000000    -0.00000000     3.16616169
New lattice vectors in INITIAL alat:
     0.90968579     0.00000000     0.00000000
    -0.45484290     0.78781100     0.00000000
     0.00000000     0.00000000     3.16616169
New lattice vectors in NEW alat (for information only):
     1.00000000     0.00000000     0.00000000
    -0.50000000     0.86602540     0.00000000
     0.00000000     0.00000000     3.48050032
Discrepancy in bohr =     0.000000    0.000000    0.000000
     new conv_thr            =       0.0000000100 Ry

     new unit-cell volume =    586.74711 a.u.^3 (    86.94695 Ang^3 )
     density =      2.41066 g/cm^3

CELL_PARAMETERS (alat=  6.37091002)
   0.909685791   0.000000000   0.000000000
  -0.454842896   0.787811005   0.000000000
   0.000000000   0.000000000   3.166161686

ATOMIC_POSITIONS (crystal)
Si            0.0000000000       -0.0000000000        0.3034581000
Si           -0.0000000000       -0.0000000000        0.6965419000
Si            0.3333333300        0.6666666700        0.0000000000
Si            0.6666666700        0.3333333300        0.5000000000
Li            0.3333333300        0.6666666700        0.8014698458
Li            0.3333333400        0.6666666700        0.1985301542



     Writing config-only to output data dir ./output/SiLi.save/
     NEW-OLD atomic charge density approx. for the potential

     negative rho (up, down):  1.384E-05 0.000E+00
     extrapolated charge   15.27328, renormalised to   22.00000

     total cpu time spent up to now is       16.9 secs

     Self-consistent Calculation

     iteration #  1     ecut=    80.00 Ry     beta= 0.70
     Davidson diagonalization with overlap
     c_bands:  1 eigenvalues not converged
     c_bands:  1 eigenvalues not converged
     c_bands:  1 eigenvalues not converged
     c_bands:  1 eigenvalues not converged
     c_bands:  1 eigenvalues not converged
     c_bands:  1 eigenvalues not converged
     c_bands:  1 eigenvalues not converged
     c_bands:  1 eigenvalues not converged
     c_bands:  1 eigenvalues not converged
     c_bands:  3 eigenvalues not converged
     c_bands:  1 eigenvalues not converged
     ethr =  1.00E-06,  avg # of iterations = 17.4

     total cpu time spent up to now is       20.4 secs

     total energy              =     -58.98902920 Ry
     estimated scf accuracy    <       3.13258288 Ry

     iteration #  2     ecut=    80.00 Ry     beta= 0.70
     Davidson diagonalization with overlap
     ethr =  1.00E-02,  avg # of iterations =  8.4

     total cpu time spent up to now is       22.2 secs

     total energy              =     -52.44640043 Ry
     estimated scf accuracy    <     174.81774255 Ry

     iteration #  3     ecut=    80.00 Ry     beta= 0.70
     Davidson diagonalization with overlap
     ethr =  1.00E-02,  avg # of iterations =  7.6

     total cpu time spent up to now is       23.9 secs

     total energy              =     -61.93524647 Ry
     estimated scf accuracy    <       5.06189158 Ry

     iteration #  4     ecut=    80.00 Ry     beta= 0.70
     Davidson diagonalization with overlap
     ethr =  1.00E-02,  avg # of iterations =  2.1

     total cpu time spent up to now is       24.8 secs

     total energy              =     -62.10685671 Ry
     estimated scf accuracy    <       2.52447449 Ry

     iteration #  5     ecut=    80.00 Ry     beta= 0.70
     Davidson diagonalization with overlap
     ethr =  1.00E-02,  avg # of iterations =  1.2

     total cpu time spent up to now is       25.5 secs

     total energy              =     -62.18045084 Ry
     estimated scf accuracy    <       0.28525069 Ry

     iteration #  6     ecut=    80.00 Ry     beta= 0.70
     Davidson diagonalization with overlap
     ethr =  1.30E-03,  avg # of iterations =  3.9

     total cpu time spent up to now is       26.4 secs

     total energy              =     -62.20258311 Ry
     estimated scf accuracy    <       0.03594696 Ry

     iteration #  7     ecut=    80.00 Ry     beta= 0.70
     Davidson diagonalization with overlap
     ethr =  1.63E-04,  avg # of iterations =  5.1

     total cpu time spent up to now is       27.4 secs

     total energy              =     -62.20521383 Ry
     estimated scf accuracy    <       0.03127806 Ry

     iteration #  8     ecut=    80.00 Ry     beta= 0.70
     Davidson diagonalization with overlap
     ethr =  1.42E-04,  avg # of iterations =  1.3

     total cpu time spent up to now is       28.2 secs

     total energy              =     -62.20706837 Ry
     estimated scf accuracy    <       0.00008839 Ry

     iteration #  9     ecut=    80.00 Ry     beta= 0.70
     Davidson diagonalization with overlap
     c_bands:  1 eigenvalues not converged
     ethr =  4.02E-07,  avg # of iterations = 10.0

     total cpu time spent up to now is       29.7 secs

     total energy              =     -62.20722404 Ry
     estimated scf accuracy    <       0.00030345 Ry

     iteration # 10     ecut=    80.00 Ry     beta= 0.70
     Davidson diagonalization with overlap
     ethr =  4.02E-07,  avg # of iterations =  1.9

     total cpu time spent up to now is       30.5 secs

     total energy              =     -62.20723638 Ry
     estimated scf accuracy    <       0.00000421 Ry

     iteration # 11     ecut=    80.00 Ry     beta= 0.70
     Davidson diagonalization with overlap
     ethr =  1.91E-08,  avg # of iterations =  3.9

     total cpu time spent up to now is       31.4 secs

     total energy              =     -62.20723729 Ry
     estimated scf accuracy    <       0.00000827 Ry

     iteration # 12     ecut=    80.00 Ry     beta= 0.70
     Davidson diagonalization with overlap
     ethr =  1.91E-08,  avg # of iterations =  1.1

     total cpu time spent up to now is       32.1 secs

     total energy              =     -62.20723746 Ry
     estimated scf accuracy    <       0.00000054 Ry

     iteration # 13     ecut=    80.00 Ry     beta= 0.70
     Davidson diagonalization with overlap
     ethr =  2.44E-09,  avg # of iterations =  2.4

     total cpu time spent up to now is       33.0 secs

     End of self-consistent calculation

          k = 0.0000 0.0000 0.0000 (  9225 PWs)   bands (ev):

   -38.5036 -38.5033  -4.9865  -3.2134  -2.5543   0.0446   2.7348   5.6666
     8.2150  12.1248  12.1248  12.8127  12.8127  13.1844  13.1845

          k = 0.0000 0.0000 0.1053 (  9200 PWs)   bands (ev):

   -38.5036 -38.5033  -4.9834  -3.2838  -2.4257  -0.1518   3.3608   4.6874
     9.3419  12.0061  12.1442  12.1442  12.7078  12.7081  13.3629

          k = 0.0000 0.1269 0.0000 (  9219 PWs)   bands (ev):

   -38.5020 -38.5016  -4.7892  -3.0289  -2.3623   0.2144   2.8851   5.8262
     8.2854  10.2829  11.2323  11.2610  12.1557  13.0588  13.0748

          k = 0.0000 0.1269 0.1053 (  9205 PWs)   bands (ev):

   -38.5020 -38.5016  -4.7859  -3.1006  -2.2302   0.0132   3.5137   4.8416
     9.3837  10.2986  11.1051  11.2587  11.9823  12.0234  12.6220

          k = 0.0000 0.2539 0.0000 (  9246 PWs)   bands (ev):

   -38.4976 -38.4973  -4.1997  -2.4791  -1.7904   0.7146   3.3277   6.2802
     7.3675   8.4836   8.7126   9.8427  10.0910  11.0130  11.5287

          k = 0.0000 0.2539 0.1053 (  9249 PWs)   bands (ev):

   -38.4976 -38.4973  -4.1959  -2.5545  -1.6483   0.5006   3.9559   5.2830
     7.4538   8.5781   9.4087   9.9591  10.1181  10.8987  11.4670

          k = 0.0000 0.3808 0.0000 (  9250 PWs)   bands (ev):

   -38.4923 -38.4920  -3.2284  -1.5802  -0.8542   1.4915   3.9911   4.7430
     6.1805   6.9678   7.0568   8.4453   9.2183  10.1553  10.3762

          k = 0.0000 0.3808 0.1053 (  9251 PWs)   bands (ev):

   -38.4923 -38.4920  -3.2237  -1.6601  -0.6976   1.2681   4.5044   4.7608
     5.8553   6.4004   7.3977   8.3759   9.2458  10.0408  10.8205

          k = 0.0000 0.5077 0.0000 (  9260 PWs)   bands (ev):

   -38.4880 -38.4877  -1.9133  -0.3969   0.3880   1.8705   2.9176   3.6419
     4.9757   5.3652   6.7391   7.4985   8.6829  10.3399  10.9127

          k = 0.0000 0.5077 0.1053 (  9266 PWs)   bands (ev):

   -38.4880 -38.4877  -1.9070  -0.4769   0.5496   1.7848   2.8469   3.5898
     4.9061   5.9731   6.5797   7.1175   8.7106   9.5095  10.3042

          k = 0.0000-0.6347 0.0000 (  9266 PWs)   bands (ev):

   -38.4863 -38.4860  -0.7432   0.5095   0.5887   1.4596   2.5082   2.6188
     4.5640   5.5261   5.9782   7.2666   8.5031   9.4455  10.1606

          k = 0.0000-0.6347 0.1053 (  9260 PWs)   bands (ev):

   -38.4863 -38.4860  -0.7329   0.4514   0.5942   1.4655   2.5074   2.9443
     3.8979   5.4549   6.6918   7.3706   8.5308   9.3306   9.9146

          k = 0.1099 0.1904 0.0000 (  9237 PWs)   bands (ev):

   -38.4990 -38.4987  -4.3956  -2.6616  -1.9803   0.5499   3.1825   6.1348
     8.3087   8.6374   9.6082   9.7688  10.5444  10.7730  11.5373

          k = 0.1099 0.1904 0.1053 (  9227 PWs)   bands (ev):

   -38.4990 -38.4987  -4.3920  -2.7358  -1.8414   0.3398   3.8128   5.1423
     8.6282   9.2033   9.6645   9.8036  10.3298  10.9221  11.8705

          k = 0.1099 0.3173 0.0000 (  9260 PWs)   bands (ev):

   -38.4941 -38.4938  -3.6145  -1.9356  -1.2251   1.1973   3.7543   6.1049
     6.6579   7.5403   7.8025   8.3699   9.0999   9.3282  10.2121

          k = 0.1099 0.3173 0.1053 (  9250 PWs)   bands (ev):

   -38.4941 -38.4938  -3.6101  -2.0140  -1.0738   0.9743   4.3620   5.6482
     6.1853   7.4357   8.1115   8.5831   9.1832   9.3273  10.5899

          k = 0.1099 0.4443 0.0000 (  9257 PWs)   bands (ev):

   -38.4893 -38.4890  -2.4641  -0.8811  -0.1259   2.0010   3.7107   4.2854
     5.4409   6.0035   7.2241   7.4172   7.8744   8.6311   9.5941

          k = 0.1099 0.4443 0.1053 (  9260 PWs)   bands (ev):

   -38.4893 -38.4890  -2.4586  -0.9629   0.0382   1.7984   3.6915   4.4775
     5.6416   6.1182   6.8495   7.3206   7.7340   8.4899   9.8959

          k = 0.1099 0.5712 0.0000 (  9250 PWs)   bands (ev):

   -38.4863 -38.4860  -1.0463   0.3325   1.0829   1.3315   2.9479   2.9955
     4.6420   5.8520   5.9920   7.0661   7.4482   8.3159   9.2990

          k = 0.1099 0.5712 0.1053 (  9277 PWs)   bands (ev):

   -38.4863 -38.4860  -1.0383   0.2610   1.1797   1.3355   2.9202   3.0794
     4.2765   5.8148   6.5563   7.0081   7.4902   8.1736   9.4191

          k = 0.2199 0.3808 0.0000 (  9241 PWs)   bands (ev):

   -38.4898 -38.4895  -2.6508  -1.0475  -0.3022   1.9326   4.3833   4.8213
     5.8811   6.1517   7.1395   7.2502   7.6095   7.7785   9.1610

          k = 0.2199 0.3808 0.1053 (  9257 PWs)   bands (ev):

   -38.4898 -38.4895  -2.6455  -1.1293  -0.1389   1.7113   4.7681   4.8893
     5.7392   6.2027   6.6462   7.2250   7.6210   8.1255   8.9611

          k = 0.2199 0.5077 0.0000 (  9267 PWs)   bands (ev):

   -38.4863 -38.4860  -1.3451   0.1208   0.9109   2.2327   3.4120   4.0090
     5.0308   5.4541   5.6164   6.6275   6.6705   7.9257   7.9611

          k = 0.2199 0.5077 0.1053 (  9269 PWs)   bands (ev):

   -38.4863 -38.4860  -1.3381   0.0404   1.0736   2.1537   3.3473   3.9601
     5.0248   5.2624   6.1166   6.6328   6.8919   7.5193   7.8338

          k = 0.2199 0.6347 0.0000 (  9267 PWs)   bands (ev):

   -38.4850 -38.4847  -0.1585   1.0078   1.0182   1.9242   2.9248   3.1547
     4.6485   5.2534   5.7258   5.9050   6.7689   7.4495   7.7071

          k = 0.2199 0.6347 0.1053 (  9300 PWs)   bands (ev):

   -38.4850 -38.4847  -0.1477   0.9600   1.0164   1.9297   2.9180   3.4393
     4.3739   4.9721   5.6578   5.9534   7.2979   7.5342   7.7600

          k = 0.3298 0.5712 0.0000 (  9285 PWs)   bands (ev):

   -38.4845 -38.4842   0.0348   1.2279   1.5299   2.1000   3.3628   3.3951
     3.8690   4.9164   5.0916   5.7471   6.8418   7.0019   7.8454

          k = 0.3298 0.5712 0.1053 (  9291 PWs)   bands (ev):

   -38.4845 -38.4842   0.0446   1.1641   1.5520   2.1462   3.3397   3.3657
     4.0416   4.7919   5.2218   5.5509   6.3446   7.5122   7.8254

     the Fermi energy is     7.3507 ev

!    total energy              =     -62.20723753 Ry
     estimated scf accuracy    <          3.3E-09 Ry
     smearing contrib. (-TS)   =      -0.00175705 Ry
     internal energy E=F+TS    =     -62.20548048 Ry

     The total energy is F=E-TS. E is the sum of the following terms:
     one-electron contribution =      -2.55710234 Ry
     hartree contribution      =       8.23908259 Ry
     xc contribution           =     -19.17473029 Ry
     ewald contribution        =     -48.71273044 Ry

     convergence has been achieved in  13 iterations

     Forces acting on atoms (cartesian axes, Ry/au):

     atom    1 type  1   force =     0.00000000    0.00000000    0.18032485
     atom    2 type  1   force =     0.00000000    0.00000000   -0.18032485
     atom    3 type  1   force =     0.00000000   -0.00000000    0.00000000
     atom    4 type  1   force =     0.00000000    0.00000000    0.00000000
     atom    5 type  2   force =    -0.00000000    0.00000000    0.07643686
     atom    6 type  2   force =     0.00000000    0.00000000   -0.07643686
     The non-local contrib.  to forces
     atom    1 type  1   force =     0.00000000   -0.00000000    0.24933626
     atom    2 type  1   force =     0.00000000   -0.00000000   -0.24933626
     atom    3 type  1   force =     0.00000000    0.00000000    0.00000000
     atom    4 type  1   force =     0.00000000    0.00000000    0.00000000
     atom    5 type  2   force =     0.00000000    0.00000000    0.02544373
     atom    6 type  2   force =     0.00000000    0.00000000   -0.02544373
     The ionic contribution  to forces
     atom    1 type  1   force =     0.00000002    0.00000001    0.36885630
     atom    2 type  1   force =    -0.00000001    0.00000001   -0.36885630
     atom    3 type  1   force =    -0.00000001   -0.00000000    0.00000000
     atom    4 type  1   force =    -0.00000001    0.00000000   -0.00000000
     atom    5 type  2   force =     0.00000001   -0.00000001    1.14942903
     atom    6 type  2   force =    -0.00000001   -0.00000001   -1.14942903
     The local contribution  to forces
     atom    1 type  1   force =    -0.00000000   -0.00000000   -0.42321375
     atom    2 type  1   force =    -0.00000000   -0.00000000    0.42321375
     atom    3 type  1   force =     0.00000002   -0.00000001   -0.00000000
     atom    4 type  1   force =    -0.00000001    0.00000000   -0.00000000
     atom    5 type  2   force =     0.00000057   -0.00000033   -1.09841288
     atom    6 type  2   force =    -0.00000057   -0.00000033    1.09841288
     The core correction contribution to forces
     atom    1 type  1   force =    -0.00000000    0.00000000   -0.01473300
     atom    2 type  1   force =    -0.00000000    0.00000000    0.01473300
     atom    3 type  1   force =    -0.00000000    0.00000000    0.00000000
     atom    4 type  1   force =     0.00000000   -0.00000000    0.00000000
     atom    5 type  2   force =     0.00000000    0.00000000    0.00000000
     atom    6 type  2   force =     0.00000000    0.00000000    0.00000000
     The Hubbard contrib.    to forces
     atom    1 type  1   force =     0.00000000    0.00000000    0.00000000
     atom    2 type  1   force =     0.00000000    0.00000000    0.00000000
     atom    3 type  1   force =     0.00000000    0.00000000    0.00000000
     atom    4 type  1   force =     0.00000000    0.00000000    0.00000000
     atom    5 type  2   force =     0.00000000    0.00000000    0.00000000
     atom    6 type  2   force =     0.00000000    0.00000000    0.00000000
     The SCF correction term to forces
     atom    1 type  1   force =     0.00000000    0.00000000    0.00007904
     atom    2 type  1   force =    -0.00000000    0.00000000   -0.00007904
     atom    3 type  1   force =     0.00000000   -0.00000000   -0.00000000
     atom    4 type  1   force =    -0.00000000    0.00000000   -0.00000000
     atom    5 type  2   force =     0.00000000   -0.00000000   -0.00002301
     atom    6 type  2   force =    -0.00000000   -0.00000000    0.00002301

     Total force =     0.276982     Total SCF correction =     0.000116


     Computing stress (Cartesian axis) and pressure

          total   stress  (Ry/bohr**3)                   (kbar)     P=      133.48
   0.00032619   0.00000000   0.00000000           47.98        0.00        0.00
   0.00000000   0.00032619   0.00000000            0.00       47.98        0.00
   0.00000000   0.00000000   0.00206984            0.00        0.00      304.48

     Energy error            =      6.0E-01 Ry
     Gradient error          =      1.8E-01 Ry/Bohr
     Cell gradient error     =      4.5E+02 kbar

     number of scf cycles    =   2
     number of bfgs steps    =   1

     enthalpy           old  =     -59.6085462649 Ry
     enthalpy           new  =     -60.2129246464 Ry

     CASE: enthalpy          _new < enthalpy          _old

     new trust radius        =       0.7214585808 bohr
ibrav =      4
 celldm(1) =      4.93245077
 celldm(3) =      3.80033147
Input lattice vectors:
     0.77421448     0.00000000    -0.00000000
    -0.38710724     0.67048941     0.00000000
    -0.00000000     0.00000000     2.94227165
New lattice vectors in INITIAL alat:
     0.77421448     0.00000000     0.00000000
    -0.38710724     0.67048941     0.00000000
     0.00000000     0.00000000     2.94227165
New lattice vectors in NEW alat (for information only):
     1.00000000     0.00000000     0.00000000
    -0.50000000     0.86602540     0.00000000
     0.00000000     0.00000000     3.80033147
Discrepancy in bohr =     0.000000    0.000000    0.000000
     new conv_thr            =       0.0000000100 Ry

     new unit-cell volume =    394.94843 a.u.^3 (    58.52532 Ang^3 )
     density =      3.58135 g/cm^3

CELL_PARAMETERS (alat=  6.37091002)
   0.774214478   0.000000000   0.000000000
  -0.387107239   0.670489406   0.000000000
   0.000000000   0.000000000   2.942271649

ATOMIC_POSITIONS (crystal)
Si            0.0000000000        0.0000000000        0.3184606832
Si            0.0000000000        0.0000000000        0.6815393168
Si            0.3333333300        0.6666666700        0.0000000000
Si            0.6666666700        0.3333333300        0.5000000000
Li            0.3333333300        0.6666666700        0.8077984946
Li            0.3333333400        0.6666666700        0.1922015054



     Writing config-only to output data dir ./output/SiLi.save/
     NEW-OLD atomic charge density approx. for the potential

     negative rho (up, down):  2.928E-02 0.000E+00
     extrapolated charge   11.32177, renormalised to   22.00000

     total cpu time spent up to now is       36.7 secs

     Self-consistent Calculation

     iteration #  1     ecut=    80.00 Ry     beta= 0.70
     Davidson diagonalization with overlap
     c_bands:  2 eigenvalues not converged
     c_bands:  1 eigenvalues not converged
     c_bands:  1 eigenvalues not converged
     c_bands:  1 eigenvalues not converged
     c_bands:  1 eigenvalues not converged
     c_bands:  1 eigenvalues not converged
     c_bands:  2 eigenvalues not converged
     c_bands:  2 eigenvalues not converged
     c_bands:  1 eigenvalues not converged
     c_bands:  1 eigenvalues not converged
     c_bands:  2 eigenvalues not converged
     c_bands:  2 eigenvalues not converged
     ethr =  1.00E-06,  avg # of iterations = 18.5

     negative rho (up, down):  6.555E-05 0.000E+00

     total cpu time spent up to now is       40.4 secs

     total energy              =     -51.94424491 Ry
     estimated scf accuracy    <       9.69428116 Ry

     iteration #  2     ecut=    80.00 Ry     beta= 0.70
     Davidson diagonalization with overlap
     ethr =  1.00E-02,  avg # of iterations = 10.9

     negative rho (up, down):  5.876E-05 0.000E+00

     total cpu time spent up to now is       42.7 secs

     total energy              =     -56.05186597 Ry
     estimated scf accuracy    <     299.92922971 Ry

     iteration #  3     ecut=    80.00 Ry     beta= 0.70
     Davidson diagonalization with overlap
     ethr =  1.00E-02,  avg # of iterations =  7.1

     negative rho (up, down):  1.006E-07 0.000E+00

     total cpu time spent up to now is       44.4 secs

     total energy              =     -58.92126011 Ry
     estimated scf accuracy    <      34.21561298 Ry

     iteration #  4     ecut=    80.00 Ry     beta= 0.70
     Davidson diagonalization with overlap
     ethr =  1.00E-02,  avg # of iterations =  6.0

     total cpu time spent up to now is       45.6 secs

     total energy              =     -61.62682780 Ry
     estimated scf accuracy    <       4.89804377 Ry

     iteration #  5     ecut=    80.00 Ry     beta= 0.70
     Davidson diagonalization with overlap
     ethr =  1.00E-02,  avg # of iterations =  1.8

     total cpu time spent up to now is       46.4 secs

     total energy              =     -61.95231656 Ry
     estimated scf accuracy    <       0.11540289 Ry

     iteration #  6     ecut=    80.00 Ry     beta= 0.70
     Davidson diagonalization with overlap
     ethr =  5.25E-04,  avg # of iterations =  6.3

     total cpu time spent up to now is       47.5 secs

     total energy              =     -61.92311052 Ry
     estimated scf accuracy    <       1.48540020 Ry

     iteration #  7     ecut=    80.00 Ry     beta= 0.70
     Davidson diagonalization with overlap
     ethr =  5.25E-04,  avg # of iterations =  2.4

     total cpu time spent up to now is       48.3 secs

     total energy              =     -61.95289006 Ry
     estimated scf accuracy    <       0.14676293 Ry

     iteration #  8     ecut=    80.00 Ry     beta= 0.70
     Davidson diagonalization with overlap
     ethr =  5.25E-04,  avg # of iterations =  2.5

     total cpu time spent up to now is       49.1 secs

     total energy              =     -61.96774340 Ry
     estimated scf accuracy    <       0.01060822 Ry

     iteration #  9     ecut=    80.00 Ry     beta= 0.70
     Davidson diagonalization with overlap
     ethr =  4.82E-05,  avg # of iterations =  5.6

     total cpu time spent up to now is       50.1 secs

     total energy              =     -61.96583767 Ry
     estimated scf accuracy    <       0.02844468 Ry

     iteration # 10     ecut=    80.00 Ry     beta= 0.70
     Davidson diagonalization with overlap
     ethr =  4.82E-05,  avg # of iterations =  1.8

     total cpu time spent up to now is       50.9 secs

     total energy              =     -61.96464274 Ry
     estimated scf accuracy    <       0.02829442 Ry

     iteration # 11     ecut=    80.00 Ry     beta= 0.70
     Davidson diagonalization with overlap
     ethr =  4.82E-05,  avg # of iterations =  1.2

     total cpu time spent up to now is       51.6 secs

     total energy              =     -61.96559056 Ry
     estimated scf accuracy    <       0.00127388 Ry

     iteration # 12     ecut=    80.00 Ry     beta= 0.70
     Davidson diagonalization with overlap
     ethr =  5.79E-06,  avg # of iterations =  2.8

     total cpu time spent up to now is       52.4 secs

     total energy              =     -61.96555540 Ry
     estimated scf accuracy    <       0.00073527 Ry

     iteration # 13     ecut=    80.00 Ry     beta= 0.70
     Davidson diagonalization with overlap
     ethr =  3.34E-06,  avg # of iterations =  1.8

     total cpu time spent up to now is       53.2 secs

     total energy              =     -61.96560160 Ry
     estimated scf accuracy    <       0.00000452 Ry

     iteration # 14     ecut=    80.00 Ry     beta= 0.70
     Davidson diagonalization with overlap
     ethr =  2.05E-08,  avg # of iterations =  4.7

     total cpu time spent up to now is       54.3 secs

     total energy              =     -61.96561130 Ry
     estimated scf accuracy    <       0.00001471 Ry

     iteration # 15     ecut=    80.00 Ry     beta= 0.70
     Davidson diagonalization with overlap
     ethr =  2.05E-08,  avg # of iterations =  1.0

     total cpu time spent up to now is       55.0 secs

     total energy              =     -61.96561011 Ry
     estimated scf accuracy    <       0.00001483 Ry

     iteration # 16     ecut=    80.00 Ry     beta= 0.70
     Davidson diagonalization with overlap
     ethr =  2.05E-08,  avg # of iterations =  1.2

     total cpu time spent up to now is       55.7 secs

     total energy              =     -61.96561013 Ry
     estimated scf accuracy    <       0.00000447 Ry

     iteration # 17     ecut=    80.00 Ry     beta= 0.70
     Davidson diagonalization with overlap
     ethr =  2.03E-08,  avg # of iterations =  1.0

     total cpu time spent up to now is       56.4 secs

     total energy              =     -61.96560982 Ry
     estimated scf accuracy    <       0.00000268 Ry

     iteration # 18     ecut=    80.00 Ry     beta= 0.70
     Davidson diagonalization with overlap
     ethr =  1.22E-08,  avg # of iterations =  1.5

     total cpu time spent up to now is       57.2 secs

     total energy              =     -61.96560998 Ry
     estimated scf accuracy    <       0.00000008 Ry

     iteration # 19     ecut=    80.00 Ry     beta= 0.70
     Davidson diagonalization with overlap
     ethr =  3.73E-10,  avg # of iterations =  3.2

     total cpu time spent up to now is       58.0 secs

     End of self-consistent calculation

          k = 0.0000 0.0000 0.0000 (  9225 PWs)   bands (ev):

   -33.9688 -33.9670  -4.0623  -1.3643  -0.2576   3.1155   6.2202   8.5803
    12.9199  18.6599  19.7978  20.5493  20.5493  21.4166  21.4166

          k = 0.0000 0.0000 0.1133 (  9200 PWs)   bands (ev):

   -33.9688 -33.9670  -4.0622  -1.3715  -0.2378   3.0321   6.7319   7.8546
    13.8979  16.6160  20.5514  20.5515  21.4643  21.4644  21.9460

          k = 0.0000 0.1491 0.0000 (  9219 PWs)   bands (ev):

   -33.9601 -33.9584  -3.7836  -1.0993   0.0140   3.3550   6.4029   8.8294
    12.9956  17.2835  18.6128  18.7210  18.7913  20.4141  20.5300

          k = 0.0000 0.1491 0.1133 (  9205 PWs)   bands (ev):

   -33.9601 -33.9584  -3.7835  -1.1077   0.0367   3.2633   6.9299   8.0793
    13.9738  16.5414  17.4361  18.8007  19.1874  20.4237  20.6758

          k = 0.0000 0.2983 0.0000 (  9246 PWs)   bands (ev):

   -33.9375 -33.9358  -2.9504  -0.3077   0.8247   4.0670   6.9451   9.5665
    12.5682  13.9124  15.0802  16.4418  18.4698  18.8370  19.4229

          k = 0.0000 0.2983 0.1133 (  9249 PWs)   bands (ev):

   -33.9375 -33.9358  -2.9502  -0.3200   0.8575   3.9488   7.5128   8.7421
    12.9288  14.3825  15.0664  16.4247  17.1148  17.8177  18.7298

          k = 0.0000 0.4474 0.0000 (  9250 PWs)   bands (ev):

   -33.9095 -33.9079  -1.5718   0.9994   2.1607   5.2167   7.7901   9.2014
    10.6528  11.6729  12.5544  13.7427  15.8899  16.3205  17.4720

          k = 0.0000 0.4474 0.1133 (  9251 PWs)   bands (ev):

   -33.9095 -33.9079  -1.5713   0.9790   2.2149   5.0507   8.3626   9.1227
    10.0276  11.3786  12.9322  14.1398  15.9004  16.4503  17.2599

          k = 0.0000 0.5966 0.0000 (  9260 PWs)   bands (ev):

   -33.8868 -33.8853   0.3326   2.7914   3.9764   5.6538   6.9289   7.7440
     9.5016   9.5308  11.7770  12.3139  15.1601  15.2007  15.9475

          k = 0.0000 0.5966 0.1133 (  9266 PWs)   bands (ev):

   -33.8868 -33.8853   0.3340   2.7544   4.0798   5.5946   6.7289   7.9170
     9.3099  10.1385  11.1496  12.3700  15.1708  15.4956  15.9589

          k = 0.0000-0.7457 0.0000 (  9266 PWs)   bands (ev):

   -33.8781 -33.8767   2.4351   3.1138   4.5845   5.7126   5.9755   6.6261
     8.7879   9.9803  10.0550  12.8464  14.6857  14.9168  16.6339

          k = 0.0000-0.7457 0.1133 (  9260 PWs)   bands (ev):

   -33.8781 -33.8767   2.4427   3.1148   4.4784   5.6519   6.4389   6.6328
     7.9218   9.9658  11.0009  12.8427  14.5692  14.8540  17.4936

          k = 0.1292 0.2237 0.0000 (  9237 PWs)   bands (ev):

   -33.9445 -33.9428  -3.2276  -0.5710   0.5552   3.8311   6.7666   9.3232
    13.0352  15.3673  15.6015  16.9991  17.1740  18.0082  18.6910

          k = 0.1292 0.2237 0.1133 (  9227 PWs)   bands (ev):

   -33.9445 -33.9428  -3.2274  -0.5819   0.5844   3.7221   7.3218   8.5250
    13.9189  15.4271  15.6049  16.3102  17.0781  17.9215  19.0058

          k = 0.1292 0.3729 0.0000 (  9260 PWs)   bands (ev):

   -33.9192 -33.9176  -2.1216   0.4791   1.6293   4.7682   7.4795  10.2785
    11.1528  13.3359  13.4390  14.1489  14.9278  15.7513  16.8847

          k = 0.1292 0.3729 0.1133 (  9250 PWs)   bands (ev):

   -33.9192 -33.9176  -2.1211   0.4622   1.6740   4.6217   8.0774   9.3654
    11.3191  13.1890  13.7433  14.7258  14.8978  15.6586  17.0926

          k = 0.1292 0.5220 0.0000 (  9257 PWs)   bands (ev):

   -33.8938 -33.8923  -0.4783   2.0336   3.2147   6.0601   7.7279   8.3362
    10.1225  11.1743  11.7660  12.7096  13.0864  14.8285  15.8326

          k = 0.1292 0.5220 0.1133 (  9260 PWs)   bands (ev):

   -33.8938 -33.8923  -0.4774   2.0055   3.2903   5.8660   7.6572   8.9481
    10.1257  10.5996  11.5565  12.7560  13.3535  14.6746  16.1103

          k = 0.1292 0.6712 0.0000 (  9250 PWs)   bands (ev):

   -33.8781 -33.8767   1.6645   4.0202   4.3660   5.3242   6.7468   7.4359
     8.7553  10.0026  10.7903  12.2706  12.7956  14.4439  14.7785

          k = 0.1292 0.6712 0.1133 (  9277 PWs)   bands (ev):

   -33.8781 -33.8767   1.6672   3.9621   4.3938   5.3890   6.8312   7.4440
     8.2758  10.4020  11.0396  12.0473  12.8971  14.2295  14.7735

          k = 0.2583 0.4474 0.0000 (  9241 PWs)   bands (ev):

   -33.8965 -33.8950  -0.7500   1.7790   2.9560   5.9015   8.3399   9.7147
    10.2476  11.2613  11.8986  12.8332  13.1429  13.4801  14.1759

          k = 0.2583 0.4474 0.1133 (  9257 PWs)   bands (ev):

   -33.8965 -33.8950  -0.7492   1.7535   3.0244   5.7083   8.9130   9.6445
    10.1609  10.8249  11.7712  12.3534  13.6412  13.6941  14.5755

          k = 0.2583 0.5966 0.0000 (  9267 PWs)   bands (ev):

   -33.8782 -33.8767   1.1451   3.5642   4.7647   6.3967   7.6211   8.5170
     9.2314   9.8597  10.2700  11.5090  12.2126  13.0179  13.1973

          k = 0.2583 0.5966 0.1133 (  9269 PWs)   bands (ev):

   -33.8782 -33.8767   1.1468   3.5227   4.8816   6.3467   7.3877   8.6445
     9.2192  10.0118  10.5593  11.5992  11.8296  12.6150  13.1694

          k = 0.2583 0.7457 0.0000 (  9267 PWs)   bands (ev):

   -33.8712 -33.8697   3.2489   3.8933   5.3750   6.4381   6.7702   7.3591
     8.7801   9.6849  10.4305  10.5306  11.3839  12.6544  13.4962

          k = 0.2583 0.7457 0.1133 (  9300 PWs)   bands (ev):

   -33.8712 -33.8697   3.2563   3.8946   5.2765   6.3688   7.2269   7.3744
     8.4736   9.1095  10.4915  10.9188  11.9485  12.5500  13.1557

          k = 0.3875 0.6712 0.0000 (  9285 PWs)   bands (ev):

   -33.8685 -33.8671   3.2575   5.5187   5.6569   6.2567   6.9213   7.9329
     8.5709   8.8198   9.4300  10.4737  11.4273  12.0909  12.6753

          k = 0.3875 0.6712 0.1133 (  9291 PWs)   bands (ev):

   -33.8685 -33.8671   3.2612   5.4538   5.6639   6.3200   6.9591   7.8293
     8.6521   8.8947   9.6878   9.9299  11.4224  12.0771  12.4817

     the Fermi energy is    12.5603 ev

!    total energy              =     -61.96561000 Ry
     estimated scf accuracy    <          1.7E-09 Ry
     smearing contrib. (-TS)   =      -0.00069320 Ry
     internal energy E=F+TS    =     -61.96491680 Ry

     The total energy is F=E-TS. E is the sum of the following terms:
     one-electron contribution =       7.22959961 Ry
     hartree contribution      =       7.34067082 Ry
     xc contribution           =     -20.43411080 Ry
     ewald contribution        =     -56.10107643 Ry

     convergence has been achieved in  19 iterations

     Forces acting on atoms (cartesian axes, Ry/au):

     atom    1 type  1   force =     0.00000000    0.00000000    0.14562676
     atom    2 type  1   force =     0.00000000   -0.00000000   -0.14562676
     atom    3 type  1   force =     0.00000000    0.00000000    0.00000000
     atom    4 type  1   force =     0.00000000    0.00000000    0.00000000
     atom    5 type  2   force =     0.00000000    0.00000000    0.10053108
     atom    6 type  2   force =    -0.00000000    0.00000000   -0.10053108
     The non-local contrib.  to forces
     atom    1 type  1   force =     0.00000000    0.00000000    0.18723770
     atom    2 type  1   force =     0.00000000    0.00000000   -0.18723770
     atom    3 type  1   force =    -0.00000000    0.00000000    0.00000000
     atom    4 type  1   force =     0.00000000   -0.00000000    0.00000000
     atom    5 type  2   force =     0.00000000    0.00000000    0.06049509
     atom    6 type  2   force =     0.00000000   -0.00000000   -0.06049509
     The ionic contribution  to forces
     atom    1 type  1   force =     0.00000001    0.00000000   -0.43344635
     atom    2 type  1   force =    -0.00000001    0.00000000    0.43344635
     atom    3 type  1   force =    -0.00000001   -0.00000000   -0.00000000
     atom    4 type  1   force =    -0.00000001    0.00000000   -0.00000000
     atom    5 type  2   force =     0.00000001   -0.00000001    1.80082138
     atom    6 type  2   force =    -0.00000000   -0.00000001   -1.80082138
     The local contribution  to forces
     atom    1 type  1   force =     0.00000000   -0.00000000    0.39966480
     atom    2 type  1   force =     0.00000000   -0.00000000   -0.39966480
     atom    3 type  1   force =     0.00000001   -0.00000000   -0.00000000
     atom    4 type  1   force =     0.00000001   -0.00000000    0.00000000
     atom    5 type  2   force =     0.00000048   -0.00000028   -1.76082927
     atom    6 type  2   force =    -0.00000048   -0.00000028    1.76082927
     The core correction contribution to forces
     atom    1 type  1   force =    -0.00000000    0.00000000   -0.00784052
     atom    2 type  1   force =    -0.00000000    0.00000000    0.00784052
     atom    3 type  1   force =    -0.00000000    0.00000000    0.00000000
     atom    4 type  1   force =     0.00000000   -0.00000000    0.00000000
     atom    5 type  2   force =     0.00000000    0.00000000    0.00000000
     atom    6 type  2   force =     0.00000000    0.00000000    0.00000000
     The Hubbard contrib.    to forces
     atom    1 type  1   force =     0.00000000    0.00000000    0.00000000
     atom    2 type  1   force =     0.00000000    0.00000000    0.00000000
     atom    3 type  1   force =     0.00000000    0.00000000    0.00000000
     atom    4 type  1   force =     0.00000000    0.00000000    0.00000000
     atom    5 type  2   force =     0.00000000    0.00000000    0.00000000
     atom    6 type  2   force =     0.00000000    0.00000000    0.00000000
     The SCF correction term to forces
     atom    1 type  1   force =     0.00000000    0.00000000    0.00001112
     atom    2 type  1   force =    -0.00000000    0.00000000   -0.00001112
     atom    3 type  1   force =     0.00000000   -0.00000000   -0.00000000
     atom    4 type  1   force =    -0.00000000    0.00000000   -0.00000000
     atom    5 type  2   force =    -0.00000000    0.00000000    0.00004389
     atom    6 type  2   force =     0.00000000    0.00000000   -0.00004389

     Total force =     0.250254     Total SCF correction =     0.000064


     Computing stress (Cartesian axis) and pressure

          total   stress  (Ry/bohr**3)                   (kbar)     P=      742.81
   0.00329232   0.00000000   0.00000000          484.32        0.00        0.00
   0.00000000   0.00329232  -0.00000000            0.00      484.32       -0.00
  -0.00000000   0.00000000   0.00856396           -0.00        0.00     1259.80

     Energy error            =      4.1E-01 Ry
     Gradient error          =      1.5E-01 Ry/Bohr
     Cell gradient error     =      7.6E+02 kbar

     number of scf cycles    =   3
     number of bfgs steps    =   2

     enthalpy           old  =     -60.2129246464 Ry
     enthalpy           new  =     -60.6232075769 Ry

     CASE: enthalpy          _new < enthalpy          _old

     new trust radius        =       0.2330486902 bohr
ibrav =      4
 celldm(1) =      4.73898299
 celldm(3) =      4.18740298
Input lattice vectors:
     0.74384711     0.00000000    -0.00000000
    -0.37192355     0.64419049     0.00000000
     0.00000000    -0.00000000     3.11478760
New lattice vectors in INITIAL alat:
     0.74384711     0.00000000     0.00000000
    -0.37192355     0.64419049     0.00000000
     0.00000000     0.00000000     3.11478760
New lattice vectors in NEW alat (for information only):
     1.00000000     0.00000000     0.00000000
    -0.50000000     0.86602540     0.00000000
     0.00000000     0.00000000     4.18740298
Discrepancy in bohr =     0.000000    0.000000    0.000000
     new conv_thr            =       0.0000000100 Ry

     new unit-cell volume =    385.94982 a.u.^3 (    57.19186 Ang^3 )
     density =      3.66486 g/cm^3

CELL_PARAMETERS (alat=  6.37091002)
   0.743847108   0.000000000   0.000000000
  -0.371923554   0.644190492   0.000000000
   0.000000000   0.000000000   3.114787595

ATOMIC_POSITIONS (crystal)
Si            0.0000000000        0.0000000000        0.3258523330
Si            0.0000000000        0.0000000000        0.6741476670
Si            0.3333333300        0.6666666700        0.0000000000
Si            0.6666666700        0.3333333300        0.5000000000
Li            0.3333333300        0.6666666700        0.8123479194
Li            0.3333333400        0.6666666700        0.1876520806



     Writing config-only to output data dir ./output/SiLi.save/
     NEW-OLD atomic charge density approx. for the potential
     extrapolated charge   21.48733, renormalised to   22.00000

     total cpu time spent up to now is       61.7 secs

     Self-consistent Calculation

     iteration #  1     ecut=    80.00 Ry     beta= 0.70
     Davidson diagonalization with overlap
     c_bands:  1 eigenvalues not converged
     c_bands:  1 eigenvalues not converged
     c_bands:  1 eigenvalues not converged
     c_bands:  1 eigenvalues not converged
     ethr =  1.00E-06,  avg # of iterations = 14.7

     total cpu time spent up to now is       64.6 secs

     total energy              =     -61.99904750 Ry
     estimated scf accuracy    <       0.09295459 Ry

     iteration #  2     ecut=    80.00 Ry     beta= 0.70
     Davidson diagonalization with overlap
     ethr =  4.23E-04,  avg # of iterations =  7.6

     total cpu time spent up to now is       66.0 secs

     total energy              =     -61.62246631 Ry
     estimated scf accuracy    <      10.58864487 Ry

     iteration #  3     ecut=    80.00 Ry     beta= 0.70
     Davidson diagonalization with overlap
     ethr =  4.23E-04,  avg # of iterations =  7.2

     total cpu time spent up to now is       67.3 secs

     total energy              =     -62.07880142 Ry
     estimated scf accuracy    <       0.07205219 Ry

     iteration #  4     ecut=    80.00 Ry     beta= 0.70
     Davidson diagonalization with overlap
     ethr =  3.28E-04,  avg # of iterations =  2.3

     total cpu time spent up to now is       68.1 secs

     total energy              =     -62.08196791 Ry
     estimated scf accuracy    <       0.02767190 Ry

     iteration #  5     ecut=    80.00 Ry     beta= 0.70
     Davidson diagonalization with overlap
     ethr =  1.26E-04,  avg # of iterations =  1.7

     total cpu time spent up to now is       68.8 secs

     total energy              =     -62.08275050 Ry
     estimated scf accuracy    <       0.00217511 Ry

     iteration #  6     ecut=    80.00 Ry     beta= 0.70
     Davidson diagonalization with overlap
     ethr =  9.89E-06,  avg # of iterations =  6.4

     total cpu time spent up to now is       69.9 secs

     total energy              =     -62.08313859 Ry
     estimated scf accuracy    <       0.00084116 Ry

     iteration #  7     ecut=    80.00 Ry     beta= 0.70
     Davidson diagonalization with overlap
     ethr =  3.82E-06,  avg # of iterations =  1.6

     total cpu time spent up to now is       70.6 secs

     total energy              =     -62.08320410 Ry
     estimated scf accuracy    <       0.00000412 Ry

     iteration #  8     ecut=    80.00 Ry     beta= 0.70
     Davidson diagonalization with overlap
     ethr =  1.87E-08,  avg # of iterations =  4.3

     total cpu time spent up to now is       71.6 secs

     total energy              =     -62.08320726 Ry
     estimated scf accuracy    <       0.00000341 Ry

     iteration #  9     ecut=    80.00 Ry     beta= 0.70
     Davidson diagonalization with overlap
     ethr =  1.55E-08,  avg # of iterations =  1.8

     total cpu time spent up to now is       72.3 secs

     total energy              =     -62.08320774 Ry
     estimated scf accuracy    <       0.00000015 Ry

     iteration # 10     ecut=    80.00 Ry     beta= 0.70
     Davidson diagonalization with overlap
     ethr =  6.82E-10,  avg # of iterations =  3.3

     total cpu time spent up to now is       73.2 secs

     total energy              =     -62.08320774 Ry
     estimated scf accuracy    <       0.00000025 Ry

     iteration # 11     ecut=    80.00 Ry     beta= 0.70
     Davidson diagonalization with overlap
     ethr =  6.82E-10,  avg # of iterations =  1.5

     total cpu time spent up to now is       74.0 secs

     total energy              =     -62.08320775 Ry
     estimated scf accuracy    <       0.00000002 Ry

     iteration # 12     ecut=    80.00 Ry     beta= 0.70
     Davidson diagonalization with overlap
     ethr =  9.01E-11,  avg # of iterations =  2.7

     total cpu time spent up to now is       74.8 secs

     End of self-consistent calculation

          k = 0.0000 0.0000 0.0000 (  9225 PWs)   bands (ev):

   -33.2736 -33.2724  -4.4243  -1.7636  -0.5987   2.4626   6.1079   7.6399
    12.2708  17.2464  18.6010  22.5363  22.5363  23.2774  23.2774

          k = 0.0000 0.0000 0.1070 (  9200 PWs)   bands (ev):

   -33.2736 -33.2724  -4.4243  -1.7643  -0.5957   2.4437   6.3749   7.2524
    12.8514  15.7344  20.4370  22.5368  22.5368  23.2884  23.2884

          k = 0.0000 0.1552 0.0000 (  9219 PWs)   bands (ev):

   -33.2620 -33.2608  -4.1208  -1.4702  -0.3005   2.7350   6.3203   7.9215
    12.4033  17.3188  18.4058  18.9930  20.5482  21.2330  22.0230

          k = 0.0000 0.1552 0.1070 (  9205 PWs)   bands (ev):

   -33.2620 -33.2608  -4.1207  -1.4713  -0.2966   2.7129   6.5994   7.5129
    13.0042  15.8199  18.8457  20.0347  20.5510  21.3535  22.1017

          k = 0.0000 0.3105 0.0000 (  9246 PWs)   bands (ev):

   -33.2314 -33.2302  -3.2135  -0.5938   0.5897   3.5451   6.9553   8.7596
    12.6005  14.5051  16.0832  17.2348  18.4638  18.7390  19.1793

          k = 0.0000 0.3105 0.1070 (  9249 PWs)   bands (ev):

   -33.2314 -33.2302  -3.2135  -0.5960   0.5972   3.5120   7.2691   8.2852
    13.1499  14.6295  15.5298  17.0381  18.0027  18.7421  19.4586

          k = 0.0000 0.4657 0.0000 (  9250 PWs)   bands (ev):

   -33.1934 -33.1924  -1.7129   0.8543   2.0580   4.8592   7.9850   9.9392
    10.0875  12.3415  13.1281  13.8763  16.4582  17.4437  17.8682

          k = 0.0000 0.4657 0.1070 (  9251 PWs)   bands (ev):

   -33.1934 -33.1924  -1.7128   0.8491   2.0739   4.8041   8.3459   9.3806
    10.1696  12.1137  13.5929  14.1731  16.4645  17.0610  17.4470

          k = 0.0000 0.6209 0.0000 (  9260 PWs)   bands (ev):

   -33.1626 -33.1616   0.3614   2.8461   4.0669   5.8806   7.1082   8.3716
     9.6295   9.9578  11.9477  12.1318  15.4240  15.7513  18.2059

          k = 0.0000 0.6209 0.1070 (  9266 PWs)   bands (ev):

   -33.1626 -33.1616   0.3618   2.8339   4.1039   5.8484   7.0218   8.5069
     9.6121  10.2564  11.0727  12.6535  15.5488  15.7597  16.6708

          k = 0.0000-0.7762 0.0000 (  9266 PWs)   bands (ev):

   -33.1508 -33.1499   2.7758   3.2035   4.9227   5.9540   6.1961   7.1163
     8.9262   9.7616  10.4351  13.4782  14.2454  16.0864  16.0944

          k = 0.0000-0.7762 0.1070 (  9260 PWs)   bands (ev):

   -33.1508 -33.1499   2.7786   3.2046   4.8746   5.8482   6.5004   7.1220
     8.4169   9.7456  11.1155  13.4617  14.2294  14.5182  16.4123

          k = 0.1344 0.2329 0.0000 (  9237 PWs)   bands (ev):

   -33.2408 -33.2397  -3.5153  -0.8853   0.2937   3.2765   6.7449   8.4818
    12.6206  16.4661  16.7631  17.6527  18.0774  18.5164  19.9606

          k = 0.1344 0.2329 0.1070 (  9227 PWs)   bands (ev):

   -33.2408 -33.2397  -3.5153  -0.8871   0.2999   3.2473   7.0473   8.0302
    13.2453  15.8131  16.6873  16.9786  18.4748  18.8719  20.0787

          k = 0.1344 0.3881 0.0000 (  9260 PWs)   bands (ev):

   -33.2065 -33.2055  -2.3113   0.2773   1.4735   4.3434   7.5875   9.5819
    11.9236  13.4967  14.3696  15.0700  15.7155  16.8375  17.8721

          k = 0.1344 0.3881 0.1070 (  9250 PWs)   bands (ev):

   -33.2065 -33.2055  -2.3113   0.2735   1.4855   4.2976   7.9327   9.0353
    12.0994  13.8611  14.3095  15.2260  15.6683  16.4880  17.8931

          k = 0.1344 0.5433 0.0000 (  9257 PWs)   bands (ev):

   -33.1722 -33.1712  -0.5230   2.0005   3.2177   5.8419   8.3583   8.7515
    10.4305  11.5163  11.8155  13.2550  13.6389  15.8926  16.5060

          k = 0.1344 0.5433 0.1070 (  9260 PWs)   bands (ev):

   -33.1722 -33.1712  -0.5228   1.9921   3.2428   5.7709   8.2962   9.1818
    10.3994  10.7226  12.0084  13.5602  13.8344  15.6797  16.7648

          k = 0.1344 0.6986 0.0000 (  9250 PWs)   bands (ev):

   -33.1509 -33.1499   1.8192   4.2224   4.6821   5.4988   7.1860   7.8771
     8.8208  10.3376  10.8407  13.1969  13.2239  14.5337  15.6198

          k = 0.1344 0.6986 0.1070 (  9277 PWs)   bands (ev):

   -33.1509 -33.1499   1.8200   4.2004   4.6979   5.5135   7.2499   7.8745
     8.5761  10.4789  11.0771  12.7397  13.5087  14.6622  15.4705

          k = 0.2689 0.4657 0.0000 (  9241 PWs)   bands (ev):

   -33.1758 -33.1748  -0.8192   1.7166   2.9313   5.6353   8.6288  10.5955
    10.8566  10.9514  12.7507  13.5534  13.7356  14.1298  14.6988

          k = 0.2689 0.4657 0.1070 (  9257 PWs)   bands (ev):

   -33.1758 -33.1748  -0.8190   1.7093   2.9534   5.5664   9.0107  10.0390
    10.8742  11.0366  12.6397  13.1616  14.2487  14.5901  14.7613

          k = 0.2689 0.6209 0.0000 (  9267 PWs)   bands (ev):

   -33.1509 -33.1500   1.2433   3.6961   4.9283   6.6816   7.8788   9.2091
     9.9772  10.2284  10.7643  12.0889  12.7159  13.2473  13.6019

          k = 0.2689 0.6209 0.1070 (  9269 PWs)   bands (ev):

   -33.1509 -33.1500   1.2438   3.6816   4.9725   6.6468   7.7827   9.3186
     9.9595  10.3857  10.9193  11.8218  12.3106  13.3421  13.7448

          k = 0.2689 0.7762 0.0000 (  9267 PWs)   bands (ev):

   -33.1414 -33.1405   3.6428   4.0672   5.7538   6.7964   7.0603   7.9300
     9.1069  10.2064  10.6376  11.1132  12.0524  13.3449  14.0260

          k = 0.2689 0.7762 0.1070 (  9300 PWs)   bands (ev):

   -33.1414 -33.1405   3.6454   4.0683   5.7115   6.6921   7.3548   7.9340
     8.8772   9.9899  10.5021  11.6723  12.2613  13.2151  13.8160

          k = 0.4033 0.6986 0.0000 (  9285 PWs)   bands (ev):

   -33.1378 -33.1369   3.5504   5.8591   6.1791   6.6102   7.2170   8.5295
     9.2303   9.4886   9.8983  10.9100  11.8406  12.2783  12.9066

          k = 0.4033 0.6986 0.1070 (  9291 PWs)   bands (ev):

   -33.1378 -33.1369   3.5515   5.8328   6.1823   6.6443   7.2182   8.4922
     9.2314   9.5388  10.0413  10.6251  11.8752  12.3968  12.6055

     the Fermi energy is    13.0145 ev

!    total energy              =     -62.08320775 Ry
     estimated scf accuracy    <          9.0E-11 Ry
     smearing contrib. (-TS)   =       0.00046725 Ry
     internal energy E=F+TS    =     -62.08367499 Ry

     The total energy is F=E-TS. E is the sum of the following terms:
     one-electron contribution =       7.98479124 Ry
     hartree contribution      =       7.24256250 Ry
     xc contribution           =     -20.54070470 Ry
     ewald contribution        =     -56.77032402 Ry

     convergence has been achieved in  12 iterations

     Forces acting on atoms (cartesian axes, Ry/au):

     atom    1 type  1   force =     0.00000000   -0.00000000    0.06200171
     atom    2 type  1   force =     0.00000000   -0.00000000   -0.06200171
     atom    3 type  1   force =     0.00000000   -0.00000000    0.00000000
     atom    4 type  1   force =     0.00000000    0.00000000    0.00000000
     atom    5 type  2   force =     0.00000000    0.00000000    0.05649103
     atom    6 type  2   force =     0.00000000    0.00000000   -0.05649103
     The non-local contrib.  to forces
     atom    1 type  1   force =     0.00000000    0.00000000    0.14270199
     atom    2 type  1   force =     0.00000000   -0.00000000   -0.14270199
     atom    3 type  1   force =     0.00000000   -0.00000000    0.00000000
     atom    4 type  1   force =     0.00000000   -0.00000000    0.00000000
     atom    5 type  2   force =     0.00000000    0.00000000    0.05084492
     atom    6 type  2   force =    -0.00000000   -0.00000000   -0.05084492
     The ionic contribution  to forces
     atom    1 type  1   force =     0.00000001    0.00000000   -1.04755280
     atom    2 type  1   force =    -0.00000000    0.00000000    1.04755280
     atom    3 type  1   force =    -0.00000001   -0.00000000   -0.00000000
     atom    4 type  1   force =    -0.00000001    0.00000000    0.00000000
     atom    5 type  2   force =     0.00000001   -0.00000000    1.95254027
     atom    6 type  2   force =     0.00000000   -0.00000000   -1.95254027
     The local contribution  to forces
     atom    1 type  1   force =    -0.00000000   -0.00000000    0.97181353
     atom    2 type  1   force =    -0.00000000   -0.00000000   -0.97181353
     atom    3 type  1   force =     0.00000000   -0.00000000    0.00000000
     atom    4 type  1   force =     0.00000001   -0.00000000    0.00000000
     atom    5 type  2   force =     0.00000046   -0.00000027   -1.94688072
     atom    6 type  2   force =    -0.00000046   -0.00000027    1.94688072
     The core correction contribution to forces
     atom    1 type  1   force =    -0.00000000    0.00000000   -0.00496937
     atom    2 type  1   force =    -0.00000000    0.00000000    0.00496937
     atom    3 type  1   force =    -0.00000000    0.00000000    0.00000000
     atom    4 type  1   force =     0.00000000   -0.00000000   -0.00000000
     atom    5 type  2   force =     0.00000000    0.00000000    0.00000000
     atom    6 type  2   force =     0.00000000    0.00000000    0.00000000
     The Hubbard contrib.    to forces
     atom    1 type  1   force =     0.00000000    0.00000000    0.00000000
     atom    2 type  1   force =     0.00000000    0.00000000    0.00000000
     atom    3 type  1   force =     0.00000000    0.00000000    0.00000000
     atom    4 type  1   force =     0.00000000    0.00000000    0.00000000
     atom    5 type  2   force =     0.00000000    0.00000000    0.00000000
     atom    6 type  2   force =     0.00000000    0.00000000    0.00000000
     The SCF correction term to forces
     atom    1 type  1   force =     0.00000000    0.00000000    0.00000837
     atom    2 type  1   force =    -0.00000000    0.00000000   -0.00000837
     atom    3 type  1   force =    -0.00000000    0.00000000    0.00000000
     atom    4 type  1   force =    -0.00000000    0.00000000    0.00000000
     atom    5 type  2   force =     0.00000000   -0.00000000   -0.00001345
     atom    6 type  2   force =    -0.00000000   -0.00000000    0.00001345

     Total force =     0.118621     Total SCF correction =     0.000022


     Computing stress (Cartesian axis) and pressure

          total   stress  (Ry/bohr**3)                   (kbar)     P=      733.23
   0.00358375   0.00000000  -0.00000000          527.19        0.00       -0.00
   0.00000000   0.00358375   0.00000000            0.00      527.19        0.00
   0.00000000   0.00000000   0.00778569            0.00        0.00     1145.31

     Energy error            =      1.5E-01 Ry
     Gradient error          =      6.2E-02 Ry/Bohr
     Cell gradient error     =      6.5E+02 kbar

     number of scf cycles    =   4
     number of bfgs steps    =   3

     enthalpy           old  =     -60.6232075769 Ry
     enthalpy           new  =     -60.7713909831 Ry

     CASE: enthalpy          _new < enthalpy          _old

     new trust radius        =       0.3264280577 bohr
ibrav =      4
 celldm(1) =      4.61947598
 celldm(3) =      4.65261794
Input lattice vectors:
     0.72508888     0.00000000     0.00000000
    -0.36254444     0.62794539    -0.00000000
    -0.00000000     0.00000000     3.37356151
New lattice vectors in INITIAL alat:
     0.72508888     0.00000000     0.00000000
    -0.36254444     0.62794539     0.00000000
     0.00000000     0.00000000     3.37356151
New lattice vectors in NEW alat (for information only):
     1.00000000     0.00000000     0.00000000
    -0.50000000     0.86602540     0.00000000
     0.00000000     0.00000000     4.65261794
Discrepancy in bohr =     0.000000    0.000000    0.000000
     new conv_thr            =       0.0000000062 Ry

     new unit-cell volume =    397.19719 a.u.^3 (    58.85855 Ang^3 )
     density =      3.56108 g/cm^3

CELL_PARAMETERS (alat=  6.37091002)
   0.725088876   0.000000000   0.000000000
  -0.362544438   0.627945387   0.000000000
   0.000000000   0.000000000   3.373561514

ATOMIC_POSITIONS (crystal)
Si            0.0000000000        0.0000000000        0.3312266817
Si           -0.0000000000       -0.0000000000        0.6687733183
Si            0.3333333300        0.6666666700        0.0000000000
Si            0.6666666700        0.3333333300        0.5000000000
Li            0.3333333300        0.6666666700        0.8166159574
Li            0.3333333400        0.6666666700        0.1833840426



     Writing config-only to output data dir ./output/SiLi.save/
     NEW-OLD atomic charge density approx. for the potential
     extrapolated charge   22.62264, renormalised to   22.00000

     total cpu time spent up to now is       78.4 secs

     Self-consistent Calculation

     iteration #  1     ecut=    80.00 Ry     beta= 0.70
     Davidson diagonalization with overlap
     c_bands:  1 eigenvalues not converged
     c_bands:  1 eigenvalues not converged
     c_bands:  1 eigenvalues not converged
     ethr =  1.00E-06,  avg # of iterations = 14.5

     total cpu time spent up to now is       81.2 secs

     total energy              =     -61.79733022 Ry
     estimated scf accuracy    <       0.48049598 Ry

     iteration #  2     ecut=    80.00 Ry     beta= 0.70
     Davidson diagonalization with overlap
     ethr =  2.18E-03,  avg # of iterations =  6.6

     total cpu time spent up to now is       82.5 secs

     total energy              =     -59.84901524 Ry
     estimated scf accuracy    <      52.02277377 Ry

     iteration #  3     ecut=    80.00 Ry     beta= 0.70
     Davidson diagonalization with overlap
     ethr =  2.18E-03,  avg # of iterations =  5.9

     total cpu time spent up to now is       83.7 secs

     total energy              =     -62.20530567 Ry
     estimated scf accuracy    <       0.47385096 Ry

     iteration #  4     ecut=    80.00 Ry     beta= 0.70
     Davidson diagonalization with overlap
     ethr =  2.15E-03,  avg # of iterations =  1.9

     total cpu time spent up to now is       84.5 secs

     total energy              =     -62.23023630 Ry
     estimated scf accuracy    <       0.22879940 Ry

     iteration #  5     ecut=    80.00 Ry     beta= 0.70
     Davidson diagonalization with overlap
     ethr =  1.04E-03,  avg # of iterations =  2.0

     total cpu time spent up to now is       85.2 secs

     total energy              =     -62.23772358 Ry
     estimated scf accuracy    <       0.01891125 Ry

     iteration #  6     ecut=    80.00 Ry     beta= 0.70
     Davidson diagonalization with overlap
     ethr =  8.60E-05,  avg # of iterations =  4.0

     total cpu time spent up to now is       86.0 secs

     total energy              =     -62.23860248 Ry
     estimated scf accuracy    <       0.00517430 Ry

     iteration #  7     ecut=    80.00 Ry     beta= 0.70
     Davidson diagonalization with overlap
     ethr =  2.35E-05,  avg # of iterations =  3.5

     total cpu time spent up to now is       86.8 secs

     total energy              =     -62.23856750 Ry
     estimated scf accuracy    <       0.00205380 Ry

     iteration #  8     ecut=    80.00 Ry     beta= 0.70
     Davidson diagonalization with overlap
     ethr =  9.34E-06,  avg # of iterations =  2.6

     total cpu time spent up to now is       87.5 secs

     total energy              =     -62.23856417 Ry
     estimated scf accuracy    <       0.00039759 Ry

     iteration #  9     ecut=    80.00 Ry     beta= 0.70
     Davidson diagonalization with overlap
     ethr =  1.81E-06,  avg # of iterations =  4.2

     total cpu time spent up to now is       88.4 secs

     total energy              =     -62.23861302 Ry
     estimated scf accuracy    <       0.00001669 Ry

     iteration # 10     ecut=    80.00 Ry     beta= 0.70
     Davidson diagonalization with overlap
     ethr =  7.59E-08,  avg # of iterations =  3.0

     total cpu time spent up to now is       89.2 secs

     total energy              =     -62.23861342 Ry
     estimated scf accuracy    <       0.00001382 Ry

     iteration # 11     ecut=    80.00 Ry     beta= 0.70
     Davidson diagonalization with overlap
     ethr =  6.28E-08,  avg # of iterations =  1.9

     total cpu time spent up to now is       89.9 secs

     total energy              =     -62.23861392 Ry
     estimated scf accuracy    <       0.00000269 Ry

     iteration # 12     ecut=    80.00 Ry     beta= 0.70
     Davidson diagonalization with overlap
     ethr =  1.22E-08,  avg # of iterations =  1.6

     total cpu time spent up to now is       90.7 secs

     total energy              =     -62.23861406 Ry
     estimated scf accuracy    <       0.00000037 Ry

     iteration # 13     ecut=    80.00 Ry     beta= 0.70
     Davidson diagonalization with overlap
     ethr =  1.69E-09,  avg # of iterations =  2.1

     total cpu time spent up to now is       91.4 secs

     total energy              =     -62.23861409 Ry
     estimated scf accuracy    <       0.00000002 Ry

     iteration # 14     ecut=    80.00 Ry     beta= 0.70
     Davidson diagonalization with overlap
[...]
        k(    5) = (   0.0000000   0.3240414   0.0000000), wk =   0.0400000
        k(    6) = (   0.0000000   0.3240414   0.0922998), wk =   0.0800000
        k(    7) = (   0.0000000   0.4860621   0.0000000), wk =   0.0400000
        k(    8) = (   0.0000000   0.4860621   0.0922998), wk =   0.0800000
        k(    9) = (   0.0000000   0.6480828   0.0000000), wk =   0.0400000
        k(   10) = (   0.0000000   0.6480828   0.0922998), wk =   0.0800000
        k(   11) = (   0.0000000  -0.8101035   0.0000000), wk =   0.0200000
        k(   12) = (   0.0000000  -0.8101035   0.0922998), wk =   0.0400000
        k(   13) = (   0.1403140   0.2430311   0.0000000), wk =   0.0400000
        k(   14) = (   0.1403140   0.2430311   0.0922998), wk =   0.0800000
        k(   15) = (   0.1403140   0.4050518   0.0000000), wk =   0.0800000
        k(   16) = (   0.1403140   0.4050518   0.0922998), wk =   0.1600000
        k(   17) = (   0.1403140   0.5670725   0.0000000), wk =   0.0800000
        k(   18) = (   0.1403140   0.5670725   0.0922998), wk =   0.1600000
        k(   19) = (   0.1403140   0.7290932   0.0000000), wk =   0.0800000
        k(   20) = (   0.1403140   0.7290932   0.0922998), wk =   0.1600000
        k(   21) = (   0.2806281   0.4860621   0.0000000), wk =   0.0400000
        k(   22) = (   0.2806281   0.4860621   0.0922998), wk =   0.0800000
        k(   23) = (   0.2806281   0.6480828   0.0000000), wk =   0.0800000
        k(   24) = (   0.2806281   0.6480828   0.0922998), wk =   0.1600000
        k(   25) = (   0.2806281   0.8101035   0.0000000), wk =   0.0400000
        k(   26) = (   0.2806281   0.8101035   0.0922998), wk =   0.0800000
        k(   27) = (   0.4209421   0.7290932   0.0000000), wk =   0.0400000
        k(   28) = (   0.4209421   0.7290932   0.0922998), wk =   0.0800000

     Dense  grid:    39689 G-vectors     FFT dimensions: (  25,  25, 135)

     Estimated max dynamical RAM per process >      20.15 MB

     Estimated total dynamical RAM >     161.22 MB

     Initial potential from superposition of free atoms

     starting charge      21.9884, renormalised to      22.0000
     Starting wfcs are   20 randomized atomic wfcs

     total cpu time spent up to now is      193.9 secs

     Self-consistent Calculation

     iteration #  1     ecut=    80.00 Ry     beta= 0.70
     Davidson diagonalization with overlap
     c_bands:  2 eigenvalues not converged
     c_bands:  2 eigenvalues not converged
     c_bands:  4 eigenvalues not converged
     c_bands:  2 eigenvalues not converged
     c_bands:  1 eigenvalues not converged
     c_bands:  1 eigenvalues not converged
     c_bands:  1 eigenvalues not converged
     c_bands:  1 eigenvalues not converged
     c_bands:  1 eigenvalues not converged
     c_bands:  1 eigenvalues not converged
     c_bands:  3 eigenvalues not converged
     c_bands:  1 eigenvalues not converged
     c_bands:  1 eigenvalues not converged
     c_bands:  1 eigenvalues not converged
     c_bands:  1 eigenvalues not converged
     c_bands:  1 eigenvalues not converged
     c_bands:  1 eigenvalues not converged
     c_bands:  1 eigenvalues not converged
     c_bands:  2 eigenvalues not converged
     c_bands:  2 eigenvalues not converged
     ethr =  1.00E-06,  avg # of iterations = 19.2

     total cpu time spent up to now is      195.5 secs

     total energy              =     -61.87023009 Ry
     estimated scf accuracy    <       0.59321311 Ry

     iteration #  2     ecut=    80.00 Ry     beta= 0.70
     Davidson diagonalization with overlap
     ethr =  2.70E-03,  avg # of iterations =  6.2

     total cpu time spent up to now is      196.1 secs

     total energy              =     -59.08887542 Ry
     estimated scf accuracy    <      63.90087578 Ry

     iteration #  3     ecut=    80.00 Ry     beta= 0.70
     Davidson diagonalization with overlap
     ethr =  2.70E-03,  avg # of iterations =  7.2

     total cpu time spent up to now is      196.7 secs

     total energy              =     -62.20848046 Ry
     estimated scf accuracy    <       0.79385289 Ry

     iteration #  4     ecut=    80.00 Ry     beta= 0.70
     Davidson diagonalization with overlap
     ethr =  2.70E-03,  avg # of iterations =  2.1

     total cpu time spent up to now is      197.1 secs

     total energy              =     -62.31400658 Ry
     estimated scf accuracy    <       0.00806417 Ry

     iteration #  5     ecut=    80.00 Ry     beta= 0.70
     Davidson diagonalization with overlap
     ethr =  3.67E-05,  avg # of iterations =  7.0

     total cpu time spent up to now is      197.6 secs

     total energy              =     -62.31690648 Ry
     estimated scf accuracy    <       0.00546131 Ry

     iteration #  6     ecut=    80.00 Ry     beta= 0.70
     Davidson diagonalization with overlap
     ethr =  2.48E-05,  avg # of iterations =  1.6

     total cpu time spent up to now is      197.9 secs

     total energy              =     -62.31721764 Ry
     estimated scf accuracy    <       0.00025184 Ry

     iteration #  7     ecut=    80.00 Ry     beta= 0.70
     Davidson diagonalization with overlap
     ethr =  1.14E-06,  avg # of iterations =  5.6

     total cpu time spent up to now is      198.4 secs

     total energy              =     -62.31727947 Ry
     estimated scf accuracy    <       0.00003150 Ry

     iteration #  8     ecut=    80.00 Ry     beta= 0.70
     Davidson diagonalization with overlap
     ethr =  1.43E-07,  avg # of iterations =  2.5

     total cpu time spent up to now is      198.8 secs

     total energy              =     -62.31728355 Ry
     estimated scf accuracy    <       0.00001013 Ry

     iteration #  9     ecut=    80.00 Ry     beta= 0.70
     Davidson diagonalization with overlap
     ethr =  4.60E-08,  avg # of iterations =  1.1

     total cpu time spent up to now is      199.1 secs

     total energy              =     -62.31728379 Ry
     estimated scf accuracy    <       0.00000117 Ry

     iteration # 10     ecut=    80.00 Ry     beta= 0.70
     Davidson diagonalization with overlap
     ethr =  5.33E-09,  avg # of iterations =  2.6

     total cpu time spent up to now is      199.5 secs

     total energy              =     -62.31728393 Ry
     estimated scf accuracy    <       0.00000003 Ry

     iteration # 11     ecut=    80.00 Ry     beta= 0.70
     Davidson diagonalization with overlap
     ethr =  1.47E-10,  avg # of iterations =  3.9

     total cpu time spent up to now is      199.9 secs

     total energy              =     -62.31728395 Ry
     estimated scf accuracy    <       0.00000002 Ry

     iteration # 12     ecut=    80.00 Ry     beta= 0.70
     Davidson diagonalization with overlap
     ethr =  1.03E-10,  avg # of iterations =  1.4

     total cpu time spent up to now is      200.2 secs

     total energy              =     -62.31728395 Ry
     estimated scf accuracy    <          1.3E-09 Ry

     iteration # 13     ecut=    80.00 Ry     beta= 0.70
     Davidson diagonalization with overlap
     ethr =  5.76E-12,  avg # of iterations =  2.6

     total cpu time spent up to now is      200.6 secs

     total energy              =     -62.31728395 Ry
     estimated scf accuracy    <          1.8E-10 Ry

     iteration # 14     ecut=    80.00 Ry     beta= 0.70
     Davidson diagonalization with overlap
     ethr =  8.16E-13,  avg # of iterations =  2.3

     total cpu time spent up to now is      200.9 secs

     End of self-consistent calculation

          k = 0.0000 0.0000 0.0000 (  4997 PWs)   bands (ev):

   -34.0130 -34.0127  -4.9901  -3.0509  -1.7591   0.0772   4.1302   5.9312
     8.7344  13.8320  13.8736  20.0639  21.7498  24.8319  24.8319

          k = 0.0000 0.0000 0.0923 (  5022 PWs)   bands (ev):

   -34.0130 -34.0127  -4.9901  -3.0509  -1.7591   0.0766   4.1513   5.8643
     8.8844  12.7225  15.3488  18.6656  23.4888  24.8321  24.8321

          k = 0.0000 0.1620 0.0000 (  4991 PWs)   bands (ev):

   -33.9978 -33.9974  -4.6572  -2.7232  -1.4305   0.3962   4.4183   6.2276
     8.9805  14.0337  14.0478  19.7288  20.9305  21.6598  22.2477

          k = 0.0000 0.1620 0.0923 (  4987 PWs)   bands (ev):

   -33.9978 -33.9974  -4.6572  -2.7232  -1.4304   0.3953   4.4435   6.1497
     9.1491  12.8802  15.5782  18.6122  20.6531  22.0613  22.4826

          k = 0.0000 0.3240 0.0000 (  5001 PWs)   bands (ev):

   -33.9579 -33.9575  -3.6625  -1.7444  -0.4499   1.3462   5.2772   7.1165
     9.6852  14.3873  14.4616  15.6427  17.4716  18.1255  19.6544

          k = 0.0000 0.3240 0.0923 (  4993 PWs)   bands (ev):

   -33.9579 -33.9575  -3.6625  -1.7445  -0.4493   1.3439   5.3164   7.0004
     9.9159  13.2726  15.3454  16.0757  17.5308  18.2317  19.1645

          k = 0.0000 0.4861 0.0000 (  4983 PWs)   bands (ev):

   -33.9083 -33.9080  -2.0188  -0.1289   1.1662   2.9007   6.6862   8.5802
    10.2296  11.4261  12.3156  13.6624  15.0808  15.7941  16.4127

          k = 0.0000 0.4861 0.0923 (  4986 PWs)   bands (ev):

   -33.9083 -33.9080  -2.0187  -0.1294   1.1684   2.8948   6.7542   8.3740
    10.4104  11.6368  12.1749  13.6616  14.6946  15.3357  17.7265

          k = 0.0000 0.6481 0.0000 (  4933 PWs)   bands (ev):

   -33.8680 -33.8678   0.2510   2.0913   3.3795   4.8788   6.9025   8.3649
     8.5825   9.7488  10.8048  10.8853  13.2544  14.5907  16.5908

          k = 0.0000 0.6481 0.0923 (  4953 PWs)   bands (ev):

   -33.8680 -33.8678   0.2511   2.0897   3.3861   4.8675   6.8911   8.4139
     8.6636   9.7885  10.1063  11.4869  13.4130  14.3631  16.5948

          k = 0.0000-0.8101 0.0000 (  4954 PWs)   bands (ev):

   -33.8526 -33.8524   3.0087   3.1773   4.4067   5.5584   5.6379   6.9133
     7.8347   8.1053  10.1082  12.4937  13.1865  13.9915  14.0611

          k = 0.0000-0.8101 0.0923 (  4934 PWs)   bands (ev):

   -33.8526 -33.8524   3.0090   3.1783   4.4004   5.4526   5.7855   6.9179
     7.8068   7.9878  10.4308  12.5005  12.7501  13.1831  15.6957

          k = 0.1403 0.2430 0.0000 (  5005 PWs)   bands (ev):

   -33.9702 -33.9699  -3.9934  -2.0699  -0.7759   1.0308   4.9920   6.8206
     9.4594  14.3460  14.4040  17.8286  18.3025  19.2272  20.0524

          k = 0.1403 0.2430 0.0923 (  4991 PWs)   bands (ev):

   -33.9702 -33.9699  -3.9934  -2.0700  -0.7755   1.0290   5.0262   6.7182
     9.6683  13.1736  15.9463  17.6132  18.2632  19.2084  19.4101

          k = 0.1403 0.4051 0.0000 (  4988 PWs)   bands (ev):

   -33.9254 -33.9251  -2.6741  -0.7726   0.5228   2.2849   6.1284   8.0037
    10.3173  13.2745  14.1467  15.0928  15.7986  16.0220  16.5093

          k = 0.1403 0.4051 0.0923 (  4988 PWs)   bands (ev):

   -33.9254 -33.9251  -2.6741  -0.7728   0.5242   2.2806   6.1839   7.8408
    10.6116  13.2673  13.5318  15.1904  15.9213  16.0588  17.0919

          k = 0.1403 0.5671 0.0000 (  4957 PWs)   bands (ev):

   -33.8805 -33.8802  -0.7167   1.1481   2.4414   4.1060   7.7921   8.8671
     9.6132  10.7644  11.4672  12.0330  13.4943  15.4396  15.7053

          k = 0.1403 0.5671 0.0923 (  4957 PWs)   bands (ev):

   -33.8805 -33.8802  -0.7166   1.1472   2.4457   4.0965   7.8848   8.8017
     9.5353  10.5284  11.8571  12.1612  13.5055  14.7653  15.7566

          k = 0.1403 0.7291 0.0000 (  4940 PWs)   bands (ev):

   -33.8527 -33.8524   1.8455   3.6224   4.7924   4.9493   6.8769   6.9365
     8.2933   9.6421   9.7842  12.1620  13.3632  13.5857  15.2453

          k = 0.1403 0.7291 0.0923 (  4945 PWs)   bands (ev):

   -33.8527 -33.8524   1.8457   3.6193   4.8236   4.9226   6.8584   6.9575
     8.2692   9.4859  10.0552  11.9646  13.4078  13.5864  15.1001

          k = 0.2806 0.4861 0.0000 (  4959 PWs)   bands (ev):

   -33.8853 -33.8850  -1.0409   0.8312   2.1256   3.8180   7.5293   9.4589
    10.9327  11.4637  12.4077  12.8147  13.5893  14.0707  14.9341

          k = 0.2806 0.4861 0.0923 (  4967 PWs)   bands (ev):

   -33.8853 -33.8850  -1.0408   0.8304   2.1292   3.8094   7.6153   9.1943
    11.1912  11.4892  12.5437  12.8005  13.3553  14.1136  14.9590

          k = 0.2806 0.6481 0.0000 (  4937 PWs)   bands (ev):

   -33.8528 -33.8525   1.2135   3.0330   4.3203   5.7635   7.7960   9.2244
     9.4312  10.4867  10.6227  11.5276  11.8053  12.7373  13.7671

          k = 0.2806 0.6481 0.0923 (  4937 PWs)   bands (ev):

   -33.8528 -33.8525   1.2136   3.0309   4.3287   5.7495   7.7848   9.2522
     9.5512  10.5138  10.6072  10.9339  12.3227  12.6960  13.8515

          k = 0.2806 0.8101 0.0000 (  4940 PWs)   bands (ev):

   -33.8403 -33.8401   3.9455   4.1220   5.3220   6.4662   6.5723   7.7890
     8.6029   8.7541  10.8223  11.0407  12.1193  13.2862  13.5207

          k = 0.2806 0.8101 0.0923 (  4936 PWs)   bands (ev):

   -33.8403 -33.8401   3.9458   4.1229   5.3163   6.3752   6.7026   7.7907
     8.5283   8.7388  10.6982  11.3740  12.1564  13.1536  13.6824

          k = 0.4209 0.7291 0.0000 (  4948 PWs)   bands (ev):

   -33.8356 -33.8354   3.7338   5.4367   6.5120   6.6875   6.9144   8.1597
     8.8671   9.3953   9.5299  10.9746  11.2779  11.4645  12.1561

          k = 0.4209 0.7291 0.0923 (  4951 PWs)   bands (ev):

   -33.8356 -33.8354   3.7340   5.4325   6.5184   6.7188   6.8794   8.1640
     8.8578   9.3070   9.6713  10.9120  11.0746  11.7797  12.0466

     the Fermi energy is    12.1821 ev

!    total energy              =     -62.31728395 Ry
     estimated scf accuracy    <          2.3E-12 Ry
     smearing contrib. (-TS)   =      -0.00085192 Ry
     internal energy E=F+TS    =     -62.31643203 Ry

     The total energy is F=E-TS. E is the sum of the following terms:
     one-electron contribution =       7.50649321 Ry
     hartree contribution      =       6.76241255 Ry
     xc contribution           =     -20.34906176 Ry
     ewald contribution        =     -56.23627603 Ry

     convergence has been achieved in  14 iterations

     Forces acting on atoms (cartesian axes, Ry/au):

     atom    1 type  1   force =     0.00000000    0.00000000    0.00062305
     atom    2 type  1   force =     0.00000000    0.00000000   -0.00062305
     atom    3 type  1   force =     0.00000000   -0.00000000    0.00000000
     atom    4 type  1   force =     0.00000000    0.00000000    0.00000000
     atom    5 type  2   force =     0.00000000    0.00000000    0.00047977
     atom    6 type  2   force =    -0.00000000   -0.00000000   -0.00047977
     The non-local contrib.  to forces
     atom    1 type  1   force =     0.00000000    0.00000000    0.10595265
     atom    2 type  1   force =     0.00000000    0.00000000   -0.10595265
     atom    3 type  1   force =     0.00000000   -0.00000000    0.00000000
     atom    4 type  1   force =     0.00000000    0.00000000    0.00000000
     atom    5 type  2   force =    -0.00000000   -0.00000000    0.02996020
     atom    6 type  2   force =    -0.00000000    0.00000000   -0.02996020
     The ionic contribution  to forces
     atom    1 type  1   force =     0.00000000    0.00000000   -1.28763821
     atom    2 type  1   force =    -0.00000000    0.00000000    1.28763821
     atom    3 type  1   force =    -0.00000000   -0.00000000   -0.00000000
     atom    4 type  1   force =    -0.00000000    0.00000000   -0.00000000
     atom    5 type  2   force =     0.00000000   -0.00000000    1.44365515
     atom    6 type  2   force =     0.00000000   -0.00000000   -1.44365515
     The local contribution  to forces
     atom    1 type  1   force =     0.00000000   -0.00000000    1.18696106
     atom    2 type  1   force =     0.00000000   -0.00000000   -1.18696106
     atom    3 type  1   force =    -0.00000001    0.00000000   -0.00000000
     atom    4 type  1   force =     0.00000001   -0.00000001   -0.00000000
     atom    5 type  2   force =     0.00000044   -0.00000026   -1.47313376
     atom    6 type  2   force =    -0.00000044   -0.00000026    1.47313376
     The core correction contribution to forces
     atom    1 type  1   force =    -0.00000000    0.00000000   -0.00465479
     atom    2 type  1   force =    -0.00000000    0.00000000    0.00465479
     atom    3 type  1   force =    -0.00000000    0.00000000   -0.00000000
     atom    4 type  1   force =     0.00000000   -0.00000000    0.00000000
     atom    5 type  2   force =     0.00000000    0.00000000    0.00000000
     atom    6 type  2   force =     0.00000000    0.00000000    0.00000000
     The Hubbard contrib.    to forces
     atom    1 type  1   force =     0.00000000    0.00000000    0.00000000
     atom    2 type  1   force =     0.00000000    0.00000000    0.00000000
     atom    3 type  1   force =     0.00000000    0.00000000    0.00000000
     atom    4 type  1   force =     0.00000000    0.00000000    0.00000000
     atom    5 type  2   force =     0.00000000    0.00000000    0.00000000
     atom    6 type  2   force =     0.00000000    0.00000000    0.00000000
     The SCF correction term to forces
     atom    1 type  1   force =    -0.00000000    0.00000000    0.00000234
     atom    2 type  1   force =     0.00000000   -0.00000000   -0.00000234
     atom    3 type  1   force =    -0.00000000    0.00000000    0.00000000
     atom    4 type  1   force =     0.00000000   -0.00000000    0.00000000
     atom    5 type  2   force =    -0.00000000    0.00000000   -0.00000182
     atom    6 type  2   force =     0.00000000    0.00000000    0.00000182

     Total force =     0.001112     Total SCF correction =     0.000004


     Computing stress (Cartesian axis) and pressure

          total   stress  (Ry/bohr**3)                   (kbar)     P=      500.15
   0.00340105  -0.00000000  -0.00000000          500.31       -0.00       -0.00
   0.00000000   0.00340105  -0.00000000            0.00      500.31       -0.00
   0.00000000   0.00000000   0.00339770            0.00        0.00      499.82


     Writing all to output data dir ./output/SiLi.save/

     init_run     :      1.63s CPU      1.84s WALL (       2 calls)
     electrons    :    153.06s CPU    159.01s WALL (      13 calls)
     update_pot   :      8.26s CPU      8.35s WALL (      11 calls)
     forces       :      6.00s CPU      6.12s WALL (      13 calls)
     stress       :     25.42s CPU     26.54s WALL (      13 calls)

     Called by init_run:
     wfcinit      :      0.54s CPU      0.56s WALL (       2 calls)
     potinit      :      0.51s CPU      0.57s WALL (       2 calls)
     hinit0       :      0.50s CPU      0.58s WALL (       2 calls)

     Called by electrons:
     c_bands      :    133.63s CPU    138.17s WALL (     175 calls)
     sum_band     :     16.69s CPU     17.25s WALL (     175 calls)
     v_of_rho     :      2.59s CPU      3.21s WALL (     188 calls)
     mix_rho      :      0.28s CPU      0.36s WALL (     175 calls)

     Called by c_bands:
     init_us_2    :      3.47s CPU      3.78s WALL (   10584 calls)
     init_us_2:cp :      3.45s CPU      3.76s WALL (   10584 calls)
     cegterg      :    122.92s CPU    125.58s WALL (    4900 calls)

     Called by *egterg:
     cdiaghg      :      5.66s CPU      5.88s WALL (   23787 calls)
     h_psi        :    103.38s CPU    105.55s WALL (   24151 calls)
     g_psi        :      0.55s CPU      0.56s WALL (   19195 calls)

     Called by h_psi:
     h_psi:calbec :     10.60s CPU     10.81s WALL (   24151 calls)
     vloc_psi     :     84.13s CPU     85.96s WALL (   24151 calls)
     add_vuspsi   :      8.28s CPU      8.40s WALL (   24151 calls)

     General routines
     calbec       :     12.00s CPU     12.24s WALL (   25971 calls)
     fft          :      1.59s CPU      2.41s WALL (    2203 calls)
     ffts         :      0.10s CPU      0.14s WALL (     175 calls)
     fftw         :     85.17s CPU     86.95s WALL (  505202 calls)

     Parallel routines

     PWSCF        :   3m14.65s CPU   3m22.50s WALL


   This run was terminated on:  16: 8:35  27Dec2024            

=------------------------------------------------------------------------------=
   JOB DONE.
=------------------------------------------------------------------------------=
