
     Program PWSCF v.7.2 starts on 27Dec2024 at 12:55:17 

     This program is part of the open-source Quantum ESPRESSO suite
     for quantum simulation of materials; please cite
         "P. Giannozzi et al., J. Phys.:Condens. Matter 21 395502 (2009);
         "P. Giannozzi et al., J. Phys.:Condens. Matter 29 465901 (2017);
         "P. Giannozzi et al., J. Chem. Phys. 152 154105 (2020);
          URL http://www.quantum-espresso.org", 
     in publications or presentations arising from this work. More details at
     http://www.quantum-espresso.org/quote

     Parallel version (MPI & OpenMP), running on       8 processor cores
     Number of MPI processes:                 8
     Threads/MPI process:                     1

     MPI processes distributed on     1 nodes
     482596 MiB available memory on the printing compute node when the environment starts

     Waiting for input...
     Reading input from standard input

     Current dimensions of program PWSCF are:
     Max number of different atomic species (ntypx) = 10
     Max number of k-points (npk) =  40000
     Max angular momentum in pseudopotentials (lmaxx) =  4

     R & G space division:  proc/nbgrp/npool/nimage =       8
     Subspace diagonalization in iterative solution of the eigenvalue problem:
     a serial algorithm will be used


     Parallelization info
     --------------------
     sticks:   dense  smooth     PW     G-vecs:    dense   smooth      PW
     Min         105     105     31                 2062     2062     339
     Max         106     106     32                 2067     2067     343
     Sum         847     847    253                16529    16529    2733

     Using Slab Decomposition



     bravais-lattice index     =            2
     lattice parameter (alat)  =       8.8134  a.u.
     unit-cell volume          =     171.1502 (a.u.)^3
     number of atoms/cell      =            3
     number of atomic types    =            2
     number of electrons       =        10.00
     number of Kohn-Sham states=            9
     kinetic-energy cutoff     =      80.0000  Ry
     charge density cutoff     =     320.0000  Ry
     scf convergence threshold =      1.0E-08
     mixing beta               =       0.7000
     number of iterations used =            8  plain     mixing
     energy convergence thresh.=      1.0E-04
     force convergence thresh. =      1.0E-03
     press convergence thresh. =      1.0E+00
     Exchange-correlation= PBE
                           (   1   4   3   4   0   0   0)
     nstep                     =           50


     celldm(1)=   8.813447  celldm(2)=   0.000000  celldm(3)=   0.000000
     celldm(4)=   0.000000  celldm(5)=   0.000000  celldm(6)=   0.000000

     crystal axes: (cart. coord. in units of alat)
               a(1) = (  -0.500000   0.000000   0.500000 )  
               a(2) = (   0.000000   0.500000   0.500000 )  
               a(3) = (  -0.500000   0.500000   0.000000 )  

     reciprocal axes: (cart. coord. in units 2 pi/alat)
               b(1) = ( -1.000000 -1.000000  1.000000 )  
               b(2) = (  1.000000  1.000000  1.000000 )  
               b(3) = ( -1.000000  1.000000 -1.000000 )  


     PseudoPot. # 1 for Si read from file:
     ../pseudo/Si_ONCV_PBE_sr.upf
     MD5 check sum: e543d271109d17c80368dfa7c482276d
     Pseudo is Norm-conserving + core correction, Zval =  4.0
     Generated using ONCVPSP code by D. R. Hamann
     Using radial grid of 1510 points,  6 beta functions with: 
                l(1) =   0
                l(2) =   0
                l(3) =   1
                l(4) =   1
                l(5) =   2
                l(6) =   2

     PseudoPot. # 2 for Li read from file:
     ../pseudo/Li_ONCV_PBE_sr.upf
     MD5 check sum: 50ff420e78310ffa21704f3361e624a4
     Pseudo is Norm-conserving, Zval =  3.0
     Generated using ONCVPSP code by D. R. Hamann
     Using radial grid of 1944 points,  4 beta functions with: 
                l(1) =   0
                l(2) =   0
                l(3) =   1
                l(4) =   1

     atomic species   valence    mass     pseudopotential
        Si             4.00    28.08550     Si( 1.00)
        Li             3.00     6.94100     Li( 1.00)

     48 Sym. Ops., with inversion, found



   Cartesian axes

     site n.     atom                  positions (alat units)
         1           Si  tau(   1) = (   0.0000000   0.0000000   0.5000000  )
         2           Li  tau(   2) = (   0.2500000   0.2500000   0.2500000  )
         3           Li  tau(   3) = (   0.7500000   0.7500000   0.7500000  )

     number of k points=    16  Marzari-Vanderbilt smearing, width (Ry)=  0.0200
                       cart. coord. in units 2pi/alat
        k(    1) = (   0.0000000   0.0000000   0.0000000), wk =   0.0092593
        k(    2) = (  -0.1666667   0.1666667  -0.1666667), wk =   0.0740741
        k(    3) = (  -0.3333333   0.3333333  -0.3333333), wk =   0.0740741
        k(    4) = (   0.5000000  -0.5000000   0.5000000), wk =   0.0370370
        k(    5) = (   0.0000000   0.3333333   0.0000000), wk =   0.0555556
        k(    6) = (  -0.1666667   0.5000000  -0.1666667), wk =   0.2222222
        k(    7) = (   0.6666667  -0.3333333   0.6666667), wk =   0.2222222
        k(    8) = (   0.5000000  -0.1666667   0.5000000), wk =   0.2222222
        k(    9) = (   0.3333333   0.0000000   0.3333333), wk =   0.1111111
        k(   10) = (   0.0000000   0.6666667   0.0000000), wk =   0.0555556
        k(   11) = (   0.8333333  -0.1666667   0.8333333), wk =   0.2222222
        k(   12) = (   0.6666667  -0.0000000   0.6666667), wk =   0.1111111
        k(   13) = (   0.0000000  -1.0000000   0.0000000), wk =   0.0277778
        k(   14) = (   0.6666667  -0.3333333   1.0000000), wk =   0.2222222
        k(   15) = (   0.5000000  -0.1666667   0.8333333), wk =   0.2222222
        k(   16) = (  -0.3333333  -1.0000000   0.0000000), wk =   0.1111111

     Dense  grid:    16529 G-vectors     FFT dimensions: (  36,  36,  36)

     Estimated max dynamical RAM per process >      13.75 MB

     Estimated total dynamical RAM >     110.03 MB

     Initial potential from superposition of free atoms

     starting charge       9.9903, renormalised to      10.0000
     Starting wfcs are    8 randomized atomic wfcs +    1 random wfcs

     total cpu time spent up to now is        0.6 secs

     Self-consistent Calculation

     iteration #  1     ecut=    80.00 Ry     beta= 0.70
     Davidson diagonalization with overlap
     ethr =  1.00E-02,  avg # of iterations =  6.1

     Threshold (ethr) on eigenvalues was too large:
     Diagonalizing with lowered threshold

     Davidson diagonalization with overlap
     ethr =  9.73E-05,  avg # of iterations =  4.6

     total cpu time spent up to now is        1.0 secs

     total energy              =     -36.87432352 Ry
     estimated scf accuracy    <       0.00970241 Ry

     iteration #  2     ecut=    80.00 Ry     beta= 0.70
     Davidson diagonalization with overlap
     ethr =  9.70E-05,  avg # of iterations =  1.0

     total cpu time spent up to now is        1.1 secs

     total energy              =     -36.87479476 Ry
     estimated scf accuracy    <       0.00056386 Ry

     iteration #  3     ecut=    80.00 Ry     beta= 0.70
     Davidson diagonalization with overlap
     ethr =  5.64E-06,  avg # of iterations =  2.6

     total cpu time spent up to now is        1.2 secs

     total energy              =     -36.87482114 Ry
     estimated scf accuracy    <       0.00001310 Ry

     iteration #  4     ecut=    80.00 Ry     beta= 0.70
     Davidson diagonalization with overlap
     ethr =  1.31E-07,  avg # of iterations =  2.8

     total cpu time spent up to now is        1.3 secs

     total energy              =     -36.87482263 Ry
     estimated scf accuracy    <       0.00000015 Ry

     iteration #  5     ecut=    80.00 Ry     beta= 0.70
     Davidson diagonalization with overlap
     ethr =  1.53E-09,  avg # of iterations =  2.7

     total cpu time spent up to now is        1.4 secs

     End of self-consistent calculation

          k = 0.0000 0.0000 0.0000 (  2085 PWs)   bands (ev):

   -36.5205 -36.1477  -0.9394  12.7205  12.7205  12.7205  13.3472  13.3472
    13.3472

          k =-0.1667 0.1667-0.1667 (  2052 PWs)   bands (ev):

   -36.4919 -36.1697  -0.6363   9.1219  11.4487  11.4487  14.8328  14.8328
    16.2590

          k =-0.3333 0.3333-0.3333 (  2054 PWs)   bands (ev):

   -36.4170 -36.2316   0.2659   5.6804  10.6594  10.6594  14.3557  14.3557
    18.4216

          k = 0.5000-0.5000 0.5000 (  2060 PWs)   bands (ev):

   -36.3222 -36.3199   1.1759   3.8701  10.4575  10.4575  13.7203  13.7203
    19.4143

          k = 0.0000 0.3333 0.0000 (  2053 PWs)   bands (ev):

   -36.4845 -36.1749  -0.5456   9.8175   9.8175  11.1041  13.9952  15.7131
    17.0193

          k =-0.1667 0.5000-0.1667 (  2059 PWs)   bands (ev):

   -36.4309 -36.2174   0.1346   6.8946   8.9605  10.2677  14.1456  15.9446
    17.4467

          k = 0.6667-0.3333 0.6667 (  2070 PWs)   bands (ev):

   -36.3503 -36.2890   1.1943   4.4058   9.0521   9.0583  14.2524  16.1275
    19.3480

          k = 0.5000-0.1667 0.5000 (  2071 PWs)   bands (ev):

   -36.3742 -36.2674   0.8867   4.9474   8.4144  10.0420  15.1584  15.4197
    19.8572

          k = 0.3333 0.0000 0.3333 (  2057 PWs)   bands (ev):

   -36.4501 -36.2028  -0.1364   7.5625   8.8487  11.6161  14.7950  16.1505
    17.2240

          k = 0.0000 0.6667 0.0000 (  2064 PWs)   bands (ev):

   -36.4121 -36.2288   0.5013   7.8199   7.8199   8.2759  12.2980  15.4894
    20.8786

          k = 0.8333-0.1667 0.8333 (  2070 PWs)   bands (ev):

   -36.3692 -36.2646   1.2639   5.8488   7.3519   7.6386  13.0548  16.8073
    20.4058

          k = 0.6667-0.0000 0.6667 (  2079 PWs)   bands (ev):

   -36.3176 -36.3167   1.6273   4.6609   7.0120   8.4334  14.5446  18.9773
    19.6372

          k = 0.0000-1.0000 0.0000 (  2068 PWs)   bands (ev):

   -36.3755 -36.2556   1.3148   6.6628   7.1439   7.1439  11.2819  16.3810
    23.4325

          k = 0.6667-0.3333 1.0000 (  2061 PWs)   bands (ev):

   -36.3807 -36.2582   0.9182   5.7804   7.5291   8.8256  15.1886  16.4970
    17.5622

          k = 0.5000-0.1667 0.8333 (  2072 PWs)   bands (ev):

   -36.3174 -36.3169   1.6281   4.6264   7.5502   7.7749  15.8237  16.9847
    19.4480

          k =-0.3333-1.0000 0.0000 (  2078 PWs)   bands (ev):

   -36.3458 -36.2858   1.6671   5.5438   6.7778   7.0179  14.4478  17.4980
    20.6139

     the Fermi energy is     8.8126 ev

!    total energy              =     -36.87482269 Ry
     estimated scf accuracy    <          1.4E-09 Ry
     smearing contrib. (-TS)   =      -0.00081522 Ry
     internal energy E=F+TS    =     -36.87400747 Ry

     The total energy is F=E-TS. E is the sum of the following terms:
     one-electron contribution =      -8.44645180 Ry
     hartree contribution      =       6.26700330 Ry
     xc contribution           =     -10.41422673 Ry
     ewald contribution        =     -24.28033224 Ry

     convergence has been achieved in   5 iterations

     Forces acting on atoms (cartesian axes, Ry/au):

     atom    1 type  1   force =     0.00000000    0.00000000    0.00000000
     atom    2 type  2   force =    -0.00000000   -0.00000000   -0.00000000
     atom    3 type  2   force =     0.00000000    0.00000000    0.00000000
     The non-local contrib.  to forces
     atom    1 type  1   force =     0.00000000    0.00000000   -0.00000000
     atom    2 type  2   force =    -0.00000000   -0.00000000   -0.00000000
     atom    3 type  2   force =     0.00000000    0.00000000    0.00000000
     The ionic contribution  to forces
     atom    1 type  1   force =    -0.00000000   -0.00000000   -0.00000000
     atom    2 type  2   force =    -0.00000000    0.00000000    0.00000000
     atom    3 type  2   force =     0.00000000    0.00000000    0.00000000
     The local contribution  to forces
     atom    1 type  1   force =    -0.00000000    0.00000000   -0.00000000
     atom    2 type  2   force =     0.00000000    0.00000000    0.00000000
     atom    3 type  2   force =     0.00000000    0.00000000    0.00000000
     The core correction contribution to forces
     atom    1 type  1   force =     0.00000000   -0.00000000   -0.00000000
     atom    2 type  2   force =     0.00000000    0.00000000    0.00000000
     atom    3 type  2   force =     0.00000000    0.00000000    0.00000000
     The Hubbard contrib.    to forces
     atom    1 type  1   force =     0.00000000    0.00000000    0.00000000
     atom    2 type  2   force =     0.00000000    0.00000000    0.00000000
     atom    3 type  2   force =     0.00000000    0.00000000    0.00000000
     The SCF correction term to forces
     atom    1 type  1   force =    -0.00000000    0.00000000   -0.00000000
     atom    2 type  2   force =     0.00000000   -0.00000000    0.00000000
     atom    3 type  2   force =     0.00000000    0.00000000   -0.00000000

     Total force =     0.000000     Total SCF correction =     0.000000


     Computing stress (Cartesian axis) and pressure

          total   stress  (Ry/bohr**3)                   (kbar)     P=      954.20
   0.00648654  -0.00000000  -0.00000000          954.20       -0.00       -0.00
  -0.00000000   0.00648654   0.00000000           -0.00      954.20        0.00
  -0.00000000   0.00000000   0.00648654           -0.00        0.00      954.20


     BFGS Geometry Optimization
     Energy error            =      0.0E+00 Ry
     Gradient error          =      4.5E-32 Ry/Bohr
     Cell gradient error     =      4.5E+02 kbar

     number of scf cycles    =   1
     number of bfgs steps    =   0

     enthalpy           new  =     -36.2930949350 Ry

     new trust radius        =       0.2019671763 bohr
ibrav =      2
 celldm(1) =      9.49375893
Input lattice vectors:
    -0.53859509     0.00000000     0.53859509
    -0.00000000     0.53859509     0.53859509
    -0.53859509     0.53859509     0.00000000
New lattice vectors in INITIAL alat:
    -0.53859509     0.00000000     0.53859509
     0.00000000     0.53859509     0.53859509
    -0.53859509     0.53859509     0.00000000
New lattice vectors in NEW alat (for information only):
    -0.50000000     0.00000000     0.50000000
     0.00000000     0.50000000     0.50000000
    -0.50000000     0.50000000     0.00000000
Discrepancy in bohr =     0.000000    0.000000    0.000000
     new conv_thr            =       0.0000000100 Ry

     new unit-cell volume =    213.92159 a.u.^3 (    31.69991 Ang^3 )
     density =      2.19839 g/cm^3

CELL_PARAMETERS (alat=  8.81344731)
  -0.538595092   0.000000000   0.538595092
   0.000000000   0.538595092   0.538595092
  -0.538595092   0.538595092   0.000000000

ATOMIC_POSITIONS (crystal)
Si            0.5000000000        0.5000000000       -0.5000000000
Li           -0.2500000000        0.7500000000       -0.2500000000
Li           -0.7500000000        2.2500000000       -0.7500000000



     Writing config-only to output data dir ./output/SiLi.save/
     NEW-OLD atomic charge density approx. for the potential
     extrapolated charge   11.99745, renormalised to   10.00000

     total cpu time spent up to now is        2.0 secs

     Self-consistent Calculation

     iteration #  1     ecut=    80.00 Ry     beta= 0.70
     Davidson diagonalization with overlap
     ethr =  1.00E-06,  avg # of iterations =  7.8

     total cpu time spent up to now is        2.3 secs

     total energy              =     -37.01368687 Ry
     estimated scf accuracy    <       0.00736678 Ry

     iteration #  2     ecut=    80.00 Ry     beta= 0.70
     Davidson diagonalization with overlap
     ethr =  7.37E-05,  avg # of iterations =  3.8

     total cpu time spent up to now is        2.4 secs

     total energy              =     -37.07289932 Ry
     estimated scf accuracy    <       0.01149713 Ry

     iteration #  3     ecut=    80.00 Ry     beta= 0.70
     Davidson diagonalization with overlap
     ethr =  7.37E-05,  avg # of iterations =  1.0

     total cpu time spent up to now is        2.5 secs

     total energy              =     -37.07000336 Ry
     estimated scf accuracy    <       0.00476201 Ry

     iteration #  4     ecut=    80.00 Ry     beta= 0.70
     Davidson diagonalization with overlap
     ethr =  4.76E-05,  avg # of iterations =  2.0

     total cpu time spent up to now is        2.6 secs

     total energy              =     -37.07044195 Ry
     estimated scf accuracy    <       0.00000352 Ry

     iteration #  5     ecut=    80.00 Ry     beta= 0.70
     Davidson diagonalization with overlap
     ethr =  3.52E-08,  avg # of iterations =  3.6

     total cpu time spent up to now is        2.7 secs

     total energy              =     -37.07043628 Ry
     estimated scf accuracy    <       0.00001568 Ry

     iteration #  6     ecut=    80.00 Ry     beta= 0.70
     Davidson diagonalization with overlap
     ethr =  3.52E-08,  avg # of iterations =  2.0

     total cpu time spent up to now is        2.8 secs

     total energy              =     -37.07043667 Ry
     estimated scf accuracy    <       0.00000092 Ry

     iteration #  7     ecut=    80.00 Ry     beta= 0.70
     Davidson diagonalization with overlap
     ethr =  9.24E-09,  avg # of iterations =  2.0

     total cpu time spent up to now is        2.9 secs

     total energy              =     -37.07043675 Ry
     estimated scf accuracy    <       0.00000002 Ry

     iteration #  8     ecut=    80.00 Ry     beta= 0.70
     Davidson diagonalization with overlap
     ethr =  1.57E-10,  avg # of iterations =  2.1

     total cpu time spent up to now is        3.0 secs

     End of self-consistent calculation

          k = 0.0000 0.0000 0.0000 (  2085 PWs)   bands (ev):

   -38.5003 -38.3201  -2.6919   9.4696   9.4696   9.4696  10.9956  10.9956
    10.9956

          k =-0.1547 0.1547-0.1547 (  2052 PWs)   bands (ev):

   -38.4868 -38.3308  -2.4063   6.7066   8.6576   8.6576  12.0149  12.0149
    13.0014

          k =-0.3094 0.3094-0.3094 (  2054 PWs)   bands (ev):

   -38.4510 -38.3613  -1.6003   3.7390   7.9573   7.9573  11.8245  11.8245
    14.5311

          k = 0.4642-0.4642 0.4642 (  2060 PWs)   bands (ev):

   -38.4053 -38.4046  -0.8884   2.2630   7.7463   7.7463  11.3603  11.3603
    15.1854

          k = 0.0000 0.3094 0.0000 (  2053 PWs)   bands (ev):

   -38.4833 -38.3334  -2.3167   7.3991   7.3991   8.0332  11.4461  12.9294
    13.7233

          k =-0.1547 0.4642-0.1547 (  2059 PWs)   bands (ev):

   -38.4580 -38.3543  -1.6925   4.7907   6.6672   7.5005  11.5144  13.0365
    14.2527

          k = 0.6189-0.3094 0.6189 (  2070 PWs)   bands (ev):

   -38.4193 -38.3895  -0.8286   2.7281   6.5733   6.7105  11.5092  13.2615
    15.9031

          k = 0.4642-0.1547 0.4642 (  2071 PWs)   bands (ev):

   -38.4308 -38.3790  -1.0723   3.1737   6.0785   7.4837  12.2296  12.7371
    15.8618

          k = 0.3094 0.0000 0.3094 (  2057 PWs)   bands (ev):

   -38.4670 -38.3471  -1.9458   5.3688   6.5063   8.6700  12.2389  13.0285
    14.2869

          k = 0.0000 0.6189 0.0000 (  2064 PWs)   bands (ev):

   -38.4494 -38.3602  -1.3244   5.6361   5.7182   5.7182   9.8290  12.4511
    17.1020

          k = 0.7736-0.1547 0.7736 (  2070 PWs)   bands (ev):

   -38.4290 -38.3779  -0.6676   3.9553   5.0265   5.5569  10.3188  13.5501
    16.9010

          k = 0.6189 0.0000 0.6189 (  2079 PWs)   bands (ev):

   -38.4037 -38.4033  -0.4620   3.1039   4.7185   6.2079  11.5248  15.8238
    16.1047

          k = 0.0000-0.9283 0.0000 (  2068 PWs)   bands (ev):

   -38.4324 -38.3735  -0.5610   4.2731   5.1428   5.1428   8.8518  13.0221
    19.6004

          k = 0.6189-0.3094 0.9283 (  2061 PWs)   bands (ev):

   -38.4341 -38.3746  -1.0054   3.9100   5.3345   6.4053  12.1941  13.5025
    14.2821

          k = 0.4642-0.1547 0.7736 (  2072 PWs)   bands (ev):

   -38.4036 -38.4034  -0.4612   3.0387   5.2544   5.5813  12.6906  13.8192
    16.0253

          k =-0.3094-0.9283-0.0000 (  2078 PWs)   bands (ev):

   -38.4177 -38.3883  -0.3597   3.9467   4.4583   4.8866  11.4984  14.1425
    16.8501

     the Fermi energy is     6.4333 ev

!    total energy              =     -37.07043675 Ry
     estimated scf accuracy    <          3.6E-10 Ry
     smearing contrib. (-TS)   =      -0.00109628 Ry
     internal energy E=F+TS    =     -37.06934047 Ry

     The total energy is F=E-TS. E is the sum of the following terms:
     one-electron contribution =     -10.98289568 Ry
     hartree contribution      =       6.62638475 Ry
     xc contribution           =     -10.17239740 Ry
     ewald contribution        =     -22.54043214 Ry

     convergence has been achieved in   8 iterations

     Forces acting on atoms (cartesian axes, Ry/au):

     atom    1 type  1   force =     0.00000000    0.00000000   -0.00000000
     atom    2 type  2   force =    -0.00000000   -0.00000000   -0.00000000
     atom    3 type  2   force =    -0.00000000   -0.00000000    0.00000000
     The non-local contrib.  to forces
     atom    1 type  1   force =    -0.00000000    0.00000000   -0.00000000
     atom    2 type  2   force =     0.00000000   -0.00000000    0.00000000
     atom    3 type  2   force =     0.00000000    0.00000000   -0.00000000
     The ionic contribution  to forces
     atom    1 type  1   force =     0.00000000   -0.00000000   -0.00000000
     atom    2 type  2   force =     0.00000000   -0.00000000   -0.00000000
     atom    3 type  2   force =     0.00000000    0.00000000    0.00000000
     The local contribution  to forces
     atom    1 type  1   force =    -0.00000000    0.00000000   -0.00000000
     atom    2 type  2   force =     0.00000000    0.00000000    0.00000000
     atom    3 type  2   force =     0.00000000   -0.00000000   -0.00000000
     The core correction contribution to forces
     atom    1 type  1   force =    -0.00000000    0.00000000   -0.00000000
     atom    2 type  2   force =     0.00000000    0.00000000    0.00000000
     atom    3 type  2   force =     0.00000000    0.00000000    0.00000000
     The Hubbard contrib.    to forces
     atom    1 type  1   force =     0.00000000    0.00000000    0.00000000
     atom    2 type  2   force =     0.00000000    0.00000000    0.00000000
     atom    3 type  2   force =     0.00000000    0.00000000    0.00000000
     The SCF correction term to forces
     atom    1 type  1   force =     0.00000000   -0.00000000   -0.00000000
     atom    2 type  2   force =     0.00000000    0.00000000   -0.00000000
     atom    3 type  2   force =    -0.00000000    0.00000000    0.00000000

     Total force =     0.000000     Total SCF correction =     0.000000


     Computing stress (Cartesian axis) and pressure

          total   stress  (Ry/bohr**3)                   (kbar)     P=      456.49
   0.00310316   0.00000000  -0.00000000          456.49        0.00       -0.00
   0.00000000   0.00310316  -0.00000000            0.00      456.49       -0.00
  -0.00000000  -0.00000000   0.00310316           -0.00       -0.00      456.49

     Energy error            =      5.0E-02 Ry
     Gradient error          =      7.6E-32 Ry/Bohr
     Cell gradient error     =      4.4E+01 kbar

     number of scf cycles    =   2
     number of bfgs steps    =   1

     enthalpy           old  =     -36.2930949350 Ry
     enthalpy           new  =     -36.3433320631 Ry

     CASE: enthalpy          _new < enthalpy          _old

     new trust radius        =       0.0209689313 bohr
ibrav =      2
 celldm(1) =      9.42570438
Input lattice vectors:
    -0.53473426    -0.00000000     0.53473426
    -0.00000000     0.53473426     0.53473426
    -0.53473426     0.53473426     0.00000000
New lattice vectors in INITIAL alat:
    -0.53473426     0.00000000     0.53473426
     0.00000000     0.53473426     0.53473426
    -0.53473426     0.53473426     0.00000000
New lattice vectors in NEW alat (for information only):
    -0.50000000     0.00000000     0.50000000
     0.00000000     0.50000000     0.50000000
    -0.50000000     0.50000000     0.00000000
Discrepancy in bohr =     0.000000    0.000000    0.000000
     new conv_thr            =            1.0E-10 Ry

     new unit-cell volume =    209.35409 a.u.^3 (    31.02308 Ang^3 )
     density =      2.24635 g/cm^3

CELL_PARAMETERS (alat=  8.81344731)
  -0.534734256   0.000000000   0.534734256
   0.000000000   0.534734256   0.534734256
  -0.534734256   0.534734256   0.000000000

ATOMIC_POSITIONS (crystal)
Si            0.5000000000        0.5000000000       -0.5000000000
Li           -0.2500000000        0.7500000000       -0.2500000000
Li           -0.7500000000        2.2500000000       -0.7500000000



     Writing config-only to output data dir ./output/SiLi.save/
     NEW-OLD atomic charge density approx. for the potential
     extrapolated charge    9.78204, renormalised to   10.00000

     total cpu time spent up to now is        3.7 secs

     Self-consistent Calculation

     iteration #  1     ecut=    80.00 Ry     beta= 0.70
     Davidson diagonalization with overlap
     ethr =  1.00E-06,  avg # of iterations =  4.6

     total cpu time spent up to now is        3.8 secs

     total energy              =     -37.05501282 Ry
     estimated scf accuracy    <       0.00015968 Ry

     iteration #  2     ecut=    80.00 Ry     beta= 0.70
     Davidson diagonalization with overlap
     ethr =  1.60E-06,  avg # of iterations =  3.1

     total cpu time spent up to now is        3.9 secs

     total energy              =     -37.05571615 Ry
     estimated scf accuracy    <       0.00010618 Ry

     iteration #  3     ecut=    80.00 Ry     beta= 0.70
     Davidson diagonalization with overlap
     ethr =  1.06E-06,  avg # of iterations =  1.0

     total cpu time spent up to now is        4.0 secs

     total energy              =     -37.05569663 Ry
     estimated scf accuracy    <       0.00003395 Ry

     iteration #  4     ecut=    80.00 Ry     beta= 0.70
     Davidson diagonalization with overlap
     ethr =  3.40E-07,  avg # of iterations =  2.0

     total cpu time spent up to now is        4.1 secs

     total energy              =     -37.05569956 Ry
     estimated scf accuracy    <       0.00000328 Ry

     iteration #  5     ecut=    80.00 Ry     beta= 0.70
     Davidson diagonalization with overlap
     ethr =  3.28E-08,  avg # of iterations =  1.6

     total cpu time spent up to now is        4.1 secs

     total energy              =     -37.05569980 Ry
     estimated scf accuracy    <       0.00000002 Ry

     iteration #  6     ecut=    80.00 Ry     beta= 0.70
     Davidson diagonalization with overlap
     ethr =  2.16E-10,  avg # of iterations =  2.2

     total cpu time spent up to now is        4.2 secs

     total energy              =     -37.05569979 Ry
     estimated scf accuracy    <       0.00000006 Ry

     iteration #  7     ecut=    80.00 Ry     beta= 0.70
     Davidson diagonalization with overlap
     ethr =  2.16E-10,  avg # of iterations =  2.0

     total cpu time spent up to now is        4.3 secs

     total energy              =     -37.05569979 Ry
     estimated scf accuracy    <          7.3E-10 Ry

     iteration #  8     ecut=    80.00 Ry     beta= 0.70
     Davidson diagonalization with overlap
     ethr =  7.30E-12,  avg # of iterations =  1.1

     total cpu time spent up to now is        4.5 secs

     total energy              =     -37.05569979 Ry
     estimated scf accuracy    <          1.9E-10 Ry

     iteration #  9     ecut=    80.00 Ry     beta= 0.70
     Davidson diagonalization with overlap
     ethr =  1.85E-12,  avg # of iterations =  2.0

     total cpu time spent up to now is        4.5 secs

     End of self-consistent calculation

          k = 0.0000 0.0000 0.0000 (  2085 PWs)   bands (ev):

   -38.3118 -38.1178  -2.5452   9.7547   9.7547   9.7547  11.2066  11.2066
    11.2066

          k =-0.1558 0.1558-0.1558 (  2052 PWs)   bands (ev):

   -38.2972 -38.1294  -2.2570   6.9215   8.9081   8.9081  12.2615  12.2615
    13.2899

          k =-0.3117 0.3117-0.3117 (  2054 PWs)   bands (ev):

   -38.2587 -38.1621  -1.4400   3.9082   8.1968   8.1968  12.0503  12.0503
    14.8785

          k = 0.4675-0.4675 0.4675 (  2060 PWs)   bands (ev):

   -38.2094 -38.2086  -0.7098   2.4018   7.9851   7.9851  11.5721  11.5721
    15.5616

          k = 0.0000 0.3117 0.0000 (  2053 PWs)   bands (ev):

   -38.2934 -38.1321  -2.1669   7.6151   7.6151   8.3022  11.6743  13.1804
    14.0136

          k =-0.1558 0.4675-0.1558 (  2059 PWs)   bands (ev):

   -38.2661 -38.1546  -1.5355   4.9762   6.8709   7.7435  11.7486  13.2964
    14.5370

          k = 0.6234-0.3117 0.6234 (  2070 PWs)   bands (ev):

   -38.2245 -38.1925  -0.6524   2.8737   6.7920   6.9182  11.7520  13.5170
    16.2177

          k = 0.4675-0.1558 0.4675 (  2071 PWs)   bands (ev):

   -38.2368 -38.1811  -0.9023   3.3284   6.2840   7.7105  12.4888  12.9768
    16.2203

          k = 0.3117 0.0000 0.3117 (  2057 PWs)   bands (ev):

   -38.2758 -38.1469  -1.7914   5.5634   6.7131   8.9303  12.4683  13.3053
    14.5482

          k = 0.0000 0.6234 0.0000 (  2064 PWs)   bands (ev):

   -38.2568 -38.1609  -1.1653   5.8658   5.9041   5.9041  10.0463  12.7211
    17.4391

          k = 0.7792-0.1558 0.7792 (  2070 PWs)   bands (ev):

   -38.2348 -38.1799  -0.4964   4.1231   5.2251   5.7408  10.5589  13.8395
    17.2152

          k = 0.6234 0.0000 0.6234 (  2079 PWs)   bands (ev):

   -38.2076 -38.2072  -0.2790   3.2414   4.9164   6.4049  11.7901  16.1070
    16.4212

          k = 0.0000-0.9350 0.0000 (  2068 PWs)   bands (ev):

   -38.2384 -38.1752  -0.3927   4.4771   5.3193   5.3193   9.0640  13.3188
    19.9441

          k = 0.6234-0.3117 0.9350 (  2061 PWs)   bands (ev):

   -38.2404 -38.1764  -0.8374   4.0754   5.5266   6.6169  12.4586  13.7705
    14.5751

          k = 0.4675-0.1558 0.7792 (  2072 PWs)   bands (ev):

   -38.2075 -38.2073  -0.2781   3.1791   5.4547   5.7724  12.9675  14.1023
    16.3321

          k =-0.3117-0.9350-0.0000 (  2078 PWs)   bands (ev):

   -38.2227 -38.1911  -0.1797   4.0877   4.6576   5.0727  11.7587  14.4406
    17.1871

     the Fermi energy is     6.6430 ev

!    total energy              =     -37.05569979 Ry
     estimated scf accuracy    <          3.8E-12 Ry
     smearing contrib. (-TS)   =      -0.00106021 Ry
     internal energy E=F+TS    =     -37.05463958 Ry

     The total energy is F=E-TS. E is the sum of the following terms:
     one-electron contribution =     -10.74812144 Ry
     hartree contribution      =       6.59090068 Ry
     xc contribution           =     -10.19424244 Ry
     ewald contribution        =     -22.70317638 Ry

     convergence has been achieved in   9 iterations

     Forces acting on atoms (cartesian axes, Ry/au):

     atom    1 type  1   force =     0.00000000    0.00000000    0.00000000
     atom    2 type  2   force =     0.00000000   -0.00000000    0.00000000
     atom    3 type  2   force =    -0.00000000   -0.00000000   -0.00000000
     The non-local contrib.  to forces
     atom    1 type  1   force =     0.00000000    0.00000000    0.00000000
     atom    2 type  2   force =    -0.00000000   -0.00000000    0.00000000
     atom    3 type  2   force =    -0.00000000    0.00000000   -0.00000000
     The ionic contribution  to forces
     atom    1 type  1   force =    -0.00000000    0.00000000    0.00000000
     atom    2 type  2   force =    -0.00000000   -0.00000000    0.00000000
     atom    3 type  2   force =     0.00000000    0.00000000    0.00000000
     The local contribution  to forces
     atom    1 type  1   force =     0.00000000   -0.00000000   -0.00000000
     atom    2 type  2   force =     0.00000000   -0.00000000    0.00000000
     atom    3 type  2   force =     0.00000000   -0.00000000   -0.00000000
     The core correction contribution to forces
     atom    1 type  1   force =     0.00000000   -0.00000000   -0.00000000
     atom    2 type  2   force =     0.00000000    0.00000000    0.00000000
     atom    3 type  2   force =     0.00000000    0.00000000    0.00000000
     The Hubbard contrib.    to forces
     atom    1 type  1   force =     0.00000000    0.00000000    0.00000000
     atom    2 type  2   force =     0.00000000    0.00000000    0.00000000
     atom    3 type  2   force =     0.00000000    0.00000000    0.00000000
     The SCF correction term to forces
     atom    1 type  1   force =    -0.00000000    0.00000000   -0.00000000
     atom    2 type  2   force =     0.00000000   -0.00000000    0.00000000
     atom    3 type  2   force =     0.00000000    0.00000000   -0.00000000

     Total force =     0.000000     Total SCF correction =     0.000000


     Computing stress (Cartesian axis) and pressure

          total   stress  (Ry/bohr**3)                   (kbar)     P=      493.26
   0.00335312   0.00000000  -0.00000000          493.26        0.00       -0.00
   0.00000000   0.00335312   0.00000000            0.00      493.26        0.00
  -0.00000000  -0.00000000   0.00335312           -0.00       -0.00      493.26

     Energy error            =      7.9E-04 Ry
     Gradient error          =      1.8E-31 Ry/Bohr
     Cell gradient error     =      6.7E+00 kbar

     number of scf cycles    =   3
     number of bfgs steps    =   2

     enthalpy           old  =     -36.3433320631 Ry
     enthalpy           new  =     -36.3441196999 Ry

     CASE: enthalpy          _new < enthalpy          _old

     new trust radius        =       0.0037648547 bohr
ibrav =      2
 celldm(1) =      9.41344153
Input lattice vectors:
    -0.53403857    -0.00000000     0.53403857
     0.00000000     0.53403857     0.53403857
    -0.53403857     0.53403857     0.00000000
New lattice vectors in INITIAL alat:
    -0.53403857     0.00000000     0.53403857
     0.00000000     0.53403857     0.53403857
    -0.53403857     0.53403857     0.00000000
New lattice vectors in NEW alat (for information only):
    -0.50000000     0.00000000     0.50000000
     0.00000000     0.50000000     0.50000000
    -0.50000000     0.50000000     0.00000000
Discrepancy in bohr =     0.000000    0.000000    0.000000
     new conv_thr            =            1.0E-10 Ry

     new unit-cell volume =    208.53804 a.u.^3 (    30.90215 Ang^3 )
     density =      2.25514 g/cm^3

CELL_PARAMETERS (alat=  8.81344731)
  -0.534038566   0.000000000   0.534038566
   0.000000000   0.534038566   0.534038566
  -0.534038566   0.534038566   0.000000000

ATOMIC_POSITIONS (crystal)
Si            0.5000000000        0.5000000000       -0.5000000000
Li           -0.2500000000        0.7500000000       -0.2500000000
Li           -0.7500000000        2.2500000000       -0.7500000000



     Writing config-only to output data dir ./output/SiLi.save/
     NEW-OLD atomic charge density approx. for the potential
     extrapolated charge    9.96091, renormalised to   10.00000

     total cpu time spent up to now is        5.1 secs

     Self-consistent Calculation

     iteration #  1     ecut=    80.00 Ry     beta= 0.70
     Davidson diagonalization with overlap
     ethr =  1.00E-06,  avg # of iterations =  2.0

     Threshold (ethr) on eigenvalues was too large:
     Diagonalizing with lowered threshold

     Davidson diagonalization with overlap
     ethr =  4.86E-08,  avg # of iterations =  2.0

     total cpu time spent up to now is        5.3 secs

     total energy              =     -37.05292247 Ry
     estimated scf accuracy    <       0.00000484 Ry

     iteration #  2     ecut=    80.00 Ry     beta= 0.70
     Davidson diagonalization with overlap
     ethr =  4.84E-08,  avg # of iterations =  2.9

     total cpu time spent up to now is        5.4 secs

     total energy              =     -37.05294503 Ry
     estimated scf accuracy    <       0.00000350 Ry

     iteration #  3     ecut=    80.00 Ry     beta= 0.70
     Davidson diagonalization with overlap
     ethr =  3.50E-08,  avg # of iterations =  1.0

     total cpu time spent up to now is        5.5 secs

     total energy              =     -37.05294437 Ry
     estimated scf accuracy    <       0.00000114 Ry

     iteration #  4     ecut=    80.00 Ry     beta= 0.70
     Davidson diagonalization with overlap
     ethr =  1.14E-08,  avg # of iterations =  2.0

     total cpu time spent up to now is        5.6 secs

     total energy              =     -37.05294447 Ry
     estimated scf accuracy    <       0.00000010 Ry

     iteration #  5     ecut=    80.00 Ry     beta= 0.70
     Davidson diagonalization with overlap
     ethr =  1.04E-09,  avg # of iterations =  1.0

     total cpu time spent up to now is        5.7 secs

     total energy              =     -37.05294448 Ry
     estimated scf accuracy    <          7.1E-09 Ry

     iteration #  6     ecut=    80.00 Ry     beta= 0.70
     Davidson diagonalization with overlap
     ethr =  7.14E-11,  avg # of iterations =  1.0

     total cpu time spent up to now is        5.8 secs

     total energy              =     -37.05294448 Ry
     estimated scf accuracy    <       0.00000001 Ry

     iteration #  7     ecut=    80.00 Ry     beta= 0.70
     Davidson diagonalization with overlap
     ethr =  7.14E-11,  avg # of iterations =  2.0

     total cpu time spent up to now is        5.9 secs

     total energy              =     -37.05294448 Ry
     estimated scf accuracy    <          2.6E-10 Ry

     iteration #  8     ecut=    80.00 Ry     beta= 0.70
     Davidson diagonalization with overlap
     ethr =  2.58E-12,  avg # of iterations =  2.0

     total cpu time spent up to now is        6.0 secs

     End of self-consistent calculation

          k = 0.0000 0.0000 0.0000 (  2085 PWs)   bands (ev):

   -38.2776 -38.0811  -2.5181   9.8070   9.8070   9.8070  11.2451  11.2451
    11.2451

          k =-0.1560 0.1560-0.1560 (  2052 PWs)   bands (ev):

   -38.2628 -38.0927  -2.2295   6.9608   8.9538   8.9538  12.3066  12.3066
    13.3427

          k =-0.3121 0.3121-0.3121 (  2054 PWs)   bands (ev):

   -38.2238 -38.1259  -1.4106   3.9393   8.2407   8.2407  12.0915  12.0915
    14.9420

          k = 0.4681-0.4681 0.4681 (  2060 PWs)   bands (ev):

   -38.1739 -38.1730  -0.6770   2.4273   8.0288   8.0288  11.6108  11.6108
    15.6304

          k =-0.0000 0.3121-0.0000 (  2053 PWs)   bands (ev):

   -38.2590 -38.0955  -2.1394   7.6546   7.6546   8.3515  11.7160  13.2262
    14.0668

          k =-0.1560 0.4681-0.1560 (  2059 PWs)   bands (ev):

   -38.2313 -38.1184  -1.5067   5.0102   6.9082   7.7880  11.7914  13.3438
    14.5890

          k = 0.6242-0.3121 0.6242 (  2070 PWs)   bands (ev):

   -38.1891 -38.1567  -0.6201   2.9005   6.8320   6.9562  11.7964  13.5637
    16.2747

          k = 0.4681-0.1560 0.4681 (  2071 PWs)   bands (ev):

   -38.2016 -38.1452  -0.8711   3.3568   6.3217   7.7520  12.5362  13.0206
    16.2858

          k = 0.3121 0.0000 0.3121 (  2057 PWs)   bands (ev):

   -38.2411 -38.1105  -1.7631   5.5990   6.7509   8.9779  12.5102  13.3559
    14.5960

          k =-0.0000 0.6242-0.0000 (  2064 PWs)   bands (ev):

   -38.2218 -38.1247  -1.1361   5.9079   5.9381   5.9381  10.0861  12.7705
    17.5007

          k = 0.7802-0.1560 0.7802 (  2070 PWs)   bands (ev):

   -38.1996 -38.1439  -0.4651   4.1539   5.2616   5.7745  10.6029  13.8925
    17.2726

          k = 0.6242 0.0000 0.6242 (  2079 PWs)   bands (ev):

   -38.1720 -38.1716  -0.2454   3.2666   4.9528   6.4410  11.8386  16.1587
    16.4790

          k = 0.0000-0.9363 0.0000 (  2068 PWs)   bands (ev):

   -38.2032 -38.1392  -0.3619   4.5146   5.3516   5.3516   9.1029  13.3731
    20.0069

          k = 0.6242-0.3121 0.9363 (  2061 PWs)   bands (ev):

   -38.2052 -38.1404  -0.8066   4.1057   5.5618   6.6557  12.5071  13.8195
    14.6286

          k = 0.4681-0.1560 0.7802 (  2072 PWs)   bands (ev):

   -38.1719 -38.1717  -0.2446   3.2048   5.4914   5.8075  13.0181  14.1540
    16.3881

          k =-0.3121-0.9363 0.0000 (  2078 PWs)   bands (ev):

   -38.1873 -38.1553  -0.1467   4.1135   4.6942   5.1068  11.8064  14.4951
    17.2487

     the Fermi energy is     6.6814 ev

!    total energy              =     -37.05294448 Ry
     estimated scf accuracy    <          4.5E-12 Ry
     smearing contrib. (-TS)   =      -0.00105350 Ry
     internal energy E=F+TS    =     -37.05189097 Ry

     The total energy is F=E-TS. E is the sum of the following terms:
     one-electron contribution =     -10.70540579 Ry
     hartree contribution      =       6.58449591 Ry
     xc contribution           =     -10.19822938 Ry
     ewald contribution        =     -22.73275171 Ry

     convergence has been achieved in   8 iterations

     Forces acting on atoms (cartesian axes, Ry/au):

     atom    1 type  1   force =    -0.00000000   -0.00000000   -0.00000000
     atom    2 type  2   force =     0.00000000    0.00000000    0.00000000
     atom    3 type  2   force =    -0.00000000   -0.00000000    0.00000000
     The non-local contrib.  to forces
     atom    1 type  1   force =    -0.00000000   -0.00000000    0.00000000
     atom    2 type  2   force =    -0.00000000   -0.00000000    0.00000000
     atom    3 type  2   force =     0.00000000    0.00000000   -0.00000000
     The ionic contribution  to forces
     atom    1 type  1   force =    -0.00000000    0.00000000    0.00000000
     atom    2 type  2   force =    -0.00000000    0.00000000    0.00000000
     atom    3 type  2   force =    -0.00000000   -0.00000000   -0.00000000
     The local contribution  to forces
     atom    1 type  1   force =    -0.00000000   -0.00000000   -0.00000000
     atom    2 type  2   force =     0.00000000   -0.00000000   -0.00000000
     atom    3 type  2   force =     0.00000000   -0.00000000   -0.00000000
     The core correction contribution to forces
     atom    1 type  1   force =    -0.00000000   -0.00000000   -0.00000000
     atom    2 type  2   force =     0.00000000    0.00000000    0.00000000
     atom    3 type  2   force =     0.00000000    0.00000000    0.00000000
     The Hubbard contrib.    to forces
     atom    1 type  1   force =     0.00000000    0.00000000    0.00000000
     atom    2 type  2   force =     0.00000000    0.00000000    0.00000000
     atom    3 type  2   force =     0.00000000    0.00000000    0.00000000
     The SCF correction term to forces
     atom    1 type  1   force =    -0.00000000   -0.00000000   -0.00000000
     atom    2 type  2   force =    -0.00000000   -0.00000000    0.00000000
     atom    3 type  2   force =     0.00000000   -0.00000000    0.00000000

     Total force =     0.000000     Total SCF correction =     0.000000


     Computing stress (Cartesian axis) and pressure

          total   stress  (Ry/bohr**3)                   (kbar)     P=      500.13
   0.00339984   0.00000000   0.00000000          500.13        0.00        0.00
   0.00000000   0.00339984   0.00000000            0.00      500.13        0.00
   0.00000000   0.00000000   0.00339984            0.00        0.00      500.13

     Energy error            =      1.8E-05 Ry
     Gradient error          =      6.2E-32 Ry/Bohr
     Cell gradient error     =      1.3E-01 kbar
ibrav =      2
 celldm(1) =      9.41344153
Input lattice vectors:
    -0.53403857     0.00000000     0.53403857
     0.00000000     0.53403857     0.53403857
    -0.53403857     0.53403857     0.00000000
New lattice vectors in INITIAL alat:
    -0.53403857     0.00000000     0.53403857
     0.00000000     0.53403857     0.53403857
    -0.53403857     0.53403857     0.00000000
New lattice vectors in NEW alat (for information only):
    -0.50000000     0.00000000     0.50000000
     0.00000000     0.50000000     0.50000000
    -0.50000000     0.50000000     0.00000000
Discrepancy in bohr =     0.000000    0.000000    0.000000

     bfgs converged in   4 scf cycles and   3 bfgs steps
     (criteria: energy <  1.0E-04 Ry, force <  1.0E-03 Ry/Bohr, cell <  1.0E+00 kbar)

     End of BFGS Geometry Optimization

     Final enthalpy           =     -36.3441380683 Ry

     File ./output/SiLi.bfgs deleted, as requested
Begin final coordinates
     new unit-cell volume =    208.53804 a.u.^3 (    30.90215 Ang^3 )
     density =      2.25514 g/cm^3

CELL_PARAMETERS (alat=  8.81344731)
  -0.534038566   0.000000000   0.534038566
   0.000000000   0.534038566   0.534038566
  -0.534038566   0.534038566   0.000000000

ATOMIC_POSITIONS (crystal)
Si            0.5000000000        0.5000000000       -0.5000000000
Li           -0.2500000000        0.7500000000       -0.2500000000
Li           -0.7500000000        2.2500000000       -0.7500000000
End final coordinates



     Writing config-only to output data dir ./output/SiLi.save/

     Final scf calculation at the relaxed structure.
     The G-vectors are recalculated for the final unit cell
     Results may differ from those at the preceding step.

     Parallelization info
     --------------------
     sticks:   dense  smooth     PW     G-vecs:    dense   smooth      PW
     Min         120     120     36                 2512     2512     410
     Max         122     122     37                 2514     2514     412
     Sum         967     967    295                20107    20107    3287

     Using Slab Decomposition



     bravais-lattice index     =            2
     lattice parameter (alat)  =       8.8134  a.u.
     unit-cell volume          =     208.5380 (a.u.)^3
     number of atoms/cell      =            3
     number of atomic types    =            2
     number of electrons       =        10.00
     number of Kohn-Sham states=            9
     kinetic-energy cutoff     =      80.0000  Ry
     charge density cutoff     =     320.0000  Ry
     scf convergence threshold =      1.0E-10
     mixing beta               =       0.7000
     number of iterations used =            8  plain     mixing
     press convergence thresh. =      1.0E+00
     Exchange-correlation= PBE
                           (   1   4   3   4   0   0   0)

     celldm(1)=   8.813447  celldm(2)=   0.000000  celldm(3)=   0.000000
     celldm(4)=   0.000000  celldm(5)=   0.000000  celldm(6)=   0.000000

     crystal axes: (cart. coord. in units of alat)
               a(1) = (  -0.534039   0.000000   0.534039 )  
               a(2) = (   0.000000   0.534039   0.534039 )  
               a(3) = (  -0.534039   0.534039   0.000000 )  

     reciprocal axes: (cart. coord. in units 2 pi/alat)
               b(1) = ( -0.936262 -0.936262  0.936262 )  
               b(2) = (  0.936262  0.936262  0.936262 )  
               b(3) = ( -0.936262  0.936262 -0.936262 )  


     PseudoPot. # 1 for Si read from file:
     ../pseudo/Si_ONCV_PBE_sr.upf
     MD5 check sum: e543d271109d17c80368dfa7c482276d
     Pseudo is Norm-conserving + core correction, Zval =  4.0
     Generated using ONCVPSP code by D. R. Hamann
     Using radial grid of 1510 points,  6 beta functions with: 
                l(1) =   0
                l(2) =   0
                l(3) =   1
                l(4) =   1
                l(5) =   2
                l(6) =   2

     PseudoPot. # 2 for Li read from file:
     ../pseudo/Li_ONCV_PBE_sr.upf
     MD5 check sum: 50ff420e78310ffa21704f3361e624a4
     Pseudo is Norm-conserving, Zval =  3.0
     Generated using ONCVPSP code by D. R. Hamann
     Using radial grid of 1944 points,  4 beta functions with: 
                l(1) =   0
                l(2) =   0
                l(3) =   1
                l(4) =   1

     atomic species   valence    mass     pseudopotential
        Si             4.00    28.08550     Si( 1.00)
        Li             3.00     6.94100     Li( 1.00)

     48 Sym. Ops., with inversion, found



   Cartesian axes

     site n.     atom                  positions (alat units)
         1           Si  tau(   1) = (   0.0000000  -0.0000000   0.5340386  )
         2           Li  tau(   2) = (   0.2670193   0.2670193   0.2670193  )
         3           Li  tau(   3) = (   0.8010578   0.8010578   0.8010578  )

     number of k points=    16  Marzari-Vanderbilt smearing, width (Ry)=  0.0200
                       cart. coord. in units 2pi/alat
        k(    1) = (   0.0000000   0.0000000   0.0000000), wk =   0.0092593
        k(    2) = (  -0.1560437   0.1560437  -0.1560437), wk =   0.0740741
        k(    3) = (  -0.3120873   0.3120873  -0.3120873), wk =   0.0740741
        k(    4) = (   0.4681310  -0.4681310   0.4681310), wk =   0.0370370
        k(    5) = (  -0.0000000   0.3120873  -0.0000000), wk =   0.0555556
        k(    6) = (  -0.1560437   0.4681310  -0.1560437), wk =   0.2222222
        k(    7) = (   0.6241746  -0.3120873   0.6241746), wk =   0.2222222
        k(    8) = (   0.4681310  -0.1560437   0.4681310), wk =   0.2222222
        k(    9) = (   0.3120873   0.0000000   0.3120873), wk =   0.1111111
        k(   10) = (  -0.0000000   0.6241746  -0.0000000), wk =   0.0555556
        k(   11) = (   0.7802183  -0.1560437   0.7802183), wk =   0.2222222
        k(   12) = (   0.6241746   0.0000000   0.6241746), wk =   0.1111111
        k(   13) = (   0.0000000  -0.9362620   0.0000000), wk =   0.0277778
        k(   14) = (   0.6241746  -0.3120873   0.9362620), wk =   0.2222222
        k(   15) = (   0.4681310  -0.1560437   0.7802183), wk =   0.2222222
        k(   16) = (  -0.3120873  -0.9362620   0.0000000), wk =   0.1111111

     Dense  grid:    20107 G-vectors     FFT dimensions: (  40,  40,  40)

     Estimated max dynamical RAM per process >      14.28 MB

     Estimated total dynamical RAM >     114.27 MB

     Initial potential from superposition of free atoms

     starting charge       9.9903, renormalised to      10.0000
     Starting wfcs are    8 randomized atomic wfcs +    1 random wfcs

     total cpu time spent up to now is        6.9 secs

     Self-consistent Calculation

     iteration #  1     ecut=    80.00 Ry     beta= 0.70
     Davidson diagonalization with overlap
     c_bands:  1 eigenvalues not converged
     c_bands:  1 eigenvalues not converged
     c_bands:  1 eigenvalues not converged
     ethr =  1.00E-06,  avg # of iterations = 16.4

     total cpu time spent up to now is        7.3 secs

     total energy              =     -37.05268093 Ry
     estimated scf accuracy    <       0.00839264 Ry

     iteration #  2     ecut=    80.00 Ry     beta= 0.70
     Davidson diagonalization with overlap
     ethr =  8.39E-05,  avg # of iterations =  1.0

     total cpu time spent up to now is        7.4 secs

     total energy              =     -37.05306426 Ry
     estimated scf accuracy    <       0.00052086 Ry

     iteration #  3     ecut=    80.00 Ry     beta= 0.70
     Davidson diagonalization with overlap
     ethr =  5.21E-06,  avg # of iterations =  1.1

     total cpu time spent up to now is        7.6 secs

     total energy              =     -37.05308368 Ry
     estimated scf accuracy    <       0.00001284 Ry

     iteration #  4     ecut=    80.00 Ry     beta= 0.70
     Davidson diagonalization with overlap
     ethr =  1.28E-07,  avg # of iterations =  1.9

     total cpu time spent up to now is        7.7 secs

     total energy              =     -37.05308508 Ry
     estimated scf accuracy    <       0.00000017 Ry

     iteration #  5     ecut=    80.00 Ry     beta= 0.70
     Davidson diagonalization with overlap
     ethr =  1.70E-09,  avg # of iterations =  2.8

     total cpu time spent up to now is        7.8 secs

     total energy              =     -37.05308513 Ry
     estimated scf accuracy    <          1.1E-09 Ry

     iteration #  6     ecut=    80.00 Ry     beta= 0.70
     Davidson diagonalization with overlap
     ethr =  1.10E-11,  avg # of iterations =  3.4

     total cpu time spent up to now is        7.9 secs

     End of self-consistent calculation

          k = 0.0000 0.0000 0.0000 (  2565 PWs)   bands (ev):

   -38.2760 -38.0793  -2.5183   9.8069   9.8069   9.8069  11.2450  11.2450
    11.2450

          k =-0.1560 0.1560-0.1560 (  2553 PWs)   bands (ev):

   -38.2613 -38.0912  -2.2297   6.9607   8.9538   8.9538  12.3065  12.3065
    13.3426

          k =-0.3121 0.3121-0.3121 (  2527 PWs)   bands (ev):

   -38.2223 -38.1244  -1.4107   3.9391   8.2406   8.2406  12.0914  12.0914
    14.9417

          k = 0.4681-0.4681 0.4681 (  2512 PWs)   bands (ev):

   -38.1723 -38.1715  -0.6771   2.4271   8.0287   8.0287  11.6107  11.6107
    15.6300

          k =-0.0000 0.3121-0.0000 (  2541 PWs)   bands (ev):

   -38.2575 -38.0939  -2.1395   7.6545   7.6545   8.3515  11.7158  13.2261
    14.0667

          k =-0.1560 0.4681-0.1560 (  2520 PWs)   bands (ev):

   -38.2298 -38.1168  -1.5068   5.0101   6.9081   7.7879  11.7913  13.3437
    14.5889

          k = 0.6242-0.3121 0.6242 (  2510 PWs)   bands (ev):

   -38.1876 -38.1551  -0.6202   2.9003   6.8319   6.9561  11.7962  13.5636
    16.2742

          k = 0.4681-0.1560 0.4681 (  2514 PWs)   bands (ev):

   -38.2001 -38.1436  -0.8712   3.3567   6.3216   7.7520  12.5360  13.0205
    16.2857

          k = 0.3121 0.0000 0.3121 (  2535 PWs)   bands (ev):

   -38.2396 -38.1089  -1.7632   5.5989   6.7508   8.9779  12.5101  13.3558
    14.5959

          k =-0.0000 0.6242-0.0000 (  2502 PWs)   bands (ev):

   -38.2203 -38.1231  -1.1362   5.9078   5.9380   5.9380  10.0860  12.7703
    17.5006

          k = 0.7802-0.1560 0.7802 (  2524 PWs)   bands (ev):

   -38.1981 -38.1424  -0.4652   4.1537   5.2615   5.7744  10.6028  13.8922
    17.2725

          k = 0.6242 0.0000 0.6242 (  2526 PWs)   bands (ev):

   -38.1704 -38.1701  -0.2455   3.2665   4.9526   6.4409  11.8385  16.1588
    16.4788

          k = 0.0000-0.9363 0.0000 (  2498 PWs)   bands (ev):

   -38.2017 -38.1377  -0.3620   4.5145   5.3515   5.3515   9.1028  13.3727
    20.0068

          k = 0.6242-0.3121 0.9363 (  2517 PWs)   bands (ev):

   -38.2037 -38.1388  -0.8067   4.1056   5.5617   6.6555  12.5070  13.8193
    14.6285

          k = 0.4681-0.1560 0.7802 (  2514 PWs)   bands (ev):

   -38.1704 -38.1702  -0.2446   3.2046   5.4913   5.8074  13.0180  14.1538
    16.3880

          k =-0.3121-0.9363 0.0000 (  2520 PWs)   bands (ev):

   -38.1857 -38.1537  -0.1468   4.1134   4.6940   5.1067  11.8063  14.4948
    17.2486

     the Fermi energy is     6.6813 ev

!    total energy              =     -37.05308513 Ry
     estimated scf accuracy    <          5.4E-11 Ry
     smearing contrib. (-TS)   =      -0.00105343 Ry
     internal energy E=F+TS    =     -37.05203170 Ry

     The total energy is F=E-TS. E is the sum of the following terms:
     one-electron contribution =     -10.70592761 Ry
     hartree contribution      =       6.58507664 Ry
     xc contribution           =     -10.19842903 Ry
     ewald contribution        =     -22.73275171 Ry

     convergence has been achieved in   6 iterations

     Forces acting on atoms (cartesian axes, Ry/au):

     atom    1 type  1   force =    -0.00000000    0.00000000   -0.00000000
     atom    2 type  2   force =     0.00000000    0.00000000    0.00000000
     atom    3 type  2   force =    -0.00000000   -0.00000000   -0.00000000
     The non-local contrib.  to forces
     atom    1 type  1   force =    -0.00000000   -0.00000000    0.00000000
     atom    2 type  2   force =     0.00000000    0.00000000    0.00000000
     atom    3 type  2   force =    -0.00000000   -0.00000000   -0.00000000
     The ionic contribution  to forces
     atom    1 type  1   force =    -0.00000000   -0.00000000    0.00000000
     atom    2 type  2   force =    -0.00000000   -0.00000000    0.00000000
     atom    3 type  2   force =     0.00000000    0.00000000    0.00000000
     The local contribution  to forces
     atom    1 type  1   force =     0.00000000   -0.00000000   -0.00000000
     atom    2 type  2   force =     0.00000000   -0.00000000   -0.00000000
     atom    3 type  2   force =     0.00000000   -0.00000000   -0.00000000
     The core correction contribution to forces
     atom    1 type  1   force =     0.00000000   -0.00000000   -0.00000000
     atom    2 type  2   force =     0.00000000    0.00000000    0.00000000
     atom    3 type  2   force =     0.00000000    0.00000000    0.00000000
     The Hubbard contrib.    to forces
     atom    1 type  1   force =     0.00000000    0.00000000    0.00000000
     atom    2 type  2   force =     0.00000000    0.00000000    0.00000000
     atom    3 type  2   force =     0.00000000    0.00000000    0.00000000
     The SCF correction term to forces
     atom    1 type  1   force =    -0.00000000    0.00000000   -0.00000000
     atom    2 type  2   force =     0.00000000    0.00000000   -0.00000000
     atom    3 type  2   force =    -0.00000000    0.00000000    0.00000000

     Total force =     0.000000     Total SCF correction =     0.000000


     Computing stress (Cartesian axis) and pressure

          total   stress  (Ry/bohr**3)                   (kbar)     P=      501.64
   0.00341005  -0.00000000   0.00000000          501.64       -0.00        0.00
  -0.00000000   0.00341005  -0.00000000           -0.00      501.64       -0.00
   0.00000000   0.00000000   0.00341005            0.00        0.00      501.64


     Writing all to output data dir ./output/SiLi.save/

     init_run     :      0.82s CPU      0.96s WALL (       2 calls)
     electrons    :      3.55s CPU      4.61s WALL (       5 calls)
     update_pot   :      0.58s CPU      0.60s WALL (       3 calls)
     forces       :      0.53s CPU      0.58s WALL (       5 calls)
     stress       :      1.34s CPU      1.41s WALL (       5 calls)

     Called by init_run:
     wfcinit      :      0.05s CPU      0.06s WALL (       2 calls)
     potinit      :      0.18s CPU      0.24s WALL (       2 calls)
     hinit0       :      0.57s CPU      0.64s WALL (       2 calls)

     Called by electrons:
     c_bands      :      2.80s CPU      3.32s WALL (      38 calls)
     sum_band     :      0.45s CPU      0.52s WALL (      38 calls)
     v_of_rho     :      0.31s CPU      0.75s WALL (      41 calls)
     mix_rho      :      0.03s CPU      0.05s WALL (      38 calls)

     Called by c_bands:
     init_us_2    :      0.10s CPU      0.11s WALL (    1408 calls)
     init_us_2:cp :      0.09s CPU      0.11s WALL (    1408 calls)
     cegterg      :      2.59s CPU      2.82s WALL (     608 calls)

     Called by *egterg:
     cdiaghg      :      0.22s CPU      0.25s WALL (    2223 calls)
     h_psi        :      2.17s CPU      2.34s WALL (    2335 calls)
     g_psi        :      0.01s CPU      0.01s WALL (    1695 calls)

     Called by h_psi:
     h_psi:calbec :      0.13s CPU      0.14s WALL (    2335 calls)
     vloc_psi     :      1.94s CPU      2.10s WALL (    2335 calls)
     add_vuspsi   :      0.08s CPU      0.09s WALL (    2335 calls)

     General routines
     calbec       :      0.16s CPU      0.17s WALL (    2735 calls)
     fft          :      0.76s CPU      1.34s WALL (     535 calls)
     ffts         :      0.03s CPU      0.05s WALL (      38 calls)
     fftw         :      2.00s CPU      2.16s WALL (   35846 calls)

     Parallel routines

     PWSCF        :      7.00s CPU      8.51s WALL


   This run was terminated on:  12:55:26  27Dec2024            

=------------------------------------------------------------------------------=
   JOB DONE.
=------------------------------------------------------------------------------=
