
     Program PWSCF v.7.2 starts on 12Jan2025 at 12:43:42 

     This program is part of the open-source Quantum ESPRESSO suite
     for quantum simulation of materials; please cite
         "P. Giannozzi et al., J. Phys.:Condens. Matter 21 395502 (2009);
         "P. Giannozzi et al., J. Phys.:Condens. Matter 29 465901 (2017);
         "P. Giannozzi et al., J. Chem. Phys. 152 154105 (2020);
          URL http://www.quantum-espresso.org", 
     in publications or presentations arising from this work. More details at
     http://www.quantum-espresso.org/quote

     Parallel version (MPI & OpenMP), running on       8 processor cores
     Number of MPI processes:                 8
     Threads/MPI process:                     1

     MPI processes distributed on     1 nodes
     481282 MiB available memory on the printing compute node when the environment starts

     Waiting for input...
     Reading input from standard input

     Current dimensions of program PWSCF are:
     Max number of different atomic species (ntypx) = 10
     Max number of k-points (npk) =  40000
     Max angular momentum in pseudopotentials (lmaxx) =  4

     R & G space division:  proc/nbgrp/npool/nimage =       8
     Subspace diagonalization in iterative solution of the eigenvalue problem:
     a serial algorithm will be used


     Parallelization info
     --------------------
     sticks:   dense  smooth     PW     G-vecs:    dense   smooth      PW
     Min         259     259     76                 6371     6371    1020
     Max         260     260     77                 6373     6373    1022
     Sum        2077    2077    611                50975    50975    8169

     Using Slab Decomposition



     bravais-lattice index     =            5
     lattice parameter (alat)  =      10.1726  a.u.
     unit-cell volume          =     376.7914 (a.u.)^3
     number of atoms/cell      =            6
     number of atomic types    =            2
     number of electrons       =        20.00
     number of Kohn-Sham states=           14
     kinetic-energy cutoff     =     100.0000  Ry
     charge density cutoff     =     400.0000  Ry
     scf convergence threshold =      1.0E-08
     mixing beta               =       0.1000
     number of iterations used =            8  plain     mixing
     energy convergence thresh.=      5.0E-03
     force convergence thresh. =      1.0E-02
     press convergence thresh. =      2.0E+00
     Exchange-correlation= PBE
                           (   1   4   3   4   0   0   0)
     nstep                     =           50


     celldm(1)=  10.172551  celldm(2)=   0.000000  celldm(3)=   0.000000
     celldm(4)=   0.775930  celldm(5)=   0.000000  celldm(6)=   0.000000

     crystal axes: (cart. coord. in units of alat)
               a(1) = (   0.334716  -0.193248   0.922291 )  
               a(2) = (   0.000000   0.386497   0.922291 )  
               a(3) = (  -0.334716  -0.193248   0.922291 )  

     reciprocal axes: (cart. coord. in units 2 pi/alat)
               b(1) = (  1.493804 -0.862448  0.361419 )  
               b(2) = ( -0.000000  1.724896  0.361419 )  
               b(3) = ( -1.493804 -0.862448  0.361419 )  


     PseudoPot. # 1 for Si read from file:
     ../pseudo/Si_ONCV_PBE_sr.upf
     MD5 check sum: e543d271109d17c80368dfa7c482276d
     Pseudo is Norm-conserving + core correction, Zval =  4.0
     Generated using ONCVPSP code by D. R. Hamann
     Using radial grid of 1510 points,  6 beta functions with: 
                l(1) =   0
                l(2) =   0
                l(3) =   1
                l(4) =   1
                l(5) =   2
                l(6) =   2

     PseudoPot. # 2 for Li read from file:
     ../pseudo/Li_ONCV_PBE_sr.upf
     MD5 check sum: 50ff420e78310ffa21704f3361e624a4
     Pseudo is Norm-conserving, Zval =  3.0
     Generated using ONCVPSP code by D. R. Hamann
     Using radial grid of 1944 points,  4 beta functions with: 
                l(1) =   0
                l(2) =   0
                l(3) =   1
                l(4) =   1

     atomic species   valence    mass     pseudopotential
        Si             4.00    28.08550     Si( 1.00)
        Li             3.00     6.94100     Li( 1.00)

      6 Sym. Ops. (no inversion) found



   Cartesian axes

     site n.     atom                  positions (alat units)
         1           Si  tau(   1) = (   0.0000000  -0.0000000   1.1251689  )
         2           Si  tau(   2) = (   0.0000000  -0.0000000   2.3334861  )
         3           Li  tau(   3) = (   0.0000000  -0.0000000   0.7487839  )
         4           Li  tau(   4) = (   0.0000000  -0.0000000   0.8793471  )
         5           Li  tau(   5) = (  -0.0000000  -0.0000000   1.4160779  )
         6           Li  tau(   6) = (   0.0000000  -0.0000000   2.0554348  )

     number of k points=    19  Marzari-Vanderbilt smearing, width (Ry)=  0.0200
                       cart. coord. in units 2pi/alat
        k(    1) = (   0.0000000   0.0000000   0.0000000), wk =   0.0160000
        k(    2) = (  -0.2987608  -0.1724896   0.0722838), wk =   0.0960000
        k(    3) = (  -0.5975216  -0.3449792   0.1445676), wk =   0.0960000
        k(    4) = (  -0.2987608   0.1724896   0.1445676), wk =   0.0960000
        k(    5) = (  -0.5975216  -0.0000000   0.2168513), wk =   0.1920000
        k(    6) = (   0.5975216   0.6899585  -0.0722838), wk =   0.1920000
        k(    7) = (   0.2987608   0.5174689   0.0000000), wk =   0.0960000
        k(    8) = (  -0.5975216   0.3449792   0.2891351), wk =   0.0960000
        k(    9) = (   0.5975216   1.0349377   0.0000000), wk =   0.0960000
        k(   10) = (   0.0000000  -0.0000000   0.2168513), wk =   0.0320000
        k(   11) = (  -0.2987608  -0.1724896   0.2891351), wk =   0.0960000
        k(   12) = (   0.8962823   0.5174689   0.0000000), wk =   0.0960000
        k(   13) = (   0.5975216   0.3449792   0.0722838), wk =   0.0960000
        k(   14) = (  -0.2987608   0.1724896   0.3614189), wk =   0.0960000
        k(   15) = (   0.8962823   0.8624481   0.0722838), wk =   0.1920000
        k(   16) = (   0.5975216   0.6899585   0.1445676), wk =   0.1920000
        k(   17) = (   0.8962823  -0.5174689  -0.2168513), wk =   0.0960000
        k(   18) = (   0.0000000  -0.0000000   0.4337027), wk =   0.0320000
        k(   19) = (   1.1950431   0.6899585   0.1445676), wk =   0.0960000

     Dense  grid:    50975 G-vectors     FFT dimensions: (  72,  72,  72)

     Estimated max dynamical RAM per process >      23.84 MB

     Estimated total dynamical RAM >     190.74 MB

     Initial potential from superposition of free atoms

     starting charge      19.9805, renormalised to      20.0000
     Starting wfcs are   16 randomized atomic wfcs

     total cpu time spent up to now is        1.8 secs

     Self-consistent Calculation

     iteration #  1     ecut=   100.00 Ry     beta= 0.10
     Davidson diagonalization with overlap
     ethr =  1.00E-02,  avg # of iterations =  7.1

     total cpu time spent up to now is        3.3 secs

     total energy              =     -71.91426066 Ry
     estimated scf accuracy    <       0.22707540 Ry

     iteration #  2     ecut=   100.00 Ry     beta= 0.10
     Davidson diagonalization with overlap
     ethr =  1.14E-03,  avg # of iterations =  1.8

     total cpu time spent up to now is        4.1 secs

     total energy              =     -71.88349672 Ry
     estimated scf accuracy    <       0.13194954 Ry

     iteration #  3     ecut=   100.00 Ry     beta= 0.10
     Davidson diagonalization with overlap
     ethr =  6.60E-04,  avg # of iterations =  1.9

     total cpu time spent up to now is        4.8 secs

     total energy              =     -71.89072460 Ry
     estimated scf accuracy    <       0.03103404 Ry

     iteration #  4     ecut=   100.00 Ry     beta= 0.10
     Davidson diagonalization with overlap
     ethr =  1.55E-04,  avg # of iterations =  1.5

     total cpu time spent up to now is        5.6 secs

     total energy              =     -71.88967805 Ry
     estimated scf accuracy    <       0.00958709 Ry

     iteration #  5     ecut=   100.00 Ry     beta= 0.10
     Davidson diagonalization with overlap
     ethr =  4.79E-05,  avg # of iterations =  2.9

     total cpu time spent up to now is        6.5 secs

     total energy              =     -71.89052097 Ry
     estimated scf accuracy    <       0.00107658 Ry

     iteration #  6     ecut=   100.00 Ry     beta= 0.10
     Davidson diagonalization with overlap
     ethr =  5.38E-06,  avg # of iterations =  3.8

     total cpu time spent up to now is        7.4 secs

     total energy              =     -71.89038098 Ry
     estimated scf accuracy    <       0.00120091 Ry

     iteration #  7     ecut=   100.00 Ry     beta= 0.10
     Davidson diagonalization with overlap
     ethr =  5.38E-06,  avg # of iterations =  2.0

     total cpu time spent up to now is        8.2 secs

     total energy              =     -71.89058283 Ry
     estimated scf accuracy    <       0.00033539 Ry

     iteration #  8     ecut=   100.00 Ry     beta= 0.10
     Davidson diagonalization with overlap
     ethr =  1.68E-06,  avg # of iterations =  2.0

     total cpu time spent up to now is        9.1 secs

     total energy              =     -71.89063784 Ry
     estimated scf accuracy    <       0.00000633 Ry

     iteration #  9     ecut=   100.00 Ry     beta= 0.10
     Davidson diagonalization with overlap
     ethr =  3.16E-08,  avg # of iterations =  3.5

     total cpu time spent up to now is       10.0 secs

     total energy              =     -71.89063949 Ry
     estimated scf accuracy    <       0.00000945 Ry

     iteration # 10     ecut=   100.00 Ry     beta= 0.10
     Davidson diagonalization with overlap
     ethr =  3.16E-08,  avg # of iterations =  2.0

     total cpu time spent up to now is       10.8 secs

     total energy              =     -71.89063854 Ry
     estimated scf accuracy    <       0.00000569 Ry

     iteration # 11     ecut=   100.00 Ry     beta= 0.10
     Davidson diagonalization with overlap
     ethr =  2.84E-08,  avg # of iterations =  2.0

     total cpu time spent up to now is       11.5 secs

     total energy              =     -71.89063940 Ry
     estimated scf accuracy    <       0.00000013 Ry

     iteration # 12     ecut=   100.00 Ry     beta= 0.10
     Davidson diagonalization with overlap
     ethr =  6.32E-10,  avg # of iterations =  3.8

     total cpu time spent up to now is       12.5 secs

     total energy              =     -71.89063937 Ry
     estimated scf accuracy    <       0.00000026 Ry

     iteration # 13     ecut=   100.00 Ry     beta= 0.10
     Davidson diagonalization with overlap
     ethr =  6.32E-10,  avg # of iterations =  2.2

     total cpu time spent up to now is       13.4 secs

     total energy              =     -71.89063942 Ry
     estimated scf accuracy    <       0.00000004 Ry

     iteration # 14     ecut=   100.00 Ry     beta= 0.10
     Davidson diagonalization with overlap
     ethr =  2.04E-10,  avg # of iterations =  2.0

     total cpu time spent up to now is       14.1 secs

     End of self-consistent calculation

          k = 0.0000 0.0000 0.0000 (  6347 PWs)   bands (ev):

   -56.8251 -39.4072 -39.2998 -34.1768  -2.8263   2.3924   3.8925   6.0571
     6.0571   9.7015   9.7015  10.4697  10.4697  12.8064

          k =-0.2988-0.1725 0.0723 (  6356 PWs)   bands (ev):

   -56.8249 -39.3987 -39.3061 -34.1765  -2.4328   2.0071   4.2851   5.2197
     5.3427   8.2717   8.3692  10.3712  12.4473  12.5753

          k =-0.5975-0.3450 0.1446 (  6364 PWs)   bands (ev):

   -56.8247 -39.3813 -39.3197 -34.1760  -1.2692   0.5148   4.3731   4.5813
     5.4640   7.0214   7.3277   8.9518  12.3299  13.3066

          k =-0.2988 0.1725 0.1446 (  6363 PWs)   bands (ev):

   -56.8249 -39.3987 -39.3061 -34.1764  -2.3948   1.7919   4.3148   5.1086
     5.7608   7.4043   9.4325  10.7104  11.8827  12.9945

          k =-0.5975-0.0000 0.2169 (  6364 PWs)   bands (ev):

   -56.8247 -39.3851 -39.3167 -34.1760  -1.5855   1.1698   3.4474   4.1465
     6.3716   6.8823   8.2869  10.1810  12.1586  13.5291

          k = 0.5975 0.6900-0.0723 (  6366 PWs)   bands (ev):

   -56.8246 -39.3740 -39.3259 -34.1758  -0.3304  -0.0289   2.6882   4.6808
     5.8371   6.7551   7.4603   9.4675  13.2666  13.4089

          k = 0.2988 0.5175 0.0000 (  6353 PWs)   bands (ev):

   -56.8247 -39.3852 -39.3165 -34.1761  -1.6937   1.4040   3.5614   4.8004
     5.6158   6.5631   7.3669  11.5362  11.7933  13.2814

          k =-0.5975 0.3450 0.2891 (  6361 PWs)   bands (ev):

   -56.8247 -39.3811 -39.3201 -34.1758  -1.1825   0.6955   3.2164   4.1455
     5.3339   8.0132   9.5499  10.2928  11.2460  11.2600

          k = 0.5975 1.0349 0.0000 (  6375 PWs)   bands (ev):

   -56.8246 -39.3737 -39.3263 -34.1757  -0.3839   0.3237   2.1649   4.1730
     5.2424   8.4401   8.7099   9.8673  11.2826  12.1364

          k = 0.0000-0.0000 0.2169 (  6366 PWs)   bands (ev):

   -56.8251 -39.4072 -39.3000 -34.1765  -2.7115   1.4021   5.2529   6.0572
     6.0572   9.2037   9.2037  11.0552  11.0552  13.1226

          k =-0.2988-0.1725 0.2891 (  6343 PWs)   bands (ev):

   -56.8249 -39.3986 -39.3064 -34.1762  -2.2560   1.1208   4.3068   5.3870
     6.4469   8.1447   9.0030  10.1357  12.4988  12.6744

          k = 0.8963 0.5175 0.0000 (  6371 PWs)   bands (ev):

   -56.8247 -39.3811 -39.3200 -34.1758  -1.0614   0.2923   3.3674   4.4566
     6.8245   7.4386   7.6861   8.8697  11.7851  13.4901

          k = 0.5975 0.3450 0.0723 (  6368 PWs)   bands (ev):

   -56.8247 -39.3813 -39.3198 -34.1759  -1.3246   0.7472   4.0504   4.3458
     5.5689   6.3051   8.1320  10.1332  11.7885  13.3468

          k =-0.2988 0.1725 0.3614 (  6359 PWs)   bands (ev):

   -56.8249 -39.3986 -39.3065 -34.1761  -2.1780   0.8765   4.4770   5.0178
     6.9428   7.7144   9.8837  10.7269  11.7911  12.9531

          k = 0.8963 0.8624 0.0723 (  6373 PWs)   bands (ev):

   -56.8247 -39.3849 -39.3171 -34.1758  -1.3692   0.7529   3.1957   3.8109
     6.9508   8.0350   8.8067  10.1207  11.9832  12.4075

          k = 0.5975 0.6900 0.1446 (  6365 PWs)   bands (ev):

   -56.8246 -39.3738 -39.3262 -34.1757  -0.3814   0.2024   2.3555   4.2163
     5.8343   7.1605   8.1598  10.3888  11.8416  12.5662

          k = 0.8963-0.5175-0.2169 (  6388 PWs)   bands (ev):

   -56.8247 -39.3810 -39.3203 -34.1757  -0.9949   0.3710   2.9641   4.1975
     5.9197   8.8218   8.9399  10.0016  10.5717  12.1028

          k = 0.0000-0.0000 0.4337 (  6366 PWs)   bands (ev):

   -56.8251 -39.4072 -39.3004 -34.1762  -2.4835   0.4821   6.0603   6.0603
     7.1637   8.7560   8.7560  11.1745  11.8415  11.8415

          k = 1.1950 0.6900 0.1446 (  6357 PWs)   bands (ev):

   -56.8249 -39.3985 -39.3067 -34.1760  -2.0663   0.5480   4.3413   5.1598
     7.7699   8.2135   8.8499  11.2804  11.8106  12.4659

     the Fermi energy is     8.1062 ev

!    total energy              =     -71.89063942 Ry
     estimated scf accuracy    <          4.5E-09 Ry
     smearing contrib. (-TS)   =      -0.00165598 Ry
     internal energy E=F+TS    =     -71.88898345 Ry

     The total energy is F=E-TS. E is the sum of the following terms:
     one-electron contribution =     -32.26759134 Ry
     hartree contribution      =      18.01618695 Ry
     xc contribution           =     -21.06294767 Ry
     ewald contribution        =     -36.57463139 Ry

     convergence has been achieved in  14 iterations

     Forces acting on atoms (cartesian axes, Ry/au):

     atom    1 type  1   force =     0.00000000   -0.00000000    0.45480161
     atom    2 type  1   force =    -0.00000000   -0.00000000    0.52450575
     atom    3 type  2   force =     0.00000000    0.00000000   -3.15921470
     atom    4 type  2   force =     0.00000000    0.00000000    2.29269770
     atom    5 type  2   force =     0.00000000   -0.00000000    0.42416092
     atom    6 type  2   force =     0.00000000   -0.00000000   -0.53695128
     The non-local contrib.  to forces
     atom    1 type  1   force =     0.00000000   -0.00000000    0.19808604
     atom    2 type  1   force =     0.00000000    0.00000000    0.20513801
     atom    3 type  2   force =    -0.00000000   -0.00000000    0.85593726
     atom    4 type  2   force =     0.00000000   -0.00000000   -0.34279727
     atom    5 type  2   force =     0.00000000   -0.00000000   -0.17393502
     atom    6 type  2   force =    -0.00000000    0.00000000    0.23551587
     The ionic contribution  to forces
     atom    1 type  1   force =    -0.00000000    0.00000000    0.90928276
     atom    2 type  1   force =     0.00000000   -0.00000000    2.54629574
     atom    3 type  2   force =     0.00000000    0.00000000   -9.80439687
     atom    4 type  2   force =     0.00000000    0.00000000    6.41439438
     atom    5 type  2   force =    -0.00000000    0.00000000    2.19172977
     atom    6 type  2   force =    -0.00000000   -0.00000000   -2.25730578
     The local contribution  to forces
     atom    1 type  1   force =    -0.00000000   -0.00000000   -0.63893628
     atom    2 type  1   force =     0.00000000    0.00000000   -2.21119264
     atom    3 type  2   force =     0.00000000   -0.00000000    5.78924192
     atom    4 type  2   force =     0.00000000   -0.00000000   -3.77889528
     atom    5 type  2   force =    -0.00000000   -0.00000000   -1.59360670
     atom    6 type  2   force =    -0.00000000    0.00000000    1.48487432
     The core correction contribution to forces
     atom    1 type  1   force =     0.00000000   -0.00000000   -0.01355445
     atom    2 type  1   force =    -0.00000000    0.00000000   -0.01568738
     atom    3 type  2   force =     0.00000000    0.00000000    0.00000000
     atom    4 type  2   force =     0.00000000    0.00000000    0.00000000
     atom    5 type  2   force =     0.00000000    0.00000000    0.00000000
     atom    6 type  2   force =     0.00000000    0.00000000    0.00000000
     The Hubbard contrib.    to forces
     atom    1 type  1   force =     0.00000000    0.00000000    0.00000000
     atom    2 type  1   force =     0.00000000    0.00000000    0.00000000
     atom    3 type  2   force =     0.00000000    0.00000000    0.00000000
     atom    4 type  2   force =     0.00000000    0.00000000    0.00000000
     atom    5 type  2   force =     0.00000000    0.00000000    0.00000000
     atom    6 type  2   force =     0.00000000    0.00000000    0.00000000
     The SCF correction term to forces
     atom    1 type  1   force =     0.00000000    0.00000000   -0.00002744
     atom    2 type  1   force =     0.00000000    0.00000000    0.00000103
     atom    3 type  2   force =    -0.00000000   -0.00000000    0.00005201
     atom    4 type  2   force =    -0.00000000   -0.00000000    0.00004489
     atom    5 type  2   force =     0.00000000    0.00000000    0.00002190
     atom    6 type  2   force =    -0.00000000   -0.00000000    0.00001334

     Total force =     4.023342     Total SCF correction =     0.000078


     Computing stress (Cartesian axis) and pressure

          total   stress  (Ry/bohr**3)                   (kbar)     P=     1407.89
   0.00221617  -0.00000000   0.00000000          326.01       -0.00        0.00
  -0.00000000   0.00221617   0.00000000           -0.00      326.01        0.00
   0.00000000   0.00000000   0.02427967            0.00        0.00     3571.66


     BFGS Geometry Optimization
     Energy error            =      0.0E+00 Ry
     Gradient error          =      3.2E+00 Ry/Bohr
     Cell gradient error     =      3.1E+03 kbar

     number of scf cycles    =   1
     number of bfgs steps    =   0

     enthalpy           new  =     -70.6099514127 Ry

     new trust radius        =       0.5000000000 bohr
ibrav =      5
 celldm(1) =     10.88493938
 celldm(4) =      0.80612750
Input lattice vectors:
     0.33314955    -0.19234398     0.99848898
    -0.00000000     0.38468796     0.99848898
    -0.33314955    -0.19234398     0.99848898
New lattice vectors in INITIAL alat:
     0.33314955    -0.19234398     0.99848898
     0.00000000     0.38468796     0.99848898
    -0.33314955    -0.19234398     0.99848898
New lattice vectors in NEW alat (for information only):
     0.31134587    -0.17975562     0.93314075
     0.00000000     0.35951124     0.93314075
    -0.31134587    -0.17975562     0.93314075
Discrepancy in bohr =     0.000000    0.000000    0.000000
     new conv_thr            =       0.0000000100 Ry

     new unit-cell volume =    404.11227 a.u.^3 (    59.88326 Ang^3 )
     density =      2.32748 g/cm^3

CELL_PARAMETERS (alat= 10.17255143)
   0.333149548  -0.192343981   0.998488984
   0.000000000   0.384687962   0.998488984
  -0.333149548  -0.192343981   0.998488984

ATOMIC_POSITIONS (crystal)
Si            0.4092147016        0.4092147016        0.4092147016
Si            0.8463153213        0.8463153213        0.8463153213
Li            0.2528602521        0.2528602521        0.2528602521
Li            0.3307046207        0.3307046207        0.3307046207
Li            0.5141824075        0.5141824075        0.5141824075
Li            0.7398536968        0.7398536968        0.7398536968



     Writing config-only to output data dir ./output/SiLi.save/
     NEW-OLD atomic charge density approx. for the potential
     extrapolated charge   21.35083, renormalised to   20.00000

     total cpu time spent up to now is       16.3 secs

     Self-consistent Calculation

     iteration #  1     ecut=   100.00 Ry     beta= 0.10
     Davidson diagonalization with overlap
     ethr =  1.00E-06,  avg # of iterations = 13.3

     total cpu time spent up to now is       19.1 secs

     total energy              =     -73.09728791 Ry
     estimated scf accuracy    <       0.18545257 Ry

     iteration #  2     ecut=   100.00 Ry     beta= 0.10
     Davidson diagonalization with overlap
     ethr =  9.27E-04,  avg # of iterations =  2.0

     total cpu time spent up to now is       19.9 secs

     total energy              =     -73.10888197 Ry
     estimated scf accuracy    <       0.11299259 Ry

     iteration #  3     ecut=   100.00 Ry     beta= 0.10
     Davidson diagonalization with overlap
     ethr =  5.65E-04,  avg # of iterations =  1.0

     total cpu time spent up to now is       20.6 secs

     total energy              =     -73.08695888 Ry
     estimated scf accuracy    <       0.06123191 Ry

     iteration #  4     ecut=   100.00 Ry     beta= 0.10
     Davidson diagonalization with overlap
     ethr =  3.06E-04,  avg # of iterations =  2.1

     total cpu time spent up to now is       21.4 secs

     total energy              =     -73.08835492 Ry
     estimated scf accuracy    <       0.01388798 Ry

     iteration #  5     ecut=   100.00 Ry     beta= 0.10
     Davidson diagonalization with overlap
     ethr =  6.94E-05,  avg # of iterations =  2.4

     total cpu time spent up to now is       22.2 secs

     total energy              =     -73.08955941 Ry
     estimated scf accuracy    <       0.00224868 Ry

     iteration #  6     ecut=   100.00 Ry     beta= 0.10
     Davidson diagonalization with overlap
     ethr =  1.12E-05,  avg # of iterations =  4.2

     total cpu time spent up to now is       23.1 secs

     total energy              =     -73.08935005 Ry
     estimated scf accuracy    <       0.00095972 Ry

     iteration #  7     ecut=   100.00 Ry     beta= 0.10
     Davidson diagonalization with overlap
     ethr =  4.80E-06,  avg # of iterations =  2.2

     total cpu time spent up to now is       23.9 secs

     total energy              =     -73.08957727 Ry
     estimated scf accuracy    <       0.00025934 Ry

     iteration #  8     ecut=   100.00 Ry     beta= 0.10
     Davidson diagonalization with overlap
     ethr =  1.30E-06,  avg # of iterations =  1.9

     total cpu time spent up to now is       24.7 secs

     total energy              =     -73.08960800 Ry
     estimated scf accuracy    <       0.00004042 Ry

     iteration #  9     ecut=   100.00 Ry     beta= 0.10
     Davidson diagonalization with overlap
     ethr =  2.02E-07,  avg # of iterations =  1.8

     total cpu time spent up to now is       25.4 secs

     total energy              =     -73.08961153 Ry
     estimated scf accuracy    <       0.00000475 Ry

     iteration # 10     ecut=   100.00 Ry     beta= 0.10
     Davidson diagonalization with overlap
     ethr =  2.37E-08,  avg # of iterations =  2.0

     total cpu time spent up to now is       26.2 secs

     total energy              =     -73.08961302 Ry
     estimated scf accuracy    <       0.00000165 Ry

     iteration # 11     ecut=   100.00 Ry     beta= 0.10
     Davidson diagonalization with overlap
     ethr =  8.24E-09,  avg # of iterations =  2.0

     total cpu time spent up to now is       27.0 secs

     total energy              =     -73.08961327 Ry
     estimated scf accuracy    <       0.00000015 Ry

     iteration # 12     ecut=   100.00 Ry     beta= 0.10
     Davidson diagonalization with overlap
     ethr =  7.51E-10,  avg # of iterations =  1.9

     total cpu time spent up to now is       27.7 secs

     total energy              =     -73.08961327 Ry
     estimated scf accuracy    <       0.00000007 Ry

     iteration # 13     ecut=   100.00 Ry     beta= 0.10
     Davidson diagonalization with overlap
     ethr =  3.29E-10,  avg # of iterations =  2.0

     total cpu time spent up to now is       28.6 secs

     total energy              =     -73.08961328 Ry
     estimated scf accuracy    <       0.00000003 Ry

     iteration # 14     ecut=   100.00 Ry     beta= 0.10
     Davidson diagonalization with overlap
     ethr =  1.61E-10,  avg # of iterations =  1.7

     total cpu time spent up to now is       29.3 secs

     End of self-consistent calculation

          k = 0.0000 0.0000 0.0000 (  6347 PWs)   bands (ev):

   -45.8673 -40.5588 -39.0972 -38.2653  -3.1151   1.4436   3.6654   6.2618
     6.2618   9.5588   9.5588  10.2779  10.2779  12.5684

          k =-0.3002-0.1733 0.0668 (  6356 PWs)   bands (ev):

   -45.8667 -40.5575 -39.0962 -38.2646  -2.7165   1.3299   4.0172   4.9324
     5.4488   7.8326   8.2030  10.1332  11.4948  12.4539

          k =-0.6003-0.3466 0.1335 (  6364 PWs)   bands (ev):

   -45.8657 -40.5555 -39.0947 -38.2634  -1.5614   0.2570   3.9721   4.6187
     4.8237   6.2336   7.1616   8.5986  11.1419  12.6563

          k =-0.3002 0.1733 0.1335 (  6363 PWs)   bands (ev):

   -45.8667 -40.5576 -39.0961 -38.2646  -2.7008   1.2236   4.0543   5.2475
     5.2710   7.3174   8.9880  10.2306  11.7312  11.7981

          k =-0.6003-0.0000 0.2003 (  6364 PWs)   bands (ev):

   -45.8659 -40.5560 -39.0949 -38.2637  -1.9044   0.8246   3.3733   4.0021
     5.7910   6.3597   7.6308   9.8188  11.5281  12.4392

          k = 0.6003 0.6932-0.0668 (  6366 PWs)   bands (ev):

   -45.8654 -40.5549 -39.0942 -38.2631  -0.7291  -0.1710   2.5433   4.4230
     5.4175   6.0125   6.8875   8.8791  12.0502  12.7593

          k = 0.3002 0.5199 0.0000 (  6353 PWs)   bands (ev):

   -45.8659 -40.5559 -39.0950 -38.2637  -1.9520   0.9557   3.4931   4.4902
     4.8856   6.2179   7.2967  10.4849  11.7372  12.1275

          k =-0.6003 0.3466 0.2671 (  6361 PWs)   bands (ev):

   -45.8657 -40.5558 -39.0945 -38.2635  -1.5224   0.3451   3.0131   4.2935
     5.2378   6.9721   8.6518   9.5740   9.9561  11.2538

          k = 0.6003 1.0398 0.0000 (  6375 PWs)   bands (ev):

   -45.8654 -40.5551 -39.0940 -38.2631  -0.7326  -0.0281   2.1855   4.0078
     5.1076   7.3791   7.8227   8.8353  10.7005  11.6922

          k =-0.0000-0.0000 0.2003 (  6366 PWs)   bands (ev):

   -45.8672 -40.5591 -39.0969 -38.2653  -3.0705   1.0023   4.4441   6.2636
     6.2636   9.1631   9.1631  10.4691  10.7702  10.7702

          k =-0.3002-0.1733 0.2671 (  6343 PWs)   bands (ev):

   -45.8666 -40.5579 -39.0959 -38.2646  -2.6468   0.8735   4.2782   5.4802
     5.4958   8.0458   8.2253   9.9484  10.9174  12.1477

          k = 0.9005 0.5199 0.0000 (  6371 PWs)   bands (ev):

   -45.8657 -40.5557 -39.0945 -38.2635  -1.4764   0.1470   3.2223   4.5282
     6.0074   6.4696   7.4336   8.4676  10.6816  12.1244

          k = 0.6003 0.3466 0.0668 (  6368 PWs)   bands (ev):

   -45.8657 -40.5555 -39.0947 -38.2635  -1.5861   0.3760   3.6639   4.4465
     4.9370   6.0154   7.7572   9.3559  10.6848  12.7828

          k =-0.3002 0.1733 0.3338 (  6359 PWs)   bands (ev):

   -45.8666 -40.5581 -39.0957 -38.2646  -2.6186   0.7439   4.3342   5.1999
     6.0295   7.3942   9.3481   9.6862  11.4714  11.5616

          k = 0.9005 0.8665 0.0668 (  6373 PWs)   bands (ev):

   -45.8659 -40.5563 -39.0946 -38.2637  -1.8196   0.6099   3.1778   3.7850
     6.5557   7.1310   7.7980   9.5561  10.6612  11.8224

          k = 0.6003 0.6932 0.1335 (  6365 PWs)   bands (ev):

   -45.8654 -40.5550 -39.0941 -38.2631  -0.7330  -0.0826   2.3170   4.0787
     5.4366   6.4736   7.4591   9.2293  11.3072  11.6627

          k = 0.9005-0.5199-0.2003 (  6388 PWs)   bands (ev):

   -45.8657 -40.5559 -39.0944 -38.2635  -1.4500   0.1923   2.8787   4.3333
     5.6191   7.6001   8.3247   8.9846   9.6544  11.7902

          k =-0.0000-0.0000 0.4006 (  6366 PWs)   bands (ev):

   -45.8672 -40.5596 -39.0964 -38.2653  -2.9921   0.5072   5.8371   6.2682
     6.2682   8.7704   8.8014   8.8014  11.4020  11.4020

          k = 1.2007 0.6932 0.1335 (  6357 PWs)   bands (ev):

   -45.8666 -40.5582 -39.0956 -38.2646  -2.5816   0.5710   4.3271   5.3094
     6.4940   7.7327   8.6151   9.5346  11.0663  11.6616

     the Fermi energy is     7.4604 ev

!    total energy              =     -73.08961329 Ry
     estimated scf accuracy    <          4.4E-09 Ry
     smearing contrib. (-TS)   =      -0.00111892 Ry
     internal energy E=F+TS    =     -73.08849437 Ry

     The total energy is F=E-TS. E is the sum of the following terms:
     one-electron contribution =     -27.77294776 Ry
     hartree contribution      =      15.81333234 Ry
     xc contribution           =     -20.68973851 Ry
     ewald contribution        =     -40.43914044 Ry

     convergence has been achieved in  14 iterations

     Forces acting on atoms (cartesian axes, Ry/au):

     atom    1 type  1   force =    -0.00000000   -0.00000000    0.76254106
     atom    2 type  1   force =    -0.00000000    0.00000000    0.24544304
     atom    3 type  2   force =    -0.00000000    0.00000000   -0.20185849
     atom    4 type  2   force =    -0.00000000   -0.00000000   -0.80698982
     atom    5 type  2   force =     0.00000000    0.00000000    0.27721416
     atom    6 type  2   force =     0.00000000   -0.00000000   -0.27634996
     The non-local contrib.  to forces
     atom    1 type  1   force =    -0.00000000    0.00000000    0.24058476
     atom    2 type  1   force =     0.00000000    0.00000000    0.09655079
     atom    3 type  2   force =    -0.00000000   -0.00000000    0.43535264
     atom    4 type  2   force =     0.00000000    0.00000000    0.15217805
     atom    5 type  2   force =     0.00000000    0.00000000   -0.10523731
     atom    6 type  2   force =    -0.00000000    0.00000000    0.08020708
     The ionic contribution  to forces
     atom    1 type  1   force =    -0.00000000    0.00000000    1.02792830
     atom    2 type  1   force =     0.00000000   -0.00000000    1.96146324
     atom    3 type  2   force =     0.00000000    0.00000000   -1.51915962
     atom    4 type  2   force =     0.00000000    0.00000000   -1.51011309
     atom    5 type  2   force =     0.00000000    0.00000000    1.87622238
     atom    6 type  2   force =    -0.00000000   -0.00000000   -1.83634121
     The local contribution  to forces
     atom    1 type  1   force =    -0.00000000   -0.00000000   -0.48807636
     atom    2 type  1   force =     0.00000000    0.00000000   -1.80489188
     atom    3 type  2   force =     0.00000000    0.00000000    0.88190866
     atom    4 type  2   force =     0.00000000   -0.00000000    0.55088122
     atom    5 type  2   force =     0.00000000   -0.00000000   -1.49384706
     atom    6 type  2   force =     0.00000000    0.00000000    1.47980537
     The core correction contribution to forces
     atom    1 type  1   force =    -0.00000000   -0.00000000   -0.01789065
     atom    2 type  1   force =     0.00000000    0.00000000   -0.00777387
     atom    3 type  2   force =     0.00000000    0.00000000    0.00000000
     atom    4 type  2   force =     0.00000000    0.00000000    0.00000000
     atom    5 type  2   force =     0.00000000    0.00000000    0.00000000
     atom    6 type  2   force =     0.00000000    0.00000000    0.00000000
     The Hubbard contrib.    to forces
     atom    1 type  1   force =     0.00000000    0.00000000    0.00000000
     atom    2 type  1   force =     0.00000000    0.00000000    0.00000000
     atom    3 type  2   force =     0.00000000    0.00000000    0.00000000
     atom    4 type  2   force =     0.00000000    0.00000000    0.00000000
     atom    5 type  2   force =     0.00000000    0.00000000    0.00000000
     atom    6 type  2   force =     0.00000000    0.00000000    0.00000000
     The SCF correction term to forces
     atom    1 type  1   force =     0.00000000    0.00000000   -0.00004677
     atom    2 type  1   force =     0.00000000   -0.00000000    0.00005297
     atom    3 type  2   force =    -0.00000000    0.00000000   -0.00000195
     atom    4 type  2   force =    -0.00000000    0.00000000    0.00002223
     atom    5 type  2   force =    -0.00000000    0.00000000    0.00003436
     atom    6 type  2   force =    -0.00000000   -0.00000000   -0.00006298

     Total force =     1.219388     Total SCF correction =     0.000103


     Computing stress (Cartesian axis) and pressure

          total   stress  (Ry/bohr**3)                   (kbar)     P=      846.67
   0.00244180   0.00000000  -0.00000000          359.20        0.00       -0.00
  -0.00000000   0.00244180   0.00000000           -0.00      359.20        0.00
   0.00000000   0.00000000   0.01238302            0.00        0.00     1821.61

     Energy error            =      1.1E+00 Ry
     Gradient error          =      8.1E-01 Ry/Bohr
     Cell gradient error     =      1.3E+03 kbar

     number of scf cycles    =   2
     number of bfgs steps    =   1

     enthalpy           old  =     -70.6099514127 Ry
     enthalpy           new  =     -71.7160635847 Ry

     CASE: enthalpy          _new < enthalpy          _old

     new trust radius        =       0.8000000000 bohr
ibrav =      5
 celldm(1) =     12.76410674
 celldm(4) =      0.86546469
Input lattice vectors:
     0.32543456    -0.18788973     1.19716811
     0.00000000     0.37577946     1.19716811
    -0.32543456    -0.18788973     1.19716811
New lattice vectors in INITIAL alat:
     0.32543456    -0.18788973     1.19716811
     0.00000000     0.37577946     1.19716811
    -0.32543456    -0.18788973     1.19716811
New lattice vectors in NEW alat (for information only):
     0.25936009    -0.14974162     0.95410156
     0.00000000     0.29948323     0.95410156
    -0.25936009    -0.14974162     0.95410156
Discrepancy in bohr =     0.000000    0.000000    0.000000
     new conv_thr            =       0.0000000008 Ry

     new unit-cell volume =    462.34141 a.u.^3 (    68.51193 Ang^3 )
     density =      2.03435 g/cm^3

CELL_PARAMETERS (alat= 10.17255143)
   0.325434562  -0.187889732   1.197168114
   0.000000000   0.375779463   1.197168114
  -0.325434562  -0.187889732   1.197168114

ATOMIC_POSITIONS (crystal)
Si            0.4343531123        0.4343531123        0.4343531123
Si            0.8552380073        0.8552380073        0.8552380073
Li            0.2395250786        0.2395250786        0.2395250786
Li            0.3101993004        0.3101993004        0.3101993004
Li            0.5238902228        0.5238902228        0.5238902228
Li            0.7299252786        0.7299252786        0.7299252786



     Writing config-only to output data dir ./output/SiLi.save/
     NEW-OLD atomic charge density approx. for the potential
     extrapolated charge   22.51643, renormalised to   20.00000

     total cpu time spent up to now is       31.5 secs

     Self-consistent Calculation

     iteration #  1     ecut=   100.00 Ry     beta= 0.10
     Davidson diagonalization with overlap
     c_bands:  1 eigenvalues not converged
     c_bands:  1 eigenvalues not converged
     ethr =  1.00E-06,  avg # of iterations = 15.5

     total cpu time spent up to now is       34.6 secs

     total energy              =     -73.97356332 Ry
     estimated scf accuracy    <       1.48630895 Ry

     iteration #  2     ecut=   100.00 Ry     beta= 0.10
     Davidson diagonalization with overlap
     ethr =  7.43E-03,  avg # of iterations =  1.8

     total cpu time spent up to now is       35.3 secs

     total energy              =     -74.03221956 Ry
     estimated scf accuracy    <       0.84366694 Ry

     iteration #  3     ecut=   100.00 Ry     beta= 0.10
     Davidson diagonalization with overlap
     ethr =  4.22E-03,  avg # of iterations =  1.1

     total cpu time spent up to now is       36.0 secs

     total energy              =     -73.93890981 Ry
     estimated scf accuracy    <       0.36325029 Ry

     iteration #  4     ecut=   100.00 Ry     beta= 0.10
     Davidson diagonalization with overlap
     ethr =  1.82E-03,  avg # of iterations =  2.0

     total cpu time spent up to now is       36.7 secs

     total energy              =     -73.98602409 Ry
     estimated scf accuracy    <       0.04402026 Ry

     iteration #  5     ecut=   100.00 Ry     beta= 0.10
     Davidson diagonalization with overlap
     ethr =  2.20E-04,  avg # of iterations =  1.6

     total cpu time spent up to now is       37.4 secs

     total energy              =     -73.97663255 Ry
     estimated scf accuracy    <       0.04255853 Ry

     iteration #  6     ecut=   100.00 Ry     beta= 0.10
     Davidson diagonalization with overlap
     ethr =  2.13E-04,  avg # of iterations =  2.2

     total cpu time spent up to now is       38.3 secs

     total energy              =     -73.98604204 Ry
     estimated scf accuracy    <       0.02910054 Ry

     iteration #  7     ecut=   100.00 Ry     beta= 0.10
     Davidson diagonalization with overlap
     ethr =  1.46E-04,  avg # of iterations =  1.0

     total cpu time spent up to now is       38.9 secs

     total energy              =     -73.98339801 Ry
     estimated scf accuracy    <       0.00743614 Ry

     iteration #  8     ecut=   100.00 Ry     beta= 0.10
     Davidson diagonalization with overlap
     ethr =  3.72E-05,  avg # of iterations =  2.5

     total cpu time spent up to now is       39.8 secs

     total energy              =     -73.98511112 Ry
     estimated scf accuracy    <       0.00777333 Ry

     iteration #  9     ecut=   100.00 Ry     beta= 0.10
     Davidson diagonalization with overlap
     ethr =  3.72E-05,  avg # of iterations =  2.0

     total cpu time spent up to now is       40.5 secs

     total energy              =     -73.98614747 Ry
     estimated scf accuracy    <       0.00085422 Ry

     iteration # 10     ecut=   100.00 Ry     beta= 0.10
     Davidson diagonalization with overlap
     ethr =  4.27E-06,  avg # of iterations =  3.3

     total cpu time spent up to now is       41.4 secs

     total energy              =     -73.98631145 Ry
     estimated scf accuracy    <       0.00004294 Ry

     iteration # 11     ecut=   100.00 Ry     beta= 0.10
     Davidson diagonalization with overlap
     ethr =  2.15E-07,  avg # of iterations =  2.3

     total cpu time spent up to now is       42.1 secs

     total energy              =     -73.98630842 Ry
     estimated scf accuracy    <       0.00004588 Ry

     iteration # 12     ecut=   100.00 Ry     beta= 0.10
     Davidson diagonalization with overlap
     ethr =  2.15E-07,  avg # of iterations =  2.0

     total cpu time spent up to now is       42.9 secs

     total energy              =     -73.98632070 Ry
     estimated scf accuracy    <       0.00001158 Ry

     iteration # 13     ecut=   100.00 Ry     beta= 0.10
     Davidson diagonalization with overlap
     ethr =  5.79E-08,  avg # of iterations =  1.1

     total cpu time spent up to now is       43.6 secs

     total energy              =     -73.98631900 Ry
     estimated scf accuracy    <       0.00000812 Ry

     iteration # 14     ecut=   100.00 Ry     beta= 0.10
     Davidson diagonalization with overlap
     ethr =  4.06E-08,  avg # of iterations =  1.8

     total cpu time spent up to now is       44.3 secs

     total energy              =     -73.98631961 Ry
     estimated scf accuracy    <       0.00000063 Ry

     iteration # 15     ecut=   100.00 Ry     beta= 0.10
     Davidson diagonalization with overlap
     ethr =  3.17E-09,  avg # of iterations =  2.3

     total cpu time spent up to now is       45.1 secs

     total energy              =     -73.98631978 Ry
     estimated scf accuracy    <       0.00000003 Ry

     iteration # 16     ecut=   100.00 Ry     beta= 0.10
     Davidson diagonalization with overlap
     ethr =  1.72E-10,  avg # of iterations =  3.2

     total cpu time spent up to now is       45.9 secs

     total energy              =     -73.98631979 Ry
     estimated scf accuracy    <       0.00000003 Ry

     iteration # 17     ecut=   100.00 Ry     beta= 0.10
     Davidson diagonalization with overlap
     ethr =  1.43E-10,  avg # of iterations =  2.0

     total cpu time spent up to now is       46.7 secs

     total energy              =     -73.98631977 Ry
     estimated scf accuracy    <       0.00000009 Ry

     iteration # 18     ecut=   100.00 Ry     beta= 0.10
     Davidson diagonalization with overlap
     ethr =  1.43E-10,  avg # of iterations =  2.0

     total cpu time spent up to now is       47.4 secs

     total energy              =     -73.98631978 Ry
     estimated scf accuracy    <          8.7E-09 Ry

     iteration # 19     ecut=   100.00 Ry     beta= 0.10
     Davidson diagonalization with overlap
     ethr =  4.35E-11,  avg # of iterations =  1.0

     total cpu time spent up to now is       48.2 secs

     total energy              =     -73.98631978 Ry
     estimated scf accuracy    <          5.6E-09 Ry

     iteration # 20     ecut=   100.00 Ry     beta= 0.10
     Davidson diagonalization with overlap
     ethr =  2.81E-11,  avg # of iterations =  1.6

     total cpu time spent up to now is       48.9 secs

     total energy              =     -73.98631978 Ry
     estimated scf accuracy    <          1.0E-09 Ry

     iteration # 21     ecut=   100.00 Ry     beta= 0.10
     Davidson diagonalization with overlap
     ethr =  5.25E-12,  avg # of iterations =  2.1

     total cpu time spent up to now is       49.6 secs

     End of self-consistent calculation

          k = 0.0000 0.0000 0.0000 (  6347 PWs)   bands (ev):

   -42.5930 -40.6177 -39.4599 -39.2895  -4.4240  -0.1544   2.1313   6.5979
     6.5979   8.8486   9.1261   9.1261   9.9942  10.5245

          k =-0.3073-0.1774 0.0557 (  6356 PWs)   bands (ev):

   -42.5917 -40.6150 -39.4585 -39.2903  -3.9558  -0.0479   2.5287   4.4054
     5.3723   7.3697   8.5209   8.5789  10.0833  10.7247

          k =-0.6146-0.3548 0.1114 (  6364 PWs)   bands (ev):

   -42.5894 -40.6106 -39.4562 -39.2915  -2.6492  -0.5623   2.4892   3.7165
     4.3371   5.1095   7.2163   7.5254   9.3483  10.5357

          k =-0.3073 0.1774 0.1114 (  6363 PWs)   bands (ev):

   -42.5918 -40.6150 -39.4585 -39.2903  -3.9519  -0.0988   2.6565   4.4172
     5.3298   7.0791   8.5282   8.8777   9.9521  11.4920

          k =-0.6146 0.0000 0.1671 (  6364 PWs)   bands (ev):

   -42.5899 -40.6115 -39.4567 -39.2913  -3.0479  -0.1442   2.9366   3.1470
     3.9451   5.8859   6.9244   8.4032   9.9650  11.4334

          k = 0.6146 0.7096-0.0557 (  6366 PWs)   bands (ev):

   -42.5888 -40.6093 -39.4556 -39.2919  -1.8157  -0.8863   1.9464   3.3519
     4.0102   5.2435   5.6226   7.8951  10.0548  11.1120

          k = 0.3073 0.5322 0.0000 (  6353 PWs)   bands (ev):

   -42.5899 -40.6115 -39.4567 -39.2913  -3.0606  -0.0723   2.9496   3.1430
     3.7697   5.7925   6.7340   8.9068  10.8699  11.1312

          k =-0.6146 0.3548 0.2227 (  6361 PWs)   bands (ev):

   -42.5895 -40.6107 -39.4562 -39.2916  -2.6410  -0.5506   2.2868   3.6528
     4.2614   5.6096   7.9966   8.0653   8.3588   9.9015

          k = 0.6146 1.0645 0.0000 (  6375 PWs)   bands (ev):

   -42.5889 -40.6093 -39.4556 -39.2919  -1.8183  -0.8473   1.8123   3.2439
     3.8153   5.9045   5.9798   8.3037   8.8517  10.6951

          k =-0.0000 0.0000 0.1671 (  6366 PWs)   bands (ev):

   -42.5931 -40.6177 -39.4599 -39.2895  -4.4132  -0.3277   2.5526   6.5977
     6.5977   7.4592   9.0438   9.0438  10.6832  10.6832

          k =-0.3073-0.1774 0.2227 (  6343 PWs)   bands (ev):

   -42.5916 -40.6150 -39.4584 -39.2903  -3.9385  -0.2501   3.0743   4.3580
     5.3767   7.1127   7.8730   8.5294   9.8395  11.0397

          k = 0.9218 0.5322 0.0000 (  6371 PWs)   bands (ev):

   -42.5895 -40.6107 -39.4562 -39.2915  -2.6278  -0.6160   2.3132   3.9703
     4.3180   5.6045   6.9457   7.6349   8.7289   9.8700

          k = 0.6146 0.3548 0.0557 (  6368 PWs)   bands (ev):

   -42.5895 -40.6107 -39.4562 -39.2916  -2.6571  -0.5214   2.4732   3.5415
     4.3005   5.1018   7.7539   7.7842   9.1515  10.5693

          k =-0.3073 0.1774 0.2784 (  6359 PWs)   bands (ev):

   -42.5917 -40.6151 -39.4585 -39.2903  -3.9319  -0.3157   3.3403   4.3327
     5.3088   6.6571   7.7792   9.0257  10.0181  11.4518

          k = 0.9218 0.8870 0.0557 (  6373 PWs)   bands (ev):

   -42.5899 -40.6115 -39.4567 -39.2913  -3.0268  -0.2539   2.9213   3.1367
     4.2526   6.2152   7.2365   7.5560   9.2142  10.8920

          k = 0.6146 0.7096 0.1114 (  6365 PWs)   bands (ev):

   -42.5888 -40.6093 -39.4556 -39.2919  -1.8174  -0.8623   1.8620   3.2725
     3.9043   5.5868   5.8529   8.2362   9.3024  10.3571

          k = 0.9218-0.5322-0.1671 (  6388 PWs)   bands (ev):

   -42.5896 -40.6107 -39.4563 -39.2916  -2.6226  -0.6099   2.2169   3.8666
     4.2715   6.1912   7.0406   7.9698   8.2072   9.7109

          k =-0.0000 0.0000 0.3341 (  6366 PWs)   bands (ev):

   -42.5933 -40.6178 -39.4599 -39.2897  -4.3953  -0.5501   3.3788   6.0412
     6.5976   6.5976   8.9312   8.9312  10.9515  10.9515

          k = 1.2291 0.7096 0.1114 (  6357 PWs)   bands (ev):

   -42.5919 -40.6151 -39.4585 -39.2904  -3.9235  -0.3938   3.7206   4.2374
     5.3364   6.3630   7.7601   8.7730  10.0143  10.9774

     the Fermi energy is     6.5704 ev

!    total energy              =     -73.98631978 Ry
     estimated scf accuracy    <          1.8E-10 Ry
     smearing contrib. (-TS)   =       0.00039568 Ry
     internal energy E=F+TS    =     -73.98671545 Ry

     The total energy is F=E-TS. E is the sum of the following terms:
     one-electron contribution =     -30.99931075 Ry
     hartree contribution      =      16.92019564 Ry
     xc contribution           =     -20.35977948 Ry
     ewald contribution        =     -39.54782086 Ry

     convergence has been achieved in  21 iterations

     Forces acting on atoms (cartesian axes, Ry/au):

     atom    1 type  1   force =    -0.00000000    0.00000000   -0.13009588
     atom    2 type  1   force =    -0.00000000    0.00000000   -0.07842043
     atom    3 type  2   force =    -0.00000000   -0.00000000   -0.11813190
     atom    4 type  2   force =    -0.00000000    0.00000000    0.14195155
     atom    5 type  2   force =    -0.00000000   -0.00000000    0.25965433
     atom    6 type  2   force =     0.00000000   -0.00000000   -0.07495768
     The non-local contrib.  to forces
     atom    1 type  1   force =    -0.00000000   -0.00000000    0.00641143
     atom    2 type  1   force =     0.00000000    0.00000000   -0.15130322
     atom    3 type  2   force =     0.00000000   -0.00000000    0.35679726
     atom    4 type  2   force =    -0.00000000    0.00000000   -0.33391984
     atom    5 type  2   force =    -0.00000000   -0.00000000   -0.04082942
     atom    6 type  2   force =    -0.00000000    0.00000000   -0.04690844
     The ionic contribution  to forces
     atom    1 type  1   force =    -0.00000000    0.00000000   -2.67056043
     atom    2 type  1   force =    -0.00000000   -0.00000000    0.51628448
     atom    3 type  2   force =    -0.00000000    0.00000000    0.32835487
     atom    4 type  2   force =     0.00000000    0.00000000    2.37319415
     atom    5 type  2   force =    -0.00000000    0.00000000    1.32329689
     atom    6 type  2   force =    -0.00000000   -0.00000000   -1.87056996
     The local contribution  to forces
     atom    1 type  1   force =     0.00000000   -0.00000000    2.53221761
     atom    2 type  1   force =    -0.00000000    0.00000000   -0.45145965
     atom    3 type  2   force =    -0.00000000    0.00000000   -0.80336614
     atom    4 type  2   force =     0.00000000    0.00000000   -1.89739463
     atom    5 type  2   force =    -0.00000000   -0.00000000   -1.02289020
     atom    6 type  2   force =    -0.00000000    0.00000000    1.84246488
     The core correction contribution to forces
     atom    1 type  1   force =     0.00000000    0.00000000    0.00178232
     atom    2 type  1   force =     0.00000000    0.00000000    0.00798119
     atom    3 type  2   force =     0.00000000    0.00000000    0.00000000
     atom    4 type  2   force =     0.00000000    0.00000000    0.00000000
     atom    5 type  2   force =     0.00000000    0.00000000    0.00000000
     atom    6 type  2   force =     0.00000000    0.00000000    0.00000000
     The Hubbard contrib.    to forces
     atom    1 type  1   force =     0.00000000    0.00000000    0.00000000
     atom    2 type  1   force =     0.00000000    0.00000000    0.00000000
     atom    3 type  2   force =     0.00000000    0.00000000    0.00000000
     atom    4 type  2   force =     0.00000000    0.00000000    0.00000000
     atom    5 type  2   force =     0.00000000    0.00000000    0.00000000
     atom    6 type  2   force =     0.00000000    0.00000000    0.00000000
     The SCF correction term to forces
     atom    1 type  1   force =     0.00000000    0.00000000   -0.00001520
     atom    2 type  1   force =     0.00000000    0.00000000    0.00000839
     atom    3 type  2   force =     0.00000000    0.00000000    0.00001372
     atom    4 type  2   force =     0.00000000    0.00000000    0.00000347
     atom    5 type  2   force =    -0.00000000    0.00000000    0.00000867
     atom    6 type  2   force =     0.00000000    0.00000000   -0.00001256

     Total force =     0.360859     Total SCF correction =     0.000027


     Computing stress (Cartesian axis) and pressure

          total   stress  (Ry/bohr**3)                   (kbar)     P=      398.03
   0.00244502  -0.00000000  -0.00000000          359.68       -0.00       -0.00
   0.00000000   0.00244502   0.00000000            0.00      359.68        0.00
   0.00000000   0.00000000   0.00322715            0.00        0.00      474.73

     Energy error            =      7.0E-01 Ry
     Gradient error          =      2.6E-01 Ry/Bohr
     Cell gradient error     =      1.4E+02 kbar

     number of scf cycles    =   3
     number of bfgs steps    =   2

     enthalpy           old  =     -71.7160635847 Ry
     enthalpy           new  =     -72.4148532607 Ry

     CASE: enthalpy          _new < enthalpy          _old

     new trust radius        =       0.4509176532 bohr
ibrav =      5
 celldm(1) =     12.75412518
 celldm(4) =      0.87377069
Input lattice vectors:
     0.31498211    -0.18185501     1.19986469
     0.00000000     0.36371001     1.19986469
    -0.31498211    -0.18185501     1.19986469
New lattice vectors in INITIAL alat:
     0.31498211    -0.18185501     1.19986469
     0.00000000     0.36371001     1.19986469
    -0.31498211    -0.18185501     1.19986469
New lattice vectors in NEW alat (for information only):
     0.25122630    -0.14504557     0.95699902
     0.00000000     0.29009115     0.95699902
    -0.25122630    -0.14504557     0.95699902
Discrepancy in bohr =     0.000000    0.000000    0.000000
     new conv_thr            =       0.0000000003 Ry

     new unit-cell volume =    434.09458 a.u.^3 (    64.32618 Ang^3 )
     density =      2.16673 g/cm^3

CELL_PARAMETERS (alat= 10.17255143)
   0.314982111  -0.181855007   1.199864693
   0.000000000   0.363710013   1.199864693
  -0.314982111  -0.181855007   1.199864693

ATOMIC_POSITIONS (crystal)
Si            0.4315610653        0.4315610653        0.4315610653
Si            0.8521634951        0.8521634951        0.8521634951
Li            0.2377916502        0.2377916502        0.2377916502
Li            0.3093734100        0.3093734100        0.3093734100
Li            0.5362323765        0.5362323765        0.5362323765
Li            0.7260090029        0.7260090029        0.7260090029



     Writing config-only to output data dir ./output/SiLi.save/
     NEW-OLD atomic charge density approx. for the potential
     extrapolated charge   18.69985, renormalised to   20.00000

     total cpu time spent up to now is       51.8 secs

     Self-consistent Calculation

     iteration #  1     ecut=   100.00 Ry     beta= 0.10
     Davidson diagonalization with overlap
     ethr =  1.00E-06,  avg # of iterations = 12.4

     total cpu time spent up to now is       54.3 secs

     total energy              =     -73.94001383 Ry
     estimated scf accuracy    <       0.16640172 Ry

     iteration #  2     ecut=   100.00 Ry     beta= 0.10
     Davidson diagonalization with overlap
     ethr =  8.32E-04,  avg # of iterations =  2.2

     total cpu time spent up to now is       55.1 secs

     total energy              =     -74.01864411 Ry
     estimated scf accuracy    <       0.07286149 Ry

     iteration #  3     ecut=   100.00 Ry     beta= 0.10
     Davidson diagonalization with overlap
     ethr =  3.64E-04,  avg # of iterations =  1.0

     total cpu time spent up to now is       55.8 secs

     total energy              =     -74.00240510 Ry
     estimated scf accuracy    <       0.03919579 Ry

     iteration #  4     ecut=   100.00 Ry     beta= 0.10
     Davidson diagonalization with overlap
     ethr =  1.96E-04,  avg # of iterations =  2.0

     total cpu time spent up to now is       56.5 secs

     total energy              =     -74.01414215 Ry
     estimated scf accuracy    <       0.01805578 Ry

     iteration #  5     ecut=   100.00 Ry     beta= 0.10
     Davidson diagonalization with overlap
     ethr =  9.03E-05,  avg # of iterations =  1.0

     total cpu time spent up to now is       57.2 secs

     total energy              =     -74.01104995 Ry
     estimated scf accuracy    <       0.01538745 Ry

     iteration #  6     ecut=   100.00 Ry     beta= 0.10
     Davidson diagonalization with overlap
     ethr =  7.69E-05,  avg # of iterations =  1.1

     total cpu time spent up to now is       57.9 secs

     total energy              =     -74.01102212 Ry
     estimated scf accuracy    <       0.00236089 Ry

     iteration #  7     ecut=   100.00 Ry     beta= 0.10
     Davidson diagonalization with overlap
     ethr =  1.18E-05,  avg # of iterations =  3.2

     total cpu time spent up to now is       58.7 secs

     total energy              =     -74.01152460 Ry
     estimated scf accuracy    <       0.00039323 Ry

     iteration #  8     ecut=   100.00 Ry     beta= 0.10
     Davidson diagonalization with overlap
     ethr =  1.97E-06,  avg # of iterations =  2.1

     total cpu time spent up to now is       59.5 secs

     total energy              =     -74.01161668 Ry
     estimated scf accuracy    <       0.00007079 Ry

     iteration #  9     ecut=   100.00 Ry     beta= 0.10
     Davidson diagonalization with overlap
     ethr =  3.54E-07,  avg # of iterations =  1.9

     total cpu time spent up to now is       60.2 secs

     total energy              =     -74.01160378 Ry
     estimated scf accuracy    <       0.00005243 Ry

     iteration # 10     ecut=   100.00 Ry     beta= 0.10
     Davidson diagonalization with overlap
     ethr =  2.62E-07,  avg # of iterations =  1.9

     total cpu time spent up to now is       60.9 secs

     total energy              =     -74.01161141 Ry
     estimated scf accuracy    <       0.00000118 Ry

     iteration # 11     ecut=   100.00 Ry     beta= 0.10
     Davidson diagonalization with overlap
     ethr =  5.91E-09,  avg # of iterations =  3.5

     total cpu time spent up to now is       61.8 secs

     total energy              =     -74.01161177 Ry
     estimated scf accuracy    <       0.00000340 Ry

     iteration # 12     ecut=   100.00 Ry     beta= 0.10
     Davidson diagonalization with overlap
     ethr =  5.91E-09,  avg # of iterations =  1.9

     total cpu time spent up to now is       62.6 secs

     total energy              =     -74.01161160 Ry
     estimated scf accuracy    <       0.00000080 Ry

     iteration # 13     ecut=   100.00 Ry     beta= 0.10
     Davidson diagonalization with overlap
     ethr =  4.02E-09,  avg # of iterations =  1.9

     total cpu time spent up to now is       63.3 secs

     total energy              =     -74.01161176 Ry
     estimated scf accuracy    <       0.00000002 Ry

     iteration # 14     ecut=   100.00 Ry     beta= 0.10
     Davidson diagonalization with overlap
     ethr =  9.12E-11,  avg # of iterations =  2.7

     total cpu time spent up to now is       64.1 secs

     total energy              =     -74.01161177 Ry
     estimated scf accuracy    <          1.6E-09 Ry

     iteration # 15     ecut=   100.00 Ry     beta= 0.10
     Davidson diagonalization with overlap
     ethr =  8.11E-12,  avg # of iterations =  2.5

     total cpu time spent up to now is       64.9 secs

     total energy              =     -74.01161177 Ry
     estimated scf accuracy    <          1.8E-09 Ry

     iteration # 16     ecut=   100.00 Ry     beta= 0.10
     Davidson diagonalization with overlap
     ethr =  8.11E-12,  avg # of iterations =  1.9

     total cpu time spent up to now is       65.6 secs

     End of self-consistent calculation

          k = 0.0000 0.0000 0.0000 (  6347 PWs)   bands (ev):

   -41.6585 -39.9106 -38.8931 -38.3710  -4.3714   0.4133   2.4771   7.7949
     7.7949   9.1039  10.0724  10.1092  10.1092  11.1996

          k =-0.3175-0.1833 0.0556 (  6356 PWs)   bands (ev):

   -41.6555 -39.9044 -38.8912 -38.3760  -3.8385   0.5392   2.8790   5.1301
     6.3550   7.9003   9.1111   9.2623  10.6188  11.2159

          k =-0.6350-0.3666 0.1111 (  6364 PWs)   bands (ev):

   -41.6505 -39.8942 -38.8880 -38.3839  -2.3377  -0.0208   3.0133   3.8132
     5.2126   5.6749   8.0930   8.1019   9.8100  11.1055

          k =-0.3175 0.1833 0.1111 (  6363 PWs)   bands (ev):

   -41.6556 -39.9044 -38.8913 -38.3760  -3.8355   0.4841   3.0201   5.1310
     6.3070   7.5360   9.2822   9.5362  10.3801  11.5052

          k =-0.6350 0.0000 0.1667 (  6364 PWs)   bands (ev):

   -41.6515 -39.8961 -38.8887 -38.3824  -2.8035   0.4605   3.4979   3.8373
     4.1675   6.4134   7.4303   9.1882  10.5446  12.0355

          k = 0.6350 0.7332-0.0556 (  6366 PWs)   bands (ev):

   -41.6491 -39.8910 -38.8871 -38.3864  -1.3300  -0.4424   2.5211   3.8191
     4.2111   5.6106   6.2753   8.7354  10.6853  11.6770

          k = 0.3175 0.5499 0.0000 (  6353 PWs)   bands (ev):

   -41.6516 -39.8962 -38.8887 -38.3824  -2.8143   0.5406   3.4394   3.8622
     4.0257   6.3361   7.2716   9.8283  11.3254  11.9249

          k =-0.6350 0.3666 0.2222 (  6361 PWs)   bands (ev):

   -41.6506 -39.8942 -38.8881 -38.3840  -2.3311  -0.0075   2.8001   3.8170
     5.1289   6.1407   8.5890   8.5967   9.1253  10.5387

          k = 0.6350 1.0998 0.0000 (  6375 PWs)   bands (ev):

   -41.6492 -39.8910 -38.8871 -38.3865  -1.3362  -0.3971   2.3658   3.6787
     4.1348   6.2410   6.5450   9.1293   9.4791  11.3613

          k =-0.0000 0.0000 0.1667 (  6366 PWs)   bands (ev):

   -41.6585 -39.9106 -38.8931 -38.3710  -4.3636   0.2349   2.9076   7.6706
     7.7935   7.7935  10.0231  10.0231  11.3476  11.3476

          k =-0.3175-0.1833 0.2222 (  6343 PWs)   bands (ev):

   -41.6554 -39.9044 -38.8911 -38.3759  -3.8254   0.3277   3.4466   5.0902
     6.3587   7.3693   8.5539   9.2296  10.5568  11.9659

          k = 0.9524 0.5499 0.0000 (  6371 PWs)   bands (ev):

   -41.6506 -39.8942 -38.8881 -38.3840  -2.3185  -0.0784   2.8257   4.0734
     5.1910   6.1908   7.7366   8.2065   9.1475  10.5001

          k = 0.6350 0.3666 0.0556 (  6368 PWs)   bands (ev):

   -41.6506 -39.8942 -38.8881 -38.3840  -2.3452   0.0239   3.0046   3.6592
     5.1721   5.6562   8.3117   8.6077   9.8353  11.0848

          k =-0.3175 0.1833 0.2778 (  6359 PWs)   bands (ev):

   -41.6555 -39.9044 -38.8912 -38.3760  -3.8204   0.2597   3.7416   5.0343
     6.2824   6.8793   8.5813   9.6879  10.6632  12.5456

          k = 0.9524 0.9165 0.0556 (  6373 PWs)   bands (ev):

   -41.6516 -39.8962 -38.8887 -38.3825  -2.7857   0.3412   3.5624   3.7851
     4.4523   6.6973   7.5840   8.3180   9.9736  11.5766

          k = 0.6350 0.7332 0.1111 (  6365 PWs)   bands (ev):

   -41.6491 -39.8910 -38.8871 -38.3864  -1.3339  -0.4145   2.4229   3.7196
     4.1785   5.9626   6.4379   9.0825   9.8734  11.0159

          k = 0.9524-0.5499-0.1667 (  6388 PWs)   bands (ev):

   -41.6507 -39.8942 -38.8881 -38.3840  -2.3143  -0.0712   2.7314   4.0179
     5.1398   6.7972   7.5386   8.5094   8.9117  10.3325

          k =-0.0000 0.0000 0.3334 (  6366 PWs)   bands (ev):

   -41.6587 -39.9107 -38.8932 -38.3712  -4.3508   0.0127   3.7542   6.2398
     7.7915   7.7915   9.9089   9.9089  11.5848  11.5848

          k = 1.2699 0.7332 0.1111 (  6357 PWs)   bands (ev):

   -41.6557 -39.9044 -38.8913 -38.3761  -3.8140   0.1812   4.1238   4.9603
     6.3125   6.5411   8.5183   9.4701  10.7175  11.8838

     the Fermi energy is     7.0020 ev

!    total energy              =     -74.01161177 Ry
     estimated scf accuracy    <          1.6E-10 Ry
     smearing contrib. (-TS)   =       0.00189251 Ry
     internal energy E=F+TS    =     -74.01350427 Ry

     The total energy is F=E-TS. E is the sum of the following terms:
     one-electron contribution =     -28.52490613 Ry
     hartree contribution      =      16.17629553 Ry
     xc contribution           =     -20.43797467 Ry
     ewald contribution        =     -41.22691900 Ry

     convergence has been achieved in  16 iterations

     Forces acting on atoms (cartesian axes, Ry/au):

     atom    1 type  1   force =    -0.00000000   -0.00000000    0.07948634
     atom    2 type  1   force =     0.00000000   -0.00000000   -0.13621852
     atom    3 type  2   force =    -0.00000000    0.00000000   -0.07354689
     atom    4 type  2   force =     0.00000000    0.00000000    0.12371330
     atom    5 type  2   force =    -0.00000000   -0.00000000    0.10454122
     atom    6 type  2   force =     0.00000000    0.00000000   -0.09797544
     The non-local contrib.  to forces
     atom    1 type  1   force =    -0.00000000   -0.00000000    0.15221008
     atom    2 type  1   force =    -0.00000000    0.00000000   -0.20290358
     atom    3 type  2   force =    -0.00000000   -0.00000000    0.33749562
     atom    4 type  2   force =     0.00000000    0.00000000   -0.29850842
     atom    5 type  2   force =     0.00000000   -0.00000000    0.01265783
     atom    6 type  2   force =    -0.00000000    0.00000000   -0.05601101
     The ionic contribution  to forces
     atom    1 type  1   force =     0.00000000    0.00000000   -1.94773427
     atom    2 type  1   force =     0.00000000   -0.00000000   -0.25918440
     atom    3 type  2   force =    -0.00000000    0.00000000    0.42390309
     atom    4 type  2   force =    -0.00000000    0.00000000    2.40973389
     atom    5 type  2   force =    -0.00000000    0.00000000    1.02817328
     atom    6 type  2   force =    -0.00000000   -0.00000000   -1.65489161
     The local contribution  to forces
     atom    1 type  1   force =     0.00000000   -0.00000000    1.88204424
     atom    2 type  1   force =    -0.00000000    0.00000000    0.31446300
     atom    3 type  2   force =     0.00000000    0.00000000   -0.83499634
     atom    4 type  2   force =     0.00000000    0.00000000   -1.98756399
     atom    5 type  2   force =    -0.00000000   -0.00000000   -0.93634059
     atom    6 type  2   force =    -0.00000000    0.00000000    1.61285720
     The core correction contribution to forces
     atom    1 type  1   force =    -0.00000000   -0.00000000   -0.00711069
     atom    2 type  1   force =     0.00000000    0.00000000    0.01134965
     atom    3 type  2   force =     0.00000000    0.00000000    0.00000000
     atom    4 type  2   force =     0.00000000    0.00000000    0.00000000
     atom    5 type  2   force =     0.00000000    0.00000000    0.00000000
     atom    6 type  2   force =     0.00000000    0.00000000    0.00000000
     The Hubbard contrib.    to forces
     atom    1 type  1   force =     0.00000000    0.00000000    0.00000000
     atom    2 type  1   force =     0.00000000    0.00000000    0.00000000
     atom    3 type  2   force =     0.00000000    0.00000000    0.00000000
     atom    4 type  2   force =     0.00000000    0.00000000    0.00000000
     atom    5 type  2   force =     0.00000000    0.00000000    0.00000000
     atom    6 type  2   force =     0.00000000    0.00000000    0.00000000
     The SCF correction term to forces
     atom    1 type  1   force =    -0.00000000   -0.00000000    0.00001694
     atom    2 type  1   force =     0.00000000   -0.00000000   -0.00000322
     atom    3 type  2   force =    -0.00000000   -0.00000000   -0.00000930
     atom    4 type  2   force =     0.00000000    0.00000000   -0.00000821
     atom    5 type  2   force =    -0.00000000    0.00000000   -0.00000933
     atom    6 type  2   force =    -0.00000000    0.00000000    0.00000993

     Total force =     0.257130     Total SCF correction =     0.000025


     Computing stress (Cartesian axis) and pressure

          total   stress  (Ry/bohr**3)                   (kbar)     P=      439.89
   0.00324024   0.00000000   0.00000000          476.66        0.00        0.00
   0.00000000   0.00324024   0.00000000            0.00      476.66        0.00
   0.00000000   0.00000000   0.00249052            0.00        0.00      366.37

     Energy error            =      1.2E-01 Ry
     Gradient error          =      1.4E-01 Ry/Bohr
     Cell gradient error     =      1.3E+02 kbar

     number of scf cycles    =   4
     number of bfgs steps    =   3

     enthalpy           old  =     -72.4148532607 Ry
     enthalpy           new  =     -72.5361542886 Ry

     CASE: enthalpy          _new < enthalpy          _old

     new trust radius        =       0.7926061824 bohr
ibrav =      5
 celldm(1) =     12.43717457
 celldm(4) =      0.87901706
Input lattice vectors:
     0.30070379    -0.17361142     1.17227911
    -0.00000000     0.34722283     1.17227911
    -0.30070379    -0.17361142     1.17227911
New lattice vectors in INITIAL alat:
     0.30070379    -0.17361142     1.17227911
     0.00000000     0.34722283     1.17227911
    -0.30070379    -0.17361142     1.17227911
New lattice vectors in NEW alat (for information only):
     0.24595014    -0.14199938     0.95882465
     0.00000000     0.28399876     0.95882465
    -0.24595014    -0.14199938     0.95882465
Discrepancy in bohr =     0.000000    0.000000    0.000000
     new conv_thr            =       0.0000000001 Ry

     new unit-cell volume =    386.53528 a.u.^3 (    57.27862 Ang^3 )
     density =      2.43332 g/cm^3

CELL_PARAMETERS (alat= 10.17255143)
   0.300703793  -0.173611416   1.172279110
   0.000000000   0.347222832   1.172279110
  -0.300703793  -0.173611416   1.172279110

ATOMIC_POSITIONS (crystal)
Si            0.4371049708        0.4371049708        0.4371049708
Si            0.8385294966        0.8385294966        0.8385294966
Li            0.2342546048        0.2342546048        0.2342546048
Li            0.3113827117        0.3113827117        0.3113827117
Li            0.5578781960        0.5578781960        0.5578781960
Li            0.7139810202        0.7139810202        0.7139810202



     Writing config-only to output data dir ./output/SiLi.save/
     NEW-OLD atomic charge density approx. for the potential

     negative rho (up, down):  4.196E-02 0.000E+00
     extrapolated charge   17.54160, renormalised to   20.00000

     total cpu time spent up to now is       67.8 secs

     Self-consistent Calculation

     iteration #  1     ecut=   100.00 Ry     beta= 0.10
     Davidson diagonalization with overlap
     c_bands:  1 eigenvalues not converged
     c_bands:  1 eigenvalues not converged
     ethr =  1.00E-06,  avg # of iterations = 14.1

     negative rho (up, down):  3.634E-02 0.000E+00

     total cpu time spent up to now is       70.7 secs

     total energy              =     -73.92007607 Ry
     estimated scf accuracy    <       0.33369353 Ry

     iteration #  2     ecut=   100.00 Ry     beta= 0.10
     Davidson diagonalization with overlap
     ethr =  1.67E-03,  avg # of iterations =  2.2

     negative rho (up, down):  3.181E-02 0.000E+00

     total cpu time spent up to now is       71.6 secs

     total energy              =     -74.10934201 Ry
     estimated scf accuracy    <       0.29883447 Ry

     iteration #  3     ecut=   100.00 Ry     beta= 0.10
     Davidson diagonalization with overlap
     ethr =  1.49E-03,  avg # of iterations =  1.0

     negative rho (up, down):  5.705E-03 0.000E+00

     total cpu time spent up to now is       72.3 secs

     total energy              =     -74.00784448 Ry
     estimated scf accuracy    <       0.21487461 Ry

     iteration #  4     ecut=   100.00 Ry     beta= 0.10
     Davidson diagonalization with overlap
     ethr =  1.07E-03,  avg # of iterations =  2.0

     total cpu time spent up to now is       73.0 secs

     total energy              =     -74.06171244 Ry
     estimated scf accuracy    <       0.11847694 Ry

     iteration #  5     ecut=   100.00 Ry     beta= 0.10
     Davidson diagonalization with overlap
     ethr =  5.92E-04,  avg # of iterations =  1.0

     total cpu time spent up to now is       73.7 secs

     total energy              =     -74.04517134 Ry
     estimated scf accuracy    <       0.12080076 Ry

     iteration #  6     ecut=   100.00 Ry     beta= 0.10
     Davidson diagonalization with overlap
     ethr =  5.92E-04,  avg # of iterations =  1.0

     total cpu time spent up to now is       74.4 secs

     total energy              =     -74.03556904 Ry
     estimated scf accuracy    <       0.03783369 Ry

     iteration #  7     ecut=   100.00 Ry     beta= 0.10
     Davidson diagonalization with overlap
     ethr =  1.89E-04,  avg # of iterations =  2.0

     total cpu time spent up to now is       75.1 secs

     total energy              =     -74.04251778 Ry
     estimated scf accuracy    <       0.00097428 Ry

     iteration #  8     ecut=   100.00 Ry     beta= 0.10
     Davidson diagonalization with overlap
     ethr =  4.87E-06,  avg # of iterations =  2.4

     total cpu time spent up to now is       75.9 secs

     total energy              =     -74.04283295 Ry
     estimated scf accuracy    <       0.00060049 Ry

     iteration #  9     ecut=   100.00 Ry     beta= 0.10
     Davidson diagonalization with overlap
     ethr =  3.00E-06,  avg # of iterations =  1.7

     total cpu time spent up to now is       76.6 secs

     total energy              =     -74.04282788 Ry
     estimated scf accuracy    <       0.00020787 Ry

     iteration # 10     ecut=   100.00 Ry     beta= 0.10
     Davidson diagonalization with overlap
     ethr =  1.04E-06,  avg # of iterations =  1.5

     total cpu time spent up to now is       77.3 secs

     total energy              =     -74.04281955 Ry
     estimated scf accuracy    <       0.00004557 Ry

     iteration # 11     ecut=   100.00 Ry     beta= 0.10
     Davidson diagonalization with overlap
     ethr =  2.28E-07,  avg # of iterations =  2.1

     total cpu time spent up to now is       78.0 secs

     total energy              =     -74.04283317 Ry
     estimated scf accuracy    <       0.00001450 Ry

     iteration # 12     ecut=   100.00 Ry     beta= 0.10
     Davidson diagonalization with overlap
     ethr =  7.25E-08,  avg # of iterations =  1.3

     total cpu time spent up to now is       78.7 secs

     total energy              =     -74.04283389 Ry
     estimated scf accuracy    <       0.00000225 Ry

     iteration # 13     ecut=   100.00 Ry     beta= 0.10
     Davidson diagonalization with overlap
     ethr =  1.13E-08,  avg # of iterations =  1.9

     total cpu time spent up to now is       79.4 secs

     total energy              =     -74.04283402 Ry
     estimated scf accuracy    <       0.00000059 Ry

     iteration # 14     ecut=   100.00 Ry     beta= 0.10
     Davidson diagonalization with overlap
     ethr =  2.94E-09,  avg # of iterations =  1.9

     total cpu time spent up to now is       80.1 secs

     total energy              =     -74.04283406 Ry
     estimated scf accuracy    <       0.00000014 Ry

     iteration # 15     ecut=   100.00 Ry     beta= 0.10
     Davidson diagonalization with overlap
     ethr =  7.14E-10,  avg # of iterations =  1.9

     total cpu time spent up to now is       80.8 secs

     total energy              =     -74.04283405 Ry
     estimated scf accuracy    <       0.00000004 Ry

     iteration # 16     ecut=   100.00 Ry     beta= 0.10
     Davidson diagonalization with overlap
     ethr =  2.07E-10,  avg # of iterations =  2.6

     total cpu time spent up to now is       81.5 secs

     total energy              =     -74.04283405 Ry
     estimated scf accuracy    <       0.00000004 Ry

     iteration # 17     ecut=   100.00 Ry     beta= 0.10
     Davidson diagonalization with overlap
     ethr =  2.00E-10,  avg # of iterations =  1.9

     total cpu time spent up to now is       82.2 secs

     total energy              =     -74.04283406 Ry
     estimated scf accuracy    <          5.7E-10 Ry

     iteration # 18     ecut=   100.00 Ry     beta= 0.10
     Davidson diagonalization with overlap
     ethr =  2.84E-12,  avg # of iterations =  3.4

     total cpu time spent up to now is       83.0 secs

     total energy              =     -74.04283406 Ry
     estimated scf accuracy    <          2.8E-10 Ry

     iteration # 19     ecut=   100.00 Ry     beta= 0.10
     Davidson diagonalization with overlap
     ethr =  1.40E-12,  avg # of iterations =  1.9

     total cpu time spent up to now is       83.7 secs

     total energy              =     -74.04283406 Ry
     estimated scf accuracy    <          1.6E-10 Ry

     iteration # 20     ecut=   100.00 Ry     beta= 0.10
     Davidson diagonalization with overlap
     ethr =  7.95E-13,  avg # of iterations =  1.9

     total cpu time spent up to now is       84.4 secs

     End of self-consistent calculation

          k = 0.0000 0.0000 0.0000 (  6347 PWs)   bands (ev):

   -40.1987 -38.5808 -37.7809 -37.2826  -5.0291   1.5060   4.2044   9.0580
     9.0580   9.4786  11.2801  11.5375  11.5375  13.5162

          k =-0.3326-0.1920 0.0569 (  6356 PWs)   bands (ev):

   -40.1785 -38.5695 -37.8077 -37.2810  -4.3715   1.8573   4.4469   5.4936
     7.4320   9.1496  10.4460  11.1720  11.6524  13.0057

          k =-0.6651-0.3840 0.1137 (  6364 PWs)   bands (ev):

   -40.1452 -38.5494 -37.8533 -37.2782  -2.4801   0.8268   3.4287   4.8949
     6.1810   7.4404   9.7169   9.8309  10.6158  11.7823

          k =-0.3326 0.1920 0.1137 (  6363 PWs)   bands (ev):

   -40.1785 -38.5696 -37.8077 -37.2810  -4.3705   1.8212   4.5779   5.4876
     7.3952   8.7379  10.9752  11.1256  11.4840  13.1927

          k =-0.6651 0.0000 0.1706 (  6364 PWs)   bands (ev):

   -40.1516 -38.5535 -37.8443 -37.2787  -3.0833   1.9522   3.7480   4.4060
     5.1398   7.9543   9.1436  10.9475  12.1487  13.5136

          k = 0.6651 0.7680-0.0569 (  6366 PWs)   bands (ev):

   -40.1348 -38.5427 -37.8680 -37.2773  -1.0879  -0.0096   3.1767   4.1813
     5.0214   7.2081   8.3202  10.3882  12.1363  13.1784

          k = 0.3326 0.5760 0.0000 (  6353 PWs)   bands (ev):

   -40.1516 -38.5535 -37.8443 -37.2787  -3.0875   2.0212   3.7948   4.4260
     4.8450   8.0017   9.0820  11.5565  12.6803  13.1005

          k =-0.6651 0.3840 0.2275 (  6361 PWs)   bands (ev):

   -40.1452 -38.5495 -37.8533 -37.2782  -2.4779   0.8511   3.3190   4.8685
     6.1143   7.6858  10.1055  10.4046  10.5273  11.7170

          k = 0.6651 1.1520 0.0000 (  6375 PWs)   bands (ev):

   -40.1348 -38.5428 -37.8680 -37.2773  -1.0923   0.0224   3.0579   4.2194
     4.8619   7.8198   8.4252  10.7790  11.3305  12.2609

          k =-0.0000 0.0000 0.1706 (  6366 PWs)   bands (ev):

   -40.1987 -38.5808 -37.7809 -37.2827  -5.0267   1.4107   4.5627   8.3949
     9.0524   9.0524  11.5060  11.5060  12.3897  13.6366

          k =-0.3326-0.1920 0.2275 (  6343 PWs)   bands (ev):

   -40.1784 -38.5695 -37.8076 -37.2809  -4.3671   1.7084   4.9298   5.5657
     7.4328   8.1316  10.5080  11.1537  11.8308  13.4566

          k = 0.9977 0.5760 0.0000 (  6371 PWs)   bands (ev):

   -40.1452 -38.5495 -37.8533 -37.2782  -2.4721   0.7989   3.2929   5.1918
     6.1637   7.6361   9.5137   9.9515  10.4669  11.0237

          k = 0.6651 0.3840 0.0569 (  6368 PWs)   bands (ev):

   -40.1452 -38.5495 -37.8533 -37.2782  -2.4837   0.8592   3.4597   4.6942
     6.1493   7.4643   9.9383  10.0659  11.0651  12.0197

          k =-0.3326 0.1920 0.2843 (  6359 PWs)   bands (ev):

   -40.1784 -38.5696 -37.8077 -37.2810  -4.3656   1.6610   5.2088   5.5688
     7.3741   7.6298  10.6704  11.4822  11.6968  14.1866

          k = 0.9977 0.9600 0.0569 (  6373 PWs)   bands (ev):

   -40.1516 -38.5535 -37.8443 -37.2787  -3.0765   1.8497   3.7013   4.3829
     5.6481   7.8223   9.0848  10.4510  11.9176  12.8546

          k = 0.6651 0.7680 0.1137 (  6365 PWs)   bands (ev):

   -40.1348 -38.5428 -37.8680 -37.2773  -1.0906   0.0101   3.1019   4.2035
     4.9230   7.5530   8.3944  10.7030  11.6291  12.2960

          k = 0.9977-0.5760-0.1706 (  6388 PWs)   bands (ev):

   -40.1452 -38.5495 -37.8533 -37.2782  -2.4708   0.8133   3.2360   5.1472
     6.1227   7.8733   9.6261  10.3097  10.3929  10.9408

          k =-0.0000 0.0000 0.3412 (  6366 PWs)   bands (ev):

   -40.1987 -38.5810 -37.7810 -37.2827  -5.0228   1.2784   5.4341   6.9603
     9.0435   9.0435  11.4566  11.4566  13.8894  13.8894

          k = 1.3302 0.7680 0.1137 (  6357 PWs)   bands (ev):

   -40.1785 -38.5697 -37.8077 -37.2810  -4.3635   1.6022   5.3100   5.9839
     7.0188   7.3964  10.5833  11.4425  11.8149  13.4514

     the Fermi energy is     8.4920 ev

!    total energy              =     -74.04283406 Ry
     estimated scf accuracy    <          1.2E-11 Ry
     smearing contrib. (-TS)   =       0.00022600 Ry
     internal energy E=F+TS    =     -74.04306006 Ry

     The total energy is F=E-TS. E is the sum of the following terms:
     one-electron contribution =     -23.31147143 Ry
     hartree contribution      =      14.42370136 Ry
     xc contribution           =     -20.64815586 Ry
     ewald contribution        =     -44.50713413 Ry

     convergence has been achieved in  20 iterations

     Forces acting on atoms (cartesian axes, Ry/au):

     atom    1 type  1   force =     0.00000000   -0.00000000    0.02841189
     atom    2 type  1   force =    -0.00000000   -0.00000000   -0.07384891
     atom    3 type  2   force =     0.00000000    0.00000000   -0.03453139
     atom    4 type  2   force =    -0.00000000   -0.00000000    0.11384388
     atom    5 type  2   force =    -0.00000000    0.00000000    0.03792777
[...]
               b(3) = ( -1.495509 -0.863432  0.362130 )  


     PseudoPot. # 1 for Si read from file:
     ../pseudo/Si_ONCV_PBE_sr.upf
     MD5 check sum: e543d271109d17c80368dfa7c482276d
     Pseudo is Norm-conserving + core correction, Zval =  4.0
     Generated using ONCVPSP code by D. R. Hamann
     Using radial grid of 1510 points,  6 beta functions with: 
                l(1) =   0
                l(2) =   0
                l(3) =   1
                l(4) =   1
                l(5) =   2
                l(6) =   2

     PseudoPot. # 2 for Li read from file:
     ../pseudo/Li_ONCV_PBE_sr.upf
     MD5 check sum: 50ff420e78310ffa21704f3361e624a4
     Pseudo is Norm-conserving, Zval =  3.0
     Generated using ONCVPSP code by D. R. Hamann
     Using radial grid of 1944 points,  4 beta functions with: 
                l(1) =   0
                l(2) =   0
                l(3) =   1
                l(4) =   1

     atomic species   valence    mass     pseudopotential
        Si             4.00    28.08550     Si( 1.00)
        Li             3.00     6.94100     Li( 1.00)

      6 Sym. Ops. (no inversion) found



   Cartesian axes

     site n.     atom                  positions (alat units)
         1           Si  tau(   1) = (   0.0000000  -0.0000000   1.2272110  )
         2           Si  tau(   2) = (   0.0000000  -0.0000000   2.4365296  )
         3           Li  tau(   3) = (   0.0000000  -0.0000000   0.4173003  )
         4           Li  tau(   4) = (  -0.0000000  -0.0000000   0.8317013  )
         5           Li  tau(   5) = (   0.0000000  -0.0000000   1.6339890  )
         6           Li  tau(   6) = (   0.0000000  -0.0000000   1.9947545  )

     number of k points=    19  Marzari-Vanderbilt smearing, width (Ry)=  0.0200
                       cart. coord. in units 2pi/alat
        k(    1) = (   0.0000000   0.0000000   0.0000000), wk =   0.0160000
        k(    2) = (  -0.2991018  -0.1726865   0.0724261), wk =   0.0960000
        k(    3) = (  -0.5982036  -0.3453730   0.1448521), wk =   0.0960000
        k(    4) = (  -0.2991018   0.1726865   0.1448521), wk =   0.0960000
        k(    5) = (  -0.5982036   0.0000000   0.2172782), wk =   0.1920000
        k(    6) = (   0.5982036   0.6907460  -0.0724261), wk =   0.1920000
        k(    7) = (   0.2991018   0.5180595   0.0000000), wk =   0.0960000
        k(    8) = (  -0.5982036   0.3453730   0.2897043), wk =   0.0960000
        k(    9) = (   0.5982036   1.0361190   0.0000000), wk =   0.0960000
        k(   10) = (  -0.0000000  -0.0000000   0.2172782), wk =   0.0320000
        k(   11) = (  -0.2991018  -0.1726865   0.2897043), wk =   0.0960000
        k(   12) = (   0.8973053   0.5180595   0.0000000), wk =   0.0960000
        k(   13) = (   0.5982036   0.3453730   0.0724261), wk =   0.0960000
        k(   14) = (  -0.2991018   0.1726865   0.3621303), wk =   0.0960000
        k(   15) = (   0.8973053   0.8634325   0.0724261), wk =   0.1920000
        k(   16) = (   0.5982036   0.6907460   0.1448521), wk =   0.1920000
        k(   17) = (   0.8973053  -0.5180595  -0.2172782), wk =   0.0960000
        k(   18) = (  -0.0000000  -0.0000000   0.4345564), wk =   0.0320000
        k(   19) = (   1.1964071   0.6907460   0.1448521), wk =   0.0960000

     Dense  grid:    50705 G-vectors     FFT dimensions: (  72,  72,  72)

     Estimated max dynamical RAM per process >      23.91 MB

     Estimated total dynamical RAM >     191.24 MB

     Initial potential from superposition of free atoms

     starting charge      19.9805, renormalised to      20.0000
     Starting wfcs are   16 randomized atomic wfcs

     total cpu time spent up to now is      568.2 secs

     Self-consistent Calculation

     iteration #  1     ecut=   100.00 Ry     beta= 0.10
     Davidson diagonalization with overlap
     c_bands:  1 eigenvalues not converged
     c_bands:  1 eigenvalues not converged
     c_bands:  1 eigenvalues not converged
     c_bands:  1 eigenvalues not converged
     ethr =  1.00E-06,  avg # of iterations = 17.5

     total cpu time spent up to now is      570.7 secs

     total energy              =     -74.25371595 Ry
     estimated scf accuracy    <       0.04284877 Ry

     iteration #  2     ecut=   100.00 Ry     beta= 0.10
     Davidson diagonalization with overlap
     ethr =  2.14E-04,  avg # of iterations =  1.0

     total cpu time spent up to now is      571.3 secs

     total energy              =     -74.24444894 Ry
     estimated scf accuracy    <       0.02925209 Ry

     iteration #  3     ecut=   100.00 Ry     beta= 0.10
     Davidson diagonalization with overlap
     ethr =  1.46E-04,  avg # of iterations =  1.6

     total cpu time spent up to now is      571.9 secs

     total energy              =     -74.24494325 Ry
     estimated scf accuracy    <       0.00640828 Ry

     iteration #  4     ecut=   100.00 Ry     beta= 0.10
     Davidson diagonalization with overlap
     ethr =  3.20E-05,  avg # of iterations =  1.9

     total cpu time spent up to now is      572.5 secs

     total energy              =     -74.24550804 Ry
     estimated scf accuracy    <       0.00047863 Ry

     iteration #  5     ecut=   100.00 Ry     beta= 0.10
     Davidson diagonalization with overlap
     ethr =  2.39E-06,  avg # of iterations =  2.5

     total cpu time spent up to now is      573.1 secs

     total energy              =     -74.24546609 Ry
     estimated scf accuracy    <       0.00046825 Ry

     iteration #  6     ecut=   100.00 Ry     beta= 0.10
     Davidson diagonalization with overlap
     ethr =  2.34E-06,  avg # of iterations =  1.0

     total cpu time spent up to now is      573.7 secs

     total energy              =     -74.24536924 Ry
     estimated scf accuracy    <       0.00030492 Ry

     iteration #  7     ecut=   100.00 Ry     beta= 0.10
     Davidson diagonalization with overlap
     ethr =  1.52E-06,  avg # of iterations =  2.0

     total cpu time spent up to now is      574.4 secs

     total energy              =     -74.24540237 Ry
     estimated scf accuracy    <       0.00003341 Ry

     iteration #  8     ecut=   100.00 Ry     beta= 0.10
     Davidson diagonalization with overlap
     ethr =  1.67E-07,  avg # of iterations =  1.1

     total cpu time spent up to now is      575.0 secs

     total energy              =     -74.24539581 Ry
     estimated scf accuracy    <       0.00001769 Ry

     iteration #  9     ecut=   100.00 Ry     beta= 0.10
     Davidson diagonalization with overlap
     ethr =  8.84E-08,  avg # of iterations =  2.0

     total cpu time spent up to now is      575.7 secs

     total energy              =     -74.24539948 Ry
     estimated scf accuracy    <       0.00000495 Ry

     iteration # 10     ecut=   100.00 Ry     beta= 0.10
     Davidson diagonalization with overlap
     ethr =  2.48E-08,  avg # of iterations =  2.1

     total cpu time spent up to now is      576.4 secs

     total energy              =     -74.24539957 Ry
     estimated scf accuracy    <       0.00000582 Ry

     iteration # 11     ecut=   100.00 Ry     beta= 0.10
     Davidson diagonalization with overlap
     ethr =  2.48E-08,  avg # of iterations =  2.0

     total cpu time spent up to now is      577.1 secs

     total energy              =     -74.24540049 Ry
     estimated scf accuracy    <       0.00000009 Ry

     iteration # 12     ecut=   100.00 Ry     beta= 0.10
     Davidson diagonalization with overlap
     ethr =  4.55E-10,  avg # of iterations =  3.1

     total cpu time spent up to now is      577.8 secs

     total energy              =     -74.24540044 Ry
     estimated scf accuracy    <       0.00000026 Ry

     iteration # 13     ecut=   100.00 Ry     beta= 0.10
     Davidson diagonalization with overlap
     ethr =  4.55E-10,  avg # of iterations =  2.2

     total cpu time spent up to now is      578.5 secs

     total energy              =     -74.24540049 Ry
     estimated scf accuracy    <          3.6E-09 Ry

     iteration # 14     ecut=   100.00 Ry     beta= 0.10
     Davidson diagonalization with overlap
     ethr =  1.78E-11,  avg # of iterations =  2.5

     total cpu time spent up to now is      579.3 secs

     total energy              =     -74.24540048 Ry
     estimated scf accuracy    <          5.9E-09 Ry

     iteration # 15     ecut=   100.00 Ry     beta= 0.10
     Davidson diagonalization with overlap
     ethr =  1.78E-11,  avg # of iterations =  2.3

     total cpu time spent up to now is      580.1 secs

     total energy              =     -74.24540048 Ry
     estimated scf accuracy    <          3.5E-09 Ry

     iteration # 16     ecut=   100.00 Ry     beta= 0.10
     Davidson diagonalization with overlap
     ethr =  1.75E-11,  avg # of iterations =  2.0

     total cpu time spent up to now is      580.7 secs

     total energy              =     -74.24540049 Ry
     estimated scf accuracy    <          2.0E-11 Ry

     iteration # 17     ecut=   100.00 Ry     beta= 0.10
     Davidson diagonalization with overlap
     ethr =  1.00E-13,  avg # of iterations =  3.6

     total cpu time spent up to now is      581.5 secs

     total energy              =     -74.24540049 Ry
     estimated scf accuracy    <          1.7E-11 Ry

     iteration # 18     ecut=   100.00 Ry     beta= 0.10
     Davidson diagonalization with overlap
     ethr =  1.00E-13,  avg # of iterations =  1.1

     total cpu time spent up to now is      582.1 secs

     End of self-consistent calculation

          k = 0.0000 0.0000 0.0000 (  6335 PWs)   bands (ev):

   -37.5500 -37.2564 -37.1363 -36.8076  -2.9998   2.3652   4.4576   7.9662
     7.9662   9.5518   9.5518  11.5553  11.5553  11.7752

          k =-0.2991-0.1727 0.0724 (  6318 PWs)   bands (ev):

   -37.5363 -37.2562 -37.1378 -36.8163  -2.6118   2.3968   4.7230   5.4084
     6.4778   9.2440   9.7397  10.3514  12.3341  13.0413

          k =-0.5982-0.3454 0.1449 (  6339 PWs)   bands (ev):

   -37.5130 -37.2567 -37.1404 -36.8307  -1.5317   1.0992   4.4235   5.4371
     5.7104   7.3170   8.5690   9.2815  12.3096  13.9018

          k =-0.2991 0.1727 0.1449 (  6334 PWs)   bands (ev):

   -37.5357 -37.2576 -37.1371 -36.8163  -2.6001   2.2470   4.8501   5.6551
     6.2438   8.6270  10.5704  10.6231  12.5798  13.4349

          k =-0.5982 0.0000 0.2173 (  6335 PWs)   bands (ev):

   -37.5172 -37.2568 -37.1399 -36.8280  -1.8273   1.6959   4.1286   4.6612
     5.9323   7.9504   8.9077  11.3313  12.8874  13.4067

          k = 0.5982 0.6907-0.0724 (  6324 PWs)   bands (ev):

   -37.5060 -37.2551 -37.1424 -36.8355  -0.7736   0.3960   4.0339   4.7665
     5.7411   6.7545   8.3317  10.8084  13.3964  14.6514

          k = 0.2991 0.5181 0.0000 (  6327 PWs)   bands (ev):

   -37.5184 -37.2544 -37.1411 -36.8280  -1.8709   1.9090   4.4410   4.6251
     5.4686   7.7284   8.2735  11.7061  13.2129  13.8816

          k =-0.5982 0.3454 0.2897 (  6346 PWs)   bands (ev):

   -37.5130 -37.2551 -37.1417 -36.8311  -1.5385   1.3640   3.7680   5.0410
     5.1457   8.1831  10.4965  10.5119  12.0693  13.1769

          k = 0.5982 1.0361 0.0000 (  6345 PWs)   bands (ev):

   -37.5060 -37.2540 -37.1433 -36.8357  -0.8064   0.5718   3.7424   4.3985
     5.1192   8.1263   9.2062  11.7432  12.4850  12.7925

          k =-0.0000-0.0000 0.2173 (  6336 PWs)   bands (ev):

   -37.5469 -37.2638 -37.1322 -36.8074  -2.9602   1.7763   5.5208   7.9145
     7.9145   9.4293   9.4293  11.6162  11.8086  11.8086

          k =-0.2991-0.1727 0.2897 (  6316 PWs)   bands (ev):

   -37.5329 -37.2642 -37.1335 -36.8161  -2.5471   1.7018   5.0668   6.3371
     6.4773   9.6702   9.7174  10.6182  12.0129  12.2094

          k = 0.8973 0.5181 0.0000 (  6328 PWs)   bands (ev):

   -37.5118 -37.2588 -37.1394 -36.8308  -1.4643   0.9554   3.9182   5.3182
     6.1845   8.3903   8.9501   9.0682  11.9525  13.1937

          k = 0.5982 0.3454 0.0724 (  6338 PWs)   bands (ev):

   -37.5137 -37.2544 -37.1418 -36.8309  -1.5741   1.3465   4.4389   4.9788
     5.2320   7.2549   9.2904  10.0046  12.7839  14.2872

          k =-0.2991 0.1727 0.3621 (  6335 PWs)   bands (ev):

   -37.5317 -37.2664 -37.1325 -36.8161  -2.5264   1.5600   5.1841   6.1243
     6.8080   8.6507  10.8349  11.2131  12.2751  12.9983

          k = 0.8973 0.8634 0.0724 (  6340 PWs)   bands (ev):

   -37.5154 -37.2605 -37.1381 -36.8281  -1.7509   1.3821   3.9031   4.5508
     6.6349   8.4940   9.9995  10.9627  12.1890  12.9836

          k = 0.5982 0.6907 0.1449 (  6341 PWs)   bands (ev):

   -37.5060 -37.2544 -37.1429 -36.8356  -0.7951   0.5044   3.8538   4.4630
     5.4064   7.5857   8.6850  11.8000  12.8305  13.7026

          k = 0.8973-0.5181-0.2173 (  6365 PWs)   bands (ev):

   -37.5118 -37.2578 -37.1402 -36.8310  -1.4698   1.0982   3.6428   5.0831
     5.6542   8.9324  10.1309  10.2360  11.4981  13.1837

          k =-0.0000-0.0000 0.4346 (  6345 PWs)   bands (ev):

   -37.5418 -37.2751 -37.1263 -36.8072  -2.8912   1.1856   7.4869   7.8506
     7.8506   9.2035   9.2035  10.2569  12.2192  12.6771

          k = 1.1964 0.6907 0.1449 (  6325 PWs)   bands (ev):

   -37.5299 -37.2703 -37.1305 -36.8160  -2.4906   1.3243   5.0986   6.2429
     7.6664   9.2423  10.3744  10.5363  11.9188  12.4262

     the Fermi energy is     8.7306 ev

!    total energy              =     -74.24540049 Ry
     estimated scf accuracy    <          3.3E-12 Ry
     smearing contrib. (-TS)   =       0.00001456 Ry
     internal energy E=F+TS    =     -74.24541504 Ry

     The total energy is F=E-TS. E is the sum of the following terms:
     one-electron contribution =     -18.73066344 Ry
     hartree contribution      =      12.64030925 Ry
     xc contribution           =     -20.58490882 Ry
     ewald contribution        =     -47.57015204 Ry

     convergence has been achieved in  18 iterations

     Forces acting on atoms (cartesian axes, Ry/au):

     atom    1 type  1   force =     0.00000000    0.00000000    0.00070583
     atom    2 type  1   force =    -0.00000000   -0.00000000   -0.00151861
     atom    3 type  2   force =    -0.00000000    0.00000000    0.00124363
     atom    4 type  2   force =    -0.00000000    0.00000000   -0.00336839
     atom    5 type  2   force =     0.00000000    0.00000000    0.00013084
     atom    6 type  2   force =     0.00000000   -0.00000000    0.00280671
     The non-local contrib.  to forces
     atom    1 type  1   force =     0.00000000   -0.00000000    0.17269446
     atom    2 type  1   force =    -0.00000000    0.00000000   -0.15506900
     atom    3 type  2   force =     0.00000000    0.00000000    0.01173282
     atom    4 type  2   force =    -0.00000000    0.00000000   -0.01463981
     atom    5 type  2   force =     0.00000000    0.00000000    0.05327556
     atom    6 type  2   force =    -0.00000000   -0.00000000   -0.05923760
     The ionic contribution  to forces
     atom    1 type  1   force =    -0.00000000   -0.00000000   -1.01684074
     atom    2 type  1   force =     0.00000000   -0.00000000    0.77759621
     atom    3 type  2   force =     0.00000000    0.00000000   -0.66076007
     atom    4 type  2   force =     0.00000000    0.00000000    0.63899543
     atom    5 type  2   force =    -0.00000000    0.00000000    0.73553419
     atom    6 type  2   force =    -0.00000000   -0.00000000   -0.47452503
     The local contribution  to forces
     atom    1 type  1   force =     0.00000000   -0.00000000    0.85317305
     atom    2 type  1   force =     0.00000000    0.00000000   -0.63148277
     atom    3 type  2   force =    -0.00000000    0.00000000    0.65027066
     atom    4 type  2   force =     0.00000000   -0.00000000   -0.62772496
     atom    5 type  2   force =    -0.00000000    0.00000000   -0.78867969
     atom    6 type  2   force =    -0.00000000   -0.00000000    0.53657010
     The core correction contribution to forces
     atom    1 type  1   force =     0.00000000    0.00000000   -0.00831948
     atom    2 type  1   force =     0.00000000    0.00000000    0.00743611
     atom    3 type  2   force =     0.00000000    0.00000000    0.00000000
     atom    4 type  2   force =     0.00000000    0.00000000    0.00000000
     atom    5 type  2   force =     0.00000000    0.00000000    0.00000000
     atom    6 type  2   force =     0.00000000    0.00000000    0.00000000
     The Hubbard contrib.    to forces
     atom    1 type  1   force =     0.00000000    0.00000000    0.00000000
     atom    2 type  1   force =     0.00000000    0.00000000    0.00000000
     atom    3 type  2   force =     0.00000000    0.00000000    0.00000000
     atom    4 type  2   force =     0.00000000    0.00000000    0.00000000
     atom    5 type  2   force =     0.00000000    0.00000000    0.00000000
     atom    6 type  2   force =     0.00000000    0.00000000    0.00000000
     The SCF correction term to forces
     atom    1 type  1   force =    -0.00000000   -0.00000000   -0.00000141
     atom    2 type  1   force =     0.00000000    0.00000000    0.00000089
     atom    3 type  2   force =    -0.00000000   -0.00000000    0.00000027
     atom    4 type  2   force =    -0.00000000   -0.00000000    0.00000099
     atom    5 type  2   force =     0.00000000   -0.00000000    0.00000083
     atom    6 type  2   force =     0.00000000    0.00000000   -0.00000071

     Total force =     0.004857     Total SCF correction =     0.000002


     Computing stress (Cartesian axis) and pressure

          total   stress  (Ry/bohr**3)                   (kbar)     P=      500.91
   0.00340843   0.00000000   0.00000000          501.40        0.00        0.00
  -0.00000000   0.00340843   0.00000000           -0.00      501.40        0.00
   0.00000000   0.00000000   0.00339845            0.00        0.00      499.93


     Writing all to output data dir ./output/SiLi.save/

     init_run     :      1.90s CPU      2.43s WALL (       2 calls)
     electrons    :    442.52s CPU    498.01s WALL (      43 calls)
     update_pot   :     21.11s CPU     21.40s WALL (      41 calls)
     forces       :     13.26s CPU     13.72s WALL (      43 calls)
     stress       :     43.06s CPU     46.07s WALL (      43 calls)

     Called by init_run:
     wfcinit      :      0.63s CPU      0.85s WALL (       2 calls)
     potinit      :      0.53s CPU      0.66s WALL (       2 calls)
     hinit0       :      0.65s CPU      0.75s WALL (       2 calls)

     Called by electrons:
     c_bands      :    363.63s CPU    408.12s WALL (     670 calls)
     sum_band     :     62.70s CPU     70.26s WALL (     670 calls)
     v_of_rho     :     15.81s CPU     17.17s WALL (     711 calls)
     mix_rho      :      0.95s CPU      1.32s WALL (     670 calls)

     Called by c_bands:
     init_us_2    :      6.47s CPU      7.70s WALL (   27132 calls)
     init_us_2:cp :      6.42s CPU      7.66s WALL (   27132 calls)
     cegterg      :    345.51s CPU    383.55s WALL (   12730 calls)

     Called by *egterg:
     cdiaghg      :      9.80s CPU     10.46s WALL (   43056 calls)
     h_psi        :    316.07s CPU    352.84s WALL (   43911 calls)
     g_psi        :      0.76s CPU      0.78s WALL (   31143 calls)

     Called by h_psi:
     h_psi:calbec :     13.03s CPU     14.31s WALL (   43911 calls)
     vloc_psi     :    292.74s CPU    327.51s WALL (   43911 calls)
     add_vuspsi   :      9.52s CPU     10.16s WALL (   43911 calls)

     General routines
     calbec       :     14.56s CPU     15.92s WALL (   47996 calls)
     fft          :      4.97s CPU      6.41s WALL (    8185 calls)
     ffts         :      0.35s CPU      0.44s WALL (     670 calls)
     fftw         :    302.56s CPU    338.57s WALL ( 1077368 calls)

     Parallel routines

     PWSCF        :   8m42.51s CPU   9m43.68s WALL


   This run was terminated on:  12:53:26  12Jan2025            

=------------------------------------------------------------------------------=
   JOB DONE.
=------------------------------------------------------------------------------=
