
     Program PWSCF v.7.2 starts on 10Jan2025 at 22: 9:19 

     This program is part of the open-source Quantum ESPRESSO suite
     for quantum simulation of materials; please cite
         "P. Giannozzi et al., J. Phys.:Condens. Matter 21 395502 (2009);
         "P. Giannozzi et al., J. Phys.:Condens. Matter 29 465901 (2017);
         "P. Giannozzi et al., J. Chem. Phys. 152 154105 (2020);
          URL http://www.quantum-espresso.org", 
     in publications or presentations arising from this work. More details at
     http://www.quantum-espresso.org/quote

     Parallel version (MPI & OpenMP), running on       8 processor cores
     Number of MPI processes:                 8
     Threads/MPI process:                     1

     MPI processes distributed on     1 nodes
     481344 MiB available memory on the printing compute node when the environment starts

     Waiting for input...
     Reading input from standard input

     Current dimensions of program PWSCF are:
     Max number of different atomic species (ntypx) = 10
     Max number of k-points (npk) =  40000
     Max angular momentum in pseudopotentials (lmaxx) =  4

     R & G space division:  proc/nbgrp/npool/nimage =       8
     Subspace diagonalization in iterative solution of the eigenvalue problem:
     a serial algorithm will be used


     Parallelization info
     --------------------
     sticks:   dense  smooth     PW     G-vecs:    dense   smooth      PW
     Min         133     133     38                 6259     6259     986
     Max         134     134     39                 6262     6262     990
     Sum        1069    1069    305                50091    50091    7903

     Using Slab Decomposition



     bravais-lattice index     =            6
     lattice parameter (alat)  =       5.7832  a.u.
     unit-cell volume          =     370.9483 (a.u.)^3
     number of atoms/cell      =            6
     number of atomic types    =            2
     number of electrons       =        20.00
     number of Kohn-Sham states=           14
     kinetic-energy cutoff     =     100.0000  Ry
     charge density cutoff     =     400.0000  Ry
     scf convergence threshold =      1.0E-08
     mixing beta               =       0.7000
     number of iterations used =            8  plain     mixing
     energy convergence thresh.=      1.0E-04
     force convergence thresh. =      1.0E-03
     press convergence thresh. =      1.0E+00
     Exchange-correlation= PBE
                           (   1   4   3   4   0   0   0)
     nstep                     =           50


     celldm(1)=   5.783172  celldm(2)=   0.000000  celldm(3)=   1.917852
     celldm(4)=   0.000000  celldm(5)=   0.000000  celldm(6)=   0.000000

     crystal axes: (cart. coord. in units of alat)
               a(1) = (   1.000000   0.000000   0.000000 )  
               a(2) = (   0.000000   1.000000   0.000000 )  
               a(3) = (   0.000000   0.000000   1.917852 )  

     reciprocal axes: (cart. coord. in units 2 pi/alat)
               b(1) = (  1.000000  0.000000  0.000000 )  
               b(2) = (  0.000000  1.000000  0.000000 )  
               b(3) = (  0.000000  0.000000  0.521417 )  


     PseudoPot. # 1 for Si read from file:
     ../pseudo/Si_ONCV_PBE_sr.upf
     MD5 check sum: e543d271109d17c80368dfa7c482276d
     Pseudo is Norm-conserving + core correction, Zval =  4.0
     Generated using ONCVPSP code by D. R. Hamann
     Using radial grid of 1510 points,  6 beta functions with: 
                l(1) =   0
                l(2) =   0
                l(3) =   1
                l(4) =   1
                l(5) =   2
                l(6) =   2

     PseudoPot. # 2 for Li read from file:
     ../pseudo/Li_ONCV_PBE_sr.upf
     MD5 check sum: 50ff420e78310ffa21704f3361e624a4
     Pseudo is Norm-conserving, Zval =  3.0
     Generated using ONCVPSP code by D. R. Hamann
     Using radial grid of 1944 points,  4 beta functions with: 
                l(1) =   0
                l(2) =   0
                l(3) =   1
                l(4) =   1

     atomic species   valence    mass     pseudopotential
        Si             4.00    28.08550     Si( 1.00)
        Li             3.00     6.94100     Li( 1.00)

     16 Sym. Ops., with inversion, found ( 8 have fractional translation)



   Cartesian axes

     site n.     atom                  positions (alat units)
         1           Si  tau(   1) = (   0.0000000   0.5000000   0.4908070  )
         2           Si  tau(   2) = (   0.5000000   0.0000000   1.4270447  )
         3           Li  tau(   3) = (   0.0000000   0.0000000   0.9589259  )
         4           Li  tau(   4) = (   0.5000000   0.5000000   0.9589259  )
         5           Li  tau(   5) = (   0.0000000   0.5000000   1.6377227  )
         6           Li  tau(   6) = (   0.5000000   0.0000000   0.2801291  )

     number of k points=    84  Marzari-Vanderbilt smearing, width (Ry)=  0.0200
                       cart. coord. in units 2pi/alat
        k(    1) = (   0.0000000   0.0000000   0.0000000), wk =   0.0028571
        k(    2) = (   0.0000000   0.0000000   0.0744881), wk =   0.0057143
        k(    3) = (   0.0000000   0.0000000   0.1489762), wk =   0.0057143
        k(    4) = (   0.0000000   0.0000000   0.2234643), wk =   0.0057143
        k(    5) = (   0.0000000   0.1000000   0.0000000), wk =   0.0114286
        k(    6) = (   0.0000000   0.1000000   0.0744881), wk =   0.0228571
        k(    7) = (   0.0000000   0.1000000   0.1489762), wk =   0.0228571
        k(    8) = (   0.0000000   0.1000000   0.2234643), wk =   0.0228571
        k(    9) = (   0.0000000   0.2000000   0.0000000), wk =   0.0114286
        k(   10) = (   0.0000000   0.2000000   0.0744881), wk =   0.0228571
        k(   11) = (   0.0000000   0.2000000   0.1489762), wk =   0.0228571
        k(   12) = (   0.0000000   0.2000000   0.2234643), wk =   0.0228571
        k(   13) = (   0.0000000   0.3000000   0.0000000), wk =   0.0114286
        k(   14) = (   0.0000000   0.3000000   0.0744881), wk =   0.0228571
        k(   15) = (   0.0000000   0.3000000   0.1489762), wk =   0.0228571
        k(   16) = (   0.0000000   0.3000000   0.2234643), wk =   0.0228571
        k(   17) = (   0.0000000   0.4000000   0.0000000), wk =   0.0114286
        k(   18) = (   0.0000000   0.4000000   0.0744881), wk =   0.0228571
        k(   19) = (   0.0000000   0.4000000   0.1489762), wk =   0.0228571
        k(   20) = (   0.0000000   0.4000000   0.2234643), wk =   0.0228571
        k(   21) = (   0.0000000  -0.5000000   0.0000000), wk =   0.0057143
        k(   22) = (   0.0000000  -0.5000000   0.0744881), wk =   0.0114286
        k(   23) = (   0.0000000  -0.5000000   0.1489762), wk =   0.0114286
        k(   24) = (   0.0000000  -0.5000000   0.2234643), wk =   0.0114286
        k(   25) = (   0.1000000   0.1000000   0.0000000), wk =   0.0114286
        k(   26) = (   0.1000000   0.1000000   0.0744881), wk =   0.0228571
        k(   27) = (   0.1000000   0.1000000   0.1489762), wk =   0.0228571
        k(   28) = (   0.1000000   0.1000000   0.2234643), wk =   0.0228571
        k(   29) = (   0.1000000   0.2000000   0.0000000), wk =   0.0228571
        k(   30) = (   0.1000000   0.2000000   0.0744881), wk =   0.0457143
        k(   31) = (   0.1000000   0.2000000   0.1489762), wk =   0.0457143
        k(   32) = (   0.1000000   0.2000000   0.2234643), wk =   0.0457143
        k(   33) = (   0.1000000   0.3000000   0.0000000), wk =   0.0228571
        k(   34) = (   0.1000000   0.3000000   0.0744881), wk =   0.0457143
        k(   35) = (   0.1000000   0.3000000   0.1489762), wk =   0.0457143
        k(   36) = (   0.1000000   0.3000000   0.2234643), wk =   0.0457143
        k(   37) = (   0.1000000   0.4000000   0.0000000), wk =   0.0228571
        k(   38) = (   0.1000000   0.4000000   0.0744881), wk =   0.0457143
        k(   39) = (   0.1000000   0.4000000   0.1489762), wk =   0.0457143
        k(   40) = (   0.1000000   0.4000000   0.2234643), wk =   0.0457143
        k(   41) = (   0.1000000  -0.5000000   0.0000000), wk =   0.0114286
        k(   42) = (   0.1000000  -0.5000000   0.0744881), wk =   0.0228571
        k(   43) = (   0.1000000  -0.5000000   0.1489762), wk =   0.0228571
        k(   44) = (   0.1000000  -0.5000000   0.2234643), wk =   0.0228571
        k(   45) = (   0.2000000   0.2000000   0.0000000), wk =   0.0114286
        k(   46) = (   0.2000000   0.2000000   0.0744881), wk =   0.0228571
        k(   47) = (   0.2000000   0.2000000   0.1489762), wk =   0.0228571
        k(   48) = (   0.2000000   0.2000000   0.2234643), wk =   0.0228571
        k(   49) = (   0.2000000   0.3000000   0.0000000), wk =   0.0228571
        k(   50) = (   0.2000000   0.3000000   0.0744881), wk =   0.0457143
        k(   51) = (   0.2000000   0.3000000   0.1489762), wk =   0.0457143
        k(   52) = (   0.2000000   0.3000000   0.2234643), wk =   0.0457143
        k(   53) = (   0.2000000   0.4000000   0.0000000), wk =   0.0228571
        k(   54) = (   0.2000000   0.4000000   0.0744881), wk =   0.0457143
        k(   55) = (   0.2000000   0.4000000   0.1489762), wk =   0.0457143
        k(   56) = (   0.2000000   0.4000000   0.2234643), wk =   0.0457143
        k(   57) = (   0.2000000  -0.5000000   0.0000000), wk =   0.0114286
        k(   58) = (   0.2000000  -0.5000000   0.0744881), wk =   0.0228571
        k(   59) = (   0.2000000  -0.5000000   0.1489762), wk =   0.0228571
        k(   60) = (   0.2000000  -0.5000000   0.2234643), wk =   0.0228571
        k(   61) = (   0.3000000   0.3000000   0.0000000), wk =   0.0114286
        k(   62) = (   0.3000000   0.3000000   0.0744881), wk =   0.0228571
        k(   63) = (   0.3000000   0.3000000   0.1489762), wk =   0.0228571
        k(   64) = (   0.3000000   0.3000000   0.2234643), wk =   0.0228571
        k(   65) = (   0.3000000   0.4000000   0.0000000), wk =   0.0228571
        k(   66) = (   0.3000000   0.4000000   0.0744881), wk =   0.0457143
        k(   67) = (   0.3000000   0.4000000   0.1489762), wk =   0.0457143
        k(   68) = (   0.3000000   0.4000000   0.2234643), wk =   0.0457143
        k(   69) = (   0.3000000  -0.5000000   0.0000000), wk =   0.0114286
        k(   70) = (   0.3000000  -0.5000000   0.0744881), wk =   0.0228571
        k(   71) = (   0.3000000  -0.5000000   0.1489762), wk =   0.0228571
        k(   72) = (   0.3000000  -0.5000000   0.2234643), wk =   0.0228571
        k(   73) = (   0.4000000   0.4000000   0.0000000), wk =   0.0114286
        k(   74) = (   0.4000000   0.4000000   0.0744881), wk =   0.0228571
        k(   75) = (   0.4000000   0.4000000   0.1489762), wk =   0.0228571
        k(   76) = (   0.4000000   0.4000000   0.2234643), wk =   0.0228571
        k(   77) = (   0.4000000  -0.5000000   0.0000000), wk =   0.0114286
        k(   78) = (   0.4000000  -0.5000000   0.0744881), wk =   0.0228571
        k(   79) = (   0.4000000  -0.5000000   0.1489762), wk =   0.0228571
        k(   80) = (   0.4000000  -0.5000000   0.2234643), wk =   0.0228571
        k(   81) = (  -0.5000000  -0.5000000   0.0000000), wk =   0.0028571
        k(   82) = (  -0.5000000  -0.5000000   0.0744881), wk =   0.0057143
        k(   83) = (  -0.5000000  -0.5000000   0.1489762), wk =   0.0057143
        k(   84) = (  -0.5000000  -0.5000000   0.2234643), wk =   0.0057143

     Dense  grid:    50091 G-vectors     FFT dimensions: (  40,  40,  72)

     Estimated max dynamical RAM per process >      32.38 MB

     Estimated total dynamical RAM >     259.01 MB

     Initial potential from superposition of free atoms

     starting charge      19.9805, renormalised to      20.0000
     Starting wfcs are   16 randomized atomic wfcs

     total cpu time spent up to now is        2.2 secs

     Self-consistent Calculation

     iteration #  1     ecut=   100.00 Ry     beta= 0.70
     Davidson diagonalization with overlap
     ethr =  1.00E-02,  avg # of iterations =  5.8

     total cpu time spent up to now is        4.4 secs

     total energy              =     -74.00656744 Ry
     estimated scf accuracy    <       0.29519010 Ry

     iteration #  2     ecut=   100.00 Ry     beta= 0.70
     Davidson diagonalization with overlap
     ethr =  1.48E-03,  avg # of iterations =  3.2

     total cpu time spent up to now is        6.1 secs

     total energy              =     -74.00486669 Ry
     estimated scf accuracy    <       1.02339923 Ry

     iteration #  3     ecut=   100.00 Ry     beta= 0.70
     Davidson diagonalization with overlap
     ethr =  1.48E-03,  avg # of iterations =  2.2

     total cpu time spent up to now is        7.5 secs

     total energy              =     -74.17439987 Ry
     estimated scf accuracy    <       0.00060092 Ry

     iteration #  4     ecut=   100.00 Ry     beta= 0.70
     Davidson diagonalization with overlap
     ethr =  3.00E-06,  avg # of iterations =  7.3

     total cpu time spent up to now is       10.0 secs

     total energy              =     -74.17556728 Ry
     estimated scf accuracy    <       0.00136878 Ry

     iteration #  5     ecut=   100.00 Ry     beta= 0.70
     Davidson diagonalization with overlap
     ethr =  3.00E-06,  avg # of iterations =  2.0

     total cpu time spent up to now is       11.4 secs

     total energy              =     -74.17572076 Ry
     estimated scf accuracy    <       0.00002967 Ry

     iteration #  6     ecut=   100.00 Ry     beta= 0.70
     Davidson diagonalization with overlap
     ethr =  1.48E-07,  avg # of iterations =  3.0

     total cpu time spent up to now is       12.9 secs

     total energy              =     -74.17572954 Ry
     estimated scf accuracy    <       0.00000163 Ry

     iteration #  7     ecut=   100.00 Ry     beta= 0.70
     Davidson diagonalization with overlap
     ethr =  8.14E-09,  avg # of iterations =  2.6

     total cpu time spent up to now is       14.2 secs

     total energy              =     -74.17572958 Ry
     estimated scf accuracy    <       0.00000043 Ry

     iteration #  8     ecut=   100.00 Ry     beta= 0.70
     Davidson diagonalization with overlap
     ethr =  2.13E-09,  avg # of iterations =  2.0

     total cpu time spent up to now is       15.5 secs

     End of self-consistent calculation

          k = 0.0000 0.0000 0.0000 (  6215 PWs)   bands (ev):

   -37.1333 -36.8640 -36.8269 -36.7027  -1.8301  -0.6757   3.8371   8.9327
     8.9327  10.0018  11.8982  11.8982  13.6626  13.7532

          k = 0.0000 0.0000 0.0745 (  6223 PWs)   bands (ev):

   -37.1330 -36.8662 -36.8250 -36.7027  -1.7954  -0.7564   4.0274   8.9944
     8.9944   9.5196  11.6053  11.6053  13.3183  13.3846

          k = 0.0000 0.0000 0.1490 (  6235 PWs)   bands (ev):

   -37.1323 -36.8705 -36.8214 -36.7027  -1.6966  -0.9511   4.5217   8.5359
     9.1640   9.1640  11.0569  11.0569  13.0340  13.2284

          k = 0.0000 0.0000 0.2235 (  6240 PWs)   bands (ev):

   -37.1317 -36.8736 -36.8189 -36.7027  -1.5675  -1.1509   5.0606   7.6984
     9.3602   9.3602  10.6293  10.6293  12.8863  13.1807

          k = 0.0000 0.1000 0.0000 (  6249 PWs)   bands (ev):

   -37.1222 -36.8621 -36.8271 -36.7123  -1.7308  -0.5680   3.9246   7.9859
     9.0742   9.8404  10.5039  12.0176  12.9883  14.0575

          k = 0.0000 0.1000 0.0745 (  6244 PWs)   bands (ev):

   -37.1218 -36.8642 -36.8252 -36.7123  -1.6955  -0.6502   4.1178   8.0394
     9.1357   9.3870  10.3157  11.7302  12.9945  14.2724

          k = 0.0000 0.1000 0.1490 (  6262 PWs)   bands (ev):

   -37.1211 -36.8685 -36.8217 -36.7123  -1.5947  -0.8489   4.6218   8.1673
     8.4899   9.3047   9.8426  11.1883  13.2477  14.1997

          k = 0.0000 0.1000 0.2235 (  6270 PWs)   bands (ev):

   -37.1206 -36.8715 -36.8192 -36.7123  -1.4611  -1.0546   5.1805   7.6243
     8.3932   9.4503   9.5003  10.7641  13.4482  14.0836

          k = 0.0000 0.2000 0.0000 (  6251 PWs)   bands (ev):

   -37.0900 -36.8567 -36.8281 -36.7400  -1.4363  -0.2629   4.1823   6.3549
     8.5840   9.2064   9.4962  12.3582  12.6148  14.1429

          k = 0.0000 0.2000 0.0745 (  6258 PWs)   bands (ev):

   -37.0897 -36.8589 -36.8263 -36.7400  -1.3998  -0.3482   4.3791   6.4051
     8.2087   9.2657   9.5570  12.0905  12.3036  14.7327

          k = 0.0000 0.2000 0.1490 (  6262 PWs)   bands (ev):

   -37.0890 -36.8630 -36.8228 -36.7400  -1.2945  -0.5546   4.8990   6.5427
     7.5830   8.8905   9.7243  11.5730  12.3951  15.2375

          k = 0.0000 0.2000 0.2235 (  6264 PWs)   bands (ev):

   -37.0885 -36.8659 -36.8204 -36.7401  -1.1498  -0.7736   5.5179   6.7058
     6.9653   8.3901   9.9173  11.1615  12.8333  15.1922

          k = 0.0000 0.3000 0.0000 (  6274 PWs)   bands (ev):

   -37.0405 -36.8491 -36.8321 -36.7823  -0.9615   0.1599   4.5820   4.9069
     6.8565   8.1967  10.1893  12.8241  12.9699  14.3268

          k = 0.0000 0.3000 0.0745 (  6263 PWs)   bands (ev):

   -37.0402 -36.8516 -36.8297 -36.7825  -0.9248   0.0786   4.6641   5.0526
     6.5916   8.4169  10.2486  12.3099  12.6091  14.9925

          k = 0.0000 0.3000 0.1490 (  6267 PWs)   bands (ev):

   -37.0397 -36.8559 -36.8256 -36.7828  -0.8182  -0.1213   4.8533   5.4276
     6.1752   8.5429  10.4112  11.7959  12.1612  14.7257

          k = 0.0000 0.3000 0.2235 (  6271 PWs)   bands (ev):

   -37.0392 -36.8586 -36.8230 -36.7831  -0.6650  -0.3436   5.1157   5.4605
     6.2021   8.2418  10.5980  11.7865  12.0416  13.7426

          k = 0.0000 0.4000 0.0000 (  6302 PWs)   bands (ev):

   -36.9793 -36.8547 -36.8406 -36.8205  -0.3524   0.4556   4.0374   4.8042
     5.7754   7.1467  11.1255  12.9772  13.7953  14.6334

          k = 0.0000 0.4000 0.0745 (  6292 PWs)   bands (ev):

   -36.9791 -36.8565 -36.8384 -36.8211  -0.3213   0.4070   3.9677   4.7819
     5.8564   7.4210  11.1803  12.8674  12.9035  14.7295

          k = 0.0000 0.4000 0.1490 (  6278 PWs)   bands (ev):

   -36.9787 -36.8595 -36.8341 -36.8228  -0.2316   0.2779   3.9154   4.5360
     6.3160   7.9027  11.3291  11.8615  12.6946  13.4981

          k = 0.0000 0.4000 0.2235 (  6253 PWs)   bands (ev):

   -36.9784 -36.8615 -36.8296 -36.8257  -0.1008   0.1157   3.9965   4.2297
     6.8880   8.0880  11.4972  11.5421  12.4003  12.4641

          k = 0.0000-0.5000 0.0000 (  6298 PWs)   bands (ev):

   -36.9137 -36.9137 -36.8322 -36.8322   0.2411   0.2411   4.1351   4.1351
     6.2367   6.2367  12.2031  12.2031  14.7652  14.7652

          k = 0.0000-0.5000 0.0745 (  6312 PWs)   bands (ev):

   -36.9136 -36.9136 -36.8323 -36.8323   0.2471   0.2471   4.0042   4.0042
     6.4986   6.4986  12.2380  12.2380  13.7394  13.7394

          k = 0.0000-0.5000 0.1490 (  6278 PWs)   bands (ev):

   -36.9135 -36.9135 -36.8324 -36.8324   0.2609   0.2609   3.7703   3.7703
     7.0825   7.0825  12.3235  12.3235  12.4907  12.4907

          k = 0.0000-0.5000 0.2235 (  6254 PWs)   bands (ev):

   -36.9134 -36.9134 -36.8325 -36.8325   0.2722   0.2722   3.6179   3.6179
     7.6091   7.6091  11.6330  11.6330  12.4011  12.4011

          k = 0.1000 0.1000 0.0000 (  6251 PWs)   bands (ev):

   -37.1115 -36.8602 -36.8272 -36.7213  -1.6305  -0.4587   4.0113   8.0524
     8.1032   9.7668  10.0912  11.3686  13.4584  14.1791

          k = 0.1000 0.1000 0.0745 (  6250 PWs)   bands (ev):

   -37.1112 -36.8624 -36.8254 -36.7213  -1.5946  -0.5427   4.2076   8.0890
     8.1645   9.3493   9.9036  11.1610  13.7506  13.8676

          k = 0.1000 0.1000 0.1490 (  6248 PWs)   bands (ev):

   -37.1105 -36.8665 -36.8219 -36.7213  -1.4918  -0.7454   4.7213   8.1793
     8.3464   8.4494   9.4868  10.7267  14.0969  14.4415

          k = 0.1000 0.1000 0.2235 (  6265 PWs)   bands (ev):

   -37.1099 -36.8695 -36.8195 -36.7213  -1.3538  -0.9569   5.2993   7.6208
     8.2683   8.6418   9.0352  10.4193  14.3186  15.0939

          k = 0.1000 0.2000 0.0000 (  6261 PWs)   bands (ev):

   -37.0806 -36.8551 -36.8281 -36.7476  -1.3330  -0.1490   4.2669   6.4289
     8.2353   8.5430   9.4848  11.3392  13.1486  14.3884

          k = 0.1000 0.2000 0.0745 (  6256 PWs)   bands (ev):

   -37.0803 -36.8572 -36.8262 -36.7476  -1.2960  -0.2361   4.4670   6.4771
     8.0028   8.6410   9.2802  11.1650  13.0028  14.7101

          k = 0.1000 0.2000 0.1490 (  6249 PWs)   bands (ev):

   -37.0797 -36.8612 -36.8228 -36.7476  -1.1889  -0.4469   4.9961   6.6115
     7.5443   8.6777   8.8003  10.7859  13.2416  15.4501

          k = 0.1000 0.2000 0.2235 (  6258 PWs)   bands (ev):

   -37.0792 -36.8639 -36.8206 -36.7476  -1.0397  -0.6721   5.6294   6.7760
     7.0219   8.1101   8.9201  10.4901  13.8169  15.5160

          k = 0.1000 0.3000 0.0000 (  6264 PWs)   bands (ev):

   -37.0332 -36.8478 -36.8316 -36.7877  -0.8532   0.2821   4.6644   4.9753
     6.8806   7.8833   9.5938  11.6031  13.3669  14.5564

          k = 0.1000 0.3000 0.0745 (  6267 PWs)   bands (ev):

   -37.0330 -36.8502 -36.8293 -36.7879  -0.8160   0.1987   4.7429   5.1302
     6.5944   8.1578   9.5211  11.4582  12.8313  15.2529

          k = 0.1000 0.3000 0.1490 (  6259 PWs)   bands (ev):

   -37.0325 -36.8543 -36.8255 -36.7882  -0.7077  -0.0061   4.9221   5.5310
     6.1819   8.4219   9.3270  11.1351  12.5334  14.8974

          k = 0.1000 0.3000 0.2235 (  6271 PWs)   bands (ev):

   -37.0320 -36.8569 -36.8230 -36.7884  -0.5502  -0.2349   5.1719   5.5304
     6.3068   8.1271   9.3697  10.8618  12.9290  13.8783

          k = 0.1000 0.4000 0.0000 (  6266 PWs)   bands (ev):

   -36.9748 -36.8548 -36.8398 -36.8222  -0.2365   0.5864   4.1018   4.8994
     5.7838   7.0518  10.2783  11.6481  14.0694  14.7631

          k = 0.1000 0.4000 0.0745 (  6278 PWs)   bands (ev):

   -36.9746 -36.8562 -36.8380 -36.8226  -0.2049   0.5362   4.0303   4.8706
     5.8680   7.3382  10.2589  11.5812  13.2143  14.6045

          k = 0.1000 0.4000 0.1490 (  6271 PWs)   bands (ev):

   -36.9742 -36.8588 -36.8344 -36.8241  -0.1137   0.4030   3.9759   4.6054
     6.3564   7.8435  10.1433  11.4205  12.3675  13.5822

          k = 0.1000 0.4000 0.2235 (  6261 PWs)   bands (ev):

   -36.9739 -36.8606 -36.8308 -36.8262   0.0209   0.2350   4.0551   4.2933
     6.9683   8.0436   9.9995  11.3135  12.0420  12.7412

          k = 0.1000-0.5000 0.0000 (  6286 PWs)   bands (ev):

   -36.9120 -36.9120 -36.8320 -36.8320   0.3675   0.3675   4.2090   4.2090
     6.2229   6.2229  11.1082  11.1082  14.8315  14.8315

          k = 0.1000-0.5000 0.0745 (  6298 PWs)   bands (ev):

   -36.9119 -36.9119 -36.8321 -36.8321   0.3736   0.3736   4.0722   4.0722
     6.4921   6.4921  11.0968  11.0968  13.8913  13.8913

          k = 0.1000-0.5000 0.1490 (  6278 PWs)   bands (ev):

   -36.9118 -36.9118 -36.8322 -36.8322   0.3876   0.3876   3.8311   3.8311
     7.0893   7.0893  11.0137  11.0137  12.7574  12.7574

          k = 0.1000-0.5000 0.2235 (  6260 PWs)   bands (ev):

   -36.9118 -36.9118 -36.8323 -36.8323   0.3991   0.3991   3.6755   3.6755
     7.6323   7.6323  10.7871  10.7871  12.1461  12.1461

          k = 0.2000 0.2000 0.0000 (  6249 PWs)   bands (ev):

   -37.0537 -36.8506 -36.8282 -36.7697  -1.0268   0.1755   4.5146   6.5815
     6.6496   8.1217   9.3521  10.1137  13.2495  14.3150

          k = 0.2000 0.2000 0.0745 (  6249 PWs)   bands (ev):

   -37.0535 -36.8525 -36.8265 -36.7697  -0.9886   0.0846   4.7199   6.5967
     6.6799   8.0431   9.0230  10.1071  13.4809  14.0133

          k = 0.2000 0.2000 0.1490 (  6239 PWs)   bands (ev):

   -37.0529 -36.8562 -36.8234 -36.7697  -0.8775  -0.1354   5.2623   6.6372
     6.7595   7.8624   8.3039   9.9315  14.1182  14.1232

          k = 0.2000 0.2000 0.2235 (  6250 PWs)   bands (ev):

   -37.0524 -36.8588 -36.8213 -36.7697  -0.7173  -0.3751   5.9057   6.7120
     6.8419   7.5052   7.7053   9.7485  14.5873  15.0609

          k = 0.2000 0.3000 0.0000 (  6264 PWs)   bands (ev):

   -37.0125 -36.8443 -36.8305 -36.8036  -0.5322   0.6333   4.8996   5.1673
     6.7638   6.9091   9.1450   9.7997  13.2708  13.9232

          k = 0.2000 0.3000 0.0745 (  6257 PWs)   bands (ev):

   -37.0123 -36.8464 -36.8286 -36.8037  -0.4940   0.5448   4.9650   5.3450
     6.4143   7.2308   8.9869   9.7617  13.0400  14.1866

          k = 0.2000 0.3000 0.1490 (  6257 PWs)   bands (ev):

   -37.0118 -36.8499 -36.8253 -36.8039  -0.3822   0.3283   5.1061   5.8268
     6.0611   7.5389   8.5169   9.6154  12.9097  14.1541

          k = 0.2000 0.3000 0.2235 (  6258 PWs)   bands (ev):

   -37.0115 -36.8522 -36.8232 -36.8041  -0.2139   0.0834   5.2991   5.6587
     6.5851   7.6818   7.8862   9.4546  13.2031  13.7583

          k = 0.2000 0.4000 0.0000 (  6265 PWs)   bands (ev):

   -36.9618 -36.8562 -36.8376 -36.8262   0.1061   0.9676   4.2871   5.1761
     5.7897   6.6034   9.1711   9.7447  13.5646  13.6783

          k = 0.2000 0.4000 0.0745 (  6264 PWs)   bands (ev):

   -36.9617 -36.8569 -36.8371 -36.8262   0.1386   0.9128   4.2101   5.1163
     5.8715   6.9219   9.1379   9.7070  12.7632  13.7023

          k = 0.2000 0.4000 0.1490 (  6268 PWs)   bands (ev):

   -36.9614 -36.8582 -36.8359 -36.8264   0.2334   0.7686   4.1487   4.7859
     6.4290   7.4536   8.9719   9.6042  12.0324  12.8541

          k = 0.2000 0.4000 0.2235 (  6257 PWs)   bands (ev):

   -36.9611 -36.8592 -36.8350 -36.8266   0.3774   0.5853   4.2184   4.4651
     7.1039   7.7964   8.6243   9.4983  11.7973  12.1707

          k = 0.2000-0.5000 0.0000 (  6274 PWs)   bands (ev):

   -36.9075 -36.9075 -36.8317 -36.8317   0.7394   0.7394   4.4223   4.4223
     6.1258   6.1258   9.4894   9.4894  13.6773  13.6773

          k = 0.2000-0.5000 0.0745 (  6268 PWs)   bands (ev):

   -36.9074 -36.9074 -36.8317 -36.8317   0.7456   0.7456   4.2660   4.2660
     6.4107   6.4107   9.4870   9.4870  12.9663  12.9663

          k = 0.2000-0.5000 0.1490 (  6278 PWs)   bands (ev):

   -36.9074 -36.9074 -36.8318 -36.8318   0.7599   0.7599   4.0042   4.0042
     7.0201   7.0201   9.4706   9.4706  11.9569  11.9569

          k = 0.2000-0.5000 0.2235 (  6268 PWs)   bands (ev):

   -36.9073 -36.9073 -36.8319 -36.8319   0.7718   0.7718   3.8402   3.8402
     7.5677   7.5677   9.4258   9.4258  11.2401  11.2401

          k = 0.3000 0.3000 0.0000 (  6257 PWs)   bands (ev):

   -36.9810 -36.8396 -36.8296 -36.8291  -0.0142   1.1425   5.2434   5.4188
     5.4547   6.6786   8.3920   8.9154  12.9561  13.0921

          k = 0.3000 0.3000 0.0745 (  6261 PWs)   bands (ev):

   -36.9808 -36.8412 -36.8291 -36.8282   0.0239   1.0526   5.2239   5.4141
     5.6762   6.6722   8.3014   8.9033  12.9332  13.1025

          k = 0.3000 0.3000 0.1490 (  6267 PWs)   bands (ev):

   -36.9805 -36.8439 -36.8291 -36.8258   0.1364   0.8327   5.2112   5.4035
     6.2288   6.6581   8.0961   8.7386  12.3850  13.5318

          k = 0.3000 0.3000 0.2235 (  6267 PWs)   bands (ev):

   -36.9802 -36.8457 -36.8291 -36.8243   0.3121   0.5786   5.2068   5.3950
     6.6472   6.9498   7.7098   8.4827  12.0584  13.6146

          k = 0.3000 0.4000 0.0000 (  6265 PWs)   bands (ev):

   -36.9426 -36.8627 -36.8350 -36.8297   0.6565   1.5483   4.5598   5.5631
     5.6936   5.7568   8.0012   8.5628  12.5806  13.0405

          k = 0.3000 0.4000 0.0745 (  6272 PWs)   bands (ev):

   -36.9425 -36.8628 -36.8357 -36.8290   0.6891   1.4882   4.4758   5.2795
     5.8248   6.2008   7.9739   8.5664  12.1971  12.6398

          k = 0.3000 0.4000 0.1490 (  6264 PWs)   bands (ev):

   -36.9423 -36.8630 -36.8369 -36.8277   0.7849   1.3320   4.3958   4.9091
     6.3014   6.7262   7.9095   8.5158  11.4311  12.2277

          k = 0.3000 0.4000 0.2235 (  6272 PWs)   bands (ev):

   -36.9421 -36.8631 -36.8377 -36.8270   0.9357   1.1340   4.4282   4.6392
     6.6051   7.3067   7.8586   8.2855  10.8806  12.0417

          k = 0.3000-0.5000 0.0000 (  6282 PWs)   bands (ev):

   -36.9017 -36.9017 -36.8315 -36.8315   1.3284   1.3284   4.7303   4.7303
     5.7845   5.7845   8.1806   8.1806  12.5753  12.5753

          k = 0.3000-0.5000 0.0745 (  6266 PWs)   bands (ev):

   -36.9017 -36.9017 -36.8315 -36.8315   1.3340   1.3340   4.5326   4.5326
     6.0772   6.0772   8.1897   8.1897  12.1056  12.1056

          k = 0.3000-0.5000 0.1490 (  6268 PWs)   bands (ev):

   -36.9017 -36.9017 -36.8315 -36.8315   1.3470   1.3470   4.2439   4.2439
     6.6064   6.6064   8.2200   8.2200  11.3761  11.3761

          k = 0.3000-0.5000 0.2235 (  6258 PWs)   bands (ev):

   -36.9016 -36.9016 -36.8316 -36.8316   1.3578   1.3578   4.0743   4.0743
     7.0039   7.0039   8.2674   8.2674  10.8419  10.8419

          k = 0.4000 0.4000 0.0000 (  6277 PWs)   bands (ev):

   -36.9199 -36.8769 -36.8327 -36.8309   1.3633   2.1181   4.6383   5.1064
     5.4393   5.8061   6.9829   8.0459  12.0293  12.2851

          k = 0.4000 0.4000 0.0745 (  6277 PWs)   bands (ev):

   -36.9198 -36.8769 -36.8335 -36.8301   1.3908   2.0675   4.6112   4.8313
     5.8322   5.8393   6.9938   8.0618  11.7322  12.1836

          k = 0.4000 0.4000 0.1490 (  6249 PWs)   bands (ev):

   -36.9197 -36.8769 -36.8347 -36.8291   1.4722   1.9351   4.5550   4.5742
     5.9091   6.3738   7.0380   8.0934  11.0334  12.2334

          k = 0.4000 0.4000 0.2235 (  6265 PWs)   bands (ev):

   -36.9196 -36.8769 -36.8353 -36.8285   1.6018   1.7655   4.4467   4.5138
     5.9611   6.7117   7.1554   8.1085  10.5037  12.2926

          k = 0.4000-0.5000 0.0000 (  6262 PWs)   bands (ev):

   -36.8969 -36.8969 -36.8314 -36.8314   2.0440   2.0440   4.7674   4.7674
     5.4076   5.4076   7.3856   7.3856  11.9439  11.9439

          k = 0.4000-0.5000 0.0745 (  6266 PWs)   bands (ev):

   -36.8969 -36.8969 -36.8314 -36.8314   2.0455   2.0455   4.6061   4.6061
     5.6044   5.6044   7.4038   7.4038  11.7640  11.7640

          k = 0.4000-0.5000 0.1490 (  6254 PWs)   bands (ev):

   -36.8969 -36.8969 -36.8314 -36.8314   2.0490   2.0490   4.3794   4.3794
     5.9105   5.9105   7.4522   7.4522  11.4631  11.4631

          k = 0.4000-0.5000 0.2235 (  6242 PWs)   bands (ev):

   -36.8969 -36.8969 -36.8314 -36.8314   2.0520   2.0520   4.2475   4.2475
     6.1046   6.1046   7.5011   7.5011  11.2583  11.2583

          k =-0.5000-0.5000 0.0000 (  6260 PWs)   bands (ev):

   -36.8950 -36.8950 -36.8314 -36.8314   2.4885   2.4885   4.3731   4.3731
     5.5144   5.5144   7.0884   7.0884  11.7804  11.7804

          k =-0.5000-0.5000 0.0745 (  6252 PWs)   bands (ev):

   -36.8950 -36.8950 -36.8314 -36.8314   2.4822   2.4822   4.3384   4.3384
     5.5603   5.5603   7.1082   7.1082  11.8007  11.8007

          k =-0.5000-0.5000 0.1490 (  6260 PWs)   bands (ev):

   -36.8950 -36.8950 -36.8314 -36.8314   2.4681   2.4681   4.2687   4.2687
     5.6554   5.6554   7.1528   7.1528  11.8492  11.8492

          k =-0.5000-0.5000 0.2235 (  6260 PWs)   bands (ev):

   -36.8950 -36.8950 -36.8314 -36.8314   2.4569   2.4569   4.2188   4.2188
     5.7256   5.7256   7.1886   7.1886  11.8912  11.8912

     the Fermi energy is     8.2393 ev

!    total energy              =     -74.17572965 Ry
     estimated scf accuracy    <          1.1E-09 Ry
     smearing contrib. (-TS)   =      -0.00075179 Ry
     internal energy E=F+TS    =     -74.17497786 Ry

     The total energy is F=E-TS. E is the sum of the following terms:
     one-electron contribution =     -18.93084195 Ry
     hartree contribution      =      12.89256237 Ry
     xc contribution           =     -20.56276430 Ry
     ewald contribution        =     -47.57393397 Ry

     convergence has been achieved in   8 iterations

     Forces acting on atoms (cartesian axes, Ry/au):

     atom    1 type  1   force =     0.00000000    0.00000000   -0.12392688
     atom    2 type  1   force =     0.00000000    0.00000000    0.12392688
     atom    3 type  2   force =     0.00000000    0.00000000   -0.00000000
     atom    4 type  2   force =     0.00000000    0.00000000    0.00000000
     atom    5 type  2   force =     0.00000000    0.00000000    0.02931901
     atom    6 type  2   force =     0.00000000    0.00000000   -0.02931901
     The non-local contrib.  to forces
     atom    1 type  1   force =     0.00000000    0.00000000   -0.15870316
     atom    2 type  1   force =     0.00000000    0.00000000    0.15870316
     atom    3 type  2   force =     0.00000000    0.00000000   -0.00000000
     atom    4 type  2   force =     0.00000000    0.00000000    0.00000000
     atom    5 type  2   force =     0.00000000    0.00000000   -0.00177175
     atom    6 type  2   force =     0.00000000    0.00000000    0.00177175
     The ionic contribution  to forces
     atom    1 type  1   force =     0.00000000   -0.00000000   -1.95872150
     atom    2 type  1   force =     0.00000000   -0.00000000    1.95872150
     atom    3 type  2   force =    -0.00000000   -0.00000000    0.00000000
     atom    4 type  2   force =    -0.00000000   -0.00000000    0.00000000
     atom    5 type  2   force =    -0.00000000   -0.00000000    1.07169085
     atom    6 type  2   force =     0.00000000    0.00000000   -1.07169085
     The local contribution  to forces
     atom    1 type  1   force =     0.00000000   -0.00000000    1.98292005
     atom    2 type  1   force =     0.00000000   -0.00000000   -1.98292005
     atom    3 type  2   force =    -0.00000000    0.00000000   -0.00000000
     atom    4 type  2   force =     0.00000000    0.00000000   -0.00000000
     atom    5 type  2   force =    -0.00000000    0.00000000   -1.04057258
     atom    6 type  2   force =     0.00000000    0.00000000    1.04057258
     The core correction contribution to forces
     atom    1 type  1   force =     0.00000000   -0.00000000    0.01053834
     atom    2 type  1   force =     0.00000000    0.00000000   -0.01053834
     atom    3 type  2   force =     0.00000000    0.00000000    0.00000000
     atom    4 type  2   force =     0.00000000    0.00000000    0.00000000
     atom    5 type  2   force =     0.00000000    0.00000000    0.00000000
     atom    6 type  2   force =     0.00000000    0.00000000    0.00000000
     The Hubbard contrib.    to forces
     atom    1 type  1   force =     0.00000000    0.00000000    0.00000000
     atom    2 type  1   force =     0.00000000    0.00000000    0.00000000
     atom    3 type  2   force =     0.00000000    0.00000000    0.00000000
     atom    4 type  2   force =     0.00000000    0.00000000    0.00000000
     atom    5 type  2   force =     0.00000000    0.00000000    0.00000000
     atom    6 type  2   force =     0.00000000    0.00000000    0.00000000
     The SCF correction term to forces
     atom    1 type  1   force =     0.00000000   -0.00000000    0.00003939
     atom    2 type  1   force =    -0.00000000    0.00000000   -0.00003939
     atom    3 type  2   force =     0.00000000   -0.00000000   -0.00000000
     atom    4 type  2   force =     0.00000000   -0.00000000    0.00000000
     atom    5 type  2   force =     0.00000000   -0.00000000   -0.00002752
     atom    6 type  2   force =     0.00000000   -0.00000000    0.00002752

     Total force =     0.180097     Total SCF correction =     0.000068


     Computing stress (Cartesian axis) and pressure

          total   stress  (Ry/bohr**3)                   (kbar)     P=      565.62
   0.00354649   0.00000000   0.00000000          521.71        0.00        0.00
   0.00000000   0.00354649   0.00000000            0.00      521.71        0.00
   0.00000000   0.00000000   0.00444207            0.00        0.00      653.45


     BFGS Geometry Optimization
     Energy error            =      0.0E+00 Ry
     Gradient error          =      1.2E-01 Ry/Bohr
     Cell gradient error     =      1.5E+02 kbar

     number of scf cycles    =   1
     number of bfgs steps    =   0

     enthalpy           new  =     -72.9149019262 Ry

     new trust radius        =       0.1239268786 bohr
ibrav =      6
 celldm(1) =      5.80450632
 celldm(3) =      1.96063372
Input lattice vectors:
     1.00368900     0.00000000     0.00000000
     0.00000000     1.00368900     0.00000000
     0.00000000     0.00000000     1.96786650
New lattice vectors in INITIAL alat:
     1.00368900     0.00000000     0.00000000
     0.00000000     1.00368900     0.00000000
     0.00000000     0.00000000     1.96786650
New lattice vectors in NEW alat (for information only):
     1.00000000     0.00000000     0.00000000
     0.00000000     1.00000000     0.00000000
     0.00000000     0.00000000     1.96063372
Discrepancy in bohr =     0.000000    0.000000    0.000000
     new conv_thr            =       0.0000000100 Ry

     new unit-cell volume =    383.43551 a.u.^3 (    56.81928 Ang^3 )
     density =      2.45299 g/cm^3

CELL_PARAMETERS (alat=  5.78317220)
   1.003689000   0.000000000   0.000000000
   0.000000000   1.003689000   0.000000000
   0.000000000   0.000000000   1.967866502

ATOMIC_POSITIONS (crystal)
Si            0.0000000000        0.5000000000        0.2447416257
Si            0.5000000000        0.0000000000        0.7552583743
Li            0.0000000000        0.0000000000        0.5000000000
Li            0.5000000000        0.5000000000        0.5000000000
Li            0.0000000000        0.5000000000        0.8565794316
Li            0.5000000000        0.0000000000        0.1434205684



     Writing config-only to output data dir ./output/SiLi.save/
     NEW-OLD atomic charge density approx. for the potential
     extrapolated charge   20.65070, renormalised to   20.00000

     total cpu time spent up to now is       19.2 secs

     Self-consistent Calculation

     iteration #  1     ecut=   100.00 Ry     beta= 0.70
     Davidson diagonalization with overlap
     ethr =  1.00E-06,  avg # of iterations =  8.9

     total cpu time spent up to now is       22.5 secs

     total energy              =     -74.20779208 Ry
     estimated scf accuracy    <       0.05162312 Ry

     iteration #  2     ecut=   100.00 Ry     beta= 0.70
     Davidson diagonalization with overlap
     ethr =  2.58E-04,  avg # of iterations =  3.0

     total cpu time spent up to now is       24.2 secs

     total energy              =     -74.21448784 Ry
     estimated scf accuracy    <       0.31839107 Ry

     iteration #  3     ecut=   100.00 Ry     beta= 0.70
     Davidson diagonalization with overlap
     ethr =  2.58E-04,  avg # of iterations =  2.7

     total cpu time spent up to now is       25.6 secs

     total energy              =     -74.25110447 Ry
     estimated scf accuracy    <       0.00666088 Ry

     iteration #  4     ecut=   100.00 Ry     beta= 0.70
     Davidson diagonalization with overlap
     ethr =  3.33E-05,  avg # of iterations =  2.4

     total cpu time spent up to now is       26.8 secs

     total energy              =     -74.25168344 Ry
     estimated scf accuracy    <       0.00088577 Ry

     iteration #  5     ecut=   100.00 Ry     beta= 0.70
     Davidson diagonalization with overlap
     ethr =  4.43E-06,  avg # of iterations =  2.6

     total cpu time spent up to now is       28.1 secs

     total energy              =     -74.25169017 Ry
     estimated scf accuracy    <       0.00019628 Ry

     iteration #  6     ecut=   100.00 Ry     beta= 0.70
     Davidson diagonalization with overlap
     ethr =  9.81E-07,  avg # of iterations =  2.2

     total cpu time spent up to now is       29.3 secs

     total energy              =     -74.25172601 Ry
     estimated scf accuracy    <       0.00000083 Ry

     iteration #  7     ecut=   100.00 Ry     beta= 0.70
     Davidson diagonalization with overlap
     ethr =  4.14E-09,  avg # of iterations =  4.1

     total cpu time spent up to now is       30.8 secs

     total energy              =     -74.25172721 Ry
     estimated scf accuracy    <       0.00000010 Ry

     iteration #  8     ecut=   100.00 Ry     beta= 0.70
     Davidson diagonalization with overlap
     ethr =  5.23E-10,  avg # of iterations =  2.0

     total cpu time spent up to now is       32.0 secs

     total energy              =     -74.25172725 Ry
     estimated scf accuracy    <       0.00000008 Ry

     iteration #  9     ecut=   100.00 Ry     beta= 0.70
     Davidson diagonalization with overlap
     ethr =  3.79E-10,  avg # of iterations =  1.0

     total cpu time spent up to now is       33.1 secs

     total energy              =     -74.25172725 Ry
     estimated scf accuracy    <       0.00000002 Ry

     iteration # 10     ecut=   100.00 Ry     beta= 0.70
     Davidson diagonalization with overlap
     ethr =  8.67E-11,  avg # of iterations =  2.1

     total cpu time spent up to now is       34.2 secs

     End of self-consistent calculation

          k = 0.0000 0.0000 0.0000 (  6215 PWs)   bands (ev):

   -37.3910 -37.2206 -37.1857 -36.9863  -2.1085  -0.9967   3.4571   8.8972
     8.8972   9.3552  11.5179  11.5179  13.2312  13.5560

          k = 0.0000 0.0000 0.0726 (  6223 PWs)   bands (ev):

   -37.3905 -37.2229 -37.1839 -36.9863  -2.0789  -1.0652   3.6245   8.9133
     8.9635   8.9635  11.2413  11.2413  12.9897  13.2747

          k = 0.0000 0.0000 0.1452 (  6235 PWs)   bands (ev):

   -37.3896 -37.2273 -37.1805 -36.9863  -1.9975  -1.2283   4.0552   8.0221
     9.1542   9.1542  10.7000  10.7000  12.7360  13.1991

          k = 0.0000 0.0000 0.2178 (  6240 PWs)   bands (ev):

   -37.3887 -37.2304 -37.1782 -36.9863  -1.9031  -1.3836   4.5070   7.2883
     9.4118   9.4118  10.2261  10.2261  12.6009  13.1759

          k = 0.0000 0.0996 0.0000 (  6249 PWs)   bands (ev):

   -37.3807 -37.2186 -37.1859 -36.9953  -2.0071  -0.8886   3.5497   7.9048
     9.0374   9.2498  10.1615  11.6387  12.6622  13.4984

          k = 0.0000 0.0996 0.0726 (  6244 PWs)   bands (ev):

   -37.3803 -37.2209 -37.1841 -36.9953  -1.9768  -0.9586   3.7201   7.9537
     8.8439   9.1035   9.9670  11.3668  12.7034  13.8514

          k = 0.0000 0.0996 0.1452 (  6262 PWs)   bands (ev):

   -37.3793 -37.2253 -37.1807 -36.9953  -1.8934  -1.1255   4.1604   7.8751
     8.2430   9.2936   9.5074  10.8315  13.0207  13.8567

          k = 0.0000 0.0996 0.2178 (  6270 PWs)   bands (ev):

   -37.3784 -37.2284 -37.1783 -36.9953  -1.7955  -1.2855   4.6293   7.2190
     8.4082   9.0826   9.5502  10.3610  13.2838  13.7540

          k = 0.0000 0.1993 0.0000 (  6251 PWs)   bands (ev):

   -37.3511 -37.2129 -37.1867 -37.0214  -1.7067  -0.5818   3.8234   6.2304
     8.2476   8.7570   9.4555  11.9861  12.1389  13.5996

          k = 0.0000 0.1993 0.0726 (  6258 PWs)   bands (ev):

   -37.3506 -37.2152 -37.1848 -37.0214  -1.6750  -0.6547   3.9987   6.2781
     7.8802   8.7964   9.5209  11.7311  11.9043  14.1999

          k = 0.0000 0.1993 0.1452 (  6262 PWs)   bands (ev):

   -37.3496 -37.2197 -37.1814 -37.0214  -1.5869  -0.8294   4.4589   6.4033
     7.2789   8.4453   9.7088  11.2177  12.0652  14.8018

          k = 0.0000 0.1993 0.2178 (  6264 PWs)   bands (ev):

   -37.3488 -37.2228 -37.1791 -37.0215  -1.4801  -1.0004   4.9825   6.4668
     6.8063   8.0043   9.9620  10.7598  12.5429  14.7117

          k = 0.0000 0.2989 0.0000 (  6274 PWs)   bands (ev):

   -37.3060 -37.2042 -37.1892 -37.0625  -1.2236  -0.1525   4.2561   4.7472
     6.5103   7.8404  10.1412  12.3786  12.4807  13.8040

          k = 0.0000 0.2989 0.0726 (  6263 PWs)   bands (ev):

   -37.3056 -37.2071 -37.1867 -37.0625  -1.1914  -0.2226   4.3645   4.8527
     6.2582   8.0266  10.2048  11.7996  12.2695  14.4721

          k = 0.0000 0.2989 0.1452 (  6267 PWs)   bands (ev):

   -37.3045 -37.2120 -37.1829 -37.0626  -1.1006  -0.3936   4.6091   5.1679
     5.8108   8.1148  10.3872  11.3856  11.8165  14.1615

          k = 0.0000 0.2989 0.2178 (  6271 PWs)   bands (ev):

   -37.3036 -37.2152 -37.1805 -37.0626  -0.9861  -0.5679   4.9052   5.2751
     5.6624   7.8514  10.6314  11.3941  11.6946  13.1383

          k = 0.0000 0.3985 0.0000 (  6302 PWs)   bands (ev):

   -37.2527 -37.1948 -37.1921 -37.1140  -0.6083   0.1641   3.8350   4.5633
     5.3755   6.8117  11.0635  12.7502  13.1558  14.1325

          k = 0.0000 0.3985 0.0726 (  6292 PWs)   bands (ev):

   -37.2521 -37.1995 -37.1879 -37.1141  -0.5807   0.1211   3.7681   4.5511
     5.4451   7.0595  11.1218  12.3039  12.6631  14.1796

          k = 0.0000 0.3985 0.1452 (  6278 PWs)   bands (ev):

   -37.2508 -37.2047 -37.1838 -37.1143  -0.5030   0.0090   3.7177   4.3173
     5.8674   7.4964  11.2870  11.3794  12.4197  12.9377

          k = 0.0000 0.3985 0.2178 (  6253 PWs)   bands (ev):

   -37.2497 -37.2079 -37.1816 -37.1144  -0.4031  -0.1183   3.7898   4.0294
     6.3715   7.6757  11.1312  11.5031  11.8558  12.1316

          k = 0.0000-0.4982 0.0000 (  6298 PWs)   bands (ev):

   -37.2099 -37.2099 -37.1653 -37.1653  -0.0216  -0.0216   3.8925   3.8925
     5.8837   5.8837  12.1037  12.1037  14.2016  14.2016

          k = 0.0000-0.4982 0.0726 (  6312 PWs)   bands (ev):

   -37.2099 -37.2099 -37.1654 -37.1654  -0.0165  -0.0165   3.7713   3.7713
     6.1259   6.1259  12.1376  12.1376  13.1604  13.1604

          k = 0.0000-0.4982 0.1452 (  6278 PWs)   bands (ev):

   -37.2097 -37.2097 -37.1655 -37.1655  -0.0049  -0.0049   3.5542   3.5542
     6.6638   6.6638  11.9627  11.9627  12.2210  12.2210

          k = 0.0000-0.4982 0.2178 (  6254 PWs)   bands (ev):

   -37.2096 -37.2096 -37.1656 -37.1656   0.0047   0.0047   3.4127   3.4127
     7.1421   7.1421  11.1596  11.1596  12.2970  12.2970

          k = 0.0996 0.0996 0.0000 (  6251 PWs)   bands (ev):

   -37.3708 -37.2167 -37.1860 -37.0037  -1.9046  -0.7789   3.6416   7.9339
     8.0758   9.1680   9.7730  10.9728  13.2831  13.6993

          k = 0.0996 0.0996 0.0726 (  6250 PWs)   bands (ev):

   -37.3704 -37.2189 -37.1842 -37.0037  -1.8737  -0.8505   3.8151   7.9895
     8.1151   8.7847   9.6117  10.7590  13.4570  13.5501

          k = 0.0996 0.0996 0.1452 (  6248 PWs)   bands (ev):

   -37.3694 -37.2233 -37.1808 -37.0037  -1.7883  -1.0213   4.2651   7.9281
     8.1521   8.2581   9.2474  10.3185  13.8102  14.1984

          k = 0.0996 0.0996 0.2178 (  6265 PWs)   bands (ev):

   -37.3686 -37.2264 -37.1785 -37.0037  -1.6869  -1.1861   4.7511   7.2179
     8.3556   8.3923   8.8701   9.9951  14.1458  14.7524

          k = 0.0996 0.1993 0.0000 (  6261 PWs)   bands (ev):

   -37.3425 -37.2112 -37.1867 -37.0285  -1.6010  -0.4672   3.9132   6.3066
     8.1508   8.2190   8.9722  10.9570  12.8239  13.8243

          k = 0.0996 0.1993 0.0726 (  6256 PWs)   bands (ev):

   -37.3421 -37.2135 -37.1848 -37.0285  -1.5687  -0.5418   4.0919   6.3534
     7.7810   8.4736   8.7688  10.7814  12.6608  14.2829

          k = 0.0996 0.1993 0.1452 (  6249 PWs)   bands (ev):

   -37.3411 -37.2180 -37.1814 -37.0285  -1.4787  -0.7207   4.5616   6.4802
     7.2827   8.2314   8.7023  10.3931  12.9083  15.0654

          k = 0.0996 0.1993 0.2178 (  6258 PWs)   bands (ev):

   -37.3402 -37.2210 -37.1791 -37.0285  -1.3683  -0.8968   5.1004   6.5595
     6.8585   7.7341   8.8817  10.0743  13.5178  14.9641

          k = 0.0996 0.2989 0.0000 (  6264 PWs)   bands (ev):

   -37.2995 -37.2028 -37.1889 -37.0675  -1.1124  -0.0290   4.3434   4.8170
     6.5425   7.6455   9.3036  11.2530  12.9051  14.0340

          k = 0.0996 0.2989 0.0726 (  6267 PWs)   bands (ev):

   -37.2990 -37.2057 -37.1864 -37.0675  -1.0796  -0.1011   4.4517   4.9276
     6.2780   7.8788   9.2378  11.1034  12.4025  14.7647

          k = 0.0996 0.2989 0.1452 (  6259 PWs)   bands (ev):

   -37.2979 -37.2105 -37.1827 -37.0675  -0.9870  -0.2768   4.6890   5.2678
     5.8332   8.0461   9.1479  10.7641  12.1480  14.3848

          k = 0.0996 0.2989 0.2178 (  6271 PWs)   bands (ev):

   -37.2970 -37.2136 -37.1804 -37.0675  -0.8689  -0.4568   4.9749   5.3376
     5.7768   7.7490   9.2964  10.4605  12.5340  13.3683

          k = 0.0996 0.3985 0.0000 (  6266 PWs)   bands (ev):

   -37.2486 -37.1941 -37.1912 -37.1164  -0.4887   0.2976   3.8984   4.6600
     5.3959   6.7597  10.0645  11.3714  13.4824  14.2890

          k = 0.0996 0.3985 0.0726 (  6278 PWs)   bands (ev):

   -37.2481 -37.1985 -37.1872 -37.1164  -0.4606   0.2531   3.8309   4.6400
     5.4720   7.0178  10.0415  11.2930  12.6959  14.0616

          k = 0.0996 0.3985 0.1452 (  6271 PWs)   bands (ev):

   -37.2468 -37.2035 -37.1833 -37.1166  -0.3812   0.1370   3.7800   4.3863
     5.9247   7.4741   9.9313  11.1040  11.9118  13.0613

          k = 0.0996 0.3985 0.2178 (  6261 PWs)   bands (ev):

   -37.2457 -37.2066 -37.1812 -37.1167  -0.2779   0.0045   3.8531   4.0908
     6.4660   7.6547   9.8423  10.9708  11.5231  12.3469

          k = 0.0996-0.4982 0.0000 (  6286 PWs)   bands (ev):

   -37.2083 -37.2083 -37.1652 -37.1652   0.1090   0.1090   3.9630   3.9630
     5.8935   5.8935  10.8977  10.8977  14.1552  14.1552

          k = 0.0996-0.4982 0.0726 (  6298 PWs)   bands (ev):

   -37.2082 -37.2082 -37.1653 -37.1653   0.1141   0.1141   3.8373   3.8373
     6.1423   6.1423  10.8819  10.8819  13.2808  13.2808

          k = 0.0996-0.4982 0.1452 (  6278 PWs)   bands (ev):

   -37.2081 -37.2081 -37.1654 -37.1654   0.1260   0.1260   3.6145   3.6145
     6.6938   6.6938  10.7775  10.7775  12.2265  12.2265

          k = 0.0996-0.4982 0.2178 (  6260 PWs)   bands (ev):

   -37.2080 -37.2080 -37.1655 -37.1655   0.1358   0.1358   3.4703   3.4703
     7.1893   7.1893  10.5085  10.5085  11.7084  11.7084

          k = 0.1993 0.1993 0.0000 (  6249 PWs)   bands (ev):

   -37.3179 -37.2062 -37.1869 -37.0493  -1.2878  -0.1398   4.1775   6.3703
     6.6550   7.8246   8.7960   9.7154  13.0528  13.8047

          k = 0.1993 0.1993 0.0726 (  6249 PWs)   bands (ev):

   -37.3175 -37.2087 -37.1849 -37.0493  -1.2542  -0.2181   4.3625   6.3923
     6.6729   7.7652   8.4860   9.7004  13.2599  13.4532

          k = 0.1993 0.1993 0.1452 (  6239 PWs)   bands (ev):

   -37.3165 -37.2131 -37.1815 -37.0493  -1.1597  -0.4062   4.8515   6.4476
     6.7161   7.6306   7.8096   9.5263  13.5773  13.8384

          k = 0.1993 0.1993 0.2178 (  6250 PWs)   bands (ev):

   -37.3156 -37.2161 -37.1794 -37.0493  -1.0401  -0.5948   5.4266   6.4999
     6.7608   7.1092   7.5188   9.3435  14.0892  14.6665

          k = 0.1993 0.2989 0.0000 (  6264 PWs)   bands (ev):

   -37.2807 -37.1988 -37.1883 -37.0820  -0.7829   0.3272   4.5946   5.0066
     6.5953   6.6714   8.6451   9.4388  12.9552  13.4956

          k = 0.1993 0.2989 0.0726 (  6257 PWs)   bands (ev):

   -37.2803 -37.2017 -37.1858 -37.0820  -0.7489   0.2500   4.7020   5.1248
     6.2064   7.0394   8.4887   9.3989  12.6380  13.7965

          k = 0.1993 0.2989 0.1452 (  6257 PWs)   bands (ev):

   -37.2792 -37.2063 -37.1822 -37.0820  -0.6520   0.0628   4.9079   5.5346
     5.8024   7.3721   8.0438   9.2479  12.4527  13.6700

          k = 0.1993 0.2989 0.2178 (  6258 PWs)   bands (ev):

   -37.2783 -37.2093 -37.1801 -37.0820  -0.5243  -0.1318   5.1415   5.4497
     6.1090   7.3884   7.6436   9.0762  12.7176  13.2366

          k = 0.1993 0.3985 0.0000 (  6265 PWs)   bands (ev):

   -37.2372 -37.1922 -37.1884 -37.1234  -0.1349   0.6887   4.0768   4.9422
     5.4374   6.4342   8.7828   9.4304  13.1158  13.1638

          k = 0.1993 0.3985 0.0726 (  6264 PWs)   bands (ev):

   -37.2367 -37.1957 -37.1854 -37.1234  -0.1056   0.6397   4.0085   4.8851
     5.5293   6.7198   8.7460   9.3907  12.2915  13.1379

          k = 0.1993 0.3985 0.1452 (  6268 PWs)   bands (ev):

   -37.2355 -37.2001 -37.1821 -37.1235  -0.0220   0.5123   3.9561   4.5677
     6.0569   7.2219   8.5912   9.2765  11.5584  12.3276

          k = 0.1993 0.3985 0.2178 (  6257 PWs)   bands (ev):

   -37.2344 -37.2029 -37.1804 -37.1236   0.0907   0.3651   4.0276   4.2592
     6.6782   7.5042   8.3467   9.1451  11.3010  11.6730

          k = 0.1993-0.4982 0.0000 (  6274 PWs)   bands (ev):

   -37.2038 -37.2038 -37.1652 -37.1652   0.4946   0.4946   4.1630   4.1630
     5.8713   5.8713   9.1784   9.1784  13.1157  13.1157

          k = 0.1993-0.4982 0.0726 (  6268 PWs)   bands (ev):

   -37.2037 -37.2037 -37.1653 -37.1653   0.5000   0.5000   4.0232   4.0232
     6.1344   6.1344   9.1760   9.1760  12.4324  12.4324

          k = 0.1993-0.4982 0.1452 (  6278 PWs)   bands (ev):

   -37.2036 -37.2036 -37.1654 -37.1654   0.5124   0.5124   3.7847   3.7847
     6.7059   6.7059   9.1611   9.1611  11.4357  11.4357

          k = 0.1993-0.4982 0.2178 (  6268 PWs)   bands (ev):

   -37.2035 -37.2035 -37.1655 -37.1655   0.5226   0.5226   3.6338   3.6338
     7.2232   7.2232   9.1211   9.1211  10.7310  10.7310

          k = 0.2989 0.2989 0.0000 (  6257 PWs)   bands (ev):

   -37.2527 -37.1929 -37.1883 -37.1052  -0.2514   0.8503   4.9708   5.0929
     5.5098   6.3921   8.0195   8.4203  12.6523  12.6738

          k = 0.2989 0.2989 0.0726 (  6261 PWs)   bands (ev):

   -37.2522 -37.1963 -37.1853 -37.1052  -0.2169   0.7708   5.0669   5.0862
     5.5998   6.3922   7.8932   8.4476  12.4778  12.7743

          k = 0.2989 0.2989 0.1452 (  6267 PWs)   bands (ev):

   -37.2511 -37.2007 -37.1819 -37.1052  -0.1175   0.5777   5.0715   5.1923
     5.9726   6.3923   7.6368   8.3515  11.9062  13.0313

          k = 0.2989 0.2989 0.2178 (  6267 PWs)   bands (ev):

   -37.2502 -37.2035 -37.1801 -37.1052   0.0194   0.3717   5.0598   5.2363
     6.3924   6.5940   7.2277   8.1545  11.5960  13.1084

          k = 0.2989 0.3985 0.0000 (  6265 PWs)   bands (ev):

   -37.2207 -37.1902 -37.1844 -37.1348   0.4351   1.2936   4.3142   5.3544
     5.4450   5.5977   7.6474   8.1221  12.1147  12.4931

          k = 0.2989 0.3985 0.0726 (  6272 PWs)   bands (ev):

   -37.2202 -37.1923 -37.1828 -37.1349   0.4652   1.2386   4.2511   5.0764
     5.5888   5.9985   7.6144   8.1277  11.7313  12.1138

          k = 0.2989 0.3985 0.1452 (  6264 PWs)   bands (ev):

   -37.2190 -37.1957 -37.1805 -37.1349   0.5520   1.0970   4.1942   4.7151
     6.0451   6.5042   7.5376   8.0794  10.9541  11.7167

          k = 0.2989 0.3985 0.2178 (  6272 PWs)   bands (ev):

   -37.2179 -37.1980 -37.1793 -37.1349   0.6748   0.9316   4.2366   4.4503
     6.3709   7.0497   7.4866   7.8329  10.4138  11.5128

          k = 0.2989-0.4982 0.0000 (  6282 PWs)   bands (ev):

   -37.1977 -37.1977 -37.1657 -37.1657   1.1119   1.1119   4.4352   4.4352
     5.6347   5.6347   7.7979   7.7979  12.0521  12.0521

          k = 0.2989-0.4982 0.0726 (  6266 PWs)   bands (ev):

   -37.1977 -37.1977 -37.1657 -37.1657   1.1171   1.1171   4.2707   4.2707
     5.8952   5.8952   7.8047   7.8047  11.5965  11.5965

          k = 0.2989-0.4982 0.1452 (  6268 PWs)   bands (ev):

   -37.1977 -37.1977 -37.1657 -37.1657   1.1289   1.1289   4.0144   4.0144
     6.3977   6.3977   7.8281   7.8281  10.8626  10.8626

          k = 0.2989-0.4982 0.2178 (  6258 PWs)   bands (ev):

   -37.1976 -37.1976 -37.1658 -37.1658   1.1387   1.1387   3.8596   3.8596
     6.7911   6.7911   7.8673   7.8673  10.3189  10.3189

          k = 0.3985 0.3985 0.0000 (  6277 PWs)   bands (ev):

   -37.2032 -37.1895 -37.1784 -37.1501   1.1713   1.9201   4.2932   5.0266
     5.2262   5.5253   6.6338   7.6692  11.5216  11.7176

          k = 0.3985 0.3985 0.0726 (  6277 PWs)   bands (ev):

   -37.2029 -37.1902 -37.1780 -37.1501   1.1978   1.8710   4.2696   4.7338
     5.5565   5.6336   6.6457   7.6840  11.2287  11.6213

          k = 0.3985 0.3985 0.1452 (  6249 PWs)   bands (ev):

   -37.2018 -37.1920 -37.1773 -37.1501   1.2748   1.7442   4.2205   4.4921
     5.6229   6.1416   6.7064   7.7114  10.5203  11.6789

          k = 0.3985 0.3985 0.2178 (  6265 PWs)   bands (ev):

   -37.2007 -37.1935 -37.1768 -37.1501   1.3881   1.5922   4.1841   4.3744
     5.6731   6.4126   6.8907   7.7159   9.9817  11.7386

          k = 0.3985-0.4982 0.0000 (  6262 PWs)   bands (ev):

   -37.1923 -37.1923 -37.1666 -37.1666   1.8836   1.8836   4.4418   4.4418
     5.2245   5.2245   7.0619   7.0619  11.3924  11.3924

          k = 0.3985-0.4982 0.0726 (  6266 PWs)   bands (ev):

   -37.1923 -37.1923 -37.1666 -37.1666   1.8856   1.8856   4.3135   4.3135
     5.3859   5.3859   7.0820   7.0820  11.2228  11.2228

          k = 0.3985-0.4982 0.1452 (  6254 PWs)   bands (ev):

   -37.1923 -37.1923 -37.1666 -37.1666   1.8902   1.8902   4.1148   4.1148
     5.6582   5.6582   7.1363   7.1363  10.9188  10.9188

          k = 0.3985-0.4982 0.2178 (  6242 PWs)   bands (ev):

   -37.1922 -37.1922 -37.1666 -37.1666   1.8942   1.8942   3.9946   3.9946
     5.8350   5.8350   7.1917   7.1917  10.7038  10.7038

          k =-0.4982-0.4982 0.0000 (  6260 PWs)   bands (ev):

   -37.1900 -37.1900 -37.1672 -37.1672   2.3988   2.3988   4.0227   4.0227
     5.2355   5.2355   6.8414   6.8414  11.2000  11.2000

          k =-0.4982-0.4982 0.0726 (  6252 PWs)   bands (ev):

   -37.1900 -37.1900 -37.1672 -37.1672   2.3934   2.3934   3.9936   3.9936
     5.2764   5.2764   6.8584   6.8584  11.2211  11.2211

          k =-0.4982-0.4982 0.1452 (  6260 PWs)   bands (ev):

   -37.1900 -37.1900 -37.1672 -37.1672   2.3811   2.3811   3.9341   3.9341
     5.3628   5.3628   6.8965   6.8965  11.2713  11.2713

          k =-0.4982-0.4982 0.2178 (  6260 PWs)   bands (ev):

   -37.1900 -37.1900 -37.1672 -37.1672   2.3714   2.3714   3.8910   3.8910
     5.4278   5.4278   6.9271   6.9271  11.3146  11.3146

     the Fermi energy is     7.9095 ev

!    total energy              =     -74.25172725 Ry
     estimated scf accuracy    <          9.1E-10 Ry
     smearing contrib. (-TS)   =      -0.00063051 Ry
     internal energy E=F+TS    =     -74.25109674 Ry

     The total energy is F=E-TS. E is the sum of the following terms:
     one-electron contribution =     -18.85718863 Ry
     hartree contribution      =      12.58844133 Ry
     xc contribution           =     -20.47731012 Ry
     ewald contribution        =     -47.50503931 Ry

     convergence has been achieved in  10 iterations

     Forces acting on atoms (cartesian axes, Ry/au):

     atom    1 type  1   force =     0.00000000    0.00000000   -0.07412122
     atom    2 type  1   force =     0.00000000    0.00000000    0.07412122
     atom    3 type  2   force =     0.00000000    0.00000000    0.00000000
     atom    4 type  2   force =     0.00000000    0.00000000    0.00000000
     atom    5 type  2   force =     0.00000000    0.00000000    0.02570667
     atom    6 type  2   force =     0.00000000    0.00000000   -0.02570667
     The non-local contrib.  to forces
     atom    1 type  1   force =     0.00000000    0.00000000   -0.10735943
     atom    2 type  1   force =     0.00000000    0.00000000    0.10735943
     atom    3 type  2   force =     0.00000000    0.00000000    0.00000000
     atom    4 type  2   force =     0.00000000    0.00000000    0.00000000
     atom    5 type  2   force =     0.00000000    0.00000000   -0.00848793
     atom    6 type  2   force =     0.00000000    0.00000000    0.00848793
     The ionic contribution  to forces
     atom    1 type  1   force =    -0.00000000    0.00000000   -1.50310937
     atom    2 type  1   force =     0.00000000   -0.00000000    1.50310937
     atom    3 type  2   force =    -0.00000000   -0.00000000    0.00000000
     atom    4 type  2   force =     0.00000000    0.00000000    0.00000000
     atom    5 type  2   force =    -0.00000000    0.00000000    0.82792389
     atom    6 type  2   force =     0.00000000   -0.00000000   -0.82792389
     The local contribution  to forces
     atom    1 type  1   force =    -0.00000000    0.00000000    1.52890313
     atom    2 type  1   force =    -0.00000000   -0.00000000   -1.52890313
     atom    3 type  2   force =    -0.00000000    0.00000000    0.00000000
     atom    4 type  2   force =     0.00000000    0.00000000    0.00000000
     atom    5 type  2   force =    -0.00000000    0.00000000   -0.79370659
     atom    6 type  2   force =     0.00000000    0.00000000    0.79370659
     The core correction contribution to forces
     atom    1 type  1   force =    -0.00000000   -0.00000000    0.00740738
     atom    2 type  1   force =    -0.00000000   -0.00000000   -0.00740738
     atom    3 type  2   force =     0.00000000    0.00000000    0.00000000
     atom    4 type  2   force =     0.00000000    0.00000000    0.00000000
     atom    5 type  2   force =     0.00000000    0.00000000    0.00000000
     atom    6 type  2   force =     0.00000000    0.00000000    0.00000000
     The Hubbard contrib.    to forces
     atom    1 type  1   force =     0.00000000    0.00000000    0.00000000
     atom    2 type  1   force =     0.00000000    0.00000000    0.00000000
     atom    3 type  2   force =     0.00000000    0.00000000    0.00000000
     atom    4 type  2   force =     0.00000000    0.00000000    0.00000000
     atom    5 type  2   force =     0.00000000    0.00000000    0.00000000
     atom    6 type  2   force =     0.00000000    0.00000000    0.00000000
     The SCF correction term to forces
     atom    1 type  1   force =    -0.00000000    0.00000000    0.00003708
     atom    2 type  1   force =     0.00000000   -0.00000000   -0.00003708
     atom    3 type  2   force =     0.00000000    0.00000000   -0.00000000
     atom    4 type  2   force =     0.00000000    0.00000000   -0.00000000
     atom    5 type  2   force =     0.00000000   -0.00000000   -0.00002270
     atom    6 type  2   force =     0.00000000   -0.00000000    0.00002270

     Total force =     0.110949     Total SCF correction =     0.000061


     Computing stress (Cartesian axis) and pressure

          total   stress  (Ry/bohr**3)                   (kbar)     P=      483.44
   0.00300594   0.00000000   0.00000000          442.19        0.00        0.00
   0.00000000   0.00300594   0.00000000            0.00      442.19        0.00
   0.00000000   0.00000000   0.00384719            0.00        0.00      565.94

     Energy error            =      3.4E-02 Ry
     Gradient error          =      7.4E-02 Ry/Bohr
     Cell gradient error     =      6.6E+01 kbar

     number of scf cycles    =   2
     number of bfgs steps    =   1

     enthalpy           old  =     -72.9149019262 Ry
     enthalpy           new  =     -72.9484564268 Ry

     CASE: enthalpy          _new < enthalpy          _old

     new trust radius        =       0.1398745780 bohr
ibrav =      6
 celldm(1) =      5.73696047
 celldm(3) =      2.02759121
Input lattice vectors:
     0.99200928     0.00000000     0.00000000
     0.00000000     0.99200928     0.00000000
     0.00000000     0.00000000     2.01138929
New lattice vectors in INITIAL alat:
     0.99200928     0.00000000     0.00000000
     0.00000000     0.99200928     0.00000000
     0.00000000     0.00000000     2.01138929
New lattice vectors in NEW alat (for information only):
     1.00000000     0.00000000     0.00000000
     0.00000000     1.00000000     0.00000000
     0.00000000     0.00000000     2.02759121
Discrepancy in bohr =     0.000000    0.000000    0.000000
     new conv_thr            =       0.0000000074 Ry

     new unit-cell volume =    382.84764 a.u.^3 (    56.73217 Ang^3 )
     density =      2.45676 g/cm^3

CELL_PARAMETERS (alat=  5.78317220)
   0.992009276   0.000000000   0.000000000
   0.000000000   0.992009276   0.000000000
   0.000000000   0.000000000   2.011389290

ATOMIC_POSITIONS (crystal)
Si            0.0000000000        0.5000000000        0.2324509140
Si            0.5000000000        0.0000000000        0.7675490860
Li            0.0000000000        0.0000000000        0.5000000000
Li            0.5000000000        0.5000000000        0.5000000000
Li            0.0000000000        0.5000000000        0.8604479638
Li            0.5000000000        0.0000000000        0.1395520362



     Writing config-only to output data dir ./output/SiLi.save/
     NEW-OLD atomic charge density approx. for the potential
     extrapolated charge   19.96932, renormalised to   20.00000

     total cpu time spent up to now is       37.5 secs

     Self-consistent Calculation

     iteration #  1     ecut=   100.00 Ry     beta= 0.70
     Davidson diagonalization with overlap
     ethr =  1.00E-06,  avg # of iterations =  8.9

     total cpu time spent up to now is       40.5 secs

     total energy              =     -74.26420730 Ry
     estimated scf accuracy    <       0.01189444 Ry

     iteration #  2     ecut=   100.00 Ry     beta= 0.70
     Davidson diagonalization with overlap
     ethr =  5.95E-05,  avg # of iterations =  3.0

     total cpu time spent up to now is       41.9 secs

     total energy              =     -74.26335840 Ry
     estimated scf accuracy    <       0.05050607 Ry

     iteration #  3     ecut=   100.00 Ry     beta= 0.70
     Davidson diagonalization with overlap
     ethr =  5.95E-05,  avg # of iterations =  2.2

     total cpu time spent up to now is       43.2 secs

     total energy              =     -74.27124601 Ry
     estimated scf accuracy    <       0.00002603 Ry

     iteration #  4     ecut=   100.00 Ry     beta= 0.70
     Davidson diagonalization with overlap
     ethr =  1.30E-07,  avg # of iterations =  4.7

     total cpu time spent up to now is       44.8 secs

     total energy              =     -74.27131373 Ry
     estimated scf accuracy    <       0.00006150 Ry

     iteration #  5     ecut=   100.00 Ry     beta= 0.70
     Davidson diagonalization with overlap
     ethr =  1.30E-07,  avg # of iterations =  2.0

     total cpu time spent up to now is       46.0 secs

     total energy              =     -74.27131785 Ry
     estimated scf accuracy    <       0.00000376 Ry

     iteration #  6     ecut=   100.00 Ry     beta= 0.70
     Davidson diagonalization with overlap
     ethr =  1.88E-08,  avg # of iterations =  2.6

     total cpu time spent up to now is       47.1 secs

     total energy              =     -74.27131886 Ry
     estimated scf accuracy    <       0.00000034 Ry

     iteration #  7     ecut=   100.00 Ry     beta= 0.70
     Davidson diagonalization with overlap
     ethr =  1.72E-09,  avg # of iterations =  1.9

     total cpu time spent up to now is       48.3 secs

     total energy              =     -74.27131890 Ry
     estimated scf accuracy    <       0.00000002 Ry

     iteration #  8     ecut=   100.00 Ry     beta= 0.70
     Davidson diagonalization with overlap
     ethr =  7.62E-11,  avg # of iterations =  3.4

     total cpu time spent up to now is       49.5 secs

     End of self-consistent calculation

          k = 0.0000 0.0000 0.0000 (  6215 PWs)   bands (ev):

   -37.3576 -37.2460 -37.2067 -36.9253  -2.1576  -1.0777   3.3261   9.0686
     9.3057   9.3057  11.7123  11.7123  13.1682  13.2127

          k = 0.0000 0.0000 0.0710 (  6223 PWs)   bands (ev):

   -37.3569 -37.2484 -37.2050 -36.9253  -2.1368  -1.1281   3.4643   8.6651
     9.3739   9.3739  11.4463  11.4463  13.0502  13.4317

          k = 0.0000 0.0000 0.1420 (  6235 PWs)   bands (ev):

   -37.3552 -37.2534 -37.2017 -36.9253  -2.0831  -1.2450   3.8140   7.8692
     9.5767   9.5767  10.9114  10.9114  12.8361  13.6688

          k = 0.0000 0.0000 0.2131 (  6240 PWs)   bands (ev):

   -37.3539 -37.2571 -37.1994 -36.9253  -2.0293  -1.3464   4.1621   7.2470
     9.9049   9.9049  10.3774  10.3774  12.7159  13.7304

          k = 0.0000 0.1008 0.0000 (  6249 PWs)   bands (ev):

   -37.3470 -37.2433 -37.2069 -36.9349  -2.0524  -0.9652   3.4262   8.1835
     9.0639   9.4495  10.3095  11.8398  12.8007  13.2227

          k = 0.0000 0.1008 0.0710 (  6244 PWs)   bands (ev):

   -37.3462 -37.2458 -37.2051 -36.9349  -2.0309  -1.0173   3.5678   8.1800
     8.7452   9.5175  10.1110  11.5778  12.8528  13.7455

          k = 0.0000 0.1008 0.1420 (  6262 PWs)   bands (ev):

   -37.3445 -37.2509 -37.2017 -36.9349  -1.9749  -1.1383   3.9282   7.7588
     8.5727   9.6660   9.7198  11.0480  13.2455  13.9723

          k = 0.0000 0.1008 0.2131 (  6270 PWs)   bands (ev):

   -37.3431 -37.2547 -37.1994 -36.9349  -1.9185  -1.2438   4.2915   7.1799
     8.8176   9.2055  10.0468  10.5173  13.5944  13.8978

          k = 0.0000 0.2016 0.0000 (  6251 PWs)   bands (ev):

   -37.3170 -37.2352 -37.2077 -36.9629  -1.7408  -0.6448   3.7227   6.4256
     8.3410   8.7108   9.8788  12.0672  12.2105  13.3471

          k = 0.0000 0.2016 0.0710 (  6258 PWs)   bands (ev):

   -37.3161 -37.2381 -37.2056 -36.9629  -1.7174  -0.7007   3.8721   6.4605
     7.9879   8.7283   9.9461  11.8994  11.9624  13.9948

          k = 0.0000 0.2016 0.1420 (  6262 PWs)   bands (ev):

   -37.3141 -37.2440 -37.2018 -36.9629  -1.6560  -0.8309   4.2589   6.5253
     7.4584   8.3948  10.1462  11.4512  12.1424  14.8104

          k = 0.0000 0.2016 0.2131 (  6264 PWs)   bands (ev):

   -37.3123 -37.2482 -37.1993 -36.9629  -1.5926  -0.9462   4.6716   6.4520
     7.1755   8.0073  10.4692  10.9323  12.6829  14.6139

          k = 0.0000 0.3024 0.0000 (  6274 PWs)   bands (ev):

   -37.2747 -37.2196 -37.2100 -37.0069  -1.2397  -0.1906   4.1973   4.8705
     6.5484   7.8799  10.5837  12.1507  12.7618  13.5843

          k = 0.0000 0.3024 0.0710 (  6263 PWs)   bands (ev):

   -37.2735 -37.2249 -37.2059 -37.0069  -1.2149  -0.2463   4.3162   4.9402
     6.3193   8.0284  10.6493  11.6366  12.5490  14.2990

          k = 0.0000 0.3024 0.1420 (  6267 PWs)   bands (ev):

   -37.2704 -37.2330 -37.2009 -37.0070  -1.1488  -0.3783   4.6049   5.1481
     5.8921   8.0743  10.8439  11.3279  12.0874  14.0086

          k = 0.0000 0.3024 0.2131 (  6271 PWs)   bands (ev):

   -37.2671 -37.2390 -37.1982 -37.0070  -1.0782  -0.4986   4.9158   5.3763
     5.5316   7.8452  11.1564  11.6006  11.7216  12.9311

          k = 0.0000 0.4032 0.0000 (  6302 PWs)   bands (ev):

   -37.2400 -37.2149 -37.1839 -37.0632  -0.6024   0.1631   3.8934   4.6057
     5.3177   6.8434  11.5335  12.8758  13.1688  13.9600

          k = 0.0000 0.4032 0.0710 (  6292 PWs)   bands (ev):

   -37.2390 -37.2166 -37.1832 -37.0632  -0.5803   0.1275   3.8329   4.6186
     5.3589   7.0632  11.5940  12.0788  13.0665  14.0010

          k = 0.0000 0.4032 0.1420 (  6278 PWs)   bands (ev):

   -37.2361 -37.2208 -37.1818 -37.0632  -0.5213   0.0383   3.7814   4.4294
     5.7139   7.4562  11.2301  11.7713  12.7509  12.7867

          k = 0.0000 0.4032 0.2131 (  6253 PWs)   bands (ev):

   -37.2320 -37.2259 -37.1808 -37.0633  -0.4570  -0.0501   3.8129   4.2030
     6.1360   7.6323  11.0516  11.6817  12.0485  12.4231

          k = 0.0000-0.5040 0.0000 (  6298 PWs)   bands (ev):

   -37.2236 -37.2236 -37.1255 -37.1255  -0.0016  -0.0016   3.9220   3.9220
     5.8700   5.8700  12.5999  12.5999  13.9655  13.9655

          k = 0.0000-0.5040 0.0710 (  6312 PWs)   bands (ev):

   -37.2236 -37.2236 -37.1256 -37.1256   0.0023   0.0023   3.8161   3.8161
     6.0874   6.0874  12.6340  12.6340  12.9312  12.9312

          k = 0.0000-0.5040 0.1420 (  6278 PWs)   bands (ev):

   -37.2236 -37.2236 -37.1256 -37.1256   0.0112   0.0112   3.6235   3.6235
     6.5727   6.5727  11.7804  11.7804  12.7183  12.7183

          k = 0.0000-0.5040 0.2131 (  6254 PWs)   bands (ev):

   -37.2235 -37.2235 -37.1256 -37.1256   0.0185   0.0185   3.4967   3.4967
     7.0006   7.0006  11.0277  11.0277  12.7961  12.7961

          k = 0.1008 0.1008 0.0000 (  6251 PWs)   bands (ev):

   -37.3369 -37.2406 -37.2070 -36.9439  -1.9460  -0.8511   3.5257   8.1381
     8.4813   9.0069   9.9127  11.1399  13.3897  13.6628

          k = 0.1008 0.1008 0.0710 (  6250 PWs)   bands (ev):

   -37.3361 -37.2432 -37.2051 -36.9439  -1.9237  -0.9049   3.6709   8.1829
     8.4056   8.7729   9.7829  10.9007  13.4423  13.8426

          k = 0.1008 0.1008 0.1420 (  6248 PWs)   bands (ev):

   -37.3343 -37.2486 -37.2016 -36.9439  -1.8656  -1.0300   4.0420   7.7869
     8.3067   8.7788   9.4921  10.4319  13.9645  14.4495

          k = 0.1008 0.1008 0.2131 (  6265 PWs)   bands (ev):

   -37.3328 -37.2525 -37.1993 -36.9439  -1.8065  -1.1396   4.4209   7.1818
     8.4528   8.9182   9.2299  10.0723  14.4721  14.9207

          k = 0.1008 0.2016 0.0000 (  6261 PWs)   bands (ev):

   -37.3085 -37.2325 -37.2077 -36.9704  -1.6307  -0.5253   3.8204   6.4957
     8.3138   8.4945   8.8734  11.1305  12.8845  13.5664

          k = 0.1008 0.2016 0.0710 (  6256 PWs)   bands (ev):

   -37.3076 -37.2357 -37.2054 -36.9704  -1.6066  -0.5829   3.9735   6.5305
     7.9626   8.6308   8.7962  10.9374  12.7159  14.2406

          k = 0.1008 0.2016 0.1420 (  6249 PWs)   bands (ev):

   -37.3054 -37.2418 -37.2015 -36.9704  -1.5432  -0.7176   4.3712   6.6016
     7.4964   8.1610   9.0646  10.5248  13.0044  15.1728

          k = 0.1008 0.2016 0.2131 (  6258 PWs)   bands (ev):

   -37.3035 -37.2462 -37.1991 -36.9704  -1.4770  -0.8372   4.7998   6.5452
     7.2382   7.7320   9.3058  10.1679  13.6730  14.8572

          k = 0.1008 0.3024 0.0000 (  6264 PWs)   bands (ev):

   -37.2689 -37.2167 -37.2097 -37.0121  -1.1233  -0.0611   4.2922   4.9383
     6.5845   7.7827   9.4696  11.4585  12.8198  13.8402

          k = 0.1008 0.3024 0.0710 (  6267 PWs)   bands (ev):

   -37.2677 -37.2225 -37.2051 -37.0121  -1.0978  -0.1189   4.4131   5.0109
     6.3515   7.9633   9.4134  11.2888  12.3719  14.6136

          k = 0.1008 0.3024 0.1420 (  6259 PWs)   bands (ev):

   -37.2644 -37.2309 -37.2000 -37.0122  -1.0298  -0.2556   4.6990   5.2367
     5.9329   8.0299   9.4196  10.9225  12.1757  14.3156

          k = 0.1008 0.3024 0.2131 (  6271 PWs)   bands (ev):

   -37.2609 -37.2371 -37.1973 -37.0122  -0.9564  -0.3808   4.9927   5.4872
     5.6062   7.7473   9.6679  10.5802  12.5051  13.3546

          k = 0.1008 0.4032 0.0000 (  6266 PWs)   bands (ev):

   -37.2375 -37.2142 -37.1809 -37.0655  -0.4763   0.3046   3.9540   4.7063
     5.3479   6.8284  10.3259  11.6458  13.2732  14.2044

          k = 0.1008 0.4032 0.0710 (  6278 PWs)   bands (ev):

   -37.2366 -37.2157 -37.1803 -37.0655  -0.4536   0.2673   3.8940   4.7104
     5.3987   7.0567  10.2843  11.5362  12.5939  13.9242

          k = 0.1008 0.4032 0.1420 (  6271 PWs)   bands (ev):

   -37.2340 -37.2195 -37.1792 -37.0655  -0.3929   0.1741   3.8429   4.4998
     5.7885   7.4643  10.1362  11.2981  11.8913  12.9979

          k = 0.1008 0.4032 0.2131 (  6261 PWs)   bands (ev):

   -37.2302 -37.2240 -37.1783 -37.0656  -0.3259   0.0814   3.8749   4.2664
     6.2469   7.6321  10.0853  11.1618  11.3531  12.4833

          k = 0.1008-0.5040 0.0000 (  6286 PWs)   bands (ev):

   -37.2224 -37.2224 -37.1248 -37.1248   0.1372   0.1372   3.9892   3.9892
     5.9012   5.9012  11.2109  11.2109  13.8822  13.8822

          k = 0.1008-0.5040 0.0710 (  6298 PWs)   bands (ev):

   -37.2224 -37.2224 -37.1249 -37.1249   0.1412   0.1412   3.8798   3.8798
     6.1251   6.1251  11.1760  11.1760  13.0821  13.0821

          k = 0.1008-0.5040 0.1420 (  6278 PWs)   bands (ev):

   -37.2224 -37.2224 -37.1249 -37.1249   0.1504   0.1504   3.6826   3.6826
     6.6257   6.6257  10.9758  10.9758  12.1768  12.1768

          k = 0.1008-0.5040 0.2131 (  6260 PWs)   bands (ev):

   -37.2223 -37.2223 -37.1249 -37.1249   0.1579   0.1579   3.5535   3.5535
     7.0729   7.0729  10.5747  10.5747  11.8370  11.8370

          k = 0.2016 0.2016 0.0000 (  6249 PWs)   bands (ev):

   -37.2848 -37.2243 -37.2079 -36.9925  -1.3043  -0.1822   4.1083   6.4065
     7.1370   7.9126   8.6416   9.8607  13.3123  13.6047

          k = 0.2016 0.2016 0.0710 (  6249 PWs)   bands (ev):

   -37.2838 -37.2283 -37.2050 -36.9925  -1.2786  -0.2442   4.2703   6.4182
     7.1581   7.8753   8.3497   9.8168  13.2895  13.4918

          k = 0.2016 0.2016 0.1420 (  6239 PWs)   bands (ev):

   -37.2811 -37.2353 -37.2006 -36.9925  -1.2101  -0.3893   4.6953   6.4461
     7.2089   7.7050   7.7921   9.6223  13.4990  13.9944

          k = 0.2016 0.2016 0.2131 (  6250 PWs)   bands (ev):

   -37.2786 -37.2404 -37.1981 -36.9925  -1.1367  -0.5199   5.1705   6.4703
     7.0842   7.2572   7.7256   9.4368  14.1051  14.6818

          k = 0.2016 0.3024 0.0000 (  6264 PWs)   bands (ev):

   -37.2539 -37.2091 -37.2072 -37.0275  -0.7781   0.3143   4.5673   5.1045
     6.6465   7.0001   8.5555   9.5989  13.0266  13.4372

          k = 0.2016 0.3024 0.0710 (  6257 PWs)   bands (ev):

   -37.2526 -37.2162 -37.2014 -37.0275  -0.7511   0.2511   4.6936   5.1757
     6.3676   7.2776   8.3953   9.5468  12.5973  13.8620

          k = 0.2016 0.3024 0.1420 (  6257 PWs)   bands (ev):

   -37.2491 -37.2246 -37.1966 -37.0275  -0.6782   0.1018   4.9547   5.4383
     6.0132   7.6164   7.9638   9.3758  12.3980  13.6599

          k = 0.2016 0.3024 0.2131 (  6258 PWs)   bands (ev):

   -37.2443 -37.2318 -37.1941 -37.0275  -0.5975  -0.0361   5.1602   5.6567
     5.9475   7.3971   7.8922   9.1901  12.6604  13.1805

          k = 0.2016 0.4032 0.0000 (  6265 PWs)   bands (ev):

   -37.2312 -37.2126 -37.1719 -37.0725  -0.1025   0.7214   4.1187   4.9993
     5.4199   6.6264   8.8519   9.6240  13.0081  13.0941

          k = 0.2016 0.4032 0.0710 (  6264 PWs)   bands (ev):

   -37.2305 -37.2136 -37.1716 -37.0725  -0.0784   0.6793   4.0613   4.9628
     5.5023   6.8794   8.8069   9.5809  12.1934  13.0222

          k = 0.2016 0.4032 0.1420 (  6268 PWs)   bands (ev):

   -37.2284 -37.2162 -37.1710 -37.0725  -0.0129   0.5742   4.0114   4.6884
     5.9819   7.3433   8.6529   9.4527  11.4603  12.2385

          k = 0.2016 0.4032 0.2131 (  6257 PWs)   bands (ev):

   -37.2258 -37.2193 -37.1705 -37.0725   0.0612   0.4688   4.0403   4.4451
     6.5356   7.5573   8.5131   9.2928  11.1612  11.6359

          k = 0.2016-0.5040 0.0000 (  6274 PWs)   bands (ev):

   -37.2193 -37.2193 -37.1230 -37.1230   0.5490   0.5490   4.1765   4.1765
     5.9493   5.9493   9.3586   9.3586  12.9690  12.9690

          k = 0.2016-0.5040 0.0710 (  6268 PWs)   bands (ev):

   -37.2192 -37.2192 -37.1230 -37.1230   0.5533   0.5533   4.0573   4.0573
     6.1876   6.1876   9.3551   9.3551  12.2960  12.2960

          k = 0.2016-0.5040 0.1420 (  6278 PWs)   bands (ev):

   -37.2192 -37.2192 -37.1230 -37.1230   0.5632   0.5632   3.8477   3.8477
     6.7182   6.7182   9.3369   9.3369  11.3004  11.3004

          k = 0.2016-0.5040 0.2131 (  6268 PWs)   bands (ev):

   -37.2192 -37.2192 -37.1230 -37.1230   0.5714   0.5714   3.7128   3.7128
     7.2049   7.2049   9.2906   9.2906  10.6098  10.6098

          k = 0.3024 0.3024 0.0000 (  6257 PWs)   bands (ev):

   -37.2365 -37.2092 -37.1879 -37.0521  -0.2204   0.8744   4.9871   5.0407
     5.9372   6.4438   8.1440   8.3443  12.6856  12.7802

          k = 0.3024 0.3024 0.0710 (  6261 PWs)   bands (ev):

   -37.2354 -37.2112 -37.1869 -37.0521  -0.1922   0.8069   5.0305   5.1289
     5.9676   6.4537   7.9436   8.4374  12.4090  12.8702

          k = 0.3024 0.3024 0.1420 (  6267 PWs)   bands (ev):

   -37.2325 -37.2161 -37.1849 -37.0521  -0.1149   0.6473   5.0080   5.4401
     6.1178   6.4755   7.6072   8.4079  11.8614  12.9860

          k = 0.3024 0.3024 0.2131 (  6267 PWs)   bands (ev):

   -37.2282 -37.2217 -37.1836 -37.0521  -0.0261   0.4975   4.9906   5.6260
     6.4923   6.5430   7.1448   8.2813  11.6044  13.0308

          k = 0.3024 0.4032 0.0000 (  6265 PWs)   bands (ev):

   -37.2234 -37.2109 -37.1574 -37.0841   0.5022   1.3776   4.3041   5.4293
     5.4795   5.8805   7.7522   8.1077  12.0959  12.3514

          k = 0.3024 0.4032 0.0710 (  6272 PWs)   bands (ev):

   -37.2230 -37.2114 -37.1573 -37.0841   0.5278   1.3282   4.2574   5.1988
     5.6606   6.1810   7.7129   8.1134  11.6579  12.0281

          k = 0.3024 0.4032 0.1420 (  6264 PWs)   bands (ev):

   -37.2217 -37.2128 -37.1571 -37.0841   0.5981   1.2057   4.2061   4.8846
     6.1146   6.6400   7.6227   8.0583  10.8689  11.6116

          k = 0.3024 0.4032 0.2131 (  6272 PWs)   bands (ev):

   -37.2204 -37.2143 -37.1570 -37.0841   0.6808   1.0825   4.2063   4.6840
     6.4935   7.1262   7.5494   7.7972  10.3574  11.3595

          k = 0.3024-0.5040 0.0000 (  6282 PWs)   bands (ev):

   -37.2153 -37.2153 -37.1207 -37.1207   1.2160   1.2160   4.4188   4.4188
     5.8220   5.8220   7.8546   7.8546  11.9666  11.9666

          k = 0.3024-0.5040 0.0710 (  6266 PWs)   bands (ev):

   -37.2153 -37.2153 -37.1207 -37.1207   1.2204   1.2204   4.2859   4.2859
     6.0557   6.0557   7.8589   7.8589  11.4973  11.4973

          k = 0.3024-0.5040 0.1420 (  6268 PWs)   bands (ev):

   -37.2153 -37.2153 -37.1207 -37.1207   1.2306   1.2306   4.0643   4.0643
     6.5410   6.5410   7.8740   7.8740  10.7243  10.7243

          k = 0.3024-0.5040 0.2131 (  6258 PWs)   bands (ev):

[...]
     5.9208   6.9729  11.3363  12.4616  14.2876  15.1442

          k = 0.0000 0.4524 0.0598 (  6084 PWs)   bands (ev):

   -37.2524 -36.9540 -36.6206 -36.5203   0.3379   0.5584   4.3824   4.6919
     5.9476   6.9533  11.1812  12.6013  13.9471  15.8189

          k = 0.0000 0.4524 0.1197 (  6090 PWs)   bands (ev):

   -37.2524 -36.9540 -36.6206 -36.5203   0.3602   0.5300   4.4252   4.6545
     6.0353   6.8782  11.0701  12.2694  14.3025  16.3552

          k = 0.0000 0.4524 0.1795 (  6075 PWs)   bands (ev):

   -37.2524 -36.9540 -36.6206 -36.5203   0.3854   0.5000   4.4885   4.5911
     6.1488   6.7701  11.2402  11.6831  15.0582  16.5424

          k = 0.0000-0.5655 0.0000 (  6076 PWs)   bands (ev):

   -37.1015 -37.1015 -36.5675 -36.5675   1.1875   1.1875   3.5608   3.5608
     6.4417   6.4417  11.9893  11.9893  14.1033  14.1033

          k = 0.0000-0.5655 0.0598 (  6068 PWs)   bands (ev):

   -37.1015 -37.1015 -36.5675 -36.5675   1.1882   1.1882   3.5508   3.5508
     6.4829   6.4829  11.6997  11.6997  14.5388  14.5388

          k = 0.0000-0.5655 0.1197 (  6058 PWs)   bands (ev):

   -37.1015 -37.1015 -36.5675 -36.5675   1.1899   1.1899   3.5289   3.5289
     6.5790   6.5790  11.2252  11.2252  15.4395  15.4395

          k = 0.0000-0.5655 0.1795 (  6066 PWs)   bands (ev):

   -37.1015 -37.1015 -36.5675 -36.5675   1.1913   1.1913   3.5117   3.5117
     6.6603   6.6603  10.9229  10.9229  16.3107  16.3107

          k = 0.1131 0.1131 0.0000 (  6103 PWs)   bands (ev):

   -37.5521 -36.7389 -36.6802 -36.4458  -1.8203  -1.7579   4.2953   6.3251
    10.8044  11.2207  11.7684  12.2543  14.4956  15.6564

          k = 0.1131 0.1131 0.0598 (  6091 PWs)   bands (ev):

   -37.5521 -36.7389 -36.6802 -36.4458  -1.8346  -1.7432   4.3395   6.2094
    10.9428  11.2393  11.8608  12.2083  14.3063  15.9526

          k = 0.1131 0.1131 0.1197 (  6080 PWs)   bands (ev):

   -37.5521 -36.7389 -36.6802 -36.4458  -1.8564  -1.7206   4.4561   5.9464
    11.1809  11.2867  12.1027  12.2104  13.9625  16.3141

          k = 0.1131 0.1131 0.1795 (  6074 PWs)   bands (ev):

   -37.5521 -36.7389 -36.6802 -36.4458  -1.8696  -1.7068   4.5786   5.7179
    11.2999  11.3329  12.0129  12.7629  13.5949  16.0199

          k = 0.1131 0.2262 0.0000 (  6078 PWs)   bands (ev):

   -37.4824 -36.7402 -36.7094 -36.4600  -1.3339  -1.2182   4.5667   6.6564
     8.8443   9.6762  11.4541  11.5967  14.2895  14.4834

          k = 0.1131 0.2262 0.0598 (  6090 PWs)   bands (ev):

   -37.4824 -36.7402 -36.7095 -36.4600  -1.3382  -1.2142   4.6193   6.5281
     8.8728   9.6154  11.5692  11.7709  14.2377  14.4793

          k = 0.1131 0.2262 0.1197 (  6087 PWs)   bands (ev):

   -37.4824 -36.7402 -36.7095 -36.4600  -1.3470  -1.2061   4.7613   6.2320
     8.9575   9.4598  11.7704  12.2798  13.9970  14.6566

          k = 0.1131 0.2262 0.1795 (  6096 PWs)   bands (ev):

   -37.4824 -36.7402 -36.7095 -36.4600  -1.3534  -1.2004   4.9186   5.9639
     9.0938   9.2699  11.9197  12.8457  13.7406  14.9211

          k = 0.1131 0.3393 0.0000 (  6079 PWs)   bands (ev):

   -37.3751 -36.8354 -36.6660 -36.4846  -0.5416  -0.3453   4.9822   6.3702
     7.1637   7.3820  11.2298  11.8641  13.9631  15.0140

          k = 0.1131 0.3393 0.0598 (  6093 PWs)   bands (ev):

   -37.3751 -36.8354 -36.6660 -36.4846  -0.5375  -0.3511   5.0437   6.3619
     7.0638   7.3448  11.2510  12.1717  13.9232  14.6838

          k = 0.1131 0.3393 0.1197 (  6089 PWs)   bands (ev):

   -37.3751 -36.8354 -36.6660 -36.4846  -0.5273  -0.3653   5.2138   6.2861
     6.9041   7.2313  11.4542  12.8247  13.6240  14.2385

          k = 0.1131 0.3393 0.1795 (  6094 PWs)   bands (ev):

   -37.3751 -36.8354 -36.6660 -36.4846  -0.5177  -0.3780   5.4206   6.1041
     6.8681   7.1079  11.7804  13.0823  13.5125  14.0242

          k = 0.1131 0.4524 0.0000 (  6084 PWs)   bands (ev):

   -37.2423 -36.9584 -36.6154 -36.5200   0.4956   0.7584   4.5021   4.8719
     5.9986   7.0860  11.1507  12.3805  14.1932  14.2493

          k = 0.1131 0.4524 0.0598 (  6077 PWs)   bands (ev):

   -37.2423 -36.9584 -36.6154 -36.5200   0.5049   0.7458   4.5168   4.8611
     6.0280   7.0697  11.0000  12.5432  13.6391  14.6565

          k = 0.1131 0.4524 0.1197 (  6086 PWs)   bands (ev):

   -37.2423 -36.9584 -36.6154 -36.5199   0.5303   0.7131   4.5614   4.8185
     6.1278   6.9950  10.8900  12.1972  13.8761  14.7682

          k = 0.1131 0.4524 0.1795 (  6091 PWs)   bands (ev):

   -37.2423 -36.9584 -36.6154 -36.5199   0.5598   0.6778   4.6276   4.7481
     6.2623   6.8743  11.0503  11.5989  14.4338  14.7233

          k = 0.1131-0.5655 0.0000 (  6080 PWs)   bands (ev):

   -37.0985 -37.0985 -36.5647 -36.5647   1.3698   1.3698   3.7083   3.7083
     6.5322   6.5322  11.9506  11.9506  13.8144  13.8144

          k = 0.1131-0.5655 0.0598 (  6092 PWs)   bands (ev):

   -37.0985 -37.0985 -36.5647 -36.5647   1.3707   1.3707   3.6966   3.6966
     6.5792   6.5792  11.6443  11.6443  14.1897  14.1897

          k = 0.1131-0.5655 0.1197 (  6082 PWs)   bands (ev):

   -37.0985 -37.0985 -36.5647 -36.5647   1.3728   1.3728   3.6708   3.6708
     6.6895   6.6895  11.1490  11.1490  14.8106  14.8106

          k = 0.1131-0.5655 0.1795 (  6086 PWs)   bands (ev):

   -37.0985 -37.0985 -36.5647 -36.5647   1.3744   1.3744   3.6507   3.6507
     6.7835   6.7835  10.8326  10.8326  15.1589  15.1589

          k = 0.2262 0.2262 0.0000 (  6095 PWs)   bands (ev):

   -37.4215 -36.7897 -36.6834 -36.4710  -0.8481  -0.6749   4.8525   7.0455
     8.7554   9.4943   9.6699  10.4887  13.4322  14.4669

          k = 0.2262 0.2262 0.0598 (  6097 PWs)   bands (ev):

   -37.4215 -36.7897 -36.6834 -36.4710  -0.8463  -0.6779   4.9143   6.9020
     8.7496   9.4338   9.6757  10.6832  13.4885  14.5213

          k = 0.2262 0.2262 0.1197 (  6100 PWs)   bands (ev):

   -37.4215 -36.7897 -36.6834 -36.4710  -0.8422  -0.6849   5.0840   6.5664
     8.7369   9.3561   9.6886  11.0299  13.6852  14.6600

          k = 0.2262 0.2262 0.1795 (  6086 PWs)   bands (ev):

   -37.4215 -36.7897 -36.6834 -36.4710  -0.8386  -0.6908   5.2833   6.2484
     8.7269   9.3196   9.6986  11.2483  13.9380  14.7948

          k = 0.2262 0.3393 0.0000 (  6093 PWs)   bands (ev):

   -37.3283 -36.8688 -36.6451 -36.4907  -0.0555   0.2050   5.2990   6.7627
     7.4623   7.7334   9.5727  10.9412  13.3943  13.4574

          k = 0.2262 0.3393 0.0598 (  6091 PWs)   bands (ev):

   -37.3283 -36.8688 -36.6451 -36.4907  -0.0476   0.1938   5.3714   6.7724
     7.3382   7.6705   9.6114  11.0532  13.2711  13.6505

          k = 0.2262 0.3393 0.1197 (  6087 PWs)   bands (ev):

   -37.3283 -36.8688 -36.6451 -36.4907  -0.0266   0.1656   5.5747   6.7373
     7.1235   7.4895   9.7505  11.2168  13.1754  13.8571

          k = 0.2262 0.3393 0.1795 (  6093 PWs)   bands (ev):

   -37.3283 -36.8688 -36.6451 -36.4907  -0.0042   0.1375   5.8389   6.5039
     7.1285   7.2836   9.8992  11.2679  13.1302  13.8824

          k = 0.2262 0.4524 0.0000 (  6089 PWs)   bands (ev):

   -37.2137 -36.9720 -36.6009 -36.5197   0.9887   1.3209   4.8873   5.3724
     6.2141   7.3571  10.3563  11.6829  13.0825  13.7268

          k = 0.2262 0.4524 0.0598 (  6091 PWs)   bands (ev):

   -37.2137 -36.9720 -36.6009 -36.5197   1.0010   1.3034   4.9021   5.3581
     6.2493   7.3643  10.2349  11.8204  12.6900  13.5798

          k = 0.2262 0.4524 0.1197 (  6095 PWs)   bands (ev):

   -37.2137 -36.9720 -36.6009 -36.5197   1.0349   1.2577   4.9494   5.2953
     6.3882   7.3144  10.1156  11.9717  12.0488  13.3913

          k = 0.2262 0.4524 0.1795 (  6089 PWs)   bands (ev):

   -37.2137 -36.9720 -36.6009 -36.5197   1.0772   1.2062   5.0215   5.1996
     6.5983   7.1594  10.1768  11.4375  12.1620  13.3079

          k = 0.2262-0.5655 0.0000 (  6106 PWs)   bands (ev):

   -37.0907 -37.0907 -36.5574 -36.5574   1.9113   1.9113   4.1414   4.1414
     6.7633   6.7633  11.5551  11.5551  13.0511  13.0511

          k = 0.2262-0.5655 0.0598 (  6092 PWs)   bands (ev):

   -37.0907 -37.0907 -36.5574 -36.5574   1.9128   1.9128   4.1231   4.1231
     6.8297   6.8297  11.3243  11.3243  12.9615  12.9615

          k = 0.2262-0.5655 0.1197 (  6094 PWs)   bands (ev):

   -37.0907 -37.0907 -36.5574 -36.5574   1.9162   1.9162   4.0835   4.0835
     6.9876   6.9876  10.8683  10.8683  12.8818  12.8818

          k = 0.2262-0.5655 0.1795 (  6086 PWs)   bands (ev):

   -37.0907 -37.0907 -36.5574 -36.5574   1.9190   1.9190   4.0532   4.0532
     7.1260   7.1260  10.5391  10.5391  12.8545  12.8545

          k = 0.3393 0.3393 0.0000 (  6084 PWs)   bands (ev):

   -37.2573 -36.9232 -36.6148 -36.5025   0.7382   1.0979   5.7791   6.9303
     7.4615   7.8165   8.4338   9.5019  13.0430  13.0962

          k = 0.3393 0.3393 0.0598 (  6085 PWs)   bands (ev):

   -37.2573 -36.9232 -36.6148 -36.5025   0.7509   1.0789   5.8656   6.9110
     7.4440   7.8474   8.2316   9.5786  13.0126  13.2053

          k = 0.3393 0.3393 0.1197 (  6097 PWs)   bands (ev):

   -37.2573 -36.9232 -36.6148 -36.5025   0.7861   1.0300   6.1105   6.8715
     7.3593   7.8366   7.9135   9.7020  12.9444  13.2703

          k = 0.3393 0.3393 0.1795 (  6107 PWs)   bands (ev):

   -37.2573 -36.9232 -36.6148 -36.5025   0.8289   0.9763   6.4491   6.8428
     7.0815   7.6227   7.9640   9.7788  12.8897  13.2357

          k = 0.3393 0.4524 0.0000 (  6116 PWs)   bands (ev):

   -37.1715 -36.9956 -36.5807 -36.5216   1.7926   2.2381   5.4544   6.1461
     6.5066   7.3258   9.3305   9.8224  12.5048  13.0243

          k = 0.3393 0.4524 0.0598 (  6110 PWs)   bands (ev):

   -37.1715 -36.9956 -36.5807 -36.5216   1.8089   2.2121   5.4637   6.1219
     6.5370   7.4336   9.1727   9.8544  12.1415  12.8267

          k = 0.3393 0.4524 0.1197 (  6103 PWs)   bands (ev):

   -37.1715 -36.9956 -36.5807 -36.5216   1.8551   2.1444   5.4995   5.9927
     6.7572   7.5925   8.8694   9.8713  11.7665  12.2986

          k = 0.3393 0.4524 0.1795 (  6117 PWs)   bands (ev):

   -37.1715 -36.9956 -36.5807 -36.5216   1.9167   2.0660   5.5553   5.8573
     7.1057   7.5233   8.6985   9.8453  11.5601  12.0237

          k = 0.3393-0.5655 0.0000 (  6114 PWs)   bands (ev):

   -37.0810 -37.0810 -36.5483 -36.5483   2.7931   2.7931   4.8200   4.8200
     6.9668   6.9668  10.1968  10.1968  12.4737  12.4737

          k = 0.3393-0.5655 0.0598 (  6114 PWs)   bands (ev):

   -37.0810 -37.0810 -36.5483 -36.5483   2.7959   2.7959   4.7861   4.7861
     7.0666   7.0666  10.1800  10.1800  11.8252  11.8252

          k = 0.3393-0.5655 0.1197 (  6120 PWs)   bands (ev):

   -37.0810 -37.0810 -36.5483 -36.5483   2.8022   2.8022   4.7156   4.7156
     7.3069   7.3069  10.1079  10.1079  11.1404  11.1404

          k = 0.3393-0.5655 0.1795 (  6120 PWs)   bands (ev):

   -37.0810 -37.0810 -36.5483 -36.5483   2.8074   2.8074   4.6637   4.6637
     7.5274   7.5274   9.9746   9.9746  10.7990  10.7990

          k = 0.4524 0.4524 0.0000 (  6094 PWs)   bands (ev):

   -37.1223 -37.0298 -36.5593 -36.5283   2.8644   3.4320   5.8224   6.4923
     6.7031   6.7257   8.2613   9.2343  12.0840  12.3309

          k = 0.4524 0.4524 0.0598 (  6112 PWs)   bands (ev):

   -37.1223 -37.0298 -36.5593 -36.5283   2.8839   3.3948   5.7964   6.4246
     6.7463   6.8878   8.2996   9.1595  11.5668  12.0077

          k = 0.4524 0.4524 0.1197 (  6127 PWs)   bands (ev):

   -37.1223 -37.0298 -36.5593 -36.5283   2.9400   3.3006   5.7446   6.3500
     6.8378   7.2223   8.3880   8.9247  10.9687  11.8453

          k = 0.4524 0.4524 0.1795 (  6132 PWs)   bands (ev):

   -37.1223 -37.0298 -36.5593 -36.5283   3.0179   3.1936   5.7081   6.3109
     6.9072   7.5799   8.4566   8.6086  10.6675  11.7227

          k = 0.4524-0.5655 0.0000 (  6104 PWs)   bands (ev):

   -37.0732 -37.0732 -36.5410 -36.5410   3.9678   3.9678   5.5927   5.5927
     6.6934   6.6934   8.8200   8.8200  11.7524  11.7524

          k = 0.4524-0.5655 0.0598 (  6116 PWs)   bands (ev):

   -37.0732 -37.0732 -36.5410 -36.5410   3.9719   3.9719   5.5224   5.5224
     6.8156   6.8156   8.8343   8.8343  11.2933  11.2933

          k = 0.4524-0.5655 0.1197 (  6132 PWs)   bands (ev):

   -37.0732 -37.0732 -36.5410 -36.5410   3.9815   3.9815   5.3948   5.3948
     7.0728   7.0728   8.8730   8.8730  10.7041  10.7041

          k = 0.4524-0.5655 0.1795 (  6132 PWs)   bands (ev):

   -37.0732 -37.0732 -36.5410 -36.5410   3.9896   3.9896   5.3105   5.3105
     7.2787   7.2787   8.9171   8.9171  10.3084  10.3084

          k =-0.5655-0.5655 0.0000 (  6136 PWs)   bands (ev):

   -37.0702 -37.0702 -36.5382 -36.5382   5.1508   5.1508   5.4516   5.4516
     6.3318   6.3318   8.2815   8.2815  11.3993  11.3993

          k =-0.5655-0.5655 0.0598 (  6132 PWs)   bands (ev):

   -37.0702 -37.0702 -36.5382 -36.5382   5.1450   5.1450   5.4235   5.4235
     6.3788   6.3788   8.3192   8.3192  11.3214  11.3214

          k =-0.5655-0.5655 0.1197 (  6108 PWs)   bands (ev):

   -37.0702 -37.0702 -36.5382 -36.5382   5.1324   5.1324   5.3681   5.3681
     6.4779   6.4779   8.4087   8.4087  11.1472  11.1472

          k =-0.5655-0.5655 0.1795 (  6128 PWs)   bands (ev):

   -37.0702 -37.0702 -36.5382 -36.5382   5.1224   5.1224   5.3293   5.3293
     6.5531   6.5531   8.4862   8.4862  11.0065  11.0065

     the Fermi energy is     9.3192 ev

!    total energy              =     -74.29631459 Ry
     estimated scf accuracy    <          8.3E-12 Ry
     smearing contrib. (-TS)   =       0.00050001 Ry
     internal energy E=F+TS    =     -74.29681460 Ry

     The total energy is F=E-TS. E is the sum of the following terms:
     one-electron contribution =     -16.84334586 Ry
     hartree contribution      =      12.06192372 Ry
     xc contribution           =     -20.60177773 Ry
     ewald contribution        =     -48.91361473 Ry

     convergence has been achieved in  10 iterations

     Forces acting on atoms (cartesian axes, Ry/au):

     atom    1 type  1   force =     0.00000000    0.00000000    0.00060877
     atom    2 type  1   force =     0.00000000    0.00000000   -0.00060877
     atom    3 type  2   force =     0.00000000    0.00000000    0.00000000
     atom    4 type  2   force =     0.00000000    0.00000000    0.00000000
     atom    5 type  2   force =     0.00000000    0.00000000    0.00005184
     atom    6 type  2   force =     0.00000000    0.00000000   -0.00005184
     The non-local contrib.  to forces
     atom    1 type  1   force =     0.00000000    0.00000000   -0.02203977
     atom    2 type  1   force =     0.00000000    0.00000000    0.02203977
     atom    3 type  2   force =     0.00000000    0.00000000    0.00000000
     atom    4 type  2   force =     0.00000000    0.00000000   -0.00000000
     atom    5 type  2   force =     0.00000000    0.00000000    0.00199235
     atom    6 type  2   force =     0.00000000    0.00000000   -0.00199235
     The ionic contribution  to forces
     atom    1 type  1   force =     0.00000000   -0.00000000   -0.48416664
     atom    2 type  1   force =    -0.00000000    0.00000000    0.48416664
     atom    3 type  2   force =     0.00000000    0.00000000    0.00000000
     atom    4 type  2   force =    -0.00000000   -0.00000000    0.00000000
     atom    5 type  2   force =     0.00000000   -0.00000000   -0.05926649
     atom    6 type  2   force =    -0.00000000    0.00000000    0.05926649
     The local contribution  to forces
     atom    1 type  1   force =     0.00000000   -0.00000000    0.50526905
     atom    2 type  1   force =     0.00000000   -0.00000000   -0.50526905
     atom    3 type  2   force =    -0.00000000    0.00000000    0.00000000
     atom    4 type  2   force =    -0.00000000   -0.00000000    0.00000000
     atom    5 type  2   force =    -0.00000000   -0.00000000    0.05732393
     atom    6 type  2   force =    -0.00000000    0.00000000   -0.05732393
     The core correction contribution to forces
     atom    1 type  1   force =     0.00000000    0.00000000    0.00154994
     atom    2 type  1   force =     0.00000000   -0.00000000   -0.00154994
     atom    3 type  2   force =     0.00000000    0.00000000    0.00000000
     atom    4 type  2   force =     0.00000000    0.00000000    0.00000000
     atom    5 type  2   force =     0.00000000    0.00000000    0.00000000
     atom    6 type  2   force =     0.00000000    0.00000000    0.00000000
     The Hubbard contrib.    to forces
     atom    1 type  1   force =     0.00000000    0.00000000    0.00000000
     atom    2 type  1   force =     0.00000000    0.00000000    0.00000000
     atom    3 type  2   force =     0.00000000    0.00000000    0.00000000
     atom    4 type  2   force =     0.00000000    0.00000000    0.00000000
     atom    5 type  2   force =     0.00000000    0.00000000    0.00000000
     atom    6 type  2   force =     0.00000000    0.00000000    0.00000000
     The SCF correction term to forces
     atom    1 type  1   force =    -0.00000000    0.00000000   -0.00000382
     atom    2 type  1   force =    -0.00000000    0.00000000    0.00000382
     atom    3 type  2   force =    -0.00000000    0.00000000    0.00000000
     atom    4 type  2   force =    -0.00000000    0.00000000   -0.00000000
     atom    5 type  2   force =     0.00000000   -0.00000000    0.00000205
     atom    6 type  2   force =     0.00000000    0.00000000   -0.00000205

     Total force =     0.000864     Total SCF correction =     0.000006


     Computing stress (Cartesian axis) and pressure

          total   stress  (Ry/bohr**3)                   (kbar)     P=      499.77
   0.00339554   0.00000000   0.00000000          499.50        0.00        0.00
   0.00000000   0.00339554   0.00000000            0.00      499.50        0.00
   0.00000000   0.00000000   0.00340111            0.00        0.00      500.32


     Writing all to output data dir ./output/SiLi.save/

     init_run     :      2.32s CPU      3.03s WALL (       2 calls)
     electrons    :    192.39s CPU    201.69s WALL (      18 calls)
     update_pot   :      7.70s CPU      7.82s WALL (      16 calls)
     forces       :      6.98s CPU      7.16s WALL (      18 calls)
     stress       :     39.34s CPU     40.66s WALL (      18 calls)

     Called by init_run:
     wfcinit      :      1.08s CPU      1.14s WALL (       2 calls)
     potinit      :      0.43s CPU      0.80s WALL (       2 calls)
     hinit0       :      0.75s CPU      0.93s WALL (       2 calls)

     Called by electrons:
     c_bands      :    168.94s CPU    176.41s WALL (     142 calls)
     sum_band     :     22.02s CPU     22.80s WALL (     142 calls)
     v_of_rho     :      1.39s CPU      2.20s WALL (     160 calls)
     mix_rho      :      0.13s CPU      0.26s WALL (     142 calls)

     Called by c_bands:
     init_us_2    :      5.60s CPU      5.97s WALL (   27048 calls)
     init_us_2:cp :      5.57s CPU      5.94s WALL (   27048 calls)
     cegterg      :    156.70s CPU    160.32s WALL (   11928 calls)

     Called by *egterg:
     cdiaghg      :      9.61s CPU      9.98s WALL (   50438 calls)
     h_psi        :    130.11s CPU    133.06s WALL (   51950 calls)
     g_psi        :      0.86s CPU      0.87s WALL (   39854 calls)

     Called by h_psi:
     h_psi:calbec :     10.27s CPU     10.54s WALL (   51950 calls)
     vloc_psi     :    110.87s CPU    113.35s WALL (   51950 calls)
     add_vuspsi   :      8.39s CPU      8.57s WALL (   51950 calls)

     General routines
     calbec       :     12.49s CPU     12.82s WALL (   59510 calls)
     fft          :      1.40s CPU      2.56s WALL (    2048 calls)
     ffts         :      0.06s CPU      0.18s WALL (     142 calls)
     fftw         :    111.72s CPU    114.14s WALL ( 1155334 calls)

     Parallel routines

     PWSCF        :   4m 9.31s CPU   4m21.79s WALL


   This run was terminated on:  22:13:41  10Jan2025            

=------------------------------------------------------------------------------=
   JOB DONE.
=------------------------------------------------------------------------------=
