
     Program PWSCF v.7.2 starts on  5Feb2025 at 18: 8:42 

     This program is part of the open-source Quantum ESPRESSO suite
     for quantum simulation of materials; please cite
         "P. Giannozzi et al., J. Phys.:Condens. Matter 21 395502 (2009);
         "P. Giannozzi et al., J. Phys.:Condens. Matter 29 465901 (2017);
         "P. Giannozzi et al., J. Chem. Phys. 152 154105 (2020);
          URL http://www.quantum-espresso.org", 
     in publications or presentations arising from this work. More details at
     http://www.quantum-espresso.org/quote

     Parallel version (MPI & OpenMP), running on      32 processor cores
     Number of MPI processes:                32
     Threads/MPI process:                     1

     MPI processes distributed on     1 nodes
     488590 MiB available memory on the printing compute node when the environment starts

     Waiting for input...
     Reading input from standard input

     Current dimensions of program PWSCF are:
     Max number of different atomic species (ntypx) = 10
     Max number of k-points (npk) =  40000
     Max angular momentum in pseudopotentials (lmaxx) =  4

     R & G space division:  proc/nbgrp/npool/nimage =      32
     Subspace diagonalization in iterative solution of the eigenvalue problem:
     a serial algorithm will be used


     Parallelization info
     --------------------
     sticks:   dense  smooth     PW     G-vecs:    dense   smooth      PW
     Min          59      59     19                  771      771     148
     Max          60      60     20                  772      772     150
     Sum        1901    1901    635                24683    24683    4771

     Using Slab Decomposition



     bravais-lattice index     =            5
     lattice parameter (alat)  =      21.8676  a.u.
     unit-cell volume          =     391.4555 (a.u.)^3
     number of atoms/cell      =            6
     number of atomic types    =            2
     number of electrons       =        22.00
     number of Kohn-Sham states=           15
     kinetic-energy cutoff     =      60.0000  Ry
     charge density cutoff     =     240.0000  Ry
     scf convergence threshold =      1.0E-08
     mixing beta               =       0.8000
     number of iterations used =            8  plain     mixing
     energy convergence thresh.=      1.0E-03
     force convergence thresh. =      5.0E-03
     press convergence thresh. =      2.0E+00
     Exchange-correlation= PBE
                           (   1   4   3   4   0   0   0)
     nstep                     =           50


     celldm(1)=  21.867558  celldm(2)=   0.000000  celldm(3)=   0.000000
     celldm(4)=   0.978228  celldm(5)=   0.000000  celldm(6)=   0.000000

     crystal axes: (cart. coord. in units of alat)
               a(1) = (   0.104336  -0.060238   0.992716 )  
               a(2) = (   0.000000   0.120476   0.992716 )  
               a(3) = (  -0.104336  -0.060238   0.992716 )  

     reciprocal axes: (cart. coord. in units 2 pi/alat)
               b(1) = (  4.792224 -2.766792  0.335779 )  
               b(2) = (  0.000000  5.533584  0.335779 )  
               b(3) = ( -4.792224 -2.766792  0.335779 )  


     PseudoPot. # 1 for Si read from file:
     ../pseudo/Si_ONCV_PBE_sr.upf
     MD5 check sum: e543d271109d17c80368dfa7c482276d
     Pseudo is Norm-conserving + core correction, Zval =  4.0
     Generated using ONCVPSP code by D. R. Hamann
     Using radial grid of 1510 points,  6 beta functions with: 
                l(1) =   0
                l(2) =   0
                l(3) =   1
                l(4) =   1
                l(5) =   2
                l(6) =   2

     PseudoPot. # 2 for Li read from file:
     ../pseudo/Li_ONCV_PBE_sr.upf
     MD5 check sum: 50ff420e78310ffa21704f3361e624a4
     Pseudo is Norm-conserving, Zval =  3.0
     Generated using ONCVPSP code by D. R. Hamann
     Using radial grid of 1944 points,  4 beta functions with: 
                l(1) =   0
                l(2) =   0
                l(3) =   1
                l(4) =   1

     atomic species   valence    mass     pseudopotential
        Si             4.00    28.08550     Si( 1.00)
        Li             3.00     6.94100     Li( 1.00)

     12 Sym. Ops., with inversion, found



   Cartesian axes

     site n.     atom                  positions (alat units)
         1           Si  tau(   1) = (   0.0000000  -0.0000000   0.3185373  )
         2           Si  tau(   2) = (   0.0000000  -0.0000000   2.6596112  )
         3           Si  tau(   3) = (   0.0000000   0.0000000   0.0000000  )
         4           Si  tau(   4) = (   0.0000000  -0.0000000   1.4890743  )
         5           Li  tau(   5) = (   0.0000000  -0.0000000   0.9016747  )
         6           Li  tau(   6) = (   0.0000000  -0.0000000   2.0764739  )

     number of k points=    13  Marzari-Vanderbilt smearing, width (Ry)=  0.0100
                       cart. coord. in units 2pi/alat
        k(    1) = (   0.0000000   0.0000000   0.0000000), wk =   0.0312500
        k(    2) = (  -1.1980561  -0.6916980   0.0839448), wk =   0.1875000
        k(    3) = (   2.3961121   1.3833960  -0.1678895), wk =   0.0937500
        k(    4) = (  -1.1980561   0.6916980   0.1678895), wk =   0.1875000
        k(    5) = (   2.3961121   2.7667920  -0.0839448), wk =   0.3750000
        k(    6) = (   1.1980561   2.0750940   0.0000000), wk =   0.1875000
        k(    7) = (   2.3961121  -1.3833960  -0.3357791), wk =   0.0937500
        k(    8) = (   0.0000000   0.0000000   0.2518343), wk =   0.0625000
        k(    9) = (   3.5941682   2.0750940   0.0000000), wk =   0.1875000
        k(   10) = (   2.3961121   1.3833960   0.0839448), wk =   0.1875000
        k(   11) = (   3.5941682  -2.0750940  -0.2518343), wk =   0.1875000
        k(   12) = (   2.3961121  -2.7667920  -0.1678895), wk =   0.1875000
        k(   13) = (   0.0000000   0.0000000  -0.5036686), wk =   0.0312500

     Dense  grid:    24683 G-vectors     FFT dimensions: ( 108, 108, 108)

     Estimated max dynamical RAM per process >      14.09 MB

     Estimated total dynamical RAM >     450.77 MB

     Initial potential from superposition of free atoms

     starting charge      21.9884, renormalised to      22.0000
     Starting wfcs are   20 randomized atomic wfcs

     total cpu time spent up to now is        1.0 secs

     Self-consistent Calculation

     iteration #  1     ecut=    60.00 Ry     beta= 0.80
     Davidson diagonalization with overlap
     ethr =  1.00E-02,  avg # of iterations =  7.6

     total cpu time spent up to now is        1.8 secs

     total energy              =     -53.13549168 Ry
     estimated scf accuracy    <       9.79334566 Ry

     iteration #  2     ecut=    60.00 Ry     beta= 0.80
     Davidson diagonalization with overlap
     c_bands:  1 eigenvalues not converged
     c_bands:  1 eigenvalues not converged
     ethr =  1.00E-02,  avg # of iterations = 13.7

     total cpu time spent up to now is        3.2 secs

     total energy              =     -39.68900885 Ry
     estimated scf accuracy    <     363.01143541 Ry

     iteration #  3     ecut=    60.00 Ry     beta= 0.80
     Davidson diagonalization with overlap
     ethr =  1.00E-02,  avg # of iterations =  7.3

     total cpu time spent up to now is        4.5 secs

     total energy              =     -59.52602275 Ry
     estimated scf accuracy    <      32.80071990 Ry

     iteration #  4     ecut=    60.00 Ry     beta= 0.80
     Davidson diagonalization with overlap
     ethr =  1.00E-02,  avg # of iterations =  4.1

     total cpu time spent up to now is        5.1 secs

     total energy              =     -61.53218331 Ry
     estimated scf accuracy    <       2.62558656 Ry

     iteration #  5     ecut=    60.00 Ry     beta= 0.80
     Davidson diagonalization with overlap
     ethr =  1.00E-02,  avg # of iterations =  1.7

     total cpu time spent up to now is        5.6 secs

     total energy              =     -61.62694099 Ry
     estimated scf accuracy    <       0.21038209 Ry

     iteration #  6     ecut=    60.00 Ry     beta= 0.80
     Davidson diagonalization with overlap
     ethr =  9.56E-04,  avg # of iterations =  5.3

     total cpu time spent up to now is        6.2 secs

     total energy              =     -61.65823682 Ry
     estimated scf accuracy    <       0.16008480 Ry

     iteration #  7     ecut=    60.00 Ry     beta= 0.80
     Davidson diagonalization with overlap
     ethr =  7.28E-04,  avg # of iterations =  1.0

     total cpu time spent up to now is        6.6 secs

     total energy              =     -61.66812039 Ry
     estimated scf accuracy    <       0.00840134 Ry

     iteration #  8     ecut=    60.00 Ry     beta= 0.80
     Davidson diagonalization with overlap
     ethr =  3.82E-05,  avg # of iterations =  8.5

     total cpu time spent up to now is        7.2 secs

     total energy              =     -61.66935745 Ry
     estimated scf accuracy    <       0.00283549 Ry

     iteration #  9     ecut=    60.00 Ry     beta= 0.80
     Davidson diagonalization with overlap
     ethr =  1.29E-05,  avg # of iterations =  3.2

     total cpu time spent up to now is        7.7 secs

     total energy              =     -61.66897594 Ry
     estimated scf accuracy    <       0.00468992 Ry

     iteration # 10     ecut=    60.00 Ry     beta= 0.80
     Davidson diagonalization with overlap
     ethr =  1.29E-05,  avg # of iterations =  1.5

     total cpu time spent up to now is        8.2 secs

     total energy              =     -61.66915404 Ry
     estimated scf accuracy    <       0.00007389 Ry

     iteration # 11     ecut=    60.00 Ry     beta= 0.80
     Davidson diagonalization with overlap
     c_bands:  1 eigenvalues not converged
     ethr =  3.36E-07,  avg # of iterations =  6.1

     total cpu time spent up to now is        8.8 secs

     total energy              =     -61.66916395 Ry
     estimated scf accuracy    <       0.00000215 Ry

     iteration # 12     ecut=    60.00 Ry     beta= 0.80
     Davidson diagonalization with overlap
     ethr =  9.77E-09,  avg # of iterations =  3.7

     total cpu time spent up to now is        9.3 secs

     total energy              =     -61.66916442 Ry
     estimated scf accuracy    <       0.00000081 Ry

     iteration # 13     ecut=    60.00 Ry     beta= 0.80
     Davidson diagonalization with overlap
     ethr =  3.69E-09,  avg # of iterations =  1.0

     total cpu time spent up to now is        9.8 secs

     total energy              =     -61.66916443 Ry
     estimated scf accuracy    <       0.00000041 Ry

     iteration # 14     ecut=    60.00 Ry     beta= 0.80
     Davidson diagonalization with overlap
     ethr =  1.85E-09,  avg # of iterations =  1.2

     total cpu time spent up to now is       10.2 secs

     total energy              =     -61.66916442 Ry
     estimated scf accuracy    <       0.00000023 Ry

     iteration # 15     ecut=    60.00 Ry     beta= 0.80
     Davidson diagonalization with overlap
     ethr =  1.04E-09,  avg # of iterations =  1.1

     total cpu time spent up to now is       10.7 secs

     End of self-consistent calculation

          k = 0.0000 0.0000 0.0000 (  3113 PWs)   bands (ev):

   -35.0503 -34.8962  -4.5814  -2.2881  -1.0491   1.0036   4.8673   8.9200
     9.1956  14.7469  14.9155  22.5976  22.8659  22.8659  22.9011

          k =-1.1981-0.6917 0.0839 (  3082 PWs)   bands (ev):

   -34.9308 -34.8241  -2.5286  -0.2561   0.4323   3.0112   6.6439   9.3034
    10.5280  13.2705  14.2261  15.3991  16.1040  17.5089  18.3431

          k = 2.3961 1.3834-0.1679 (  3080 PWs)   bands (ev):

   -34.7973 -34.7654   3.3074   3.6008   4.5794   4.8453   5.2843   6.1426
     8.9961   9.1874  11.3624  12.8446  13.2341  16.0492  17.0580

          k =-1.1981 0.6917 0.1679 (  3081 PWs)   bands (ev):

   -34.9308 -34.8240  -2.5286  -0.2569   0.4344   3.0050   6.7060   8.9697
    11.0801  12.9683  14.0110  15.4172  16.2891  17.6070  18.4720

          k = 2.3961 2.7668-0.0839 (  3066 PWs)   bands (ev):

   -34.8024 -34.7607   1.4954   3.3920   3.7307   6.6896   8.3464   9.0203
     9.5992   9.8815  11.0323  11.1751  11.9914  12.6476  14.8963

          k = 1.1981 2.0751 0.0000 (  3050 PWs)   bands (ev):

   -34.8020 -34.7603   1.4952   3.4071   3.7104   6.7313   8.2591   9.0258
     9.5690   9.9798  10.9404  11.1800  12.2550  12.5152  14.9882

          k = 2.3961-1.3834-0.3358 (  3074 PWs)   bands (ev):

   -34.7972 -34.7653   3.3074   3.5963   4.6149   4.8285   5.2623   6.1434
     8.9314   9.3155  11.2573  12.7337  13.3918  16.2548  17.1379

          k = 0.0000 0.0000 0.2518 (  3099 PWs)   bands (ev):

   -35.0503 -34.8957  -4.5814  -2.2885  -1.0473   0.9980   4.9082   8.2678
    10.1600  13.1605  16.6490  20.6706  22.8658  22.8658  24.7571

          k = 3.5942 2.0751 0.0000 (  3083 PWs)   bands (ev):

   -34.9308 -34.8241  -2.5285  -0.2594   0.4394   2.9945   6.7893   8.7424
    11.2905  13.4306  13.6792  15.2652  15.5839  18.3048  18.7331

          k = 2.3961 1.3834 0.0839 (  3076 PWs)   bands (ev):

   -34.7972 -34.7654   3.3074   3.5986   4.5963   4.8378   5.2733   6.1431
     8.9569   9.2578  11.3092  12.7916  13.3064  16.3413  16.6402

          k = 3.5942-2.0751-0.2518 (  3085 PWs)   bands (ev):

   -34.9308 -34.8241  -2.5285  -0.2603   0.4415   2.9883   6.8697   8.5183
    12.0848  12.5266  13.6907  15.3635  15.7018  18.2335  18.7327

          k = 2.3961-2.7668-0.1679 (  3062 PWs)   bands (ev):

   -34.8025 -34.7604   1.4956   3.3785   3.7496   6.6506   8.4370   9.0127
     9.6987   9.7151  11.1025  11.2199  11.7685  12.7130  14.8462

          k = 0.0000 0.0000-0.5037 (  3108 PWs)   bands (ev):

   -35.0500 -34.8965  -4.5815  -2.2888  -1.0454   0.9925   4.9513   7.9755
    11.1594  11.9723  18.3214  18.9090  22.8658  22.8658  24.7505

     the Fermi energy is    12.5399 ev

!    total energy              =     -61.66916443 Ry
     estimated scf accuracy    <          7.8E-10 Ry
     smearing contrib. (-TS)   =      -0.00073743 Ry
     internal energy E=F+TS    =     -61.66842700 Ry

     The total energy is F=E-TS. E is the sum of the following terms:
     one-electron contribution =      -3.25331691 Ry
     hartree contribution      =      12.45809792 Ry
     xc contribution           =     -20.67782924 Ry
     ewald contribution        =     -50.19537878 Ry

     convergence has been achieved in  15 iterations

     Forces acting on atoms (cartesian axes, Ry/au):

     atom    1 type  1   force =    -0.00000000    0.00000000   -0.05916265
     atom    2 type  1   force =    -0.00000000    0.00000000    0.05916265
     atom    3 type  1   force =     0.00000000   -0.00000000    0.00000000
     atom    4 type  1   force =     0.00000000   -0.00000000    0.00000000
     atom    5 type  2   force =     0.00000000    0.00000000   -0.42827386
     atom    6 type  2   force =    -0.00000000   -0.00000000    0.42827386
     The non-local contrib.  to forces
     atom    1 type  1   force =    -0.00000000   -0.00000000   -0.02968166
     atom    2 type  1   force =    -0.00000000   -0.00000000    0.02968166
     atom    3 type  1   force =     0.00000000    0.00000000    0.00000000
     atom    4 type  1   force =    -0.00000000    0.00000000    0.00000000
     atom    5 type  2   force =    -0.00000000   -0.00000000    0.06471764
     atom    6 type  2   force =    -0.00000000    0.00000000   -0.06471764
     The ionic contribution  to forces
     atom    1 type  1   force =    -0.00000000    0.00000000   -0.27052271
     atom    2 type  1   force =     0.00000000   -0.00000000    0.27052271
     atom    3 type  1   force =    -0.00000000   -0.00000000    0.00000000
     atom    4 type  1   force =    -0.00000000   -0.00000000   -0.00000000
     atom    5 type  2   force =    -0.00000000   -0.00000000   -5.27223344
     atom    6 type  2   force =    -0.00000000    0.00000000    5.27223344
     The local contribution  to forces
     atom    1 type  1   force =     0.00000000   -0.00000000    0.23563169
     atom    2 type  1   force =    -0.00000000    0.00000000   -0.23563169
     atom    3 type  1   force =     0.00000000    0.00000000   -0.00000000
     atom    4 type  1   force =     0.00000000   -0.00000000    0.00000000
     atom    5 type  2   force =     0.00000000    0.00000000    4.77924904
     atom    6 type  2   force =     0.00000000   -0.00000000   -4.77924904
     The core correction contribution to forces
     atom    1 type  1   force =     0.00000000   -0.00000000    0.00536274
     atom    2 type  1   force =    -0.00000000    0.00000000   -0.00536274
     atom    3 type  1   force =     0.00000000    0.00000000    0.00000000
     atom    4 type  1   force =     0.00000000   -0.00000000    0.00000000
     atom    5 type  2   force =     0.00000000    0.00000000    0.00000000
     atom    6 type  2   force =     0.00000000    0.00000000    0.00000000
     The Hubbard contrib.    to forces
     atom    1 type  1   force =     0.00000000    0.00000000    0.00000000
     atom    2 type  1   force =     0.00000000    0.00000000    0.00000000
     atom    3 type  1   force =     0.00000000    0.00000000    0.00000000
     atom    4 type  1   force =     0.00000000    0.00000000    0.00000000
     atom    5 type  2   force =     0.00000000    0.00000000    0.00000000
     atom    6 type  2   force =     0.00000000    0.00000000    0.00000000
     The SCF correction term to forces
     atom    1 type  1   force =    -0.00000000   -0.00000000    0.00004730
     atom    2 type  1   force =    -0.00000000    0.00000000   -0.00004730
     atom    3 type  1   force =     0.00000000   -0.00000000    0.00000000
     atom    4 type  1   force =    -0.00000000   -0.00000000   -0.00000000
     atom    5 type  2   force =    -0.00000000    0.00000000   -0.00000711
     atom    6 type  2   force =     0.00000000    0.00000000    0.00000711

     Total force =     0.611422     Total SCF correction =     0.000068


     Computing stress (Cartesian axis) and pressure

          total   stress  (Ry/bohr**3)                   (kbar)     P=      872.11
   0.00646128  -0.00000000   0.00000000          950.49       -0.00        0.00
  -0.00000000   0.00646128   0.00000000           -0.00      950.49        0.00
   0.00000000   0.00000000   0.00486291            0.00        0.00      715.36


     BFGS Geometry Optimization
     Energy error            =      0.0E+00 Ry
     Gradient error          =      4.3E-01 Ry/Bohr
     Cell gradient error     =      4.5E+02 kbar

     number of scf cycles    =   1
     number of bfgs steps    =   0

     enthalpy           new  =     -60.3386343735 Ry

     new trust radius        =       0.4282738585 bohr
ibrav =      5
 celldm(1) =     22.68082342
 celldm(4) =      0.97654399
Input lattice vectors:
     0.11232348    -0.06484999     1.02904908
     0.00000000     0.12969998     1.02904908
    -0.11232348    -0.06484999     1.02904908
New lattice vectors in INITIAL alat:
     0.11232348    -0.06484999     1.02904908
     0.00000000     0.12969998     1.02904908
    -0.11232348    -0.06484999     1.02904908
New lattice vectors in NEW alat (for information only):
     0.10829591    -0.06252467     0.99215052
     0.00000000     0.12504934     0.99215052
    -0.10829591    -0.06252467     0.99215052
Discrepancy in bohr =     0.000000    0.000000    0.000000
     new conv_thr            =       0.0000000100 Ry

     new unit-cell volume =    470.29322 a.u.^3 (    69.69026 Ang^3 )
     density =      3.00759 g/cm^3

CELL_PARAMETERS (alat= 21.86755848)
   0.112323482  -0.064849992   1.029049076
   0.000000000   0.129699985   1.029049076
  -0.112323482  -0.064849992   1.029049076

ATOMIC_POSITIONS (crystal)
Si            0.1060497202        0.1060497202        0.1060497202
Si            0.8939502798        0.8939502798        0.8939502798
Si            0.0000000000       -0.0000000000        0.0000000000
Si            0.5000000000        0.5000000000        0.5000000000
Li            0.2961873015        0.2961873015        0.2961873015
Li            0.7038126985        0.7038126985        0.7038126985



     Writing config-only to output data dir ./output/SiLi.save/
     NEW-OLD atomic charge density approx. for the potential
     extrapolated charge   25.68604, renormalised to   22.00000

     total cpu time spent up to now is       11.1 secs

     Self-consistent Calculation

     iteration #  1     ecut=    60.00 Ry     beta= 0.80
     Davidson diagonalization with overlap
     c_bands:  4 eigenvalues not converged
     c_bands:  3 eigenvalues not converged
     c_bands:  1 eigenvalues not converged
     c_bands:  2 eigenvalues not converged
     c_bands:  1 eigenvalues not converged
     c_bands:  4 eigenvalues not converged
     c_bands:  1 eigenvalues not converged
     c_bands:  1 eigenvalues not converged
     c_bands:  1 eigenvalues not converged
     ethr =  1.00E-06,  avg # of iterations = 19.7

     total cpu time spent up to now is       13.2 secs

     total energy              =     -35.77668315 Ry
     estimated scf accuracy    <      27.41817564 Ry

     iteration #  2     ecut=    60.00 Ry     beta= 0.80
     Davidson diagonalization with overlap
     c_bands:  3 eigenvalues not converged
     c_bands:  1 eigenvalues not converged
     c_bands:  2 eigenvalues not converged
     ethr =  1.00E-02,  avg # of iterations = 16.5

     total cpu time spent up to now is       15.1 secs

     total energy              =     -67.81354909 Ry
     estimated scf accuracy    <     431.63235631 Ry

     iteration #  3     ecut=    60.00 Ry     beta= 0.80
     Davidson diagonalization with overlap
     ethr =  1.00E-02,  avg # of iterations =  6.2

     total cpu time spent up to now is       16.0 secs

     total energy              =     -68.69919130 Ry
     estimated scf accuracy    <     190.13360701 Ry

     iteration #  4     ecut=    60.00 Ry     beta= 0.80
     Davidson diagonalization with overlap
     ethr =  1.00E-02,  avg # of iterations =  3.2

     total cpu time spent up to now is       16.5 secs

     total energy              =     -53.79776326 Ry
     estimated scf accuracy    <     135.13516346 Ry

     iteration #  5     ecut=    60.00 Ry     beta= 0.80
     Davidson diagonalization with overlap
     ethr =  1.00E-02,  avg # of iterations =  6.7

     total cpu time spent up to now is       17.4 secs

     total energy              =     -62.04038518 Ry
     estimated scf accuracy    <       6.98976146 Ry

     iteration #  6     ecut=    60.00 Ry     beta= 0.80
     Davidson diagonalization with overlap
     ethr =  1.00E-02,  avg # of iterations =  1.5

     total cpu time spent up to now is       17.9 secs

     total energy              =     -62.25874994 Ry
     estimated scf accuracy    <       0.85495171 Ry

     iteration #  7     ecut=    60.00 Ry     beta= 0.80
     Davidson diagonalization with overlap
     ethr =  3.89E-03,  avg # of iterations =  1.0

     total cpu time spent up to now is       18.3 secs

     total energy              =     -61.95559552 Ry
     estimated scf accuracy    <       1.95347766 Ry

     iteration #  8     ecut=    60.00 Ry     beta= 0.80
     Davidson diagonalization with overlap
     ethr =  3.89E-03,  avg # of iterations =  2.1

     total cpu time spent up to now is       18.8 secs

     total energy              =     -62.25065562 Ry
     estimated scf accuracy    <       1.08608232 Ry

     iteration #  9     ecut=    60.00 Ry     beta= 0.80
     Davidson diagonalization with overlap
     ethr =  3.89E-03,  avg # of iterations =  1.0

     total cpu time spent up to now is       19.3 secs

     total energy              =     -62.21798062 Ry
     estimated scf accuracy    <       0.32878934 Ry

     iteration # 10     ecut=    60.00 Ry     beta= 0.80
     Davidson diagonalization with overlap
     ethr =  1.49E-03,  avg # of iterations =  1.5

     total cpu time spent up to now is       19.8 secs

     total energy              =     -62.24665951 Ry
     estimated scf accuracy    <       0.01309665 Ry

     iteration # 11     ecut=    60.00 Ry     beta= 0.80
     Davidson diagonalization with overlap
     ethr =  5.95E-05,  avg # of iterations =  3.9

     total cpu time spent up to now is       20.3 secs

     total energy              =     -62.24694872 Ry
     estimated scf accuracy    <       0.00166747 Ry

     iteration # 12     ecut=    60.00 Ry     beta= 0.80
     Davidson diagonalization with overlap
     c_bands:  1 eigenvalues not converged
     c_bands:  3 eigenvalues not converged
     c_bands:  3 eigenvalues not converged
     ethr =  7.58E-06,  avg # of iterations =  9.6

     total cpu time spent up to now is       21.0 secs

     total energy              =     -62.24703604 Ry
     estimated scf accuracy    <       0.00389402 Ry

     iteration # 13     ecut=    60.00 Ry     beta= 0.80
     Davidson diagonalization with overlap
     ethr =  7.58E-06,  avg # of iterations =  4.8

     total cpu time spent up to now is       21.6 secs

     total energy              =     -62.24740152 Ry
     estimated scf accuracy    <       0.00086855 Ry

     iteration # 14     ecut=    60.00 Ry     beta= 0.80
     Davidson diagonalization with overlap
     ethr =  3.95E-06,  avg # of iterations =  1.2

     total cpu time spent up to now is       22.0 secs

     total energy              =     -62.24745453 Ry
     estimated scf accuracy    <       0.00000365 Ry

     iteration # 15     ecut=    60.00 Ry     beta= 0.80
     Davidson diagonalization with overlap
     ethr =  1.66E-08,  avg # of iterations =  3.0

     total cpu time spent up to now is       22.5 secs

     total energy              =     -62.24745551 Ry
     estimated scf accuracy    <       0.00001771 Ry

     iteration # 16     ecut=    60.00 Ry     beta= 0.80
     Davidson diagonalization with overlap
     ethr =  1.66E-08,  avg # of iterations =  1.4

     total cpu time spent up to now is       23.1 secs

     total energy              =     -62.24745663 Ry
     estimated scf accuracy    <       0.00000020 Ry

     iteration # 17     ecut=    60.00 Ry     beta= 0.80
     Davidson diagonalization with overlap
     ethr =  8.98E-10,  avg # of iterations =  2.1

     total cpu time spent up to now is       23.6 secs

     total energy              =     -62.24745662 Ry
     estimated scf accuracy    <       0.00000019 Ry

     iteration # 18     ecut=    60.00 Ry     beta= 0.80
     Davidson diagonalization with overlap
     ethr =  8.81E-10,  avg # of iterations =  1.0

     total cpu time spent up to now is       24.0 secs

     End of self-consistent calculation

          k = 0.0000 0.0000 0.0000 (  3113 PWs)   bands (ev):

   -35.8843 -35.8583  -5.0625  -3.0295  -2.3897  -0.2705   3.4833   6.7536
     7.3384  12.3167  13.8033  20.2756  20.2759  20.2765  20.8533

          k =-1.1129-0.6425 0.0810 (  3082 PWs)   bands (ev):

   -35.8312 -35.8149  -3.2819  -1.2647  -0.8493   1.4838   5.0231   7.5155
     8.7721  10.5539  11.6469  12.3948  13.9097  15.0154  15.1998

          k = 2.2257 1.2850-0.1620 (  3080 PWs)   bands (ev):

   -35.7807 -35.7735   1.9306   1.9715   3.3114   3.8130   3.8567   4.2183
     6.5461   6.7018   8.9338  10.2765  10.8839  13.5701  13.8637

          k =-1.1129 0.6425 0.1620 (  3081 PWs)   bands (ev):

   -35.8314 -35.8144  -3.2819  -1.2679  -0.8443   1.4770   5.0732   7.2786
     9.1188  10.4480  11.6740  12.4095  13.4146  14.9415  15.9539

          k = 2.2257 2.5700-0.0810 (  3066 PWs)   bands (ev):

   -35.7795 -35.7735   0.2296   2.1078   2.3027   4.8486   6.9928   7.0924
     7.4369   8.0153   8.6845   9.1201   9.3106   9.9678  11.6423

          k = 1.1129 1.9275 0.0000 (  3050 PWs)   bands (ev):

   -35.7776 -35.7727   0.2293   2.1921   2.2096   4.8876   6.9842   7.0975
     7.2892   8.1187   8.5910   9.1651   9.3749  10.1146  11.7281

          k = 2.2257-1.2850-0.3239 (  3074 PWs)   bands (ev):

   -35.7816 -35.7716   1.9270   1.9728   3.3743   3.6564   3.9450   4.2208
     6.4448   6.8586   8.8099  10.3066  11.0064  13.0440  14.4594

          k = 0.0000 0.0000 0.2429 (  3099 PWs)   bands (ev):

   -35.8825 -35.8579  -5.0624  -3.0321  -2.3840  -0.2793   3.5418   6.2485
     8.0300  11.4485  14.8735  18.5800  20.2761  20.2777  20.7369

          k = 3.3386 1.9275 0.0000 (  3083 PWs)   bands (ev):

   -35.8314 -35.8145  -3.2818  -1.2762  -0.8315   1.4622   5.1778   6.9768
     9.4910  10.6914  11.2553  12.3807  13.2105  14.9718  16.3950

          k = 2.2257 1.2850 0.0810 (  3076 PWs)   bands (ev):

   -35.7803 -35.7734   1.9288   1.9722   3.3391   3.7214   3.9180   4.2196
     6.4826   6.7926   8.8700  10.3027  10.9285  13.3101  14.0052

          k = 3.3386-1.9275-0.2429 (  3085 PWs)   bands (ev):

   -35.8312 -35.8150  -3.2818  -1.2791  -0.8267   1.4556   5.2436   6.8132
     9.9070  10.4188  11.2772  12.3921  12.9371  14.9561  15.9967

          k = 2.2257-2.5700-0.1620 (  3062 PWs)   bands (ev):

   -35.7791 -35.7733   0.2300   2.0717   2.3479   4.8109   6.9985   7.0909
     7.6885   7.8233   8.7890   9.1217   9.1392   9.8808  11.8434

          k = 0.0000 0.0000-0.4859 (  3108 PWs)   bands (ev):

   -35.8841 -35.8576  -5.0624  -3.0348  -2.3788  -0.2881   3.6055   5.9630
     8.6026  10.7515  16.1801  17.1448  20.2768  20.2772  20.7177

     the Fermi energy is     9.9640 ev

!    total energy              =     -62.24745663 Ry
     estimated scf accuracy    <          5.1E-09 Ry
     smearing contrib. (-TS)   =      -0.00095972 Ry
     internal energy E=F+TS    =     -62.24649692 Ry

     The total energy is F=E-TS. E is the sum of the following terms:
     one-electron contribution =      -0.45929325 Ry
     hartree contribution      =       9.29621682 Ry
     xc contribution           =     -19.89280798 Ry
     ewald contribution        =     -51.19061250 Ry

     convergence has been achieved in  18 iterations

     Forces acting on atoms (cartesian axes, Ry/au):

     atom    1 type  1   force =    -0.00000000   -0.00000000   -0.00556602
     atom    2 type  1   force =     0.00000000   -0.00000000    0.00556602
     atom    3 type  1   force =    -0.00000000   -0.00000000   -0.00000000
     atom    4 type  1   force =     0.00000000    0.00000000    0.00000000
     atom    5 type  2   force =    -0.00000000   -0.00000000   -0.21531266
     atom    6 type  2   force =     0.00000000   -0.00000000    0.21531266
     The non-local contrib.  to forces
     atom    1 type  1   force =     0.00000000    0.00000000    0.00257902
     atom    2 type  1   force =     0.00000000   -0.00000000   -0.00257902
     atom    3 type  1   force =     0.00000000    0.00000000    0.00000000
     atom    4 type  1   force =     0.00000000    0.00000000    0.00000000
     atom    5 type  2   force =     0.00000000   -0.00000000   -0.04143476
     atom    6 type  2   force =    -0.00000000    0.00000000    0.04143476
     The ionic contribution  to forces
     atom    1 type  1   force =    -0.00000000    0.00000000    0.04988190
     atom    2 type  1   force =    -0.00000000    0.00000000   -0.04988190
     atom    3 type  1   force =     0.00000000   -0.00000000    0.00000000
     atom    4 type  1   force =    -0.00000000   -0.00000000    0.00000000
     atom    5 type  2   force =     0.00000000   -0.00000000   -3.31739354
     atom    6 type  2   force =    -0.00000000    0.00000000    3.31739354
     The local contribution  to forces
     atom    1 type  1   force =    -0.00000000   -0.00000000   -0.05960396
     atom    2 type  1   force =    -0.00000000    0.00000000    0.05960396
     atom    3 type  1   force =    -0.00000000    0.00000000   -0.00000000
     atom    4 type  1   force =    -0.00000000   -0.00000000    0.00000000
     atom    5 type  2   force =    -0.00000000    0.00000000    3.14350287
     atom    6 type  2   force =     0.00000000   -0.00000000   -3.14350287
     The core correction contribution to forces
     atom    1 type  1   force =     0.00000000    0.00000000    0.00169662
     atom    2 type  1   force =    -0.00000000    0.00000000   -0.00169662
     atom    3 type  1   force =    -0.00000000   -0.00000000    0.00000000
     atom    4 type  1   force =     0.00000000   -0.00000000   -0.00000000
     atom    5 type  2   force =     0.00000000    0.00000000    0.00000000
     atom    6 type  2   force =     0.00000000    0.00000000    0.00000000
     The Hubbard contrib.    to forces
     atom    1 type  1   force =     0.00000000    0.00000000    0.00000000
     atom    2 type  1   force =     0.00000000    0.00000000    0.00000000
     atom    3 type  1   force =     0.00000000    0.00000000    0.00000000
     atom    4 type  1   force =     0.00000000    0.00000000    0.00000000
     atom    5 type  2   force =     0.00000000    0.00000000    0.00000000
     atom    6 type  2   force =     0.00000000    0.00000000    0.00000000
     The SCF correction term to forces
     atom    1 type  1   force =    -0.00000000   -0.00000000   -0.00011960
     atom    2 type  1   force =     0.00000000    0.00000000    0.00011960
     atom    3 type  1   force =    -0.00000000   -0.00000000    0.00000000
     atom    4 type  1   force =     0.00000000    0.00000000    0.00000000
     atom    5 type  2   force =    -0.00000000   -0.00000000    0.00001277
     atom    6 type  2   force =     0.00000000   -0.00000000   -0.00001277

     Total force =     0.304600     Total SCF correction =     0.000170


     Computing stress (Cartesian axis) and pressure

          total   stress  (Ry/bohr**3)                   (kbar)     P=      292.08
   0.00200551   0.00000000  -0.00000000          295.02        0.00       -0.00
   0.00000000   0.00200551   0.00000000            0.00      295.02        0.00
   0.00000000   0.00000000   0.00194544            0.00        0.00      286.18

     Energy error            =      3.1E-01 Ry
     Gradient error          =      2.2E-01 Ry/Bohr
     Cell gradient error     =      2.1E+02 kbar

     number of scf cycles    =   2
     number of bfgs steps    =   1

     enthalpy           old  =     -60.3386343735 Ry
     enthalpy           new  =     -60.6489624796 Ry

     CASE: enthalpy          _new < enthalpy          _old

     new trust radius        =       0.4326637827 bohr
ibrav =      5
 celldm(1) =     21.93115270
 celldm(4) =      0.97564448
Input lattice vectors:
     0.11067381    -0.06389755     0.99473272
    -0.00000000     0.12779511     0.99473272
    -0.11067381    -0.06389755     0.99473272
New lattice vectors in INITIAL alat:
     0.11067381    -0.06389755     0.99473272
     0.00000000     0.12779511     0.99473272
    -0.11067381    -0.06389755     0.99473272
New lattice vectors in NEW alat (for information only):
     0.11035289    -0.06371227     0.99184827
     0.00000000     0.12742454     0.99184827
    -0.11035289    -0.06371227     0.99184827
Discrepancy in bohr =     0.000000    0.000000    0.000000
     new conv_thr            =       0.0000000043 Ry

     new unit-cell volume =    441.35457 a.u.^3 (    65.40200 Ang^3 )
     density =      3.20479 g/cm^3

CELL_PARAMETERS (alat= 21.86755848)
   0.110673809  -0.063897553   0.994732716
   0.000000000   0.127795107   0.994732716
  -0.110673809  -0.063897553   0.994732716

ATOMIC_POSITIONS (crystal)
Si            0.1056061193        0.1056061193        0.1056061193
Si            0.8943938807        0.8943938807        0.8943938807
Si           -0.0000000000       -0.0000000000        0.0000000000
Si            0.5000000000        0.5000000000        0.5000000000
Li            0.2897782627        0.2897782627        0.2897782627
Li            0.7102217373        0.7102217373        0.7102217373



     Writing config-only to output data dir ./output/SiLi.save/
     NEW-OLD atomic charge density approx. for the potential

     negative rho (up, down):  6.995E-06 0.000E+00
     extrapolated charge   20.55827, renormalised to   22.00000

     total cpu time spent up to now is       24.5 secs

     Self-consistent Calculation

     iteration #  1     ecut=    60.00 Ry     beta= 0.80
     Davidson diagonalization with overlap
     c_bands:  2 eigenvalues not converged
     c_bands:  1 eigenvalues not converged
     c_bands:  3 eigenvalues not converged
     c_bands:  2 eigenvalues not converged
     ethr =  1.00E-06,  avg # of iterations = 15.2

     total cpu time spent up to now is       26.2 secs

     total energy              =     -61.73499654 Ry
     estimated scf accuracy    <       0.61384601 Ry

     iteration #  2     ecut=    60.00 Ry     beta= 0.80
     Davidson diagonalization with overlap
     ethr =  2.79E-03,  avg # of iterations =  7.9

     total cpu time spent up to now is       27.1 secs

     total energy              =     -59.01110962 Ry
     estimated scf accuracy    <      86.47180709 Ry

     iteration #  3     ecut=    60.00 Ry     beta= 0.80
     Davidson diagonalization with overlap
     ethr =  2.79E-03,  avg # of iterations =  6.4

     total cpu time spent up to now is       27.9 secs

     total energy              =     -62.31642455 Ry
     estimated scf accuracy    <       2.52459167 Ry

     iteration #  4     ecut=    60.00 Ry     beta= 0.80
     Davidson diagonalization with overlap
     ethr =  2.79E-03,  avg # of iterations =  2.1

     total cpu time spent up to now is       28.4 secs

     total energy              =     -62.31628664 Ry
     estimated scf accuracy    <       0.59294344 Ry

     iteration #  5     ecut=    60.00 Ry     beta= 0.80
     Davidson diagonalization with overlap
     ethr =  2.70E-03,  avg # of iterations =  1.5

     total cpu time spent up to now is       28.9 secs

     total energy              =     -62.33014418 Ry
     estimated scf accuracy    <       0.05946055 Ry

     iteration #  6     ecut=    60.00 Ry     beta= 0.80
     Davidson diagonalization with overlap
     ethr =  2.70E-04,  avg # of iterations =  4.8

     total cpu time spent up to now is       29.4 secs

     total energy              =     -62.33843107 Ry
     estimated scf accuracy    <       0.00966074 Ry

     iteration #  7     ecut=    60.00 Ry     beta= 0.80
     Davidson diagonalization with overlap
     ethr =  4.39E-05,  avg # of iterations =  4.0

     total cpu time spent up to now is       29.9 secs

     total energy              =     -62.33794482 Ry
     estimated scf accuracy    <       0.00676991 Ry

     iteration #  8     ecut=    60.00 Ry     beta= 0.80
     Davidson diagonalization with overlap
     ethr =  3.08E-05,  avg # of iterations =  1.2

     total cpu time spent up to now is       30.4 secs

     total energy              =     -62.33809117 Ry
     estimated scf accuracy    <       0.00100442 Ry

     iteration #  9     ecut=    60.00 Ry     beta= 0.80
     Davidson diagonalization with overlap
     ethr =  4.57E-06,  avg # of iterations =  3.7

     total cpu time spent up to now is       30.9 secs

     total energy              =     -62.33816046 Ry
     estimated scf accuracy    <       0.00008035 Ry

     iteration # 10     ecut=    60.00 Ry     beta= 0.80
     Davidson diagonalization with overlap
     ethr =  3.65E-07,  avg # of iterations =  2.8

     total cpu time spent up to now is       31.4 secs

     total energy              =     -62.33817287 Ry
     estimated scf accuracy    <       0.00000089 Ry

     iteration # 11     ecut=    60.00 Ry     beta= 0.80
     Davidson diagonalization with overlap
     ethr =  4.04E-09,  avg # of iterations =  4.1

     total cpu time spent up to now is       32.0 secs

     total energy              =     -62.33817360 Ry
     estimated scf accuracy    <       0.00000112 Ry

     iteration # 12     ecut=    60.00 Ry     beta= 0.80
     Davidson diagonalization with overlap
     ethr =  4.04E-09,  avg # of iterations =  1.4

     total cpu time spent up to now is       32.4 secs

     total energy              =     -62.33817368 Ry
     estimated scf accuracy    <       0.00000007 Ry

     iteration # 13     ecut=    60.00 Ry     beta= 0.80
     Davidson diagonalization with overlap
     ethr =  3.19E-10,  avg # of iterations =  1.7

     total cpu time spent up to now is       32.9 secs

     total energy              =     -62.33817369 Ry
     estimated scf accuracy    <       0.00000002 Ry

     iteration # 14     ecut=    60.00 Ry     beta= 0.80
     Davidson diagonalization with overlap
     ethr =  9.25E-11,  avg # of iterations =  1.4

     total cpu time spent up to now is       33.4 secs

     End of self-consistent calculation

          k = 0.0000 0.0000 0.0000 (  3113 PWs)   bands (ev):

   -34.7231 -34.7138  -4.7693  -2.6979  -1.6906   0.2471   3.9770   7.0708
     8.2978  13.5843  15.6327  21.4419  21.4419  21.7895  21.8027

          k =-1.1294-0.6521 0.0838 (  3082 PWs)   bands (ev):

   -34.6692 -34.6638  -2.9378  -0.8875  -0.0254   2.0361   5.5298   8.1642
     9.6537  11.3482  12.9126  13.2372  15.1789  16.0703  16.7139

          k = 2.2589 1.3042-0.1675 (  3080 PWs)   bands (ev):

   -34.6166 -34.6159   2.4311   2.4484   4.0656   4.6611   4.8118   4.9847
     7.2499   7.2949   9.8019  10.7991  11.7639  14.2133  14.8945

          k =-1.1294 0.6521 0.1675 (  3081 PWs)   bands (ev):

   -34.6692 -34.6636  -2.9378  -0.8891  -0.0211   2.0274   5.5783   7.9659
     9.9440  11.2174  12.9987  13.3750  14.5082  16.0390  16.9436

          k = 2.2589 2.6083-0.0838 (  3066 PWs)   bands (ev):

   -34.6166 -34.6151   0.6711   2.6531   3.2796   5.4327   7.5814   7.7778
     8.3458   9.1360   9.5225  10.0187  10.2374  10.8422  12.5221

          k = 1.1294 1.9563 0.0000 (  3050 PWs)   bands (ev):

   -34.6164 -34.6135   0.6707   2.6712   3.2464   5.4852   7.5788   7.7823
     8.1446   9.3293   9.3870  10.1231  10.2784  10.9353  12.7043

          k = 2.2589-1.3042-0.3351 (  3074 PWs)   bands (ev):

   -34.6162 -34.6155   2.4318   2.4447   4.1384   4.5232   4.9075   4.9374
     7.0724   7.5995   9.5061  10.9123  12.0424  13.5645  15.3678

          k = 0.0000-0.0000 0.2513 (  3099 PWs)   bands (ev):

   -34.7234 -34.7118  -4.7693  -2.6994  -1.6856   0.2364   4.0389   6.7310
     8.7689  12.8754  16.6352  20.3349  21.4419  21.4420  21.7864

          k = 3.3883 1.9563 0.0000 (  3083 PWs)   bands (ev):

   -34.6692 -34.6637  -2.9377  -0.8936  -0.0099   2.0071   5.6911   7.6544
    10.2819  11.5065  12.5365  13.1546  14.6777  15.9837  16.9467

          k = 2.2589 1.3042 0.0838 (  3076 PWs)   bands (ev):

   -34.6167 -34.6155   2.4314   2.4466   4.0983   4.5893   4.8578   4.9693
     7.1212   7.4846   9.6459  10.8725  11.8794  13.8799  15.1182

          k = 3.3883-1.9563-0.2513 (  3085 PWs)   bands (ev):

   -34.6695 -34.6635  -2.9377  -0.8951  -0.0056   1.9985   5.7528   7.5084
    10.6005  11.2514  12.7164  13.1797  14.2380  15.9982  16.9426

          k = 2.2589-2.6083-0.1675 (  3062 PWs)   bands (ev):

   -34.6168 -34.6146   0.6714   2.6365   3.3119   5.3818   7.5834   7.7766
     8.6927   8.8874   9.5405   9.9383  10.1563  10.8187  12.4715

          k =-0.0000 0.0000-0.5026 (  3108 PWs)   bands (ev):

   -34.7238 -34.7122  -4.7692  -2.7010  -1.6806   0.2257   4.1062   6.4809
     9.1915  12.3121  18.1804  18.6337  21.4418  21.4418  21.7836

     the Fermi energy is    10.8066 ev

!    total energy              =     -62.33817369 Ry
     estimated scf accuracy    <          5.3E-10 Ry
     smearing contrib. (-TS)   =      -0.00108417 Ry
     internal energy E=F+TS    =     -62.33708952 Ry

     The total energy is F=E-TS. E is the sum of the following terms:
     one-electron contribution =       5.17882053 Ry
     hartree contribution      =       7.18910547 Ry
     xc contribution           =     -20.01696175 Ry
     ewald contribution        =     -54.68805378 Ry

     convergence has been achieved in  14 iterations

     Forces acting on atoms (cartesian axes, Ry/au):

     atom    1 type  1   force =    -0.00000000   -0.00000000   -0.00516265
     atom    2 type  1   force =     0.00000000    0.00000000    0.00516265
     atom    3 type  1   force =    -0.00000000   -0.00000000   -0.00000000
     atom    4 type  1   force =    -0.00000000    0.00000000   -0.00000000
     atom    5 type  2   force =    -0.00000000   -0.00000000   -0.13502962
     atom    6 type  2   force =     0.00000000    0.00000000    0.13502962
     The non-local contrib.  to forces
     atom    1 type  1   force =     0.00000000    0.00000000    0.02720275
     atom    2 type  1   force =    -0.00000000    0.00000000   -0.02720275
     atom    3 type  1   force =     0.00000000    0.00000000   -0.00000000
     atom    4 type  1   force =     0.00000000    0.00000000    0.00000000
     atom    5 type  2   force =    -0.00000000    0.00000000   -0.03901235
     atom    6 type  2   force =     0.00000000    0.00000000    0.03901235
     The ionic contribution  to forces
     atom    1 type  1   force =     0.00000000    0.00000000    0.17430295
     atom    2 type  1   force =    -0.00000000    0.00000000   -0.17430295
     atom    3 type  1   force =     0.00000000    0.00000000    0.00000000
     atom    4 type  1   force =    -0.00000000   -0.00000000    0.00000000
     atom    5 type  2   force =    -0.00000000   -0.00000000   -2.07932646
     atom    6 type  2   force =    -0.00000000    0.00000000    2.07932646
     The local contribution  to forces
     atom    1 type  1   force =     0.00000000    0.00000000   -0.20703419
     atom    2 type  1   force =    -0.00000000   -0.00000000    0.20703419
     atom    3 type  1   force =    -0.00000000   -0.00000000   -0.00000000
     atom    4 type  1   force =     0.00000000   -0.00000000    0.00000000
     atom    5 type  2   force =    -0.00000000    0.00000000    1.98330761
     atom    6 type  2   force =     0.00000000   -0.00000000   -1.98330761
     The core correction contribution to forces
     atom    1 type  1   force =    -0.00000000   -0.00000000    0.00032738
     atom    2 type  1   force =    -0.00000000   -0.00000000   -0.00032738
     atom    3 type  1   force =    -0.00000000   -0.00000000    0.00000000
     atom    4 type  1   force =     0.00000000   -0.00000000    0.00000000
     atom    5 type  2   force =     0.00000000    0.00000000    0.00000000
     atom    6 type  2   force =     0.00000000    0.00000000    0.00000000
     The Hubbard contrib.    to forces
     atom    1 type  1   force =     0.00000000    0.00000000    0.00000000
     atom    2 type  1   force =     0.00000000    0.00000000    0.00000000
     atom    3 type  1   force =     0.00000000    0.00000000    0.00000000
     atom    4 type  1   force =     0.00000000    0.00000000    0.00000000
     atom    5 type  2   force =     0.00000000    0.00000000    0.00000000
     atom    6 type  2   force =     0.00000000    0.00000000    0.00000000
     The SCF correction term to forces
     atom    1 type  1   force =     0.00000000   -0.00000000    0.00003846
     atom    2 type  1   force =    -0.00000000    0.00000000   -0.00003846
     atom    3 type  1   force =     0.00000000    0.00000000   -0.00000000
     atom    4 type  1   force =     0.00000000    0.00000000    0.00000000
     atom    5 type  2   force =    -0.00000000    0.00000000    0.00000158
     atom    6 type  2   force =    -0.00000000   -0.00000000   -0.00000158

     Total force =     0.191100     Total SCF correction =     0.000054


     Computing stress (Cartesian axis) and pressure

          total   stress  (Ry/bohr**3)                   (kbar)     P=      315.16
   0.00203367   0.00000000   0.00000000          299.16        0.00        0.00
  -0.00000000   0.00203367   0.00000000           -0.00      299.16        0.00
   0.00000000   0.00000000   0.00235999            0.00        0.00      347.17

     Energy error            =      1.9E-01 Ry
     Gradient error          =      1.4E-01 Ry/Bohr
     Cell gradient error     =      2.0E+02 kbar

     number of scf cycles    =   3
     number of bfgs steps    =   2

     enthalpy           old  =     -60.6489624796 Ry
     enthalpy           new  =     -60.8380399883 Ry

     CASE: enthalpy          _new < enthalpy          _old

     new trust radius        =       0.6273531985 bohr
ibrav =      5
 celldm(1) =     20.77270273
 celldm(4) =      0.97506725
Input lattice vectors:
     0.10606272    -0.06123534     0.94200453
     0.00000000     0.12247068     0.94200453
    -0.10606272    -0.06123534     0.94200453
New lattice vectors in INITIAL alat:
     0.10606272    -0.06123534     0.94200453
     0.00000000     0.12247068     0.94200453
    -0.10606272    -0.06123534     0.94200453
New lattice vectors in NEW alat (for information only):
     0.11165292    -0.06446284     0.99165426
     0.00000000     0.12892568     0.99165426
    -0.11165292    -0.06446284     0.99165426
Discrepancy in bohr =     0.000000    0.000000    0.000000
     new conv_thr            =       0.0000000027 Ry

     new unit-cell volume =    383.85752 a.u.^3 (    56.88182 Ang^3 )
     density =      3.68483 g/cm^3

CELL_PARAMETERS (alat= 21.86755848)
   0.106062724  -0.061235342   0.942004529
   0.000000000   0.122470684   0.942004529
  -0.106062724  -0.061235342   0.942004529

ATOMIC_POSITIONS (crystal)
Si            0.1048326214        0.1048326214        0.1048326214
Si            0.8951673786        0.8951673786        0.8951673786
Si           -0.0000000000       -0.0000000000        0.0000000000
Si            0.5000000000        0.5000000000        0.5000000000
Li            0.2801647044        0.2801647044        0.2801647044
Li            0.7198352956        0.7198352956        0.7198352956



     Writing config-only to output data dir ./output/SiLi.save/
     NEW-OLD atomic charge density approx. for the potential

     negative rho (up, down):  5.815E-02 0.000E+00
     extrapolated charge   18.70641, renormalised to   22.00000

     total cpu time spent up to now is       33.7 secs

     Self-consistent Calculation

     iteration #  1     ecut=    60.00 Ry     beta= 0.80
     Davidson diagonalization with overlap
     c_bands:  3 eigenvalues not converged
     c_bands:  1 eigenvalues not converged
     c_bands:  3 eigenvalues not converged
     c_bands:  1 eigenvalues not converged
     c_bands:  2 eigenvalues not converged
     ethr =  1.00E-06,  avg # of iterations = 17.2

     total cpu time spent up to now is       35.8 secs

     total energy              =     -61.21716038 Ry
     estimated scf accuracy    <       1.27642784 Ry

     iteration #  2     ecut=    60.00 Ry     beta= 0.80
     Davidson diagonalization with overlap
     ethr =  5.80E-03,  avg # of iterations =  6.3

     total cpu time spent up to now is       36.6 secs

     WARNING: integrated charge=    22.00040418, expected=    22.00000000

     total energy              =     -57.50784775 Ry
     estimated scf accuracy    <      97.08674982 Ry

     iteration #  3     ecut=    60.00 Ry     beta= 0.80
     Davidson diagonalization with overlap
     ethr =  5.80E-03,  avg # of iterations =  5.9

     total cpu time spent up to now is       37.5 secs

     WARNING: integrated charge=    22.00015338, expected=    22.00000000

     total energy              =     -62.12383792 Ry
     estimated scf accuracy    <       1.10855389 Ry

     iteration #  4     ecut=    60.00 Ry     beta= 0.80
     Davidson diagonalization with overlap
     ethr =  5.04E-03,  avg # of iterations =  2.2

     total cpu time spent up to now is       38.0 secs

     WARNING: integrated charge=    21.99987789, expected=    22.00000000

     total energy              =     -62.24057561 Ry
     estimated scf accuracy    <       0.21201710 Ry

     iteration #  5     ecut=    60.00 Ry     beta= 0.80
     Davidson diagonalization with overlap
     ethr =  9.64E-04,  avg # of iterations =  2.8

     total cpu time spent up to now is       38.5 secs

     WARNING: integrated charge=    22.00003017, expected=    22.00000000

     total energy              =     -62.24537247 Ry
     estimated scf accuracy    <       0.17545249 Ry

     iteration #  6     ecut=    60.00 Ry     beta= 0.80
     Davidson diagonalization with overlap
     ethr =  7.98E-04,  avg # of iterations =  1.0

     total cpu time spent up to now is       38.9 secs

     WARNING: integrated charge=    22.00005298, expected=    22.00000000

     total energy              =     -62.25175516 Ry
     estimated scf accuracy    <       0.01023002 Ry

     iteration #  7     ecut=    60.00 Ry     beta= 0.80
     Davidson diagonalization with overlap
     ethr =  4.65E-05,  avg # of iterations =  3.6

     total cpu time spent up to now is       39.5 secs

     WARNING: integrated charge=    22.00002203, expected=    22.00000000

     total energy              =     -62.25303084 Ry
     estimated scf accuracy    <       0.00260565 Ry

     iteration #  8     ecut=    60.00 Ry     beta= 0.80
     Davidson diagonalization with overlap
     ethr =  1.18E-05,  avg # of iterations =  2.6

     total cpu time spent up to now is       39.9 secs

     total energy              =     -62.25311694 Ry
     estimated scf accuracy    <       0.00026930 Ry

     iteration #  9     ecut=    60.00 Ry     beta= 0.80
     Davidson diagonalization with overlap
     c_bands:  1 eigenvalues not converged
     ethr =  1.22E-06,  avg # of iterations =  4.9

     total cpu time spent up to now is       40.5 secs

     total energy              =     -62.25320513 Ry
     estimated scf accuracy    <       0.00014204 Ry

     iteration # 10     ecut=    60.00 Ry     beta= 0.80
     Davidson diagonalization with overlap
     ethr =  6.46E-07,  avg # of iterations =  1.4

     total cpu time spent up to now is       41.0 secs

     total energy              =     -62.25320477 Ry
     estimated scf accuracy    <       0.00002562 Ry

     iteration # 11     ecut=    60.00 Ry     beta= 0.80
     Davidson diagonalization with overlap
     ethr =  1.16E-07,  avg # of iterations =  1.8

     total cpu time spent up to now is       41.5 secs

     total energy              =     -62.25320843 Ry
     estimated scf accuracy    <       0.00000022 Ry

     iteration # 12     ecut=    60.00 Ry     beta= 0.80
     Davidson diagonalization with overlap
     ethr =  9.80E-10,  avg # of iterations =  3.6

     total cpu time spent up to now is       42.0 secs

     total energy              =     -62.25320858 Ry
     estimated scf accuracy    <       0.00000009 Ry

     iteration # 13     ecut=    60.00 Ry     beta= 0.80
     Davidson diagonalization with overlap
     ethr =  4.06E-10,  avg # of iterations =  1.8

     total cpu time spent up to now is       42.5 secs

     End of self-consistent calculation

          k = 0.0000 0.0000 0.0000 (  3113 PWs)   bands (ev):

   -32.6517 -32.6489  -4.0587  -1.9059  -0.6014   1.4580   5.3807   7.8264
    10.5684  16.6551  17.6419  24.3537  24.6073  24.6481  24.6483

          k =-1.1785-0.6804 0.0885 (  3082 PWs)   bands (ev):

   -32.5762 -32.5743  -2.0770   0.0314   1.2786   3.3272   6.9333   9.3763
    11.6601  13.4133  15.0900  15.7100  17.5828  18.5180  19.3522

          k = 2.3571 1.3609-0.1769 (  3080 PWs)   bands (ev):

   -32.5005 -32.5003   3.6411   3.7785   5.2208   6.0734   6.6064   6.9367
     8.6482   8.9813  11.8400  12.2200  13.9951  15.9480  17.2257

          k =-1.1785 0.6804 0.1769 (  3081 PWs)   bands (ev):

   -32.5761 -32.5743  -2.0770   0.0306   1.2823   3.3178   6.9855   9.2290
    11.9206  13.2009  15.1482  16.0641  16.7984  18.6650  19.7951

          k = 2.3571 2.7217-0.0885 (  3066 PWs)   bands (ev):

   -32.5009 -32.4999   1.8145   3.8100   4.9696   6.7906   9.1865   9.6127
     9.9234  10.8568  11.1066  12.0972  12.6639  12.9726  14.4560

          k = 1.1785 2.0413 0.0000 (  3050 PWs)   bands (ev):

   -32.5004 -32.4997   1.8141   3.8205   4.9354   6.8598   9.1849   9.6183
     9.6841  10.9297  11.2426  12.1463  12.7926  12.8465  14.6553

          k = 2.3571-1.3609-0.3539 (  3074 PWs)   bands (ev):

   -32.5007 -32.4997   3.6409   3.7728   5.2635   6.0848   6.5419   6.8755
     8.6212   9.2789  11.1723  12.6501  14.3968  15.2956  17.4047

          k =-0.0000 0.0000 0.2654 (  3099 PWs)   bands (ev):

   -32.6512 -32.6488  -4.0587  -1.9064  -0.5985   1.4487   5.4548   7.6229
    10.8745  15.6101  19.0034  23.2456  24.6073  24.6073  24.6455

          k = 3.5356 2.0413 0.0000 (  3083 PWs)   bands (ev):

   -32.5762 -32.5742  -2.0769   0.0279   1.2926   3.2936   7.1287   8.9238
    12.1618  13.6233  14.8939  15.2929  17.3137  18.3382  19.5926

          k = 2.3571 1.3609 0.0885 (  3076 PWs)   bands (ev):

   -32.5005 -32.5002   3.6410   3.7756   5.2417   6.0792   6.5749   6.9046
     8.6297   9.1282  11.4419  12.5118  14.1492  15.6613  17.2597

          k = 3.5356-2.0413-0.2654 (  3085 PWs)   bands (ev):

   -32.5761 -32.5744  -2.0769   0.0270   1.2963   3.2844   7.1986   8.7892
    12.4844  13.2535  15.1828  15.3172  16.8312  18.4637  19.5872

          k = 2.3571-2.7217-0.1769 (  3062 PWs)   bands (ev):

   -32.5010 -32.4997   1.8148   3.7999   5.0048   6.7230   9.1879   9.6158
    10.3570  10.5612  10.9764  12.0218  12.6708  13.0145  14.5392

          k = 0.0000-0.0000-0.5308 (  3108 PWs)   bands (ev):

   -32.6516 -32.6487  -4.0587  -1.9069  -0.5957   1.4396   5.5376   7.4303
    11.1942  14.9859  20.3710  21.8747  24.6075  24.6424  24.6424

     the Fermi energy is    12.7728 ev

!    total energy              =     -62.25320859 Ry
     estimated scf accuracy    <          2.3E-09 Ry
     smearing contrib. (-TS)   =       0.00005526 Ry
     internal energy E=F+TS    =     -62.25326385 Ry

     The total energy is F=E-TS. E is the sum of the following terms:
     one-electron contribution =      10.92214883 Ry
     hartree contribution      =       5.90589587 Ry
     xc contribution           =     -20.45985527 Ry
     ewald contribution        =     -58.62145328 Ry

     convergence has been achieved in  13 iterations

     Forces acting on atoms (cartesian axes, Ry/au):

     atom    1 type  1   force =    -0.00000000    0.00000000    0.03875727
     atom    2 type  1   force =    -0.00000000    0.00000000   -0.03875727
     atom    3 type  1   force =     0.00000000    0.00000000    0.00000000
     atom    4 type  1   force =     0.00000000    0.00000000    0.00000000
     atom    5 type  2   force =     0.00000000   -0.00000000    0.02390840
     atom    6 type  2   force =    -0.00000000   -0.00000000   -0.02390840
     The non-local contrib.  to forces
     atom    1 type  1   force =    -0.00000000    0.00000000    0.13481216
     atom    2 type  1   force =    -0.00000000   -0.00000000   -0.13481216
     atom    3 type  1   force =     0.00000000   -0.00000000   -0.00000000
     atom    4 type  1   force =    -0.00000000    0.00000000   -0.00000000
     atom    5 type  2   force =    -0.00000000    0.00000000    0.01447935
     atom    6 type  2   force =    -0.00000000    0.00000000   -0.01447935
     The ionic contribution  to forces
     atom    1 type  1   force =    -0.00000000   -0.00000000    0.36299740
     atom    2 type  1   force =    -0.00000000    0.00000000   -0.36299740
     atom    3 type  1   force =     0.00000000   -0.00000000    0.00000000
     atom    4 type  1   force =    -0.00000000   -0.00000000    0.00000000
     atom    5 type  2   force =    -0.00000000   -0.00000000    0.01646408
     atom    6 type  2   force =     0.00000000    0.00000000   -0.01646408
     The local contribution  to forces
     atom    1 type  1   force =     0.00000000    0.00000000   -0.45305758
     atom    2 type  1   force =    -0.00000000   -0.00000000    0.45305758
     atom    3 type  1   force =     0.00000000   -0.00000000   -0.00000000
     atom    4 type  1   force =    -0.00000000   -0.00000000    0.00000000
     atom    5 type  2   force =    -0.00000000    0.00000000   -0.00704322
     atom    6 type  2   force =     0.00000000   -0.00000000    0.00704322
     The core correction contribution to forces
     atom    1 type  1   force =     0.00000000    0.00000000   -0.00591124
     atom    2 type  1   force =    -0.00000000   -0.00000000    0.00591124
     atom    3 type  1   force =    -0.00000000    0.00000000   -0.00000000
     atom    4 type  1   force =     0.00000000   -0.00000000    0.00000000
     atom    5 type  2   force =     0.00000000    0.00000000    0.00000000
     atom    6 type  2   force =     0.00000000    0.00000000    0.00000000
     The Hubbard contrib.    to forces
     atom    1 type  1   force =     0.00000000    0.00000000    0.00000000
     atom    2 type  1   force =     0.00000000    0.00000000    0.00000000
     atom    3 type  1   force =     0.00000000    0.00000000    0.00000000
     atom    4 type  1   force =     0.00000000    0.00000000    0.00000000
     atom    5 type  2   force =     0.00000000    0.00000000    0.00000000
     atom    6 type  2   force =     0.00000000    0.00000000    0.00000000
     The SCF correction term to forces
     atom    1 type  1   force =     0.00000000   -0.00000000   -0.00008348
     atom    2 type  1   force =    -0.00000000    0.00000000    0.00008348
     atom    3 type  1   force =     0.00000000    0.00000000    0.00000000
     atom    4 type  1   force =     0.00000000    0.00000000    0.00000000
     atom    5 type  2   force =     0.00000000    0.00000000    0.00000820
     atom    6 type  2   force =    -0.00000000    0.00000000   -0.00000820

     Total force =     0.064401     Total SCF correction =     0.000119


     Computing stress (Cartesian axis) and pressure

          total   stress  (Ry/bohr**3)                   (kbar)     P=      535.08
   0.00321679  -0.00000000  -0.00000000          473.21       -0.00       -0.00
  -0.00000000   0.00321679   0.00000000           -0.00      473.21        0.00
   0.00000000   0.00000000   0.00447862            0.00        0.00      658.83

     Energy error            =      1.1E-01 Ry
     Gradient error          =      3.9E-02 Ry/Bohr
     Cell gradient error     =      1.6E+02 kbar

     number of scf cycles    =   4
     number of bfgs steps    =   3

     enthalpy           old  =     -60.8380399883 Ry
     enthalpy           new  =     -60.9485033865 Ry

     CASE: enthalpy          _new < enthalpy          _old

     new trust radius        =       0.1073868001 bohr
ibrav =      5
 celldm(1) =     21.33166261
 celldm(4) =      0.97649539
Input lattice vectors:
     0.10575135    -0.06105557     0.96782052
    -0.00000000     0.12211115     0.96782052
    -0.10575135    -0.06105557     0.96782052
New lattice vectors in INITIAL alat:
     0.10575135    -0.06105557     0.96782052
     0.00000000     0.12211115     0.96782052
    -0.10575135    -0.06105557     0.96782052
New lattice vectors in NEW alat (for information only):
     0.10840805    -0.06258942     0.99213419
     0.00000000     0.12517883     0.99213419
    -0.10840805    -0.06258942     0.99213419
Discrepancy in bohr =     0.000000    0.000000    0.000000
     new conv_thr            =       0.0000000008 Ry

     new unit-cell volume =    392.06512 a.u.^3 (    58.09806 Ang^3 )
     density =      3.60769 g/cm^3

CELL_PARAMETERS (alat= 21.86755848)
   0.105751354  -0.061055573   0.967820524
   0.000000000   0.122111145   0.967820524
  -0.105751354  -0.061055573   0.967820524

ATOMIC_POSITIONS (crystal)
Si            0.1053937058        0.1053937058        0.1053937058
Si            0.8946062942        0.8946062942        0.8946062942
Si           -0.0000000000       -0.0000000000        0.0000000000
Si            0.5000000000        0.5000000000        0.5000000000
Li            0.2814227360        0.2814227360        0.2814227360
Li            0.7185772640        0.7185772640        0.7185772640



     Writing config-only to output data dir ./output/SiLi.save/
     NEW-OLD atomic charge density approx. for the potential
     extrapolated charge   22.46031, renormalised to   22.00000

     total cpu time spent up to now is       42.9 secs

     Self-consistent Calculation

     iteration #  1     ecut=    60.00 Ry     beta= 0.80
     Davidson diagonalization with overlap
     ethr =  1.00E-06,  avg # of iterations =  8.7

     total cpu time spent up to now is       44.2 secs

     total energy              =     -62.28578341 Ry
     estimated scf accuracy    <       0.01008435 Ry

     iteration #  2     ecut=    60.00 Ry     beta= 0.80
     Davidson diagonalization with overlap
     ethr =  4.58E-05,  avg # of iterations =  3.7

     total cpu time spent up to now is       44.9 secs

     total energy              =     -62.27437824 Ry
     estimated scf accuracy    <       0.13929240 Ry

     iteration #  3     ecut=    60.00 Ry     beta= 0.80
     Davidson diagonalization with overlap
     ethr =  4.58E-05,  avg # of iterations =  3.6

     total cpu time spent up to now is       45.5 secs

     total energy              =     -62.28496768 Ry
     estimated scf accuracy    <       0.21719758 Ry

     iteration #  4     ecut=    60.00 Ry     beta= 0.80
     Davidson diagonalization with overlap
     ethr =  4.58E-05,  avg # of iterations =  2.6

     total cpu time spent up to now is       46.0 secs

     total energy              =     -62.29315364 Ry
     estimated scf accuracy    <       0.00214371 Ry

     iteration #  5     ecut=    60.00 Ry     beta= 0.80
     Davidson diagonalization with overlap
     ethr =  9.74E-06,  avg # of iterations =  2.0

     total cpu time spent up to now is       46.5 secs

     total energy              =     -62.29322867 Ry
     estimated scf accuracy    <       0.00037191 Ry

     iteration #  6     ecut=    60.00 Ry     beta= 0.80
     Davidson diagonalization with overlap
     ethr =  1.69E-06,  avg # of iterations =  4.3

     total cpu time spent up to now is       47.1 secs

     total energy              =     -62.29326172 Ry
     estimated scf accuracy    <       0.00000415 Ry

     iteration #  7     ecut=    60.00 Ry     beta= 0.80
     Davidson diagonalization with overlap
     ethr =  1.88E-08,  avg # of iterations =  4.0

     total cpu time spent up to now is       47.6 secs

     total energy              =     -62.29326494 Ry
     estimated scf accuracy    <       0.00000147 Ry

     iteration #  8     ecut=    60.00 Ry     beta= 0.80
     Davidson diagonalization with overlap
     ethr =  6.69E-09,  avg # of iterations =  1.5

     total cpu time spent up to now is       48.1 secs

     total energy              =     -62.29326504 Ry
     estimated scf accuracy    <       0.00000010 Ry

     iteration #  9     ecut=    60.00 Ry     beta= 0.80
     Davidson diagonalization with overlap
     ethr =  4.65E-10,  avg # of iterations =  2.4

     total cpu time spent up to now is       48.6 secs

     total energy              =     -62.29326506 Ry
     estimated scf accuracy    <       0.00000003 Ry

     iteration # 10     ecut=    60.00 Ry     beta= 0.80
     Davidson diagonalization with overlap
     ethr =  1.17E-10,  avg # of iterations =  1.2

     total cpu time spent up to now is       49.1 secs

     total energy              =     -62.29326506 Ry
     estimated scf accuracy    <          1.6E-09 Ry

     iteration # 11     ecut=    60.00 Ry     beta= 0.80
     Davidson diagonalization with overlap
     ethr =  7.22E-12,  avg # of iterations =  2.8

     total cpu time spent up to now is       49.6 secs

     End of self-consistent calculation

          k = 0.0000 0.0000 0.0000 (  3113 PWs)   bands (ev):

   -32.9046 -32.9023  -4.2622  -2.1683  -0.9720   1.0305   4.9881   7.4186
     9.8717  15.6228  16.9755  23.1487  24.5899  24.6509  24.6509

          k =-1.1820-0.6824 0.0861 (  3082 PWs)   bands (ev):

   -32.8294 -32.8274  -2.2660  -0.2087   0.9255   2.9331   6.6191   8.9599
    11.1469  13.2613  14.8663  15.3453  17.0918  18.0374  18.6518

          k = 2.3640 1.3649-0.1722 (  3080 PWs)   bands (ev):

   -32.7537 -32.7534   3.4793   3.6426   5.0685   5.8746   6.2732   6.6770
     8.4652   8.6413  11.4968  11.9479  13.5145  15.4693  16.7686

          k =-1.1820 0.6824 0.1722 (  3081 PWs)   bands (ev):

   -32.8293 -32.8274  -2.2660  -0.2094   0.9280   2.9268   6.6601   8.8357
    11.3511  13.0835  14.9540  15.6928  16.2554  18.2152  19.1584

          k = 2.3640 2.7298-0.0861 (  3066 PWs)   bands (ev):

   -32.7541 -32.7532   1.6529   3.6154   4.6471   6.4863   9.0442   9.4970
     9.7677  10.7214  10.9616  11.7921  12.3290  12.6421  14.2247

          k = 1.1820 2.0473 0.0000 (  3050 PWs)   bands (ev):

   -32.7536 -32.7529   1.6527   3.6236   4.6228   6.5338   9.0430   9.5022
     9.5539  10.7936  11.1325  11.8432  12.3425  12.5800  14.3901

          k = 2.3640-1.3649-0.3444 (  3074 PWs)   bands (ev):

   -32.7539 -32.7530   3.4790   3.6384   5.1010   5.9066   6.2006   6.6289
     8.3795   8.9560  10.9042  12.3111  13.9063  14.8766  17.0719

          k =-0.0000 0.0000 0.2583 (  3099 PWs)   bands (ev):

   -32.9042 -32.9021  -4.2623  -2.1686  -0.9702   1.0249   5.0406   7.2517
    10.1280  14.8122  18.1094  22.0672  24.5900  24.5902  24.6488

          k = 3.5461 2.0473 0.0000 (  3083 PWs)   bands (ev):

   -32.8294 -32.8274  -2.2660  -0.2113   0.9349   2.9110   6.7683   8.5788
    11.6476  13.3399  14.5616  15.0706  16.8237  18.0277  19.5674

          k = 2.3640 1.3649 0.0861 (  3076 PWs)   bands (ev):

   -32.7537 -32.7533   3.4792   3.6405   5.0845   5.8891   6.2388   6.6521
     8.4051   8.8104  11.1495  12.1907  13.6728  15.1994  16.8687

          k = 3.5461-2.0473-0.2583 (  3085 PWs)   bands (ev):

   -32.8292 -32.8276  -2.2660  -0.2120   0.9374   2.9048   6.8203   8.4684
    11.8936  13.0413  14.8706  15.0456  16.3804  18.1170  19.5636

          k = 2.3640-2.7298-0.1722 (  3062 PWs)   bands (ev):

   -32.7542 -32.7529   1.6531   3.6074   4.6719   6.4397   9.0452   9.4993
    10.1635  10.4046  10.8368  11.7377  12.3760  12.6656  14.3622

          k = 0.0000-0.0000-0.5166 (  3108 PWs)   bands (ev):

   -32.9047 -32.9020  -4.2622  -2.1689  -0.9685   1.0192   5.0975   7.0968
    10.3896  14.2842  19.3870  20.7426  24.5902  24.6465  24.6465

     the Fermi energy is    12.4230 ev

!    total energy              =     -62.29326506 Ry
     estimated scf accuracy    <          1.3E-10 Ry
     smearing contrib. (-TS)   =      -0.00009133 Ry
     internal energy E=F+TS    =     -62.29317373 Ry

     The total energy is F=E-TS. E is the sum of the following terms:
     one-electron contribution =      10.42330587 Ry
     hartree contribution      =       5.89930682 Ry
     xc contribution           =     -20.39170434 Ry
     ewald contribution        =     -58.22408208 Ry

     convergence has been achieved in  11 iterations

     Forces acting on atoms (cartesian axes, Ry/au):

     atom    1 type  1   force =    -0.00000000    0.00000000    0.01451258
     atom    2 type  1   force =     0.00000000    0.00000000   -0.01451258
     atom    3 type  1   force =     0.00000000   -0.00000000   -0.00000000
     atom    4 type  1   force =     0.00000000    0.00000000    0.00000000
     atom    5 type  2   force =     0.00000000   -0.00000000   -0.01209348
     atom    6 type  2   force =    -0.00000000    0.00000000    0.01209348
     The non-local contrib.  to forces
     atom    1 type  1   force =    -0.00000000    0.00000000    0.10706136
     atom    2 type  1   force =     0.00000000   -0.00000000   -0.10706136
     atom    3 type  1   force =     0.00000000    0.00000000    0.00000000
     atom    4 type  1   force =     0.00000000    0.00000000    0.00000000
     atom    5 type  2   force =     0.00000000    0.00000000    0.00311224
     atom    6 type  2   force =    -0.00000000   -0.00000000   -0.00311224
     The ionic contribution  to forces
     atom    1 type  1   force =     0.00000000   -0.00000000    0.19767455
     atom    2 type  1   force =    -0.00000000    0.00000000   -0.19767455
     atom    3 type  1   force =    -0.00000000   -0.00000000    0.00000000
     atom    4 type  1   force =    -0.00000000   -0.00000000    0.00000000
     atom    5 type  2   force =    -0.00000000   -0.00000000   -0.28159659
     atom    6 type  2   force =    -0.00000000    0.00000000    0.28159659
     The local contribution  to forces
     atom    1 type  1   force =     0.00000000    0.00000000   -0.28583559
     atom    2 type  1   force =    -0.00000000   -0.00000000    0.28583559
     atom    3 type  1   force =    -0.00000000    0.00000000   -0.00000000
     atom    4 type  1   force =     0.00000000   -0.00000000    0.00000000
     atom    5 type  2   force =    -0.00000000    0.00000000    0.26640810
     atom    6 type  2   force =     0.00000000   -0.00000000   -0.26640810
     The core correction contribution to forces
     atom    1 type  1   force =     0.00000000    0.00000000   -0.00439783
     atom    2 type  1   force =    -0.00000000   -0.00000000    0.00439783
     atom    3 type  1   force =     0.00000000    0.00000000    0.00000000
     atom    4 type  1   force =    -0.00000000   -0.00000000    0.00000000
     atom    5 type  2   force =     0.00000000    0.00000000    0.00000000
     atom    6 type  2   force =     0.00000000    0.00000000    0.00000000
     The Hubbard contrib.    to forces
     atom    1 type  1   force =     0.00000000    0.00000000    0.00000000
     atom    2 type  1   force =     0.00000000    0.00000000    0.00000000
     atom    3 type  1   force =     0.00000000    0.00000000    0.00000000
     atom    4 type  1   force =     0.00000000    0.00000000    0.00000000
     atom    5 type  2   force =     0.00000000    0.00000000    0.00000000
     atom    6 type  2   force =     0.00000000    0.00000000    0.00000000
     The SCF correction term to forces
     atom    1 type  1   force =    -0.00000000    0.00000000    0.00001009
     atom    2 type  1   force =    -0.00000000   -0.00000000   -0.00001009
     atom    3 type  1   force =     0.00000000   -0.00000000    0.00000000
     atom    4 type  1   force =     0.00000000    0.00000000   -0.00000000
     atom    5 type  2   force =    -0.00000000    0.00000000   -0.00001724
     atom    6 type  2   force =     0.00000000   -0.00000000    0.00001724

     Total force =     0.026716     Total SCF correction =     0.000028


     Computing stress (Cartesian axis) and pressure

          total   stress  (Ry/bohr**3)                   (kbar)     P=      471.30
   0.00284484   0.00000000  -0.00000000          418.49        0.00       -0.00
   0.00000000   0.00284484   0.00000000            0.00      418.49        0.00
  -0.00000000   0.00000000   0.00392180           -0.00        0.00      576.92

     Energy error            =      1.2E-02 Ry
     Gradient error          =      1.5E-02 Ry/Bohr
     Cell gradient error     =      8.2E+01 kbar

     number of scf cycles    =   5
     number of bfgs steps    =   4

     enthalpy           old  =     -60.9485033865 Ry
     enthalpy           new  =     -60.9606627855 Ry

     CASE: enthalpy          _new < enthalpy          _old

     new trust radius        =       0.1910010227 bohr
ibrav =      5
 celldm(1) =     22.33706860
 celldm(4) =      0.97959611
Input lattice vectors:
     0.10317332    -0.05956714     1.01449951
     0.00000000     0.11913429     1.01449951
    -0.10317332    -0.05956714     1.01449951
New lattice vectors in INITIAL alat:
     0.10317332    -0.05956714     1.01449951
     0.00000000     0.11913429     1.01449951
    -0.10317332    -0.05956714     1.01449951
New lattice vectors in NEW alat (for information only):
     0.10100469    -0.05831508     0.99317541
     0.00000000     0.11663017     0.99317541
    -0.10100469    -0.05831508     0.99317541
Discrepancy in bohr =     0.000000    0.000000    0.000000
     new conv_thr            =       0.0000000003 Ry

     new unit-cell volume =    391.18137 a.u.^3 (    57.96710 Ang^3 )
     density =      3.61584 g/cm^3

CELL_PARAMETERS (alat= 21.86755848)
   0.103173320  -0.059567144   1.014499510
   0.000000000   0.119134288   1.014499510
  -0.103173320  -0.059567144   1.014499510

ATOMIC_POSITIONS (crystal)
Si            0.1062653267        0.1062653267        0.1062653267
Si            0.8937346733        0.8937346733        0.8937346733
Si            0.0000000000       -0.0000000000        0.0000000000
Si            0.5000000000        0.5000000000        0.5000000000
Li            0.2813834570        0.2813834570        0.2813834570
Li            0.7186165430        0.7186165430        0.7186165430



     Writing config-only to output data dir ./output/SiLi.save/
     NEW-OLD atomic charge density approx. for the potential
     extrapolated charge   21.95032, renormalised to   22.00000

     total cpu time spent up to now is       50.0 secs

     Self-consistent Calculation

     iteration #  1     ecut=    60.00 Ry     beta= 0.80
     Davidson diagonalization with overlap
     ethr =  1.00E-06,  avg # of iterations = 12.0
     Minimization algorithm failed to find Fermi energy: reverting to bisection
     Possible cause: smearing is larger than the electronic band-gap.

     total cpu time spent up to now is       51.4 secs

     total energy              =     -62.24458502 Ry
     estimated scf accuracy    <       0.06186611 Ry

     iteration #  2     ecut=    60.00 Ry     beta= 0.80
     Davidson diagonalization with overlap
     ethr =  2.81E-04,  avg # of iterations =  7.9

     total cpu time spent up to now is       52.1 secs

     total energy              =     -61.67304565 Ry
     estimated scf accuracy    <      11.86565958 Ry

     iteration #  3     ecut=    60.00 Ry     beta= 0.80
     Davidson diagonalization with overlap
     ethr =  2.81E-04,  avg # of iterations =  5.9

     total cpu time spent up to now is       52.8 secs

     total energy              =     -62.29533000 Ry
     estimated scf accuracy    <       0.00724416 Ry

     iteration #  4     ecut=    60.00 Ry     beta= 0.80
     Davidson diagonalization with overlap
     c_bands:  2 eigenvalues not converged
     ethr =  3.29E-05,  avg # of iterations =  6.1

     total cpu time spent up to now is       53.5 secs

     total energy              =     -62.29729631 Ry
     estimated scf accuracy    <       0.00301566 Ry

     iteration #  5     ecut=    60.00 Ry     beta= 0.80
     Davidson diagonalization with overlap
     ethr =  1.37E-05,  avg # of iterations =  2.9

     total cpu time spent up to now is       54.0 secs

     total energy              =     -62.29768202 Ry
     estimated scf accuracy    <       0.00022216 Ry

     iteration #  6     ecut=    60.00 Ry     beta= 0.80
     Davidson diagonalization with overlap
     c_bands:  2 eigenvalues not converged
     ethr =  1.01E-06,  avg # of iterations =  5.0

     total cpu time spent up to now is       54.5 secs

     total energy              =     -62.29771217 Ry
     estimated scf accuracy    <       0.00001205 Ry

     iteration #  7     ecut=    60.00 Ry     beta= 0.80
     Davidson diagonalization with overlap
     ethr =  5.48E-08,  avg # of iterations =  3.0

     total cpu time spent up to now is       55.0 secs

     total energy              =     -62.29771410 Ry
     estimated scf accuracy    <       0.00000087 Ry

     iteration #  8     ecut=    60.00 Ry     beta= 0.80
     Davidson diagonalization with overlap
     ethr =  3.94E-09,  avg # of iterations =  2.5

     total cpu time spent up to now is       55.5 secs

     total energy              =     -62.29771425 Ry
     estimated scf accuracy    <       0.00000013 Ry

     iteration #  9     ecut=    60.00 Ry     beta= 0.80
     Davidson diagonalization with overlap
     ethr =  5.90E-10,  avg # of iterations =  2.0

     total cpu time spent up to now is       56.0 secs

     total energy              =     -62.29771426 Ry
     estimated scf accuracy    <          3.3E-09 Ry

     iteration # 10     ecut=    60.00 Ry     beta= 0.80
     Davidson diagonalization with overlap
[...]
     Min          59      59     20                  762      762     148
     Max          60      60     21                  764      764     149
     Sum        1899    1899    641                24407    24407    4743

     Using Slab Decomposition



     bravais-lattice index     =            5
     lattice parameter (alat)  =      21.8676  a.u.
     unit-cell volume          =     388.5952 (a.u.)^3
     number of atoms/cell      =            6
     number of atomic types    =            2
     number of electrons       =        22.00
     number of Kohn-Sham states=           15
     kinetic-energy cutoff     =      60.0000  Ry
     charge density cutoff     =     240.0000  Ry
     scf convergence threshold =      1.0E-10
     mixing beta               =       0.8000
     number of iterations used =            8  plain     mixing
     press convergence thresh. =      2.0E+00
     Exchange-correlation= PBE
                           (   1   4   3   4   0   0   0)

     celldm(1)=  21.867558  celldm(2)=   0.000000  celldm(3)=   0.000000
     celldm(4)=   0.978228  celldm(5)=   0.000000  celldm(6)=   0.000000

     crystal axes: (cart. coord. in units of alat)
               a(1) = (   0.103535  -0.059776   1.000772 )  
               a(2) = (   0.000000   0.119551   1.000772 )  
               a(3) = (  -0.103535  -0.059776   1.000772 )  

     reciprocal axes: (cart. coord. in units 2 pi/alat)
               b(1) = (  4.829306 -2.788201  0.333076 )  
               b(2) = (  0.000000  5.576402  0.333076 )  
               b(3) = ( -4.829306 -2.788201  0.333076 )  


     PseudoPot. # 1 for Si read from file:
     ../pseudo/Si_ONCV_PBE_sr.upf
     MD5 check sum: e543d271109d17c80368dfa7c482276d
     Pseudo is Norm-conserving + core correction, Zval =  4.0
     Generated using ONCVPSP code by D. R. Hamann
     Using radial grid of 1510 points,  6 beta functions with: 
                l(1) =   0
                l(2) =   0
                l(3) =   1
                l(4) =   1
                l(5) =   2
                l(6) =   2

     PseudoPot. # 2 for Li read from file:
     ../pseudo/Li_ONCV_PBE_sr.upf
     MD5 check sum: 50ff420e78310ffa21704f3361e624a4
     Pseudo is Norm-conserving, Zval =  3.0
     Generated using ONCVPSP code by D. R. Hamann
     Using radial grid of 1944 points,  4 beta functions with: 
                l(1) =   0
                l(2) =   0
                l(3) =   1
                l(4) =   1

     atomic species   valence    mass     pseudopotential
        Si             4.00    28.08550     Si( 1.00)
        Li             3.00     6.94100     Li( 1.00)

     12 Sym. Ops., with inversion, found



   Cartesian axes

     site n.     atom                  positions (alat units)
         1           Si  tau(   1) = (   0.0000000  -0.0000000   0.3231535  )
         2           Si  tau(   2) = (   0.0000000  -0.0000000   2.6791640  )
         3           Si  tau(   3) = (  -0.0000000  -0.0000000  -0.0000000  )
         4           Si  tau(   4) = (  -0.0000000  -0.0000000   1.5011587  )
         5           Li  tau(   5) = (   0.0000000  -0.0000000   0.8391108  )
         6           Li  tau(   6) = (  -0.0000000  -0.0000000   2.1632067  )

     number of k points=    13  Marzari-Vanderbilt smearing, width (Ry)=  0.0100
                       cart. coord. in units 2pi/alat
        k(    1) = (   0.0000000   0.0000000   0.0000000), wk =   0.0312500
        k(    2) = (  -1.2073265  -0.6970503   0.0832690), wk =   0.1875000
        k(    3) = (   2.4146530   1.3941006  -0.1665380), wk =   0.0937500
        k(    4) = (  -1.2073265   0.6970503   0.1665380), wk =   0.1875000
        k(    5) = (   2.4146530   2.7882011  -0.0832690), wk =   0.3750000
        k(    6) = (   1.2073265   2.0911508   0.0000000), wk =   0.1875000
        k(    7) = (   2.4146530  -1.3941006  -0.3330760), wk =   0.0937500
        k(    8) = (  -0.0000000  -0.0000000   0.2498070), wk =   0.0625000
        k(    9) = (   3.6219795   2.0911508   0.0000000), wk =   0.1875000
        k(   10) = (   2.4146530   1.3941006   0.0832690), wk =   0.1875000
        k(   11) = (   3.6219795  -2.0911508  -0.2498070), wk =   0.1875000
        k(   12) = (   2.4146530  -2.7882011  -0.1665380), wk =   0.1875000
        k(   13) = (   0.0000000   0.0000000  -0.4996141), wk =   0.0312500

     Dense  grid:    24407 G-vectors     FFT dimensions: ( 120, 120, 120)

     Estimated max dynamical RAM per process >      14.84 MB

     Estimated total dynamical RAM >     474.89 MB

     Initial potential from superposition of free atoms

     starting charge      21.9884, renormalised to      22.0000
     Starting wfcs are   20 randomized atomic wfcs

     total cpu time spent up to now is       89.9 secs

     Self-consistent Calculation

     iteration #  1     ecut=    60.00 Ry     beta= 0.80
     Davidson diagonalization with overlap
     c_bands:  2 eigenvalues not converged
     c_bands:  1 eigenvalues not converged
     c_bands:  1 eigenvalues not converged
     c_bands:  1 eigenvalues not converged
     c_bands:  3 eigenvalues not converged
     c_bands:  1 eigenvalues not converged
     c_bands:  1 eigenvalues not converged
     c_bands:  1 eigenvalues not converged
     c_bands:  3 eigenvalues not converged
     ethr =  1.00E-06,  avg # of iterations = 19.6

     total cpu time spent up to now is       92.2 secs

     total energy              =     -61.11618826 Ry
     estimated scf accuracy    <       1.36694109 Ry

     iteration #  2     ecut=    60.00 Ry     beta= 0.80
     Davidson diagonalization with overlap
     ethr =  6.21E-03,  avg # of iterations =  7.0

     total cpu time spent up to now is       93.2 secs

     total energy              =     -56.73616337 Ry
     estimated scf accuracy    <     116.04799099 Ry

     iteration #  3     ecut=    60.00 Ry     beta= 0.80
     Davidson diagonalization with overlap
     ethr =  6.21E-03,  avg # of iterations =  6.9

     total cpu time spent up to now is       94.3 secs

     total energy              =     -62.24305266 Ry
     estimated scf accuracy    <       0.76994274 Ry

     iteration #  4     ecut=    60.00 Ry     beta= 0.80
     Davidson diagonalization with overlap
     ethr =  3.50E-03,  avg # of iterations =  1.8

     total cpu time spent up to now is       94.9 secs

     total energy              =     -62.28830649 Ry
     estimated scf accuracy    <       0.05327889 Ry

     iteration #  5     ecut=    60.00 Ry     beta= 0.80
     Davidson diagonalization with overlap
     ethr =  2.42E-04,  avg # of iterations =  4.4

     total cpu time spent up to now is       95.5 secs

     total energy              =     -62.29444063 Ry
     estimated scf accuracy    <       0.00130812 Ry

     iteration #  6     ecut=    60.00 Ry     beta= 0.80
     Davidson diagonalization with overlap
     c_bands:  1 eigenvalues not converged
     ethr =  5.95E-06,  avg # of iterations =  8.2

     total cpu time spent up to now is       96.4 secs

     total energy              =     -62.29460623 Ry
     estimated scf accuracy    <       0.00795529 Ry

     iteration #  7     ecut=    60.00 Ry     beta= 0.80
     Davidson diagonalization with overlap
     ethr =  5.95E-06,  avg # of iterations =  1.8

     total cpu time spent up to now is       96.9 secs

     total energy              =     -62.29454844 Ry
     estimated scf accuracy    <       0.00207849 Ry

     iteration #  8     ecut=    60.00 Ry     beta= 0.80
     Davidson diagonalization with overlap
     ethr =  5.95E-06,  avg # of iterations =  1.2

     total cpu time spent up to now is       97.4 secs

     total energy              =     -62.29460790 Ry
     estimated scf accuracy    <       0.00013080 Ry

     iteration #  9     ecut=    60.00 Ry     beta= 0.80
     Davidson diagonalization with overlap
     ethr =  5.95E-07,  avg # of iterations =  1.9

     total cpu time spent up to now is       97.9 secs

     total energy              =     -62.29461150 Ry
     estimated scf accuracy    <       0.00001555 Ry

     iteration # 10     ecut=    60.00 Ry     beta= 0.80
     Davidson diagonalization with overlap
     ethr =  7.07E-08,  avg # of iterations =  2.2

     total cpu time spent up to now is       98.6 secs

     total energy              =     -62.29461438 Ry
     estimated scf accuracy    <       0.00001341 Ry

     iteration # 11     ecut=    60.00 Ry     beta= 0.80
     Davidson diagonalization with overlap
     ethr =  6.10E-08,  avg # of iterations =  1.1

     total cpu time spent up to now is       99.1 secs

     total energy              =     -62.29461482 Ry
     estimated scf accuracy    <       0.00000047 Ry

     iteration # 12     ecut=    60.00 Ry     beta= 0.80
     Davidson diagonalization with overlap
     ethr =  2.14E-09,  avg # of iterations =  2.8

     total cpu time spent up to now is       99.7 secs

     total energy              =     -62.29461493 Ry
     estimated scf accuracy    <       0.00000024 Ry

     iteration # 13     ecut=    60.00 Ry     beta= 0.80
     Davidson diagonalization with overlap
     ethr =  1.10E-09,  avg # of iterations =  1.5

     total cpu time spent up to now is      100.3 secs

     total energy              =     -62.29461495 Ry
     estimated scf accuracy    <          5.3E-09 Ry

     iteration # 14     ecut=    60.00 Ry     beta= 0.80
     Davidson diagonalization with overlap
     ethr =  2.42E-11,  avg # of iterations =  3.2

     total cpu time spent up to now is      100.9 secs

     total energy              =     -62.29461495 Ry
     estimated scf accuracy    <          5.9E-09 Ry

     iteration # 15     ecut=    60.00 Ry     beta= 0.80
     Davidson diagonalization with overlap
     ethr =  2.42E-11,  avg # of iterations =  1.0

     total cpu time spent up to now is      101.5 secs

     total energy              =     -62.29461495 Ry
     estimated scf accuracy    <          7.2E-10 Ry

     iteration # 16     ecut=    60.00 Ry     beta= 0.80
     Davidson diagonalization with overlap
     ethr =  3.29E-12,  avg # of iterations =  1.5

     total cpu time spent up to now is      102.0 secs

     total energy              =     -62.29461495 Ry
     estimated scf accuracy    <          1.2E-10 Ry

     iteration # 17     ecut=    60.00 Ry     beta= 0.80
     Davidson diagonalization with overlap
     ethr =  5.29E-13,  avg # of iterations =  1.4

     total cpu time spent up to now is      102.6 secs

     End of self-consistent calculation

          k = 0.0000 0.0000 0.0000 (  3095 PWs)   bands (ev):

   -32.8619 -32.8614  -4.5453  -2.3947  -1.2662   0.8067   4.8179   6.9074
     9.6113  15.0563  16.0224  22.0140  24.9679  25.3953  25.3957

          k =-1.2073-0.6971 0.0833 (  3060 PWs)   bands (ev):

   -32.7752 -32.7743  -2.4653  -0.3491   0.7432   2.7912   6.5752   8.6065
    11.0090  13.6073  15.1397  15.5957  16.9785  17.8684  18.6204

          k = 2.4147 1.3941-0.1665 (  3046 PWs)   bands (ev):

   -32.6881 -32.6873   3.4503   3.7153   5.1466   6.0081   6.2590   7.0007
     8.6835   8.7554  11.6968  12.0013  13.4784  15.2348  16.8736

          k =-1.2073 0.6971 0.1665 (  3053 PWs)   bands (ev):

   -32.7749 -32.7743  -2.4653  -0.3493   0.7441   2.7886   6.6012   8.5302
    11.1439  13.4254  15.3489  15.8814  16.1486  18.5182  18.5754

          k = 2.4147 2.7882-0.0833 (  3042 PWs)   bands (ev):

   -32.6884 -32.6878   1.6088   3.6373   4.6617   6.4886   9.2158   9.8217
    10.0385  11.0381  11.2170  11.9966  12.4928  13.0364  14.5744

          k = 1.2073 2.0912 0.0000 (  3048 PWs)   bands (ev):

   -32.6887 -32.6878   1.6087   3.6408   4.6504   6.5119   9.2146   9.8267
     9.8627  11.0770  11.5585  12.0154  12.2350  13.0919  14.7383

          k = 2.4147-1.3941-0.3331 (  3028 PWs)   bands (ev):

   -32.6873 -32.6873   3.4500   3.7134   5.1605   6.0878   6.1626   6.9572
     8.5817   9.0398  11.1096  12.3832  13.8845  14.7638  16.8673

          k =-0.0000-0.0000 0.2498 (  3084 PWs)   bands (ev):

   -32.8619 -32.8609  -4.5453  -2.3947  -1.2659   0.8050   4.8467   6.8173
     9.7712  14.3051  17.0642  21.0246  25.3957  25.3961  25.6539

          k = 3.6220 2.0912 0.0000 (  3067 PWs)   bands (ev):

   -32.7755 -32.7744  -2.4653  -0.3500   0.7466   2.7817   6.6703   8.3588
    11.3906  13.5930  14.6215  15.5017  16.9402  18.3274  19.1980

          k = 2.4147 1.3941 0.0833 (  3043 PWs)   bands (ev):

   -32.6880 -32.6873   3.4501   3.7144   5.1535   6.0368   6.2220   6.9785
     8.6074   8.9193  11.3367  12.2663  13.6462  15.0290  16.8393

          k = 3.6220-2.0912-0.2498 (  3067 PWs)   bands (ev):

   -32.7754 -32.7744  -2.4653  -0.3502   0.7475   2.7791   6.7012   8.2880
    11.5487  13.3222  14.8879  15.5002  16.5774  18.4651  19.7583

          k = 2.4147-2.7882-0.1665 (  3048 PWs)   bands (ev):

   -32.6886 -32.6879   1.6089   3.6338   4.6730   6.4654   9.2167   9.8225
    10.3560  10.7106  11.0921  11.9788  12.8185  12.8338  14.6847

          k = 0.0000 0.0000-0.4996 (  3090 PWs)   bands (ev):

   -32.8625 -32.8607  -4.5453  -2.3947  -1.2657   0.8032   4.8771   6.7305
     9.9371  13.8602  18.0577  19.9708  25.3960  25.3961  25.6524

     the Fermi energy is    12.7475 ev

!    total energy              =     -62.29461495 Ry
     estimated scf accuracy    <          8.6E-11 Ry
     smearing contrib. (-TS)   =       0.00009407 Ry
     internal energy E=F+TS    =     -62.29470903 Ry

     The total energy is F=E-TS. E is the sum of the following terms:
     one-electron contribution =      10.66455838 Ry
     hartree contribution      =       5.85552554 Ry
     xc contribution           =     -20.47119627 Ry
     ewald contribution        =     -58.34359668 Ry

     convergence has been achieved in  17 iterations

     Forces acting on atoms (cartesian axes, Ry/au):

     atom    1 type  1   force =     0.00000000   -0.00000000    0.00013493
     atom    2 type  1   force =    -0.00000000   -0.00000000   -0.00013493
     atom    3 type  1   force =     0.00000000   -0.00000000    0.00000000
     atom    4 type  1   force =     0.00000000    0.00000000    0.00000000
     atom    5 type  2   force =     0.00000000   -0.00000000    0.00049571
     atom    6 type  2   force =    -0.00000000    0.00000000   -0.00049571
     The non-local contrib.  to forces
     atom    1 type  1   force =     0.00000000    0.00000000    0.08246190
     atom    2 type  1   force =    -0.00000000   -0.00000000   -0.08246190
     atom    3 type  1   force =    -0.00000000   -0.00000000   -0.00000000
     atom    4 type  1   force =     0.00000000    0.00000000   -0.00000000
     atom    5 type  2   force =     0.00000000    0.00000000    0.00210879
     atom    6 type  2   force =    -0.00000000   -0.00000000   -0.00210879
     The ionic contribution  to forces
     atom    1 type  1   force =     0.00000000   -0.00000000   -0.60663418
     atom    2 type  1   force =     0.00000000   -0.00000000    0.60663418
     atom    3 type  1   force =     0.00000000    0.00000000    0.00000000
     atom    4 type  1   force =    -0.00000000   -0.00000000   -0.00000000
     atom    5 type  2   force =    -0.00000000   -0.00000000    0.22804619
     atom    6 type  2   force =     0.00000000    0.00000000   -0.22804619
     The local contribution  to forces
     atom    1 type  1   force =     0.00000000    0.00000000    0.52682556
     atom    2 type  1   force =    -0.00000000   -0.00000000   -0.52682556
     atom    3 type  1   force =    -0.00000000    0.00000000   -0.00000000
     atom    4 type  1   force =     0.00000000   -0.00000000    0.00000000
     atom    5 type  2   force =    -0.00000000    0.00000000   -0.22964661
     atom    6 type  2   force =     0.00000000   -0.00000000    0.22964661
     The core correction contribution to forces
     atom    1 type  1   force =     0.00000000   -0.00000000   -0.00253110
     atom    2 type  1   force =     0.00000000   -0.00000000    0.00253110
     atom    3 type  1   force =    -0.00000000   -0.00000000    0.00000000
     atom    4 type  1   force =     0.00000000   -0.00000000    0.00000000
     atom    5 type  2   force =     0.00000000    0.00000000    0.00000000
     atom    6 type  2   force =     0.00000000    0.00000000    0.00000000
     The Hubbard contrib.    to forces
     atom    1 type  1   force =     0.00000000    0.00000000    0.00000000
     atom    2 type  1   force =     0.00000000    0.00000000    0.00000000
     atom    3 type  1   force =     0.00000000    0.00000000    0.00000000
     atom    4 type  1   force =     0.00000000    0.00000000    0.00000000
     atom    5 type  2   force =     0.00000000    0.00000000    0.00000000
     atom    6 type  2   force =     0.00000000    0.00000000    0.00000000
     The SCF correction term to forces
     atom    1 type  1   force =     0.00000000   -0.00000000    0.00001275
     atom    2 type  1   force =    -0.00000000    0.00000000   -0.00001275
     atom    3 type  1   force =    -0.00000000    0.00000000   -0.00000000
     atom    4 type  1   force =     0.00000000   -0.00000000    0.00000000
     atom    5 type  2   force =    -0.00000000   -0.00000000   -0.00001266
     atom    6 type  2   force =    -0.00000000    0.00000000    0.00001266

     Total force =     0.000727     Total SCF correction =     0.000025


     Computing stress (Cartesian axis) and pressure

          total   stress  (Ry/bohr**3)                   (kbar)     P=      500.30
   0.00339881  -0.00000000   0.00000000          499.98       -0.00        0.00
  -0.00000000   0.00339881   0.00000000           -0.00      499.98        0.00
   0.00000000   0.00000000   0.00340537            0.00        0.00      500.95


     Writing all to output data dir ./output/SiLi.save/

     init_run     :      1.72s CPU      1.92s WALL (       2 calls)
     electrons    :     93.53s CPU     96.57s WALL (      12 calls)
     update_pot   :      0.94s CPU      0.96s WALL (      10 calls)
     forces       :      0.84s CPU      0.90s WALL (      12 calls)
     stress       :      2.03s CPU      2.08s WALL (      12 calls)

     Called by init_run:
     wfcinit      :      0.46s CPU      0.48s WALL (       2 calls)
     potinit      :      0.11s CPU      0.12s WALL (       2 calls)
     hinit0       :      1.13s CPU      1.28s WALL (       2 calls)

     Called by electrons:
     c_bands      :     77.03s CPU     79.55s WALL (     151 calls)
     sum_band     :     12.46s CPU     12.73s WALL (     151 calls)
     v_of_rho     :      4.05s CPU      4.12s WALL (     162 calls)
     mix_rho      :      0.15s CPU      0.18s WALL (     151 calls)

     Called by c_bands:
     init_us_2    :      0.18s CPU      0.22s WALL (    4264 calls)
     init_us_2:cp :      0.18s CPU      0.21s WALL (    4264 calls)
     cegterg      :     76.32s CPU     78.08s WALL (    1963 calls)

     Called by *egterg:
     cdiaghg      :      2.59s CPU      2.71s WALL (    9526 calls)
     h_psi        :     72.95s CPU     74.50s WALL (    9695 calls)
     g_psi        :      0.03s CPU      0.03s WALL (    7706 calls)

     Called by h_psi:
     h_psi:calbec :      1.02s CPU      1.09s WALL (    9695 calls)
     vloc_psi     :     71.45s CPU     72.89s WALL (    9695 calls)
     add_vuspsi   :      0.42s CPU      0.44s WALL (    9695 calls)

     General routines
     calbec       :      1.15s CPU      1.23s WALL (   10475 calls)
     fft          :      2.07s CPU      2.25s WALL (    1919 calls)
     ffts         :      0.07s CPU      0.07s WALL (     151 calls)
     fftw         :     73.13s CPU     74.52s WALL (  205819 calls)

     Parallel routines

     PWSCF        :   1m39.27s CPU   1m43.00s WALL


   This run was terminated on:  18:10:25   5Feb2025            

=------------------------------------------------------------------------------=
   JOB DONE.
=------------------------------------------------------------------------------=
