
     Program PWSCF v.7.2 starts on 28Dec2024 at 16:57:59 

     This program is part of the open-source Quantum ESPRESSO suite
     for quantum simulation of materials; please cite
         "P. Giannozzi et al., J. Phys.:Condens. Matter 21 395502 (2009);
         "P. Giannozzi et al., J. Phys.:Condens. Matter 29 465901 (2017);
         "P. Giannozzi et al., J. Chem. Phys. 152 154105 (2020);
          URL http://www.quantum-espresso.org", 
     in publications or presentations arising from this work. More details at
     http://www.quantum-espresso.org/quote

     Parallel version (MPI & OpenMP), running on       8 processor cores
     Number of MPI processes:                 8
     Threads/MPI process:                     1

     MPI processes distributed on     1 nodes
     482853 MiB available memory on the printing compute node when the environment starts

     Waiting for input...
     Reading input from standard input

     Current dimensions of program PWSCF are:
     Max number of different atomic species (ntypx) = 10
     Max number of k-points (npk) =  40000
     Max angular momentum in pseudopotentials (lmaxx) =  4

     R & G space division:  proc/nbgrp/npool/nimage =       8
     Subspace diagonalization in iterative solution of the eigenvalue problem:
     a serial algorithm will be used


     Parallelization info
     --------------------
     sticks:   dense  smooth     PW     G-vecs:    dense   smooth      PW
     Min         246     246     75                 6361     6361    1073
     Max         247     247     76                 6362     6362    1074
     Sum        1973    1973    603                50893    50893    8589

     Using Slab Decomposition



     bravais-lattice index     =            7
     lattice parameter (alat)  =      11.0291  a.u.
     unit-cell volume          =     526.8314 (a.u.)^3
     number of atoms/cell      =            6
     number of atomic types    =            2
     number of electrons       =        20.00
     number of Kohn-Sham states=           14
     kinetic-energy cutoff     =      80.0000  Ry
     charge density cutoff     =     320.0000  Ry
     scf convergence threshold =      1.0E-08
     mixing beta               =       0.7000
     number of iterations used =            8  plain     mixing
     energy convergence thresh.=      1.0E-04
     force convergence thresh. =      1.0E-03
     press convergence thresh. =      1.0E+00
     Exchange-correlation= PBE
                           (   1   4   3   4   0   0   0)
     nstep                     =           50


     celldm(1)=  11.029081  celldm(2)=   0.000000  celldm(3)=   0.785387
     celldm(4)=   0.000000  celldm(5)=   0.000000  celldm(6)=   0.000000

     crystal axes: (cart. coord. in units of alat)
               a(1) = (   0.500000  -0.500000   0.392693 )  
               a(2) = (   0.500000   0.500000   0.392693 )  
               a(3) = (  -0.500000  -0.500000   0.392693 )  

     reciprocal axes: (cart. coord. in units 2 pi/alat)
               b(1) = (  1.000000 -1.000000  0.000000 )  
               b(2) = (  0.000000  1.000000  1.273258 )  
               b(3) = ( -1.000000  0.000000  1.273258 )  


     PseudoPot. # 1 for Si read from file:
     ../pseudo/Si_ONCV_PBE_sr.upf
     MD5 check sum: e543d271109d17c80368dfa7c482276d
     Pseudo is Norm-conserving + core correction, Zval =  4.0
     Generated using ONCVPSP code by D. R. Hamann
     Using radial grid of 1510 points,  6 beta functions with: 
                l(1) =   0
                l(2) =   0
                l(3) =   1
                l(4) =   1
                l(5) =   2
                l(6) =   2

     PseudoPot. # 2 for Li read from file:
     ../pseudo/Li_ONCV_PBE_sr.upf
     MD5 check sum: 50ff420e78310ffa21704f3361e624a4
     Pseudo is Norm-conserving, Zval =  3.0
     Generated using ONCVPSP code by D. R. Hamann
     Using radial grid of 1944 points,  4 beta functions with: 
                l(1) =   0
                l(2) =   0
                l(3) =   1
                l(4) =   1

     atomic species   valence    mass     pseudopotential
        Si             4.00    28.08550     Si( 1.00)
        Li             3.00     6.94100     Li( 1.00)

     16 Sym. Ops., with inversion, found ( 8 have fractional translation)



   Cartesian axes

     site n.     atom                  positions (alat units)
         1           Si  tau(   1) = (   0.0000000   0.0000000   0.1963467  )
         2           Si  tau(   2) = (   0.0000000   0.0000000   0.5890402  )
         3           Li  tau(   3) = (   0.1615230   0.3384770  -0.0000000  )
         4           Li  tau(   4) = (   0.8384770   0.6615230  -0.0000000  )
         5           Li  tau(   5) = (   0.6615230   0.1615230  -0.0000000  )
         6           Li  tau(   6) = (   0.3384770   0.8384770   0.0000000  )

     number of k points=    72  Marzari-Vanderbilt smearing, width (Ry)=  0.0200
                       cart. coord. in units 2pi/alat
        k(    1) = (   0.0000000   0.0000000   0.0000000), wk =   0.0133333
        k(    2) = (  -0.1666667   0.0000000   0.2122096), wk =   0.0266667
        k(    3) = (  -0.3333333   0.0000000   0.4244192), wk =   0.0266667
        k(    4) = (   0.5000000   0.0000000  -0.6366289), wk =   0.0133333
        k(    5) = (   0.0000000   0.2000000   0.2546515), wk =   0.0533333
        k(    6) = (  -0.1666667   0.2000000   0.4668612), wk =   0.0266667
        k(    7) = (  -0.3333333   0.2000000   0.6790708), wk =   0.0266667
        k(    8) = (   0.5000000   0.2000000  -0.3819773), wk =   0.0266667
        k(    9) = (   0.3333333   0.2000000  -0.1697677), wk =   0.0266667
        k(   10) = (   0.1666667   0.2000000   0.0424419), wk =   0.0266667
        k(   11) = (   0.0000000   0.4000000   0.5093031), wk =   0.0533333
        k(   12) = (  -0.1666667   0.4000000   0.7215127), wk =   0.0266667
        k(   13) = (  -0.3333333   0.4000000   0.9337223), wk =   0.0266667
        k(   14) = (   0.5000000   0.4000000  -0.1273258), wk =   0.0266667
        k(   15) = (   0.3333333   0.4000000   0.0848838), wk =   0.0266667
        k(   16) = (   0.1666667   0.4000000   0.2970935), wk =   0.0266667
        k(   17) = (   0.2000000  -0.2000000   0.0000000), wk =   0.0266667
        k(   18) = (   0.0333333  -0.2000000   0.2122096), wk =   0.0266667
        k(   19) = (  -0.1333333  -0.2000000   0.4244192), wk =   0.0266667
        k(   20) = (   0.7000000  -0.2000000  -0.6366289), wk =   0.0266667
        k(   21) = (   0.5333333  -0.2000000  -0.4244192), wk =   0.0266667
        k(   22) = (   0.3666667  -0.2000000  -0.2122096), wk =   0.0266667
        k(   23) = (   0.0333333   0.0000000   0.4668612), wk =   0.0266667
        k(   24) = (  -0.1333333   0.0000000   0.6790708), wk =   0.0266667
        k(   25) = (   0.7000000   0.0000000  -0.3819773), wk =   0.0266667
        k(   26) = (   0.5333333   0.0000000  -0.1697677), wk =   0.0266667
        k(   27) = (   0.3666667   0.0000000   0.0424419), wk =   0.0266667
        k(   28) = (   0.2000000   0.2000000   0.5093031), wk =   0.0266667
        k(   29) = (   0.0333333   0.2000000   0.7215127), wk =   0.0266667
        k(   30) = (  -0.1333333   0.2000000   0.9337223), wk =   0.0266667
        k(   31) = (   0.7000000   0.2000000  -0.1273258), wk =   0.0266667
        k(   32) = (   0.5333333   0.2000000   0.0848838), wk =   0.0266667
        k(   33) = (   0.3666667   0.2000000   0.2970935), wk =   0.0266667
        k(   34) = (   0.2000000  -0.6000000  -0.5093031), wk =   0.0533333
        k(   35) = (   0.0333333  -0.6000000  -0.2970935), wk =   0.0266667
        k(   36) = (  -0.1333333  -0.6000000  -0.0848838), wk =   0.0266667
        k(   37) = (   0.7000000  -0.6000000  -1.1459319), wk =   0.0266667
        k(   38) = (   0.5333333  -0.6000000  -0.9337223), wk =   0.0266667
        k(   39) = (   0.3666667  -0.6000000  -0.7215127), wk =   0.0266667
        k(   40) = (   0.2000000  -0.4000000  -0.2546515), wk =   0.0533333
        k(   41) = (   0.0333333  -0.4000000  -0.0424419), wk =   0.0266667
        k(   42) = (  -0.1333333  -0.4000000   0.1697677), wk =   0.0266667
        k(   43) = (   0.7000000  -0.4000000  -0.8912804), wk =   0.0266667
        k(   44) = (   0.5333333  -0.4000000  -0.6790708), wk =   0.0266667
        k(   45) = (   0.3666667  -0.4000000  -0.4668612), wk =   0.0266667
        k(   46) = (   0.4000000  -0.4000000   0.0000000), wk =   0.0266667
        k(   47) = (   0.2333333  -0.4000000   0.2122096), wk =   0.0266667
        k(   48) = (   0.0666667  -0.4000000   0.4244192), wk =   0.0266667
        k(   49) = (   0.9000000  -0.4000000  -0.6366289), wk =   0.0266667
        k(   50) = (   0.7333333  -0.4000000  -0.4244192), wk =   0.0266667
        k(   51) = (   0.5666667  -0.4000000  -0.2122096), wk =   0.0266667
        k(   52) = (   0.2333333  -0.2000000   0.4668612), wk =   0.0266667
        k(   53) = (   0.0666667  -0.2000000   0.6790708), wk =   0.0266667
        k(   54) = (   0.9000000  -0.2000000  -0.3819773), wk =   0.0266667
        k(   55) = (   0.7333333  -0.2000000  -0.1697677), wk =   0.0266667
        k(   56) = (   0.5666667  -0.2000000   0.0424419), wk =   0.0266667
        k(   57) = (   0.2333333   0.0000000   0.7215127), wk =   0.0266667
        k(   58) = (   0.0666667   0.0000000   0.9337223), wk =   0.0266667
        k(   59) = (   0.9000000   0.0000000  -0.1273258), wk =   0.0266667
        k(   60) = (   0.7333333   0.0000000   0.0848838), wk =   0.0266667
        k(   61) = (   0.5666667   0.0000000   0.2970935), wk =   0.0266667
        k(   62) = (   0.2333333  -0.8000000  -0.2970935), wk =   0.0266667
        k(   63) = (   0.0666667  -0.8000000  -0.0848838), wk =   0.0266667
        k(   64) = (   0.9000000  -0.8000000  -1.1459319), wk =   0.0266667
        k(   65) = (   0.7333333  -0.8000000  -0.9337223), wk =   0.0266667
        k(   66) = (   0.5666667  -0.8000000  -0.7215127), wk =   0.0266667
        k(   67) = (   0.4000000  -0.6000000  -0.2546515), wk =   0.0266667
        k(   68) = (   0.2333333  -0.6000000  -0.0424419), wk =   0.0266667
        k(   69) = (   0.0666667  -0.6000000   0.1697677), wk =   0.0266667
        k(   70) = (   0.9000000  -0.6000000  -0.8912804), wk =   0.0266667
        k(   71) = (   0.7333333  -0.6000000  -0.6790708), wk =   0.0266667
        k(   72) = (   0.5666667  -0.6000000  -0.4668612), wk =   0.0266667

     Dense  grid:    50893 G-vectors     FFT dimensions: (  54,  54,  54)

     Estimated max dynamical RAM per process >      29.68 MB

     Estimated total dynamical RAM >     237.46 MB

     Initial potential from superposition of free atoms

     starting charge      19.9805, renormalised to      20.0000
     Starting wfcs are   16 randomized atomic wfcs

     total cpu time spent up to now is        4.9 secs

     Self-consistent Calculation

     iteration #  1     ecut=    80.00 Ry     beta= 0.70
     Davidson diagonalization with overlap
     ethr =  1.00E-02,  avg # of iterations =  5.5

     Threshold (ethr) on eigenvalues was too large:
     Diagonalizing with lowered threshold

     Davidson diagonalization with overlap
     ethr =  4.08E-04,  avg # of iterations =  2.7

     total cpu time spent up to now is        9.4 secs

     total energy              =     -74.55383332 Ry
     estimated scf accuracy    <       0.07745595 Ry

     iteration #  2     ecut=    80.00 Ry     beta= 0.70
     Davidson diagonalization with overlap
     ethr =  3.87E-04,  avg # of iterations =  2.5

     total cpu time spent up to now is       11.4 secs

     total energy              =     -74.56990178 Ry
     estimated scf accuracy    <       0.02302636 Ry

     iteration #  3     ecut=    80.00 Ry     beta= 0.70
     Davidson diagonalization with overlap
     ethr =  1.15E-04,  avg # of iterations =  2.2

     total cpu time spent up to now is       13.3 secs

     total energy              =     -74.57470763 Ry
     estimated scf accuracy    <       0.00051246 Ry

     iteration #  4     ecut=    80.00 Ry     beta= 0.70
     Davidson diagonalization with overlap
     c_bands:  1 eigenvalues not converged
     ethr =  2.56E-06,  avg # of iterations =  7.0

     total cpu time spent up to now is       15.6 secs

     total energy              =     -74.57475027 Ry
     estimated scf accuracy    <       0.00001426 Ry

     iteration #  5     ecut=    80.00 Ry     beta= 0.70
     Davidson diagonalization with overlap
     ethr =  7.13E-08,  avg # of iterations =  2.3

     total cpu time spent up to now is       17.6 secs

     total energy              =     -74.57475546 Ry
     estimated scf accuracy    <       0.00000102 Ry

     iteration #  6     ecut=    80.00 Ry     beta= 0.70
     Davidson diagonalization with overlap
     ethr =  5.10E-09,  avg # of iterations =  2.1

     total cpu time spent up to now is       19.3 secs

     total energy              =     -74.57475562 Ry
     estimated scf accuracy    <       0.00000003 Ry

     iteration #  7     ecut=    80.00 Ry     beta= 0.70
     Davidson diagonalization with overlap
     ethr =  1.32E-10,  avg # of iterations =  3.5

     total cpu time spent up to now is       21.3 secs

     End of self-consistent calculation

          k = 0.0000 0.0000 0.0000 (  6373 PWs)   bands (ev):

   -40.2890 -40.2561 -40.2344 -40.2344  -5.1549   1.0139   2.7570   2.7570
     3.0815   5.5124   5.7561   5.7561   6.6947   9.0957

          k =-0.1667 0.0000 0.2122 (  6378 PWs)   bands (ev):

   -40.2847 -40.2559 -40.2367 -40.2364  -4.9488  -0.2305   2.6314   2.7559
     4.2392   5.1284   5.2358   6.0549   6.8706   9.3451

          k =-0.3333 0.0000 0.4244 (  6358 PWs)   bands (ev):

   -40.2737 -40.2556 -40.2430 -40.2413  -4.3306  -1.9058   2.5696   2.8750
     3.6798   4.1289   6.7668   7.1776   7.4982   9.9162

          k = 0.5000 0.0000-0.6366 (  6370 PWs)   bands (ev):

   -40.2610 -40.2610 -40.2458 -40.2458  -3.3067  -3.3067   2.8564   2.8564
     3.3782   3.3782   7.8283   7.8283   8.7738   8.7738

          k = 0.0000 0.2000 0.2547 (  6372 PWs)   bands (ev):

   -40.2829 -40.2558 -40.2377 -40.2373  -4.8580  -0.5758   2.5997   2.7639
     4.3280   4.9260   5.3119   6.2608   6.9817   9.4864

          k =-0.1667 0.2000 0.4669 (  6357 PWs)   bands (ev):

   -40.2735 -40.2552 -40.2434 -40.2416  -4.2287  -2.1159   2.5329   3.3161
     3.4018   4.3474   6.2539   7.2147   7.3982  10.0960

          k =-0.3333 0.2000 0.6791 (  6377 PWs)   bands (ev):

   -40.2616 -40.2589 -40.2476 -40.2454  -3.3959  -3.1932   2.1002   2.8888
     3.3570   4.6626   6.5991   7.6149   9.2732   9.5898

          k = 0.5000 0.2000-0.3820 (  6361 PWs)   bands (ev):

   -40.2701 -40.2556 -40.2472 -40.2407  -4.3387  -1.7670   1.5706   3.0282
     3.5783   5.0521   6.2082   7.2041   8.7113  10.1488

          k = 0.3333 0.2000-0.1698 (  6370 PWs)   bands (ev):

   -40.2805 -40.2568 -40.2406 -40.2358  -4.9065  -0.0366   1.5185   2.9385
     3.4825   4.7544   6.5681   6.6670   8.4369   8.9620

          k = 0.1667 0.2000 0.0424 (  6375 PWs)   bands (ev):

   -40.2856 -40.2566 -40.2371 -40.2345  -5.0823   0.8965   1.9222   2.7676
     2.8784   5.3567   6.1380   6.5885   7.5330   8.8364

          k = 0.0000 0.4000 0.5093 (  6364 PWs)   bands (ev):

   -40.2684 -40.2563 -40.2454 -40.2434  -3.9689  -2.5077   2.6385   2.9731
     3.3626   3.7837   7.5613   7.5974   7.7185   9.6100

          k =-0.1667 0.4000 0.7215 (  6368 PWs)   bands (ev):

   -40.2618 -40.2589 -40.2480 -40.2448  -3.6314  -2.9220   2.0522   2.9460
     3.3285   4.5198   6.9382   7.5280   8.9972   9.6965

          k =-0.3333 0.4000 0.9337 (  6363 PWs)   bands (ev):

   -40.2691 -40.2549 -40.2499 -40.2396  -4.4182  -1.5062   1.1643   3.1478
     3.5587   5.1320   6.5031   7.0013   8.8436  10.0968

          k = 0.5000 0.4000-0.1273 (  6380 PWs)   bands (ev):

   -40.2751 -40.2582 -40.2451 -40.2353  -4.8545   0.2053   0.8027   2.8836
     3.1122   4.5914   7.0194   8.0669   8.3468   9.1202

          k = 0.3333 0.4000 0.0849 (  6367 PWs)   bands (ev):

   -40.2781 -40.2579 -40.2429 -40.2348  -4.9303   0.5664   0.9742   2.6004
     3.0674   4.8102   6.7849   7.9296   8.3927   9.0521

          k = 0.1667 0.4000 0.2971 (  6366 PWs)   bands (ev):

   -40.2759 -40.2561 -40.2432 -40.2385  -4.6373  -1.0710   1.6564   2.9362
     3.9205   4.7678   5.9816   7.0373   8.4832   9.6590

          k = 0.2000-0.2000 0.0000 (  6374 PWs)   bands (ev):

   -40.2852 -40.2567 -40.2375 -40.2344  -5.0789   0.9862   1.8086   2.6188
     2.8976   5.3431   6.1779   6.7852   7.6665   8.8948

          k = 0.0333-0.2000 0.2122 (  6375 PWs)   bands (ev):

   -40.2841 -40.2560 -40.2372 -40.2365  -4.9352  -0.2507   2.4869   2.7507
     4.1404   5.0693   5.3690   6.2056   7.0930   9.4111

          k =-0.1333-0.2000 0.4244 (  6362 PWs)   bands (ev):

   -40.2757 -40.2552 -40.2422 -40.2405  -4.3872  -1.8251   2.5478   3.3088
     3.5675   4.3739   6.2677   6.9243   7.0758   9.9395

          k = 0.7000-0.2000-0.6366 (  6366 PWs)   bands (ev):

   -40.2638 -40.2575 -40.2465 -40.2458  -3.4325  -3.1652   2.2475   2.8462
     3.3999   4.5690   6.4851   7.6625   9.0930   9.6841

          k = 0.5333-0.2000-0.4244 (  6364 PWs)   bands (ev):

   -40.2678 -40.2555 -40.2484 -40.2418  -4.1793  -2.0815   1.6395   3.0485
     3.4444   5.0339   6.4313   7.1927   8.8231  10.1217

          k = 0.3667-0.2000-0.2122 (  6369 PWs)   bands (ev):

   -40.2787 -40.2566 -40.2417 -40.2366  -4.8240  -0.3947   1.4905   2.9509
     3.7647   4.6097   6.4009   6.8228   8.5043   9.2582

          k = 0.0333 0.0000 0.4669 (  6384 PWs)   bands (ev):

   -40.2759 -40.2546 -40.2416 -40.2416  -4.3003  -2.0211   3.0143   3.0191
     4.2235   4.2380   5.4957   5.9878   7.5683   9.6335

          k =-0.1333 0.0000 0.6791 (  6377 PWs)   bands (ev):

   -40.2642 -40.2545 -40.2476 -40.2472  -3.3347  -3.2531   2.4281   2.4434
     4.3179   4.5406   5.4647   6.3553   9.6790  10.1614

          k = 0.7000 0.0000-0.3820 (  6371 PWs)   bands (ev):

   -40.2634 -40.2560 -40.2489 -40.2452  -4.1942  -1.9567   1.8610   2.0130
     4.3703   4.5758   6.0884   6.3009   9.9356  11.1981

          k = 0.5333 0.0000-0.1698 (  6358 PWs)   bands (ev):

   -40.2748 -40.2572 -40.2414 -40.2402  -4.7922  -0.2038   1.6630   1.9338
     3.0254   5.5197   6.2553   6.7053   9.4743   9.5721

          k = 0.3667 0.0000 0.0424 (  6375 PWs)   bands (ev):

   -40.2825 -40.2570 -40.2374 -40.2368  -5.0184   0.8564   1.9327   2.2161
     2.3939   6.1958   6.2666   6.6069   7.9124   8.2890

          k = 0.2000 0.2000 0.5093 (  6357 PWs)   bands (ev):

   -40.2711 -40.2553 -40.2445 -40.2428  -4.0540  -2.3961   2.5154   3.0952
     3.4514   4.3610   6.2655   7.3680   7.8623  10.2507

          k = 0.0333 0.2000 0.7215 (  6366 PWs)   bands (ev):

   -40.2616 -40.2564 -40.2486 -40.2470  -3.4844  -3.0753   2.2621   2.4117
     4.1451   4.5234   5.7916   6.5654   9.5246  10.4516

          k =-0.1333 0.2000 0.9337 (  6366 PWs)   bands (ev):

   -40.2619 -40.2549 -40.2512 -40.2454  -4.2797  -1.7038   1.5184   2.0658
     4.1064   4.6976   6.1122   6.3963  10.0242  11.0717

          k = 0.7000 0.2000-0.1273 (  6366 PWs)   bands (ev):

   -40.2695 -40.2581 -40.2460 -40.2400  -4.7516   0.0408   1.0628   2.1289
     2.4531   5.0794   6.2433   7.9961   9.8434  10.1467

          k = 0.5333 0.2000 0.0849 (  6373 PWs)   bands (ev):

   -40.2755 -40.2579 -40.2432 -40.2370  -4.8796   0.4962   1.0988   2.2988
     2.5081   5.4571   6.2089   7.7939   8.8459   9.2534

          k = 0.3667 0.2000 0.2971 (  6360 PWs)   bands (ev):

   -40.2764 -40.2561 -40.2431 -40.2380  -4.6510  -1.0484   1.6276   3.1061
     3.9007   4.7244   6.0402   6.9609   8.4249   9.6698

          k = 0.2000-0.6000-0.5093 (  6358 PWs)   bands (ev):

   -40.2633 -40.2572 -40.2491 -40.2439  -3.8162  -2.6676   1.8354   3.0170
     3.3071   4.8616   6.7639   7.2807   9.0711   9.9019

          k = 0.0333-0.6000-0.2971 (  6370 PWs)   bands (ev):

   -40.2694 -40.2564 -40.2453 -40.2424  -4.5012  -1.2630   1.7210   2.0446
     3.9446   4.9234   5.9768   6.6081  10.0904  10.5523

          k =-0.1333-0.6000-0.0849 (  6363 PWs)   bands (ev):

   -40.2731 -40.2580 -40.2434 -40.2390  -4.8360   0.4424   1.2029   2.0602
     2.2094   5.4556   6.2725   7.7109   9.3121   9.5604

          k = 0.7000-0.6000-1.1459 (  6376 PWs)   bands (ev):

   -40.2731 -40.2581 -40.2454 -40.2369  -4.8162   0.1396   0.8978   2.6432
     2.7066   5.0655   6.2839   8.0761   9.0109   9.5080

          k = 0.5333-0.6000-0.9337 (  6365 PWs)   bands (ev):

   -40.2703 -40.2549 -40.2496 -40.2388  -4.4452  -1.4602   1.1019   3.4220
     3.4679   5.1345   6.5716   7.6014   8.2878   9.4720

          k = 0.3667-0.6000-0.7215 (  6349 PWs)   bands (ev):

   -40.2645 -40.2569 -40.2480 -40.2441  -3.7283  -2.7948   1.8448   2.4027
     4.2589   4.7827   7.4460   7.6175   8.8760   9.5211

          k = 0.2000-0.4000-0.2547 (  6364 PWs)   bands (ev):

   -40.2768 -40.2564 -40.2430 -40.2375  -4.7258  -0.7509   1.4814   2.9654
     3.9136   4.5987   6.2436   6.9711   8.5378   9.5944

          k = 0.0333-0.4000-0.0424 (  6374 PWs)   bands (ev):

   -40.2813 -40.2571 -40.2382 -40.2371  -4.9960   0.8438   1.8021   2.1802
     2.3050   6.1244   6.4706   6.6056   8.0952   8.3866

          k =-0.1333-0.4000 0.1698 (  6369 PWs)   bands (ev):

   -40.2793 -40.2569 -40.2407 -40.2369  -4.8801  -0.0790   1.5730   2.6106
     3.3180   5.0985   6.3907   6.8013   8.5114   9.0071

          k = 0.7000-0.4000-0.8913 (  6359 PWs)   bands (ev):

   -40.2717 -40.2554 -40.2469 -40.2396  -4.3799  -1.7013   1.4793   3.2956
     3.5595   5.1751   6.2901   7.2904   8.5652   9.8499

          k = 0.5333-0.4000-0.6791 (  6351 PWs)   bands (ev):

   -40.2621 -40.2585 -40.2477 -40.2454  -3.5058  -3.0560   1.8755   2.1817
     4.4821   4.8122   7.6439   7.7134   9.0399   9.3230

          k = 0.3667-0.4000-0.4669 (  6352 PWs)   bands (ev):

   -40.2679 -40.2552 -40.2488 -40.2417  -4.0742  -2.2807   1.5757   2.7994
     3.9324   5.1862   6.8406   7.4815   8.7883   9.5919

          k = 0.4000-0.4000 0.0000 (  6398 PWs)   bands (ev):

   -40.2774 -40.2584 -40.2435 -40.2345  -4.9438   0.8416   0.9604   2.1341
     3.0892   4.8855   6.8005   8.2276   8.7290   8.7940

          k = 0.2333-0.4000 0.2122 (  6369 PWs)   bands (ev):

   -40.2774 -40.2568 -40.2428 -40.2366  -4.7992  -0.4224   1.3251   2.9926
     3.7152   4.5395   6.6158   6.9186   8.5478   9.4659

          k = 0.0667-0.4000 0.4244 (  6359 PWs)   bands (ev):

   -40.2719 -40.2558 -40.2443 -40.2416  -4.2817  -1.9684   2.2729   2.8729
     3.6433   4.2860   6.6884   7.3188   8.0568   9.7180

          k = 0.9000-0.4000-0.6366 (  6369 PWs)   bands (ev):

   -40.2627 -40.2590 -40.2461 -40.2458  -3.3860  -3.2214   2.5200   2.8524
     3.3857   3.8895   7.2064   7.8413   8.9277   9.1337

          k = 0.7333-0.4000-0.4244 (  6352 PWs)   bands (ev):

   -40.2663 -40.2546 -40.2507 -40.2419  -4.1449  -2.1150   1.4587   3.1382
     3.3461   5.4814   6.2213   7.0309   9.0800  10.1551

          k = 0.5667-0.4000-0.2122 (  6382 PWs)   bands (ev):

   -40.2729 -40.2572 -40.2468 -40.2366  -4.7228  -0.5008   0.8828   3.1232
     3.5768   4.3601   7.0628   7.5643   8.4083   9.4201

          k = 0.2333-0.2000 0.4669 (  6345 PWs)   bands (ev):

   -40.2726 -40.2553 -40.2441 -40.2416  -4.2035  -2.1462   2.3566   3.1809
     3.5245   4.4110   6.4400   7.3300   7.5580  10.2463

          k = 0.0667-0.2000 0.6791 (  6362 PWs)   bands (ev):

   -40.2636 -40.2559 -40.2476 -40.2465  -3.3023  -3.2891   2.3412   2.6249
     3.8751   4.5202   5.8031   6.7461   9.6562  10.0260

          k = 0.9000-0.2000-0.3820 (  6369 PWs)   bands (ev):

   -40.2606 -40.2549 -40.2517 -40.2463  -4.1456  -2.0096   1.6641   2.0846
     4.2488   4.7929   6.0749   6.1293   9.8156  10.9516

          k = 0.7333-0.2000-0.1698 (  6369 PWs)   bands (ev):

   -40.2679 -40.2577 -40.2469 -40.2410  -4.6842  -0.3320   1.1149   2.0963
     2.8143   4.9220   6.2544   7.7054  10.1651  10.5012

          k = 0.5667-0.2000 0.0424 (  6372 PWs)   bands (ev):

   -40.2746 -40.2582 -40.2435 -40.2373  -4.8822   0.7734   1.0697   1.9136
     2.3990   5.6795   5.9836   8.1721   8.8933   9.2504

          k = 0.2333 0.0000 0.7215 (  6371 PWs)   bands (ev):

   -40.2613 -40.2572 -40.2484 -40.2467  -3.5022  -3.0588   2.3271   2.3908
     4.1472   4.3056   5.9826   6.7057   9.5093  10.4244

          k = 0.0667 0.0000 0.9337 (  6375 PWs)   bands (ev):

   -40.2560 -40.2548 -40.2519 -40.2508  -4.2179  -1.7760   1.7094   1.7201
     4.2747   4.2918   6.3409   6.3530   9.6898  10.6722

          k = 0.9000 0.0000-0.1273 (  6354 PWs)   bands (ev):

   -40.2601 -40.2580 -40.2496 -40.2457  -4.6387  -0.1090   1.4011   1.4270
     2.2375   4.1141   7.8336   7.8495  10.6624  10.7272

          k = 0.7333 0.0000 0.0849 (  6362 PWs)   bands (ev):

   -40.2673 -40.2581 -40.2446 -40.2435  -4.7456   0.3372   1.3922   1.5312
     1.9603   4.6779   7.5061   7.5231   9.8962  10.1346

          k = 0.5667 0.0000 0.2971 (  6377 PWs)   bands (ev):

   -40.2707 -40.2564 -40.2445 -40.2419  -4.5260  -1.2320   1.8092   2.0587
     3.9589   4.9477   5.9071   6.6810   9.8804  10.2833

          k = 0.2333-0.8000-0.2971 (  6367 PWs)   bands (ev):

   -40.2649 -40.2556 -40.2499 -40.2431  -4.4248  -1.3502   1.3223   2.2164
     3.8340   4.7832   6.1017   6.7373  10.3154  10.8902

          k = 0.0667-0.8000-0.0849 (  6357 PWs)   bands (ev):

   -40.2646 -40.2583 -40.2467 -40.2438  -4.7155   0.3033   1.2846   1.5677
     1.9000   4.4326   7.4543   8.0841  10.0619  10.3044

          k = 0.9000-0.8000-1.1459 (  6358 PWs)   bands (ev):

   -40.2647 -40.2580 -40.2469 -40.2438  -4.6831  -0.0529   1.2590   1.6715
     2.3100   4.4912   7.0867   7.9007  10.2616  10.6694

          k = 0.7333-0.8000-0.9337 (  6371 PWs)   bands (ev):

   -40.2648 -40.2549 -40.2508 -40.2430  -4.3284  -1.6406   1.3847   2.3859
     3.9330   4.9565   6.1326   6.4453  10.1593  10.6469

          k = 0.5667-0.8000-0.7215 (  6365 PWs)   bands (ev):

   -40.2626 -40.2584 -40.2480 -40.2445  -3.6567  -2.8912   1.9987   2.8245
     3.4935   4.5713   7.1325   7.6823   8.7481   9.5825

          k = 0.4000-0.6000-0.2547 (  6372 PWs)   bands (ev):

   -40.2717 -40.2565 -40.2478 -40.2375  -4.6354  -0.8465   0.9551   3.1313
     3.7284   4.4529   7.0410   7.2213   8.5393   9.6482

          k = 0.2333-0.6000-0.0424 (  6369 PWs)   bands (ev):

   -40.2735 -40.2584 -40.2444 -40.2373  -4.8666   0.7574   0.9914   1.8773
     2.4293   5.6175   5.9183   8.4584   9.0539   9.3166

          k = 0.0667-0.6000 0.1698 (  6363 PWs)   bands (ev):

   -40.2721 -40.2574 -40.2433 -40.2408  -4.7446  -0.2633   1.4439   1.9475
     2.9254   5.2767   6.3524   6.9471   9.8717   9.9915

          k = 0.9000-0.6000-0.8913 (  6376 PWs)   bands (ev):

   -40.2671 -40.2559 -40.2477 -40.2428  -4.2687  -1.8658   1.7287   2.4422
     3.9680   4.8231   6.1352   6.6741   9.6197  10.5188

          k = 0.7333-0.6000-0.6791 (  6361 PWs)   bands (ev):

   -40.2610 -40.2596 -40.2476 -40.2453  -3.4469  -3.1332   1.9964   2.5489
     3.7847   4.7195   7.0513   7.9950   8.7486   9.4717

          k = 0.5667-0.6000-0.4669 (  6352 PWs)   bands (ev):

   -40.2672 -40.2548 -40.2499 -40.2417  -4.0564  -2.2969   1.4845   2.7641
     3.9616   5.3992   6.7118   7.6864   8.7510   9.3993

     the Fermi energy is     5.5377 ev

!    total energy              =     -74.57475563 Ry
     estimated scf accuracy    <          1.8E-09 Ry
     smearing contrib. (-TS)   =       0.00056192 Ry
     internal energy E=F+TS    =     -74.57531755 Ry

     The total energy is F=E-TS. E is the sum of the following terms:
     one-electron contribution =     -25.73803577 Ry
     hartree contribution      =      13.69625168 Ry
     xc contribution           =     -20.04135237 Ry
     ewald contribution        =     -42.49218109 Ry

     convergence has been achieved in   7 iterations

     Forces acting on atoms (cartesian axes, Ry/au):

     atom    1 type  1   force =     0.00000000    0.00000000    0.00000000
     atom    2 type  1   force =     0.00000000    0.00000000    0.00000000
     atom    3 type  2   force =    -0.00086059    0.00086059    0.00000000
     atom    4 type  2   force =     0.00086059   -0.00086059   -0.00000000
     atom    5 type  2   force =    -0.00086059   -0.00086059    0.00000000
     atom    6 type  2   force =     0.00086059    0.00086059   -0.00000000
     The non-local contrib.  to forces
     atom    1 type  1   force =     0.00000000    0.00000000   -0.00000000
     atom    2 type  1   force =    -0.00000000    0.00000000    0.00000000
     atom    3 type  2   force =    -0.03469581    0.03469581    0.00000000
     atom    4 type  2   force =     0.03469581   -0.03469581    0.00000000
     atom    5 type  2   force =    -0.03469581   -0.03469581    0.00000000
     atom    6 type  2   force =     0.03469581    0.03469581   -0.00000000
     The ionic contribution  to forces
     atom    1 type  1   force =    -0.00000000    0.00000000   -0.00000000
     atom    2 type  1   force =     0.00000000   -0.00000000    0.00000000
     atom    3 type  2   force =    -0.33575385    0.33575385    0.00000000
     atom    4 type  2   force =     0.33575385   -0.33575385   -0.00000000
     atom    5 type  2   force =    -0.33575385   -0.33575385   -0.00000000
     atom    6 type  2   force =     0.33575385    0.33575385   -0.00000000
     The local contribution  to forces
     atom    1 type  1   force =     0.00000000    0.00000000   -0.00000000
     atom    2 type  1   force =    -0.00000000   -0.00000000    0.00000000
     atom    3 type  2   force =     0.36959761   -0.36959761   -0.00000000
     atom    4 type  2   force =    -0.36959761    0.36959761    0.00000000
     atom    5 type  2   force =     0.36959761    0.36959761    0.00000000
     atom    6 type  2   force =    -0.36959761   -0.36959761   -0.00000000
     The core correction contribution to forces
     atom    1 type  1   force =    -0.00000000    0.00000000   -0.00000000
     atom    2 type  1   force =    -0.00000000   -0.00000000   -0.00000000
     atom    3 type  2   force =     0.00000000    0.00000000    0.00000000
     atom    4 type  2   force =     0.00000000    0.00000000    0.00000000
     atom    5 type  2   force =     0.00000000    0.00000000    0.00000000
     atom    6 type  2   force =     0.00000000    0.00000000    0.00000000
     The Hubbard contrib.    to forces
     atom    1 type  1   force =     0.00000000    0.00000000    0.00000000
     atom    2 type  1   force =     0.00000000    0.00000000    0.00000000
     atom    3 type  2   force =     0.00000000    0.00000000    0.00000000
     atom    4 type  2   force =     0.00000000    0.00000000    0.00000000
     atom    5 type  2   force =     0.00000000    0.00000000    0.00000000
     atom    6 type  2   force =     0.00000000    0.00000000    0.00000000
     The SCF correction term to forces
     atom    1 type  1   force =     0.00000000    0.00000000   -0.00000000
     atom    2 type  1   force =     0.00000000   -0.00000000    0.00000000
     atom    3 type  2   force =    -0.00000853    0.00000853   -0.00000000
     atom    4 type  2   force =     0.00000853   -0.00000853   -0.00000000
     atom    5 type  2   force =    -0.00000853   -0.00000853    0.00000000
     atom    6 type  2   force =     0.00000853    0.00000853    0.00000000

     Total force =     0.002434     Total SCF correction =     0.000024


     Computing stress (Cartesian axis) and pressure

          total   stress  (Ry/bohr**3)                   (kbar)     P=      134.82
   0.00066412  -0.00000000  -0.00000000           97.70       -0.00       -0.00
   0.00000000   0.00066412   0.00000000            0.00       97.70        0.00
   0.00000000   0.00000000   0.00142119            0.00        0.00      209.06


     BFGS Geometry Optimization
     Energy error            =      0.0E+00 Ry
     Gradient error          =      8.6E-04 Ry/Bohr
     Cell gradient error     =      4.0E+02 kbar

     number of scf cycles    =   1
     number of bfgs steps    =   0

     enthalpy           new  =     -72.7840921470 Ry

     new trust radius        =       0.3138582545 bohr
ibrav =      7
 celldm(1) =     10.27501877
 celldm(3) =      0.80134277
Input lattice vectors:
     0.46581483    -0.46581483     0.37327735
     0.46581483     0.46581483     0.37327735
    -0.46581483    -0.46581483     0.37327735
New lattice vectors in INITIAL alat:
     0.46581483    -0.46581483     0.37327735
     0.46581483     0.46581483     0.37327735
    -0.46581483    -0.46581483     0.37327735
New lattice vectors in NEW alat (for information only):
     0.50000000    -0.50000000     0.40067139
     0.50000000     0.50000000     0.40067139
    -0.50000000    -0.50000000     0.40067139
Discrepancy in bohr =     0.000000    0.000000    0.000000
     new conv_thr            =       0.0000000100 Ry

     new unit-cell volume =    434.64651 a.u.^3 (    64.40797 Ang^3 )
     density =      2.16398 g/cm^3

CELL_PARAMETERS (alat= 11.02908078)
   0.465814830  -0.465814830   0.373277348
   0.465814830   0.465814830   0.373277348
  -0.465814830  -0.465814830   0.373277348

ATOMIC_POSITIONS (crystal)
Si            0.0000000000        0.2500000000        0.2500000000
Si            0.0000000000        0.7500000000        0.7500000000
Li           -0.1771100581        0.3385550291       -0.1614449709
Li            0.1771100581        0.6614449709       -0.8385550291
Li            0.5000000000        0.1614449709       -0.6614449709
Li           -0.5000000000        0.8385550291       -0.3385550291



     Writing config-only to output data dir ./output/SiLi.save/
     NEW-OLD atomic charge density approx. for the potential
     extrapolated charge   15.76230, renormalised to   20.00000

     total cpu time spent up to now is       24.8 secs

     Self-consistent Calculation

     iteration #  1     ecut=    80.00 Ry     beta= 0.70
     Davidson diagonalization with overlap
     c_bands:  1 eigenvalues not converged
     c_bands:  1 eigenvalues not converged
     ethr =  1.00E-06,  avg # of iterations = 11.4

     total cpu time spent up to now is       30.0 secs

     total energy              =     -74.29762166 Ry
     estimated scf accuracy    <       0.08130557 Ry

     iteration #  2     ecut=    80.00 Ry     beta= 0.70
     Davidson diagonalization with overlap
     ethr =  4.07E-04,  avg # of iterations =  2.8

     total cpu time spent up to now is       32.3 secs

     total energy              =     -74.43694926 Ry
     estimated scf accuracy    <       0.06313867 Ry

     iteration #  3     ecut=    80.00 Ry     beta= 0.70
     Davidson diagonalization with overlap
     ethr =  3.16E-04,  avg # of iterations =  1.2

     total cpu time spent up to now is       33.9 secs

     total energy              =     -74.43926883 Ry
     estimated scf accuracy    <       0.00724527 Ry

     iteration #  4     ecut=    80.00 Ry     beta= 0.70
     Davidson diagonalization with overlap
     ethr =  3.62E-05,  avg # of iterations =  1.8

     total cpu time spent up to now is       35.5 secs

     total energy              =     -74.43886247 Ry
     estimated scf accuracy    <       0.00143885 Ry

     iteration #  5     ecut=    80.00 Ry     beta= 0.70
     Davidson diagonalization with overlap
     ethr =  7.19E-06,  avg # of iterations =  3.1

     total cpu time spent up to now is       37.4 secs

     total energy              =     -74.43911591 Ry
     estimated scf accuracy    <       0.00001422 Ry

     iteration #  6     ecut=    80.00 Ry     beta= 0.70
     Davidson diagonalization with overlap
     ethr =  7.11E-08,  avg # of iterations =  3.5

     total cpu time spent up to now is       39.7 secs

     total energy              =     -74.43912112 Ry
     estimated scf accuracy    <       0.00000217 Ry

     iteration #  7     ecut=    80.00 Ry     beta= 0.70
     Davidson diagonalization with overlap
     ethr =  1.08E-08,  avg # of iterations =  2.0

     total cpu time spent up to now is       41.5 secs

     total energy              =     -74.43912159 Ry
     estimated scf accuracy    <       0.00000006 Ry

     iteration #  8     ecut=    80.00 Ry     beta= 0.70
     Davidson diagonalization with overlap
     ethr =  2.94E-10,  avg # of iterations =  2.6

     total cpu time spent up to now is       43.4 secs

     End of self-consistent calculation

          k = 0.0000 0.0000 0.0000 (  6373 PWs)   bands (ev):

   -38.5296 -38.4592 -38.4211 -38.4211  -4.2649   2.1316   4.0807   4.0807
     5.3661   7.2180   7.2180   7.4563   8.1419  10.8160

          k =-0.1789 0.0000 0.2232 (  6378 PWs)   bands (ev):

   -38.5211 -38.4592 -38.4256 -38.4247  -4.0451   1.0020   3.9346   4.0589
     5.8773   6.5868   7.0909   8.0203   8.4127  11.1562

          k =-0.3578 0.0000 0.4465 (  6358 PWs)   bands (ev):

   -38.4992 -38.4600 -38.4375 -38.4335  -3.3822  -0.7586   3.8254   4.1575
     4.9462   5.5408   8.7716   9.1717   9.3428  11.9737

          k = 0.5367-0.0000-0.6697 (  6370 PWs)   bands (ev):

   -38.4734 -38.4734 -38.4416 -38.4416  -2.2753  -2.2753   4.0705   4.0705
     4.7388   4.7388   9.7816   9.7816  10.7703  10.7703

          k =-0.0000 0.2147 0.2679 (  6372 PWs)   bands (ev):

   -38.5176 -38.4592 -38.4276 -38.4262  -3.9481   0.6502   3.8945   4.0615
     5.7499   6.3777   7.3293   8.2350   8.5809  11.3523

          k =-0.1789 0.2147 0.4911 (  6357 PWs)   bands (ev):

   -38.4991 -38.4590 -38.4377 -38.4344  -3.2768  -0.9699   3.7277   4.6015
     4.6791   5.9021   7.8536   9.1338   9.5855  12.2449

          k =-0.3578 0.2147 0.7144 (  6377 PWs)   bands (ev):

   -38.4753 -38.4684 -38.4455 -38.4408  -2.3563  -2.1664   3.2504   4.1077
     4.6944   6.2124   8.2614   9.5220  11.3690  11.8995

          k = 0.5367 0.2147-0.4018 (  6361 PWs)   bands (ev):

   -38.4908 -38.4608 -38.4459 -38.4326  -3.3823  -0.6338   2.7314   4.3491
     4.8459   6.5225   8.1335   9.1129  10.6723  12.4044

          k = 0.3578 0.2147-0.1786 (  6370 PWs)   bands (ev):

   -38.5119 -38.4614 -38.4333 -38.4238  -3.9972   1.1767   2.7085   4.3235
     5.1116   6.1365   8.3815   8.5247  10.3629  10.7550

          k = 0.1789 0.2147 0.0446 (  6375 PWs)   bands (ev):

   -38.5225 -38.4605 -38.4264 -38.4213  -4.1866   2.0319   3.1628   4.2430
     4.7224   6.7255   7.9673   8.4181   9.2384  10.5111

          k =-0.0000 0.4294 0.5358 (  6364 PWs)   bands (ev):

   -38.4887 -38.4627 -38.4414 -38.4373  -2.9921  -1.4090   3.8757   4.2304
     4.6524   5.1727   9.4788   9.5481   9.7344  11.6556

          k =-0.1789 0.4294 0.7590 (  6368 PWs)   bands (ev):

   -38.4744 -38.4697 -38.4462 -38.4396  -2.6145  -1.8731   3.2173   4.1515
     4.6886   5.9952   8.6999   9.4529  11.0829  11.8807

          k =-0.3578 0.4294 0.9823 (  6363 PWs)   bands (ev):

   -38.4880 -38.4594 -38.4519 -38.4307  -3.4654  -0.3624   2.2858   4.5411
     4.7560   6.8006   8.2641   8.8280  10.8864  12.2534

          k = 0.5367 0.4294-0.1339 (  6380 PWs)   bands (ev):

   -38.4996 -38.4653 -38.4425 -38.4227  -3.9388   1.4113   1.9162   4.4911
     4.5513   5.8739   8.6979   9.9907  10.3648  11.0343

          k = 0.3578 0.4294 0.0893 (  6367 PWs)   bands (ev):

   -38.5062 -38.4641 -38.4382 -38.4219  -4.0214   1.7515   2.1097   4.2922
     4.4934   6.0903   8.4912   9.8245  10.3482  11.0255

          k = 0.1789 0.4294 0.3125 (  6366 PWs)   bands (ev):

   -38.5027 -38.4607 -38.4383 -38.4286  -3.7072   0.1110   2.8453   4.2887
     5.1876   6.3057   7.8856   8.9560  10.3972  11.6959

          k = 0.2147-0.2147 0.0000 (  6374 PWs)   bands (ev):

   -38.5215 -38.4608 -38.4272 -38.4211  -4.1829   2.0995   3.0374   4.2731
     4.5731   6.6999   7.9818   8.6644   9.4066  10.7002

          k = 0.0358-0.2147 0.2232 (  6375 PWs)   bands (ev):

   -38.5198 -38.4595 -38.4265 -38.4249  -4.0302   0.9785   3.7765   4.0627
     5.7384   6.5561   7.1964   8.1695   8.7015  11.1989

          k =-0.1431-0.2147 0.4465 (  6362 PWs)   bands (ev):

   -38.5036 -38.4588 -38.4356 -38.4324  -3.4461  -0.6584   3.7644   4.5974
     4.8620   5.8918   7.8944   8.9463   9.1282  12.0400

          k = 0.7514-0.2147-0.6697 (  6366 PWs)   bands (ev):

   -38.4798 -38.4652 -38.4435 -38.4415  -2.4235  -2.1052   3.3939   4.0844
     4.7164   6.1405   8.1154   9.5784  11.2060  12.0058

          k = 0.5725-0.2147-0.4465 (  6364 PWs)   bands (ev):

   -38.4861 -38.4615 -38.4478 -38.4346  -3.2091  -0.9710   2.7974   4.3311
     4.7434   6.5007   8.3245   9.1012  10.8086  12.3950

          k = 0.3936-0.2147-0.2232 (  6369 PWs)   bands (ev):

   -38.5083 -38.4614 -38.4356 -38.4252  -3.9081   0.8139   2.6729   4.3306
     5.2483   6.0819   8.2148   8.6926  10.4340  11.1258

          k = 0.0358-0.0000 0.4911 (  6384 PWs)   bands (ev):

   -38.5044 -38.4572 -38.4344 -38.4343  -3.3571  -0.8503   4.1874   4.1930
     5.7990   5.8327   6.7947   7.8241   9.8652  11.7744

          k =-0.1431-0.0000 0.7144 (  6377 PWs)   bands (ev):

   -38.4818 -38.4584 -38.4454 -38.4443  -2.3307  -2.1803   3.6074   3.6083
     5.6513   6.1236   7.0719   8.0168  12.3784  12.5696

          k = 0.7514-0.0000-0.4018 (  6371 PWs)   bands (ev):

   -38.4770 -38.4630 -38.4497 -38.4402  -3.2123  -0.8595   3.0700   3.1993
     5.7354   5.8575   7.9576   8.1312  12.3797  13.2112

          k = 0.5725 0.0000-0.1786 (  6358 PWs)   bands (ev):

   -38.5000 -38.4626 -38.4362 -38.4312  -3.8684   0.9921   2.8955   3.1594
     4.4517   6.9427   8.1542   8.5086  11.3919  11.6058

          k = 0.3936-0.0000 0.0446 (  6375 PWs)   bands (ev):

   -38.5158 -38.4616 -38.4279 -38.4252  -4.1165   1.9930   3.2041   3.5021
     4.0834   7.7395   8.1200   8.4491   9.5187  10.0687

          k = 0.2147 0.2147 0.5358 (  6357 PWs)   bands (ev):

   -38.4944 -38.4596 -38.4395 -38.4367  -3.0899  -1.2715   3.6868   4.3754
     4.7244   5.9433   7.8534   9.3050  10.0441  12.4527

          k = 0.0358 0.2147 0.7590 (  6366 PWs)   bands (ev):

   -38.4764 -38.4625 -38.4472 -38.4437  -2.4357  -2.0527   3.4393   3.6017
     5.4567   6.0351   7.4737   8.2602  12.0821  12.6342

          k =-0.1431 0.2147 0.9823 (  6366 PWs)   bands (ev):

   -38.4735 -38.4597 -38.4553 -38.4412  -3.3008  -0.5967   2.6718   3.2919
     5.3890   6.0889   7.9772   8.1653  12.6092  13.0846

          k = 0.7514 0.2147-0.1339 (  6366 PWs)   bands (ev):

   -38.4883 -38.4650 -38.4448 -38.4318  -3.8194   1.2367   2.2075   3.4063
     3.8306   6.4867   8.0025   9.9429  11.7106  12.3588

          k = 0.5725 0.2147 0.0893 (  6373 PWs)   bands (ev):

   -38.5009 -38.4642 -38.4390 -38.4260  -3.9636   1.6807   2.2602   3.7445
     3.8954   6.9460   7.8376   9.7287  10.8795  11.1964

          k = 0.3936 0.2147 0.3125 (  6360 PWs)   bands (ev):

   -38.5039 -38.4606 -38.4381 -38.4278  -3.7227   0.1383   2.8108   4.4851
     5.1545   6.2880   7.9474   8.8565  10.3453  11.6651

          k = 0.2147-0.6440-0.5358 (  6358 PWs)   bands (ev):

   -38.4771 -38.4663 -38.4484 -38.4382  -2.8140  -1.6011   2.9893   4.2249
     4.6673   6.3647   8.5044   9.2173  11.1400  12.1639

          k = 0.0358-0.6440-0.3125 (  6370 PWs)   bands (ev):

   -38.4892 -38.4620 -38.4435 -38.4353  -3.5511  -0.1164   2.9315   3.2649
     5.2880   6.2636   7.8988   8.4663  12.2846  12.7456

          k =-0.1431-0.6440-0.0893 (  6363 PWs)   bands (ev):

   -38.4961 -38.4643 -38.4396 -38.4299  -3.9136   1.6328   2.3764   3.3546
     3.6169   6.9144   7.9982   9.6741  11.1834  11.5681

          k = 0.7514-0.6440-1.2055 (  6376 PWs)   bands (ev):

   -38.4957 -38.4651 -38.4434 -38.4258  -3.8946   1.3397   2.0269   4.0303
     4.1473   6.5076   7.9173  10.0014  11.1786  11.3948

          k = 0.5725-0.6440-0.9823 (  6365 PWs)   bands (ev):

   -38.4904 -38.4594 -38.4511 -38.4292  -3.4971  -0.3069   2.2163   4.6107
     4.9121   6.8319   8.3405   9.4869  10.2335  11.4967

          k = 0.3936-0.6440-0.7590 (  6349 PWs)   bands (ev):

   -38.4801 -38.4645 -38.4462 -38.4392  -2.7301  -1.7211   2.9850   3.5519
     5.7718   6.3285   9.1940   9.4885  11.0003  11.6749

          k = 0.2147-0.4294-0.2679 (  6364 PWs)   bands (ev):

   -38.5043 -38.4612 -38.4380 -38.4268  -3.8020   0.4444   2.6571   4.3379
     5.2343   6.1759   8.0700   8.8590  10.4708  11.5581

          k = 0.0358-0.4294-0.0446 (  6374 PWs)   bands (ev):

   -38.5134 -38.4620 -38.4293 -38.4258  -4.0918   1.9822   3.0552   3.4794
     3.9396   7.7201   8.2747   8.4078   9.7266  10.2423

          k =-0.1431-0.4294 0.1786 (  6369 PWs)   bands (ev):

   -38.5093 -38.4617 -38.4337 -38.4256  -3.9675   1.1293   2.7752   3.9450
     4.8463   6.5817   8.1795   8.6603  10.4192  10.8798

          k = 0.7514-0.4294-0.9376 (  6359 PWs)   bands (ev):

   -38.4942 -38.4601 -38.4452 -38.4308  -3.4303  -0.5541   2.6266   4.4853
     5.0105   6.6973   8.2323   9.1593  10.5295  11.9600

          k = 0.5725-0.4294-0.7144 (  6351 PWs)   bands (ev):

   -38.4749 -38.4679 -38.4457 -38.4415  -2.4886  -2.0041   3.0068   3.3191
     6.0314   6.3807   9.4136   9.4690  11.1898  11.4862

          k = 0.3936-0.4294-0.4911 (  6352 PWs)   bands (ev):

   -38.4865 -38.4607 -38.4482 -38.4347  -3.1012  -1.1717   2.7117   3.9614
     5.4278   6.7327   8.7382   9.2941  10.8586  11.6585

          k = 0.4294-0.4294 0.0000 (  6398 PWs)   bands (ev):

   -38.5045 -38.4653 -38.4393 -38.4212  -4.0357   1.9634   2.0799   3.9019
     4.5152   6.1461   8.4521  10.1744  10.5349  11.0292

          k = 0.2505-0.4294 0.2232 (  6369 PWs)   bands (ev):

   -38.5054 -38.4618 -38.4378 -38.4252  -3.8808   0.7828   2.4887   4.3821
     5.1832   6.0090   8.4252   8.7681  10.4945  11.3790

          k = 0.0716-0.4294 0.4465 (  6359 PWs)   bands (ev):

   -38.4953 -38.4608 -38.4400 -38.4340  -3.3265  -0.8350   3.5061   4.1577
     4.9262   5.6745   8.7104   9.2939   9.9335  11.8023

          k = 0.9660-0.4294-0.6697 (  6369 PWs)   bands (ev):

   -38.4775 -38.4687 -38.4423 -38.4415  -2.3691  -2.1732   3.7029   4.0778
     4.7208   5.3250   9.0166   9.7769  10.9771  11.2556

          k = 0.7872-0.4294-0.4465 (  6352 PWs)   bands (ev):

   -38.4827 -38.4603 -38.4523 -38.4347  -3.1693  -1.0109   2.5934   4.4149
     4.6453   7.0312   8.0069   8.9177  11.1195  12.5619

          k = 0.6083-0.4294-0.2232 (  6382 PWs)   bands (ev):

   -38.4953 -38.4636 -38.4459 -38.4253  -3.7958   0.6960   1.9954   4.5422
     4.9892   5.8315   8.8026   9.4276  10.4458  11.3120

          k = 0.2505-0.2147 0.4911 (  6345 PWs)   bands (ev):

   -38.4972 -38.4595 -38.4390 -38.4345  -3.2483  -1.0075   3.5511   4.4265
     4.8430   5.9501   8.0807   9.4745   9.5172  12.4322

          k = 0.0716-0.2147 0.7144 (  6362 PWs)   bands (ev):

   -38.4803 -38.4614 -38.4453 -38.4429  -2.2933  -2.2251   3.5074   3.8283
     5.2070   6.0533   7.4312   8.4784  12.1631  12.3250

          k = 0.9660-0.2147-0.4018 (  6369 PWs)   bands (ev):

   -38.4709 -38.4615 -38.4547 -38.4426  -3.1542  -0.9215   2.8239   3.2989
     5.5192   6.1925   7.8648   7.9402  12.4306  13.0033

          k = 0.7872-0.2147-0.1786 (  6369 PWs)   bands (ev):

   -38.4852 -38.4642 -38.4466 -38.4337  -3.7450   0.8522   2.2571   3.3644
     4.1776   6.3075   8.0577   9.6058  12.0244  12.8061

          k = 0.6083-0.2147 0.0446 (  6372 PWs)   bands (ev):

   -38.4990 -38.4648 -38.4397 -38.4266  -3.9654   1.9139   2.2444   3.4150
     3.7272   7.1921   7.5738  10.2025  10.8265  11.2423

          k = 0.2505-0.0000 0.7590 (  6371 PWs)   bands (ev):

   -38.4758 -38.4643 -38.4468 -38.4431  -2.4577  -2.0335   3.5333   3.5614
     5.4358   5.8137   7.6961   8.4199  12.0225  12.6543

          k = 0.0716-0.0000 0.9823 (  6375 PWs)   bands (ev):

   -38.4613 -38.4601 -38.4570 -38.4512  -3.2262  -0.6810   2.8804   2.8896
     5.5663   5.6834   8.1185   8.1261  12.4369  12.7179

          k = 0.9660-0.0000-0.1339 (  6354 PWs)   bands (ev):

   -38.4692 -38.4647 -38.4492 -38.4463  -3.6866   1.0783   2.5738   2.5985
     3.5544   5.4355   9.7893   9.8089  12.5033  12.7064

          k = 0.7872-0.0000 0.0893 (  6362 PWs)   bands (ev):

   -38.4840 -38.4648 -38.4414 -38.4395  -3.8091   1.5385   2.5830   2.7218
     3.3028   6.0579   9.3695   9.5462  11.7414  11.9613

          k = 0.6083-0.0000 0.3125 (  6377 PWs)   bands (ev):

   -38.4919 -38.4618 -38.4419 -38.4344  -3.5796  -0.0801   3.0402   3.2721
     5.3004   6.2914   7.8456   8.5478  12.0121  12.4877

          k = 0.2505-0.8587-0.3125 (  6367 PWs)   bands (ev):

   -38.4793 -38.4605 -38.4529 -38.4370  -3.4622  -0.2178   2.4650   3.4788
     5.1209   6.2021   7.9659   8.5263  12.7016  13.1711

          k = 0.0716-0.8587-0.0893 (  6357 PWs)   bands (ev):

   -38.4786 -38.4652 -38.4449 -38.4409  -3.7740   1.5063   2.4520   2.7664
     3.2231   5.7885   9.3816  10.0997  11.8949  12.1558

          k = 0.9660-0.8587-1.2055 (  6358 PWs)   bands (ev):

   -38.4786 -38.4648 -38.4462 -38.4400  -3.7391   1.1384   2.4184   2.8810
     3.6458   5.8453   8.9752   9.8565  12.0973  12.6369

          k = 0.7872-0.8587-0.9823 (  6371 PWs)   bands (ev):

   -38.4793 -38.4595 -38.4543 -38.4367  -3.3591  -0.5224   2.5268   3.6629
     5.1721   6.4323   7.9968   8.2133  12.6109  12.9520

          k = 0.6083-0.8587-0.7590 (  6365 PWs)   bands (ev):

   -38.4759 -38.4685 -38.4462 -38.4393  -2.6448  -1.8365   3.1587   4.0141
     4.8865   6.0558   8.9076   9.6455  10.7485  11.7550

          k = 0.4294-0.6440-0.2679 (  6372 PWs)   bands (ev):

   -38.4930 -38.4623 -38.4478 -38.4269  -3.7010   0.3350   2.0693   4.5459
     4.9812   6.0805   8.8107   9.0457  10.5807  11.5889

          k = 0.2505-0.6440-0.0446 (  6369 PWs)   bands (ev):

   -38.4966 -38.4654 -38.4413 -38.4267  -3.9479   1.8909   2.1660   3.3666
     3.7596   7.1148   7.4992  10.4946  11.0643  11.3248

          k = 0.0716-0.6440 0.1786 (  6363 PWs)   bands (ev):

   -38.4942 -38.4632 -38.4397 -38.4328  -3.8142   0.9272   2.6354   3.1864
     4.3244   6.6840   8.2023   8.8035  11.8348  12.0083

          k = 0.9660-0.6440-0.9376 (  6376 PWs)   bands (ev):

   -38.4846 -38.4620 -38.4472 -38.4361  -3.3004  -0.7521   2.9104   3.7027
     5.2494   6.2097   8.0457   8.5353  11.7802  12.8475

          k = 0.7872-0.6440-0.7144 (  6361 PWs)   bands (ev):

   -38.4731 -38.4706 -38.4456 -38.4408  -2.4180  -2.0958   3.1396   3.7284
     5.1979   6.2741   8.7499   9.9755  10.7046  11.7126

          k = 0.6083-0.6440-0.4911 (  6352 PWs)   bands (ev):

   -38.4849 -38.4603 -38.4502 -38.4347  -3.0807  -1.1913   2.6105   3.9209
     5.4660   6.9853   8.5524   9.5198  10.8138  11.4537

     the Fermi energy is     7.1732 ev

!    total energy              =     -74.43912160 Ry
     estimated scf accuracy    <          7.8E-09 Ry
     smearing contrib. (-TS)   =       0.00027086 Ry
     internal energy E=F+TS    =     -74.43939246 Ry

     The total energy is F=E-TS. E is the sum of the following terms:
     one-electron contribution =     -21.63041481 Ry
     hartree contribution      =      12.95334353 Ry
     xc contribution           =     -20.40589181 Ry
     ewald contribution        =     -45.35642937 Ry

     convergence has been achieved in   8 iterations

     Forces acting on atoms (cartesian axes, Ry/au):

     atom    1 type  1   force =    -0.00000000    0.00000000    0.00000000
     atom    2 type  1   force =     0.00000000    0.00000000    0.00000000
     atom    3 type  2   force =    -0.01245056    0.01245056   -0.00000000
     atom    4 type  2   force =     0.01245056   -0.01245056    0.00000000
     atom    5 type  2   force =    -0.01245056   -0.01245056    0.00000000
     atom    6 type  2   force =     0.01245056    0.01245056    0.00000000
     The non-local contrib.  to forces
     atom    1 type  1   force =    -0.00000000    0.00000000    0.00000000
     atom    2 type  1   force =     0.00000000   -0.00000000   -0.00000000
     atom    3 type  2   force =    -0.03641118    0.03641118   -0.00000000
     atom    4 type  2   force =     0.03641118   -0.03641118    0.00000000
     atom    5 type  2   force =    -0.03641118   -0.03641118   -0.00000000
     atom    6 type  2   force =     0.03641118    0.03641118    0.00000000
     The ionic contribution  to forces
     atom    1 type  1   force =    -0.00000000    0.00000000    0.00000000
     atom    2 type  1   force =    -0.00000000   -0.00000000   -0.00000000
     atom    3 type  2   force =    -0.37310951    0.37310951    0.00000000
     atom    4 type  2   force =     0.37310951   -0.37310951   -0.00000000
     atom    5 type  2   force =    -0.37310951   -0.37310951    0.00000000
     atom    6 type  2   force =     0.37310951    0.37310951   -0.00000000
     The local contribution  to forces
     atom    1 type  1   force =     0.00000000   -0.00000000    0.00000000
     atom    2 type  1   force =    -0.00000000    0.00000000    0.00000000
     atom    3 type  2   force =     0.39704286   -0.39704286   -0.00000000
     atom    4 type  2   force =    -0.39704286    0.39704286   -0.00000000
     atom    5 type  2   force =     0.39704286    0.39704286   -0.00000000
     atom    6 type  2   force =    -0.39704286   -0.39704286   -0.00000000
     The core correction contribution to forces
     atom    1 type  1   force =     0.00000000    0.00000000    0.00000000
     atom    2 type  1   force =     0.00000000    0.00000000    0.00000000
     atom    3 type  2   force =     0.00000000    0.00000000    0.00000000
     atom    4 type  2   force =     0.00000000    0.00000000    0.00000000
     atom    5 type  2   force =     0.00000000    0.00000000    0.00000000
     atom    6 type  2   force =     0.00000000    0.00000000    0.00000000
     The Hubbard contrib.    to forces
     atom    1 type  1   force =     0.00000000    0.00000000    0.00000000
     atom    2 type  1   force =     0.00000000    0.00000000    0.00000000
     atom    3 type  2   force =     0.00000000    0.00000000    0.00000000
     atom    4 type  2   force =     0.00000000    0.00000000    0.00000000
     atom    5 type  2   force =     0.00000000    0.00000000    0.00000000
     atom    6 type  2   force =     0.00000000    0.00000000    0.00000000
     The SCF correction term to forces
     atom    1 type  1   force =    -0.00000000   -0.00000000    0.00000000
     atom    2 type  1   force =    -0.00000000    0.00000000   -0.00000000
     atom    3 type  2   force =     0.00002727   -0.00002727    0.00000000
     atom    4 type  2   force =    -0.00002727    0.00002727    0.00000000
     atom    5 type  2   force =     0.00002727    0.00002727    0.00000000
     atom    6 type  2   force =    -0.00002727   -0.00002727    0.00000000

     Total force =     0.035215     Total SCF correction =     0.000077


     Computing stress (Cartesian axis) and pressure

          total   stress  (Ry/bohr**3)                   (kbar)     P=      344.93
   0.00191534  -0.00000000   0.00000000          281.76       -0.00        0.00
  -0.00000000   0.00191534   0.00000000           -0.00      281.76        0.00
  -0.00000000   0.00000000   0.00320370           -0.00        0.00      471.28

     Energy error            =      1.8E-01 Ry
     Gradient error          =      1.2E-02 Ry/Bohr
     Cell gradient error     =      2.2E+02 kbar

     number of scf cycles    =   2
     number of bfgs steps    =   1

     enthalpy           old  =     -72.7840921470 Ry
     enthalpy           new  =     -72.9617881205 Ry

     CASE: enthalpy          _new < enthalpy          _old

     new trust radius        =       0.2696911554 bohr
ibrav =      7
 celldm(1) =      9.61043271
 celldm(3) =      0.84674530
Input lattice vectors:
     0.43568602    -0.43568602     0.36891509
     0.43568602     0.43568602     0.36891509
    -0.43568602    -0.43568602     0.36891509
New lattice vectors in INITIAL alat:
     0.43568602    -0.43568602     0.36891509
     0.43568602     0.43568602     0.36891509
    -0.43568602    -0.43568602     0.36891509
New lattice vectors in NEW alat (for information only):
     0.50000000    -0.50000000     0.42337265
     0.50000000     0.50000000     0.42337265
    -0.50000000    -0.50000000     0.42337265
Discrepancy in bohr =     0.000000    0.000000    0.000000
     new conv_thr            =       0.0000000012 Ry

     new unit-cell volume =    375.79554 a.u.^3 (    55.68715 Ang^3 )
     density =      2.50286 g/cm^3

CELL_PARAMETERS (alat= 11.02908078)
   0.435686024  -0.435686024   0.368915091
   0.435686024   0.435686024   0.368915091
  -0.435686024  -0.435686024   0.368915091

ATOMIC_POSITIONS (crystal)
Si            0.0000000000        0.2500000000        0.2500000000
Si            0.0000000000        0.7500000000        0.7500000000
Li           -0.1806221007        0.3403110503       -0.1596889497
Li            0.1806221007        0.6596889497       -0.8403110503
Li            0.5000000000        0.1596889497       -0.6596889497
Li           -0.5000000000        0.8403110503       -0.3403110503



     Writing config-only to output data dir ./output/SiLi.save/
     NEW-OLD atomic charge density approx. for the potential

     negative rho (up, down):  1.799E-06 0.000E+00
     extrapolated charge   16.87097, renormalised to   20.00000

     total cpu time spent up to now is       46.9 secs

     Self-consistent Calculation

     iteration #  1     ecut=    80.00 Ry     beta= 0.70
     Davidson diagonalization with overlap
     c_bands:  1 eigenvalues not converged
     ethr =  1.00E-06,  avg # of iterations = 10.8

     total cpu time spent up to now is       51.9 secs

     total energy              =     -74.21197233 Ry
     estimated scf accuracy    <       0.02981464 Ry

     iteration #  2     ecut=    80.00 Ry     beta= 0.70
     Davidson diagonalization with overlap
     ethr =  1.49E-04,  avg # of iterations =  2.5

     total cpu time spent up to now is       54.1 secs

     total energy              =     -74.27942757 Ry
     estimated scf accuracy    <       0.01519837 Ry

     iteration #  3     ecut=    80.00 Ry     beta= 0.70
     Davidson diagonalization with overlap
     ethr =  7.60E-05,  avg # of iterations =  1.1

     total cpu time spent up to now is       55.5 secs

     total energy              =     -74.27914234 Ry
     estimated scf accuracy    <       0.00265593 Ry

     iteration #  4     ecut=    80.00 Ry     beta= 0.70
     Davidson diagonalization with overlap
     ethr =  1.33E-05,  avg # of iterations =  1.8

     total cpu time spent up to now is       57.1 secs

     total energy              =     -74.27888153 Ry
     estimated scf accuracy    <       0.00059179 Ry

     iteration #  5     ecut=    80.00 Ry     beta= 0.70
     Davidson diagonalization with overlap
     ethr =  2.96E-06,  avg # of iterations =  2.9

     total cpu time spent up to now is       59.0 secs

     total energy              =     -74.27896394 Ry
     estimated scf accuracy    <       0.00001110 Ry

     iteration #  6     ecut=    80.00 Ry     beta= 0.70
     Davidson diagonalization with overlap
     ethr =  5.55E-08,  avg # of iterations =  2.2

     total cpu time spent up to now is       60.7 secs

     total energy              =     -74.27896580 Ry
     estimated scf accuracy    <       0.00000023 Ry

     iteration #  7     ecut=    80.00 Ry     beta= 0.70
     Davidson diagonalization with overlap
     ethr =  1.17E-09,  avg # of iterations =  3.2

     total cpu time spent up to now is       62.7 secs

     total energy              =     -74.27896590 Ry
     estimated scf accuracy    <       0.00000001 Ry

     iteration #  8     ecut=    80.00 Ry     beta= 0.70
     Davidson diagonalization with overlap
     ethr =  5.38E-11,  avg # of iterations =  2.6

     total cpu time spent up to now is       64.5 secs

     End of self-consistent calculation

          k = 0.0000 0.0000 0.0000 (  6373 PWs)   bands (ev):

   -37.1431 -37.0194 -36.9649 -36.9649  -3.2000   3.2374   5.5741   5.5741
     7.0990   8.2128   8.2128   9.3621   9.3723  12.3293

          k =-0.1913 0.0000 0.2259 (  6378 PWs)   bands (ev):

   -37.1300 -37.0206 -36.9717 -36.9696  -2.9798   2.1767   5.3384   5.4770
     6.9570   7.7614   8.6215   9.8100   9.9666  12.4534

          k =-0.3825 0.0000 0.4518 (  6358 PWs)   bands (ev):

   -37.0958 -37.0275 -36.9870 -36.9806  -2.3099   0.3876   5.0742   5.4784
     6.0093   6.8609  10.2026  11.0826  11.1288  13.6900

          k = 0.5738 0.0000-0.6777 (  6370 PWs)   bands (ev):

   -37.0549 -37.0549 -36.9904 -36.9904  -1.1774  -1.1774   5.1945   5.1945
     6.0830   6.0830  11.6519  11.6519  12.2467  12.2467

          k = 0.0000 0.2295 0.2711 (  6372 PWs)   bands (ev):

   -37.1245 -37.0212 -36.9745 -36.9715  -2.8823   1.8263   5.2679   5.4599
     6.7731   7.5933   8.8627  10.0738  10.1936  12.6995

          k =-0.1913 0.2295 0.4970 (  6357 PWs)   bands (ev):

   -37.0974 -37.0248 -36.9864 -36.9824  -2.2195   0.2081   4.8744   5.7438
     5.9453   7.4766   9.2950  10.9619  11.1552  13.9569

          k =-0.3825 0.2295 0.7228 (  6377 PWs)   bands (ev):

   -37.0607 -37.0435 -36.9968 -36.9894  -1.2138  -1.1053   4.3082   5.2183
     6.0346   7.7837   9.7812  11.1022  13.0281  13.8380

          k = 0.5738 0.2295-0.4066 (  6361 PWs)   bands (ev):

   -37.0787 -37.0316 -37.0006 -36.9797  -2.2739   0.4543   3.8734   5.5376
     6.1158   7.7554   9.6465  10.9134  12.5531  14.3689

          k = 0.3825 0.2295-0.1807 (  6370 PWs)   bands (ev):

   -37.1124 -37.0242 -36.9861 -36.9685  -2.9090   2.2958   3.9382   5.8721
     6.1676   7.1696   9.9351  10.1947  12.1879  12.3630

          k = 0.1913 0.2295 0.0452 (  6375 PWs)   bands (ev):

   -37.1303 -37.0219 -36.9744 -36.9652  -3.1102   3.1325   4.4852   5.8097
     6.0362   7.6108   9.5411   9.8967  10.9788  12.0007

          k = 0.0000 0.4590 0.5421 (  6364 PWs)   bands (ev):

   -37.0792 -37.0355 -36.9907 -36.9852  -1.9125  -0.2838   5.0672   5.4340
     5.8581   6.5146  10.9996  11.4286  11.4696  13.3249

          k =-0.1913 0.4590 0.7680 (  6368 PWs)   bands (ev):

   -37.0543 -37.0506 -36.9974 -36.9881  -1.4864  -0.8035   4.3086   5.2399
     6.0590   7.4396  10.2751  11.0517  12.9190  13.6551

          k =-0.3825 0.4590 0.9939 (  6363 PWs)   bands (ev):

   -37.0726 -37.0265 -37.0138 -36.9775  -2.3439   0.7119   3.3808   5.6442
     6.1104   7.9665   9.9496  10.4892  12.8652  13.9412

          k = 0.5738 0.4590-0.1355 (  6380 PWs)   bands (ev):

   -37.0900 -37.0245 -37.0088 -36.9673  -2.8271   2.5028   3.0339   5.5597
     6.1972   6.7372  10.1189  11.7398  12.2374  12.8914

          k = 0.3825 0.4590 0.0904 (  6367 PWs)   bands (ev):

   -37.1012 -37.0254 -36.9982 -36.9661  -2.9188   2.8469   3.2638   5.4185
     6.1445   6.9009   9.9472  11.4697  12.1378  12.8732

          k = 0.1913 0.4590 0.3162 (  6366 PWs)   bands (ev):

   -37.0982 -37.0264 -36.9917 -36.9746  -2.6147   1.2248   4.0501   5.6936
     6.2095   7.4807   9.4593  10.7602  12.2293  13.3808

          k = 0.2295-0.2295 0.0000 (  6374 PWs)   bands (ev):

   -37.1285 -37.0223 -36.9760 -36.9650  -3.1044   3.1921   4.3409   5.8549
     5.8800   7.5561   9.5336  10.1737  11.1736  11.9414

          k = 0.0383-0.2295 0.2259 (  6375 PWs)   bands (ev):

   -37.1275 -37.0212 -36.9732 -36.9698  -2.9623   2.1451   5.1580   5.4946
     6.7845   7.7295   8.7176  10.0010  10.2980  12.5000

          k =-0.1530-0.2295 0.4518 (  6362 PWs)   bands (ev):

   -37.1040 -37.0234 -36.9840 -36.9797  -2.3876   0.5238   4.9592   5.8939
     5.9860   7.3789   9.3427  10.6978  10.8150  13.6688

          k = 0.8033-0.2295-0.6777 (  6366 PWs)   bands (ev):

   -37.0679 -37.0382 -36.9942 -36.9902  -1.3648  -0.9549   4.4381   5.2265
     6.0217   7.7642   9.6117  11.2038  12.7717  13.9425

          k = 0.6121-0.2295-0.4518 (  6364 PWs)   bands (ev):

   -37.0714 -37.0354 -37.0016 -36.9821  -2.0949   0.1099   3.9223   5.4435
     6.0948   7.8013   9.7831  10.8949  12.7022  14.3452

          k = 0.4208-0.2295-0.2259 (  6369 PWs)   bands (ev):

   -37.1066 -37.0248 -36.9894 -36.9704  -2.8169   1.9305   3.8846   5.8429
     6.2285   7.2091   9.7935  10.3874  12.2437  12.7675

          k = 0.0383 0.0000 0.4970 (  6384 PWs)   bands (ev):

   -37.1074 -37.0194 -36.9822 -36.9822  -2.3161   0.3729   5.3033   5.3096
     7.3519   7.4596   7.9572   9.4754  11.5160  13.5046

          k =-0.1530-0.0000 0.7228 (  6377 PWs)   bands (ev):

   -37.0747 -37.0243 -36.9965 -36.9948  -1.3100  -0.9760   4.7096   4.7288
     6.8602   7.6638   8.7057   9.3915  14.1887  14.3255

          k = 0.8033-0.0000-0.4066 (  6371 PWs)   bands (ev):

   -37.0536 -37.0417 -37.0043 -36.9902  -2.0531   0.1603   4.2853   4.3703
     6.7689   7.0282   9.5273   9.8733  14.5342  14.8820

          k = 0.6121 0.0000-0.1807 (  6358 PWs)   bands (ev):

   -37.0910 -37.0280 -36.9931 -36.9783  -2.7493   2.0470   4.1923   4.4077
     5.3976   8.2013   9.7300  10.0521  12.9692  13.4252

          k = 0.4208-0.0000 0.0452 (  6375 PWs)   bands (ev):

   -37.1183 -37.0241 -36.9787 -36.9702  -3.0263   3.0823   4.5754   4.8702
     5.1351   8.8462   9.5801  10.1776  10.9182  11.8209

          k = 0.2295 0.2295 0.5421 (  6357 PWs)   bands (ev):

   -37.0903 -37.0269 -36.9883 -36.9854  -2.0333  -0.0993   4.7857   5.5369
     5.9758   7.5809   9.2914  11.1050  11.5933  14.2517

          k = 0.0383 0.2295 0.7680 (  6366 PWs)   bands (ev):

   -37.0660 -37.0315 -36.9987 -36.9939  -1.2479  -1.0297   4.5573   4.7501
     6.6536   7.4555   9.1370   9.6678  14.1708  14.4333

          k =-0.1530 0.2295 0.9939 (  6366 PWs)   bands (ev):

   -37.0477 -37.0366 -37.0131 -36.9922  -2.1265   0.4034   3.8077   4.5469
     6.3450   7.2414   9.6328   9.8692  14.5107  15.0462

          k = 0.8033 0.2295-0.1355 (  6366 PWs)   bands (ev):

   -37.0700 -37.0254 -37.0141 -36.9804  -2.6723   2.2539   3.3553   4.6718
     4.8375   7.7613   9.3755  11.6403  13.3128  14.2577

          k = 0.6121 0.2295 0.0904 (  6373 PWs)   bands (ev):

   -37.0919 -37.0265 -37.0001 -36.9719  -2.8457   2.7491   3.4415   4.7241
     5.3281   8.0667   9.2606  11.3500  12.6245  13.0803

          k = 0.4208 0.2295 0.3162 (  6360 PWs)   bands (ev):

   -37.1004 -37.0256 -36.9913 -36.9737  -2.6340   1.2619   4.0078   5.8851
     6.2307   7.4492   9.5390  10.6150  12.1891  13.2760

          k = 0.2295-0.6886-0.5421 (  6358 PWs)   bands (ev):

   -37.0574 -37.0460 -37.0006 -36.9865  -1.6865  -0.5322   4.0804   5.2906
     6.0626   7.8071   9.9876  10.8709  13.0206  14.0477

          k = 0.0383-0.6886-0.3162 (  6370 PWs)   bands (ev):

   -37.0737 -37.0325 -37.0003 -36.9836  -2.4177   0.9237   4.1631   4.5060
     6.2354   7.4635   9.5032  10.1772  14.3491  14.4870

          k =-0.1530-0.6886-0.0904 (  6363 PWs)   bands (ev):

   -37.0832 -37.0276 -37.0017 -36.9776  -2.7816   2.6793   3.5679   4.4243
     4.8272   8.2344   9.3124  11.2972  12.7804  13.4068

          k = 0.8033-0.6886-1.2198 (  6376 PWs)   bands (ev):

   -37.0830 -37.0246 -37.0111 -36.9716  -2.7703   2.4016   3.1607   5.0446
     5.5838   7.5982   9.3348  11.7021  13.0572  13.2906

          k = 0.6121-0.6886-0.9939 (  6365 PWs)   bands (ev):

   -37.0768 -37.0241 -37.0139 -36.9758  -2.3848   0.7871   3.3028   5.5118
     6.5564   7.9812  10.0436  11.1686  12.0873  13.3149

          k = 0.4208-0.6886-0.7680 (  6349 PWs)   bands (ev):

   -37.0644 -37.0396 -36.9977 -36.9889  -1.6352  -0.6058   4.0445   4.5450
     7.3990   7.9010  10.7670  10.8985  12.9228  13.4945

          k = 0.2295-0.4590-0.2711 (  6364 PWs)   bands (ev):

   -37.1001 -37.0257 -36.9927 -36.9725  -2.7072   1.5554   3.8510   5.7938
     6.2192   7.3421   9.6593  10.5897  12.2957  13.2072

          k = 0.0383-0.4590-0.0452 (  6374 PWs)   bands (ev):

   -37.1138 -37.0248 -36.9814 -36.9711  -2.9965   3.0688   4.3932   4.8282
     4.9805   8.8643   9.8168   9.9604  11.1487  12.0775

          k =-0.1530-0.4590 0.1807 (  6369 PWs)   bands (ev):

   -37.1078 -37.0252 -36.9871 -36.9710  -2.8726   2.2314   4.0214   5.3808
     5.8479   7.7224   9.7210  10.3424  12.1695  12.5625

          k = 0.8033-0.4590-0.9487 (  6359 PWs)   bands (ev):

   -37.0849 -37.0282 -37.0000 -36.9777  -2.3347   0.5616   3.7514   5.4292
     6.6359   7.9405   9.7803  10.8750  12.3690  13.9739

          k = 0.6121-0.4590-0.7228 (  6351 PWs)   bands (ev):

   -37.0559 -37.0453 -36.9973 -36.9920  -1.3858  -0.8967   4.0364   4.3180
     7.7023   8.0148  10.8313  11.0064  13.0943  13.3066

          k = 0.4208-0.4590-0.4970 (  6352 PWs)   bands (ev):

   -37.0733 -37.0329 -37.0015 -36.9830  -2.0037  -0.0579   3.7955   4.9234
     7.0897   8.1850  10.1460  10.9504  12.7741  13.6382

          k = 0.4590-0.4590 0.0000 (  6398 PWs)   bands (ev):

   -37.0981 -37.0257 -37.0018 -36.9653  -2.9296   3.0999   3.1679   5.0437
     6.1908   6.8871   9.8674  12.0239  12.1907  12.9388

          k = 0.2678-0.4590 0.2259 (  6369 PWs)   bands (ev):

   -37.1014 -37.0253 -36.9938 -36.9704  -2.7839   1.8909   3.6720   5.8768
     6.1865   7.1291  10.0224  10.4142  12.2984  13.0714

          k = 0.0765-0.4590 0.4518 (  6359 PWs)   bands (ev):

   -37.0884 -37.0307 -36.9905 -36.9813  -2.2416   0.2862   4.7359   5.4259
     6.0684   6.9491  10.1498  11.2116  11.7575  13.5618

          k = 1.0329-0.4590-0.6777 (  6369 PWs)   bands (ev):

   -37.0632 -37.0453 -36.9919 -36.9902  -1.2966  -1.0450   4.7926   5.2123
     6.0373   6.7586  10.7346  11.4455  12.5078  13.0259

          k = 0.8416-0.4590-0.4518 (  6352 PWs)   bands (ev):

   -37.0650 -37.0357 -37.0073 -36.9823  -2.0443   0.0591   3.6850   5.4438
     6.0791   8.3449   9.5281  10.6275  13.0600  14.5812

          k = 0.6503-0.4590-0.2259 (  6382 PWs)   bands (ev):

   -37.0834 -37.0216 -37.0149 -36.9706  -2.6802   1.7815   3.1018   5.8609
     6.1715   6.9401  10.3077  11.1460  12.4101  13.0195

          k = 0.2678-0.2295 0.4970 (  6345 PWs)   bands (ev):

   -37.0937 -37.0265 -36.9882 -36.9825  -2.1850   0.1574   4.7050   5.5099
     6.1696   7.5006   9.5608  11.0171  11.3788  14.1417

          k = 0.0765-0.2295 0.7228 (  6362 PWs)   bands (ev):

   -37.0715 -37.0300 -36.9964 -36.9924  -1.2638  -1.0377   4.6007   4.9854
     6.4342   7.5501   9.0240   9.9350  13.9812  14.1841

          k = 1.0329-0.2295-0.4066 (  6369 PWs)   bands (ev):

   -37.0462 -37.0396 -37.0100 -36.9939  -1.9756   0.0813   3.9605   4.5249
     6.5579   7.2987   9.5249   9.6312  14.5325  14.8445

          k = 0.8416-0.2295-0.1807 (  6369 PWs)   bands (ev):

   -37.0650 -37.0245 -37.0173 -36.9829  -2.5921   1.8594   3.4004   4.7159
     5.0707   7.5613   9.5178  11.3077  13.5654  14.8266

          k = 0.6503-0.2295 0.0452 (  6372 PWs)   bands (ev):

   -37.0882 -37.0267 -37.0024 -36.9729  -2.8417   2.9862   3.4281   4.3143
     5.1916   8.3665   8.9150  11.8528  12.5088  13.1457

          k = 0.2678 0.0000 0.7680 (  6371 PWs)   bands (ev):

   -37.0646 -37.0346 -36.9980 -36.9930  -1.2778  -1.0058   4.6769   4.6941
     6.6318   7.2229   9.3900   9.8187  14.1046  14.3705

          k = 0.0765 0.0000 0.9939 (  6375 PWs)   bands (ev):

   -37.0427 -37.0249 -37.0131 -37.0087  -2.0249   0.2947   4.0473   4.0533
     6.5972   6.7389   9.8174   9.8298  14.4159  14.7456

          k = 1.0329-0.0000-0.1355 (  6354 PWs)   bands (ev):

   -37.0347 -37.0277 -37.0185 -37.0080  -2.4948   2.0185   3.7732   3.7875
     4.4652   6.6564  11.4483  11.5067  14.0390  14.3461

          k = 0.8416-0.0000 0.0904 (  6362 PWs)   bands (ev):

   -37.0616 -37.0292 -37.0075 -36.9912  -2.6454   2.5273   3.8196   3.8564
     4.2829   7.3408  10.8170  11.2091  13.3139  13.6059

          k = 0.6503-0.0000 0.3162 (  6377 PWs)   bands (ev):

   -37.0786 -37.0317 -36.9978 -36.9822  -2.4543   0.9710   4.3097   4.4954
     6.2527   7.4940   9.4369  10.2750  14.0455  14.3327

          k = 0.2678-0.9181-0.3162 (  6367 PWs)   bands (ev):

   -37.0565 -37.0305 -37.0161 -36.9865  -2.3025   0.7927   3.5935   4.8028
     6.0155   7.4045   9.5875  10.2284  14.3084  15.3031

          k = 0.0765-0.9181-0.0904 (  6357 PWs)   bands (ev):

   -37.0520 -37.0277 -37.0141 -36.9953  -2.5989   2.4729   3.6200   3.9679
     4.1856   7.0462  10.8989  11.7814  13.4899  13.7718

          k = 1.0329-0.9181-1.2198 (  6358 PWs)   bands (ev):

   -37.0527 -37.0269 -37.0162 -36.9934  -2.5658   2.1085   3.5844   4.1338
     4.5610   7.0975  10.5029  11.5469  13.6535  14.2829

          k = 0.8416-0.9181-0.9939 (  6371 PWs)   bands (ev):

   -37.0573 -37.0336 -37.0134 -36.9856  -2.2045   0.4999   3.6468   4.9988
     6.1129   7.6049   9.6265   9.9180  14.4510  15.0176

          k = 0.6503-0.9181-0.7680 (  6365 PWs)   bands (ev):

   -37.0564 -37.0487 -36.9975 -36.9879  -1.5258  -0.7566   4.2433   5.0708
     6.3171   7.5180  10.4423  11.3122  12.5313  13.5325

          k = 0.4590-0.6886-0.2711 (  6372 PWs)   bands (ev):

   -37.0799 -37.0195 -37.0184 -36.9727  -2.5834   1.4164   3.1711   5.8317
     6.1510   7.2438  10.3693  10.7601  12.5577  13.2530

          k = 0.2678-0.6886-0.0452 (  6369 PWs)   bands (ev):

   -37.0840 -37.0263 -37.0069 -36.9730  -2.8200   2.9613   3.3329   4.2566
     5.2348   8.2954   8.8064  12.1670  12.8084  13.2299

          k = 0.0765-0.6886 0.1807 (  6363 PWs)   bands (ev):

   -37.0806 -37.0288 -36.9997 -36.9809  -2.6809   1.9600   3.8566   4.4632
     5.2639   7.9532   9.7267  10.3924  13.4073  13.7890

          k = 1.0329-0.6886-0.9487 (  6376 PWs)   bands (ev):

   -37.0675 -37.0368 -37.0017 -36.9842  -2.1686   0.2988   4.0784   4.9805
     6.3158   7.4047   9.5699  10.2997  13.8106  14.8522

          k = 0.8416-0.6886-0.7228 (  6361 PWs)   bands (ev):

   -37.0547 -37.0489 -36.9970 -36.9898  -1.2947  -1.0155   4.1850   4.7865
     6.6490   7.8737  10.2450  11.6370  12.3415  13.6026

          k = 0.6503-0.6886-0.4970 (  6352 PWs)   bands (ev):

   -37.0702 -37.0333 -37.0041 -36.9830  -1.9779  -0.0831   3.6798   4.8760
     7.1448   8.4802   9.9329  11.1978  12.6967  13.3884

     the Fermi energy is     8.5445 ev

!    total energy              =     -74.27896590 Ry
     estimated scf accuracy    <          1.7E-10 Ry
     smearing contrib. (-TS)   =       0.00045449 Ry
     internal energy E=F+TS    =     -74.27942040 Ry

     The total energy is F=E-TS. E is the sum of the following terms:
     one-electron contribution =     -18.14770652 Ry
     hartree contribution      =      12.33694333 Ry
     xc contribution           =     -20.68793469 Ry
     ewald contribution        =     -47.78072252 Ry

     convergence has been achieved in   8 iterations

     Forces acting on atoms (cartesian axes, Ry/au):

     atom    1 type  1   force =     0.00000000   -0.00000000    0.00000000
     atom    2 type  1   force =     0.00000000    0.00000000   -0.00000000
     atom    3 type  2   force =    -0.02389420    0.02389420   -0.00000000
     atom    4 type  2   force =     0.02389420   -0.02389420    0.00000000
     atom    5 type  2   force =    -0.02389420   -0.02389420   -0.00000000
     atom    6 type  2   force =     0.02389420    0.02389420   -0.00000000
     The non-local contrib.  to forces
     atom    1 type  1   force =    -0.00000000   -0.00000000    0.00000000
     atom    2 type  1   force =    -0.00000000   -0.00000000    0.00000000
     atom    3 type  2   force =    -0.04005547    0.04005547   -0.00000000
     atom    4 type  2   force =     0.04005547   -0.04005547    0.00000000
     atom    5 type  2   force =    -0.04005547   -0.04005547   -0.00000000
     atom    6 type  2   force =     0.04005547    0.04005547    0.00000000
     The ionic contribution  to forces
     atom    1 type  1   force =    -0.00000000   -0.00000000    0.00000000
     atom    2 type  1   force =    -0.00000000   -0.00000000    0.00000000
     atom    3 type  2   force =    -0.37150149    0.37150149   -0.00000000
     atom    4 type  2   force =     0.37150149   -0.37150149   -0.00000000
     atom    5 type  2   force =    -0.37150149   -0.37150149    0.00000000
     atom    6 type  2   force =     0.37150149    0.37150149   -0.00000000
     The local contribution  to forces
     atom    1 type  1   force =     0.00000000   -0.00000000   -0.00000000
     atom    2 type  1   force =     0.00000000    0.00000000    0.00000000
     atom    3 type  2   force =     0.38766030   -0.38766030   -0.00000000
     atom    4 type  2   force =    -0.38766030    0.38766030    0.00000000
     atom    5 type  2   force =     0.38766030    0.38766030    0.00000000
     atom    6 type  2   force =    -0.38766030   -0.38766030   -0.00000000
     The core correction contribution to forces
     atom    1 type  1   force =    -0.00000000   -0.00000000   -0.00000000
     atom    2 type  1   force =     0.00000000    0.00000000    0.00000000
     atom    3 type  2   force =     0.00000000    0.00000000    0.00000000
     atom    4 type  2   force =     0.00000000    0.00000000    0.00000000
     atom    5 type  2   force =     0.00000000    0.00000000    0.00000000
     atom    6 type  2   force =     0.00000000    0.00000000    0.00000000
     The Hubbard contrib.    to forces
     atom    1 type  1   force =     0.00000000    0.00000000    0.00000000
     atom    2 type  1   force =     0.00000000    0.00000000    0.00000000
     atom    3 type  2   force =     0.00000000    0.00000000    0.00000000
     atom    4 type  2   force =     0.00000000    0.00000000    0.00000000
     atom    5 type  2   force =     0.00000000    0.00000000    0.00000000
     atom    6 type  2   force =     0.00000000    0.00000000    0.00000000
     The SCF correction term to forces
     atom    1 type  1   force =    -0.00000000    0.00000000   -0.00000000
     atom    2 type  1   force =     0.00000000   -0.00000000    0.00000000
     atom    3 type  2   force =     0.00000245   -0.00000245   -0.00000000
     atom    4 type  2   force =    -0.00000245    0.00000245   -0.00000000
     atom    5 type  2   force =     0.00000245    0.00000245   -0.00000000
     atom    6 type  2   force =    -0.00000245   -0.00000245   -0.00000000

     Total force =     0.067583     Total SCF correction =     0.000007


     Computing stress (Cartesian axis) and pressure

          total   stress  (Ry/bohr**3)                   (kbar)     P=      577.52
   0.00356616   0.00000000   0.00000000          524.60        0.00        0.00
   0.00000000   0.00356616  -0.00000000            0.00      524.60       -0.00
   0.00000000  -0.00000000   0.00464530            0.00       -0.00      683.35

     Energy error            =      4.0E-02 Ry
     Gradient error          =      2.4E-02 Ry/Bohr
     Cell gradient error     =      1.8E+02 kbar

     number of scf cycles    =   3
     number of bfgs steps    =   2

     enthalpy           old  =     -72.9617881205 Ry
     enthalpy           new  =     -73.0016628196 Ry

     CASE: enthalpy          _new < enthalpy          _old

     new trust radius        =       0.0757666315 bohr
ibrav =      7
 celldm(1) =      9.60207354
 celldm(3) =      0.86404406
Input lattice vectors:
     0.43530706    -0.43530706     0.37612448
     0.43530706     0.43530706     0.37612448
    -0.43530706    -0.43530706     0.37612448
New lattice vectors in INITIAL alat:
     0.43530706    -0.43530706     0.37612448
     0.43530706     0.43530706     0.37612448
    -0.43530706    -0.43530706     0.37612448
New lattice vectors in NEW alat (for information only):
     0.50000000    -0.50000000     0.43202203
     0.50000000     0.50000000     0.43202203
    -0.50000000    -0.50000000     0.43202203
Discrepancy in bohr =     0.000000    0.000000    0.000000
     new conv_thr            =       0.0000000024 Ry

     new unit-cell volume =    382.47317 a.u.^3 (    56.67668 Ang^3 )
     density =      2.45917 g/cm^3

CELL_PARAMETERS (alat= 11.02908078)
   0.435307064  -0.435307064   0.376124482
   0.435307064   0.435307064   0.376124482
  -0.435307064  -0.435307064   0.376124482

ATOMIC_POSITIONS (crystal)
[...]
     6.5725   7.5662   8.5705  10.1299  10.5751  11.8177

          k =-0.1950 0.2339 0.4763 (  4565 PWs)   bands (ev):

   -37.3335 -37.2641 -37.1220 -37.1195  -2.0277   0.5544   4.9822   5.7629
     6.1649   7.8958   9.3791  10.7274  11.0704  13.3160

          k =-0.3899 0.2339 0.6928 (  4564 PWs)   bands (ev):

   -37.3020 -37.2857 -37.1268 -37.1242  -0.9459  -0.8575   4.2815   5.2947
     6.2607   8.1510   9.8679  10.9992  12.7435  13.7905

          k = 0.5849 0.2339-0.3897 (  4563 PWs)   bands (ev):

   -37.3158 -37.2734 -37.1299 -37.1196  -1.9408   0.5930   3.9761   5.4778
     6.4587   7.7197   9.5823  11.1005  12.7501  14.1631

          k = 0.3899 0.2339-0.1732 (  4566 PWs)   bands (ev):

   -37.3445 -37.2561 -37.1255 -37.1132  -2.6104   2.4615   4.1766   5.8076
     6.5313   6.8974   9.9176  10.2568  11.9705  12.6255

          k = 0.1950 0.2339 0.0433 (  4572 PWs)   bands (ev):

   -37.3602 -37.2500 -37.1183 -37.1111  -2.8476   3.4012   4.8503   5.7241
     6.5000   7.2168   9.5373   9.7538  11.2438  11.8767

          k =-0.0000 0.4679 0.5196 (  4567 PWs)   bands (ev):

   -37.3165 -37.2764 -37.1235 -37.1225  -1.6753  -0.0277   5.2973   5.5095
     6.0050   6.6313  10.6961  11.5145  11.6334  13.2605

          k =-0.1950 0.4679 0.7361 (  4564 PWs)   bands (ev):

   -37.2950 -37.2927 -37.1274 -37.1237  -1.1486  -0.6400   4.3266   5.2987
     6.2938   7.7017  10.2268  11.0757  12.8938  13.5336

          k =-0.3899 0.4679 0.9526 (  4557 PWs)   bands (ev):

   -37.3122 -37.2725 -37.1356 -37.1183  -1.9659   0.8077   3.4197   5.4376
     6.6049   7.6978  10.2973  10.6189  13.1972  13.9493

          k = 0.5849 0.4679-0.1299 (  4556 PWs)   bands (ev):

   -37.3279 -37.2590 -37.1394 -37.1125  -2.4492   2.5837   3.1185   5.2319
     6.3129   6.9225  10.0774  11.9953  12.3984  13.2281

          k = 0.3899 0.4679 0.0866 (  4563 PWs)   bands (ev):

   -37.3359 -37.2567 -37.1346 -37.1118  -2.5689   2.9747   3.4028   5.1033
     6.4228   6.8848   9.9378  11.6134  12.1195  12.9890

          k = 0.1950 0.4679 0.3031 (  4563 PWs)   bands (ev):

   -37.3322 -37.2635 -37.1266 -37.1168  -2.3129   1.3846   4.2480   5.7315
     6.4334   7.3593   9.3740  10.9620  12.2449  13.3505

          k = 0.2339-0.2339 0.0000 (  4571 PWs)   bands (ev):

   -37.3585 -37.2505 -37.1196 -37.1110  -2.8346   3.4583   4.6807   5.5593
     6.5619   7.1312   9.5284  10.0346  11.3890  11.8734

          k = 0.0390-0.2339 0.2165 (  4565 PWs)   bands (ev):

   -37.3585 -37.2516 -37.1156 -37.1140  -2.7282   2.4239   5.6143   5.9711
     6.5394   7.6365   8.4572  10.1063  10.6422  11.6387

          k =-0.1560-0.2339 0.4330 (  4562 PWs)   bands (ev):

   -37.3391 -37.2611 -37.1209 -37.1182  -2.1889   0.8622   5.1373   5.9562
     6.1533   7.7055   9.4353  10.3192  10.9716  12.9583

          k = 0.8188-0.2339-0.6495 (  4565 PWs)   bands (ev):

   -37.3084 -37.2806 -37.1255 -37.1243  -1.1994  -0.5971   4.3996   5.3258
     6.2279   8.1948   9.7131  11.0859  12.3872  13.8431

          k = 0.6238-0.2339-0.4330 (  4560 PWs)   bands (ev):

   -37.3096 -37.2784 -37.1299 -37.1209  -1.7558   0.2509   3.9967   5.4024
     6.4233   7.8512   9.6783  11.0851  12.9199  14.1878

          k = 0.4289-0.2339-0.2165 (  4560 PWs)   bands (ev):

   -37.3394 -37.2586 -37.1269 -37.1143  -2.5111   2.0824   4.0969   5.8175
     6.5230   6.9887   9.7843  10.4942  12.1148  12.9248

          k = 0.0390 0.0000 0.4763 (  4554 PWs)   bands (ev):

   -37.3433 -37.2574 -37.1193 -37.1193  -2.1628   0.8165   5.3627   5.3681
     7.6051   7.8837   8.1307   9.5270  11.0644  12.7460

          k =-0.1560-0.0000 0.6928 (  4571 PWs)   bands (ev):

   -37.3161 -37.2700 -37.1263 -37.1262  -1.2260  -0.4734   4.6663   4.7129
     7.0857   7.8330   9.1098   9.3516  13.7140  13.9961

          k = 0.8188 0.0000-0.3897 (  4582 PWs)   bands (ev):

   -37.2937 -37.2863 -37.1300 -37.1284  -1.5845   0.1828   4.3397   4.4441
     6.5287   7.2131   9.5940  10.1473  14.5241  15.1558

          k = 0.6238 0.0000-0.1732 (  4556 PWs)   bands (ev):

   -37.3241 -37.2646 -37.1267 -37.1234  -2.3572   2.0562   4.4097   4.5647
     5.1686   8.2708   9.5642  10.1708  12.9117  13.5665

          k = 0.4289 0.0000 0.0433 (  4561 PWs)   bands (ev):

   -37.3485 -37.2544 -37.1195 -37.1169  -2.7193   3.2807   4.7068   5.0858
     5.1541   8.6938   9.1627  10.3831  11.0168  12.0077

          k = 0.2339 0.2339 0.5196 (  4565 PWs)   bands (ev):

   -37.3275 -37.2676 -37.1230 -37.1210  -1.8483   0.2530   4.8281   5.6012
     6.1733   8.0631   9.3615  11.1416  11.1527  13.6695

          k = 0.0390 0.2339 0.7361 (  4572 PWs)   bands (ev):

   -37.3084 -37.2759 -37.1275 -37.1268  -0.9507  -0.7669   4.5322   4.7690
     6.8562   7.5456   9.4540   9.6780  14.0313  14.1224

          k =-0.1560 0.2339 0.9526 (  4572 PWs)   bands (ev):

   -37.2901 -37.2848 -37.1347 -37.1286  -1.6012   0.3785   3.7822   4.6195
     6.1037   7.3774   9.7661  10.2268  14.6543  14.9639

          k = 0.8188 0.2339-0.1299 (  4542 PWs)   bands (ev):

   -37.3086 -37.2679 -37.1386 -37.1232  -2.1868   2.1582   3.3755   4.4281
     5.0459   7.9404   9.2150  11.8148  13.4753  14.3877

          k = 0.6238 0.2339 0.0866 (  4551 PWs)   bands (ev):

   -37.3265 -37.2609 -37.1344 -37.1169  -2.4491   2.7840   3.5576   4.4022
     5.7493   7.7810   9.3721  11.4226  12.7002  13.2484

          k = 0.4289 0.2339 0.3031 (  4557 PWs)   bands (ev):

   -37.3344 -37.2623 -37.1266 -37.1159  -2.3424   1.4409   4.2048   5.7631
     6.6777   7.3095   9.4677  10.7757  12.0814  13.3067

          k = 0.2339-0.7018-0.5196 (  4562 PWs)   bands (ev):

   -37.2975 -37.2893 -37.1289 -37.1230  -1.3371  -0.3833   4.0994   5.3059
     6.3410   8.0275   9.9193  10.9584  13.1194  13.8868

          k = 0.0390-0.7018-0.3031 (  4568 PWs)   bands (ev):

   -37.3098 -37.2744 -37.1290 -37.1254  -2.0011   0.9481   4.3010   4.6574
     5.9841   7.5642   9.4854  10.3903  14.1914  14.6262

          k =-0.1560-0.7018-0.0866 (  4547 PWs)   bands (ev):

   -37.3182 -37.2644 -37.1341 -37.1217  -2.3418   2.6342   3.6367   4.1895
     5.0756   8.3451   9.1625  11.2611  12.9052  13.6133

          k = 0.8188-0.7018-1.1690 (  4554 PWs)   bands (ev):

   -37.3209 -37.2624 -37.1391 -37.1162  -2.3545   2.4099   3.2267   4.7160
     6.0661   7.3212   9.4054  11.9603  13.2233  13.5895

          k = 0.6238-0.7018-0.9526 (  4561 PWs)   bands (ev):

   -37.3165 -37.2698 -37.1358 -37.1167  -2.0317   0.9176   3.3501   5.2708
     7.2145   7.6766  10.4668  11.1298  12.3057  13.4839

          k = 0.4289-0.7018-0.7361 (  4546 PWs)   bands (ev):

   -37.3052 -37.2830 -37.1277 -37.1229  -1.3730  -0.3544   4.0691   4.4479
     7.9592   8.3596  10.6622  10.8224  12.7151  13.3867

          k = 0.2339-0.4679-0.2598 (  4558 PWs)   bands (ev):

   -37.3339 -37.2616 -37.1280 -37.1155  -2.3944   1.6990   4.0366   5.7565
     6.5204   7.1533   9.6604  10.7264  12.2625  13.2420

          k = 0.0390-0.4679-0.0433 (  4563 PWs)   bands (ev):

   -37.3444 -37.2558 -37.1215 -37.1175  -2.6729   3.2435   4.5076   4.7966
     5.2050   8.6627   9.4667  10.1381  11.2735  12.2907

          k =-0.1560-0.4679 0.1732 (  4563 PWs)   bands (ev):

   -37.3398 -37.2582 -37.1255 -37.1156  -2.5537   2.3541   4.2612   5.4155
     5.9693   7.5114   9.6467  10.5121  12.2533  12.5343

          k = 0.8188-0.4679-0.9093 (  4546 PWs)   bands (ev):

   -37.3221 -37.2693 -37.1301 -37.1175  -2.0348   0.7506   3.8590   5.2318
     7.2841   7.8884   9.7481  10.9836  12.2315  14.0345

          k = 0.6238-0.4679-0.6928 (  4548 PWs)   bands (ev):

   -37.2982 -37.2888 -37.1273 -37.1245  -1.1180  -0.6464   4.0153   4.2449
     8.3165   8.5318  10.6977  11.0182  12.9740  13.1408

          k = 0.4289-0.4679-0.4763 (  4548 PWs)   bands (ev):

   -37.3128 -37.2762 -37.1299 -37.1200  -1.7149   0.1588   3.8519   4.7736
     7.7600   8.3988   9.9829  11.0410  12.5704  13.8154

          k = 0.4679-0.4679 0.0000 (  4567 PWs)   bands (ev):

   -37.3340 -37.2563 -37.1374 -37.1112  -2.5658   3.2158   3.3280   4.6948
     6.3409   6.9636   9.8602  12.0506  12.5261  12.8795

          k = 0.2729-0.4679 0.2165 (  4561 PWs)   bands (ev):

   -37.3352 -37.2599 -37.1296 -37.1143  -2.4606   2.0211   3.8456   5.7282
     6.6083   6.8945  10.0708  10.4924  12.2368  13.1772

          k = 0.0780-0.4679 0.4330 (  4568 PWs)   bands (ev):

   -37.3240 -37.2706 -37.1237 -37.1207  -1.9769   0.5030   4.9746   5.5447
     6.1937   7.0059   9.8257  11.4762  11.8934  13.5246

          k = 1.0527-0.4679-0.6495 (  4567 PWs)   bands (ev):

   -37.3034 -37.2863 -37.1248 -37.1243  -1.1033  -0.7356   4.8246   5.3311
     6.2114   7.0214  10.8572  11.3488  12.1337  13.1184

          k = 0.8578-0.4679-0.4330 (  4565 PWs)   bands (ev):

   -37.3049 -37.2805 -37.1324 -37.1209  -1.6770   0.1798   3.7113   5.3555
     6.4604   8.2513   9.7339  10.7569  13.3268  14.5608

          k = 0.6628-0.4679-0.2165 (  4553 PWs)   bands (ev):

   -37.3223 -37.2631 -37.1389 -37.1144  -2.2983   1.8541   3.1664   5.5040
     6.6577   6.8195  10.2753  11.5038  12.6535  13.2467

          k = 0.2729-0.2339 0.4763 (  4569 PWs)   bands (ev):

   -37.3300 -37.2663 -37.1231 -37.1196  -1.9788   0.4770   4.8366   5.4639
     6.4457   7.9136   9.6379  10.6117  11.4316  13.5372

          k = 0.0780-0.2339 0.6928 (  4574 PWs)   bands (ev):

   -37.3128 -37.2739 -37.1264 -37.1255  -1.1637  -0.5765   4.5702   5.0234
     6.6243   7.7583   9.3187   9.9033  13.4896  14.0571

          k = 1.0527-0.2339-0.3897 (  4572 PWs)   bands (ev):

   -37.2904 -37.2857 -37.1332 -37.1289  -1.4517   0.0766   3.9327   4.5730
     6.4187   7.3497   9.7257   9.9617  14.5366  14.9522

          k = 0.8578-0.2339-0.1732 (  4549 PWs)   bands (ev):

   -37.3046 -37.2705 -37.1385 -37.1245  -2.0934   1.7684   3.4108   4.7487
     4.9471   7.7601   9.4128  11.5406  13.7167  14.8993

          k = 0.6628-0.2339 0.0433 (  4548 PWs)   bands (ev):

   -37.3235 -37.2615 -37.1357 -37.1179  -2.4252   3.0379   3.5120   3.9617
     5.5844   8.0610   9.0594  11.8651  12.6386  13.3586

          k = 0.2729-0.0000 0.7361 (  4580 PWs)   bands (ev):

   -37.3068 -37.2780 -37.1271 -37.1266  -0.9185  -0.8167   4.6457   4.7526
     6.8384   7.3189   9.7343   9.7398  13.9332  14.0896

          k = 0.0780 0.0000 0.9526 (  4564 PWs)   bands (ev):

   -37.2903 -37.2790 -37.1344 -37.1342  -1.4182   0.2334   3.9761   3.9842
     6.1944   7.1173  10.1389  10.1563  14.5606  14.5855

          k = 1.0527-0.0000-0.1299 (  4574 PWs)   bands (ev):

   -37.2860 -37.2762 -37.1380 -37.1375  -1.8631   1.7882   3.7017   3.7304
     4.2214   7.1111  11.5058  11.5551  14.3008  14.4290

          k = 0.8578 0.0000 0.0866 (  4555 PWs)   bands (ev):

   -37.3006 -37.2706 -37.1345 -37.1322  -2.1041   2.3309   3.6977   3.9672
     4.1726   7.6939  10.7483  11.0043  13.5124  13.8711

          k = 0.6628-0.0000 0.3031 (  4570 PWs)   bands (ev):

   -37.3139 -37.2726 -37.1274 -37.1247  -2.0604   1.0146   4.5153   4.6265
     6.0189   7.5693   9.3775  10.4969  13.9616  14.4281

          k = 0.2729-0.9358-0.3031 (  4563 PWs)   bands (ev):

   -37.2974 -37.2789 -37.1362 -37.1257  -1.8079   0.7669   3.5883   4.9660
     5.7427   7.5040   9.6515  10.5853  14.4689  15.0412

          k = 0.0780-0.9358-0.0866 (  4556 PWs)   bands (ev):

   -37.2947 -37.2723 -37.1378 -37.1330  -2.0192   2.2355   3.5561   3.9176
     4.1048   7.4402  10.7533  11.7441  13.7332  14.0091

          k = 1.0527-0.9358-1.1690 (  4556 PWs)   bands (ev):

   -37.2951 -37.2731 -37.1381 -37.1315  -1.9962   1.9245   3.5516   4.1619
     4.3415   7.4689  10.3917  11.6407  13.8757  14.3920

          k = 0.8578-0.9358-0.9526 (  4570 PWs)   bands (ev):

   -37.2979 -37.2809 -37.1350 -37.1246  -1.7356   0.5098   3.6477   5.1899
     5.9267   7.5754   9.7166  10.2984  14.6086  14.8912

          k = 0.6628-0.9358-0.7361 (  4555 PWs)   bands (ev):

   -37.2968 -37.2912 -37.1275 -37.1234  -1.2088  -0.5737   4.2639   5.0847
     6.6255   7.8088  10.3328  11.3524  12.5804  13.3873

          k = 0.4679-0.7018-0.2598 (  4555 PWs)   bands (ev):

   -37.3191 -37.2659 -37.1381 -37.1157  -2.2013   1.4939   3.2264   5.5103
     6.7529   6.9768  10.3620  11.1546  12.8424  13.3993

          k = 0.2729-0.7018-0.0433 (  4544 PWs)   bands (ev):

   -37.3206 -37.2621 -37.1380 -37.1179  -2.3893   2.9980   3.3867   3.9081
     5.6340   7.9924   8.9404  12.2774  12.9022  13.4732

          k = 0.0780-0.7018 0.1732 (  4550 PWs)   bands (ev):

   -37.3155 -37.2676 -37.1310 -37.1244  -2.2444   1.9209   3.9739   4.6001
     5.0532   8.0934   9.6565  10.4357  13.3673  13.9335

          k = 1.0527-0.7018-0.9093 (  4568 PWs)   bands (ev):

   -37.3052 -37.2800 -37.1297 -37.1237  -1.7743   0.3729   4.1644   5.1685
     6.2376   7.4216   9.5209  10.5544  13.9302  14.8825

          k = 0.8578-0.7018-0.6928 (  4557 PWs)   bands (ev):

   -37.2964 -37.2913 -37.1271 -37.1241  -0.9814  -0.8191   4.1598   4.7975
     6.9981   8.3147  10.2251  11.5465  12.2349  13.5253

          k = 0.6628-0.7018-0.4763 (  4547 PWs)   bands (ev):

   -37.3105 -37.2774 -37.1310 -37.1201  -1.6764   0.1226   3.7150   4.7244
     7.8319   8.6674   9.8716  11.2998  12.5365  13.6569

     the Fermi energy is     8.5033 ev

!    total energy              =     -74.30973236 Ry
     estimated scf accuracy    <          2.7E-11 Ry
     smearing contrib. (-TS)   =       0.00059307 Ry
     internal energy E=F+TS    =     -74.31032544 Ry

     The total energy is F=E-TS. E is the sum of the following terms:
     one-electron contribution =     -17.56031202 Ry
     hartree contribution      =      11.99520082 Ry
     xc contribution           =     -20.60223355 Ry
     ewald contribution        =     -48.14298068 Ry

     convergence has been achieved in   8 iterations

     Forces acting on atoms (cartesian axes, Ry/au):

     atom    1 type  1   force =    -0.00000000    0.00000000    0.00000000
     atom    2 type  1   force =    -0.00000000    0.00000000    0.00000000
     atom    3 type  2   force =     0.00022270   -0.00022270    0.00000000
     atom    4 type  2   force =    -0.00022270    0.00022270   -0.00000000
     atom    5 type  2   force =     0.00022270    0.00022270    0.00000000
     atom    6 type  2   force =    -0.00022270   -0.00022270   -0.00000000
     The non-local contrib.  to forces
     atom    1 type  1   force =     0.00000000   -0.00000000   -0.00000000
     atom    2 type  1   force =    -0.00000000    0.00000000    0.00000000
     atom    3 type  2   force =    -0.05633166    0.05633166   -0.00000000
     atom    4 type  2   force =     0.05633166   -0.05633166    0.00000000
     atom    5 type  2   force =    -0.05633166   -0.05633166   -0.00000000
     atom    6 type  2   force =     0.05633166    0.05633166    0.00000000
     The ionic contribution  to forces
     atom    1 type  1   force =    -0.00000000    0.00000000   -0.00000000
     atom    2 type  1   force =    -0.00000000   -0.00000000    0.00000000
     atom    3 type  2   force =    -0.13225429    0.13225429    0.00000000
     atom    4 type  2   force =     0.13225429   -0.13225429   -0.00000000
     atom    5 type  2   force =    -0.13225429   -0.13225429    0.00000000
     atom    6 type  2   force =     0.13225429    0.13225429    0.00000000
     The local contribution  to forces
     atom    1 type  1   force =     0.00000000   -0.00000000   -0.00000000
     atom    2 type  1   force =    -0.00000000    0.00000000    0.00000000
     atom    3 type  2   force =     0.18881009   -0.18881009   -0.00000000
     atom    4 type  2   force =    -0.18881009    0.18881009   -0.00000000
     atom    5 type  2   force =     0.18881009    0.18881009    0.00000000
     atom    6 type  2   force =    -0.18881009   -0.18881009   -0.00000000
     The core correction contribution to forces
     atom    1 type  1   force =    -0.00000000   -0.00000000    0.00000000
     atom    2 type  1   force =     0.00000000    0.00000000    0.00000000
     atom    3 type  2   force =     0.00000000    0.00000000    0.00000000
     atom    4 type  2   force =     0.00000000    0.00000000    0.00000000
     atom    5 type  2   force =     0.00000000    0.00000000    0.00000000
     atom    6 type  2   force =     0.00000000    0.00000000    0.00000000
     The Hubbard contrib.    to forces
     atom    1 type  1   force =     0.00000000    0.00000000    0.00000000
     atom    2 type  1   force =     0.00000000    0.00000000    0.00000000
     atom    3 type  2   force =     0.00000000    0.00000000    0.00000000
     atom    4 type  2   force =     0.00000000    0.00000000    0.00000000
     atom    5 type  2   force =     0.00000000    0.00000000    0.00000000
     atom    6 type  2   force =     0.00000000    0.00000000    0.00000000
     The SCF correction term to forces
     atom    1 type  1   force =    -0.00000000   -0.00000000    0.00000000
     atom    2 type  1   force =     0.00000000    0.00000000   -0.00000000
     atom    3 type  2   force =    -0.00000145    0.00000145    0.00000000
     atom    4 type  2   force =     0.00000145   -0.00000145   -0.00000000
     atom    5 type  2   force =    -0.00000145   -0.00000145    0.00000000
     atom    6 type  2   force =     0.00000145    0.00000145   -0.00000000

     Total force =     0.000630     Total SCF correction =     0.000004


     Computing stress (Cartesian axis) and pressure

          total   stress  (Ry/bohr**3)                   (kbar)     P=      499.86
   0.00339776  -0.00000000   0.00000000          499.83       -0.00        0.00
   0.00000000   0.00339776  -0.00000000            0.00      499.83       -0.00
   0.00000000   0.00000000   0.00339834            0.00        0.00      499.91


     Writing all to output data dir ./output/SiLi.save/

     init_run     :      2.46s CPU      5.66s WALL (       2 calls)
     electrons    :    126.33s CPU    147.37s WALL (      11 calls)
     update_pot   :      4.62s CPU      4.75s WALL (       9 calls)
     forces       :      4.36s CPU      4.53s WALL (      11 calls)
     stress       :     22.82s CPU     23.79s WALL (      11 calls)

     Called by init_run:
     wfcinit      :      1.42s CPU      4.27s WALL (       2 calls)
     potinit      :      0.40s CPU      0.61s WALL (       2 calls)
     hinit0       :      0.58s CPU      0.64s WALL (       2 calls)

     Called by electrons:
     c_bands      :    110.22s CPU    127.88s WALL (      75 calls)
     sum_band     :     15.12s CPU     17.77s WALL (      75 calls)
     v_of_rho     :      1.00s CPU      1.72s WALL (      84 calls)
     mix_rho      :      0.08s CPU      0.12s WALL (      75 calls)

     Called by c_bands:
     init_us_2    :      2.71s CPU      3.19s WALL (   12528 calls)
     init_us_2:cp :      2.69s CPU      3.18s WALL (   12528 calls)
     cegterg      :    103.81s CPU    118.86s WALL (    5400 calls)

     Called by *egterg:
     cdiaghg      :      4.83s CPU      5.16s WALL (   22182 calls)
     h_psi        :     90.44s CPU    107.45s WALL (   23118 calls)
     g_psi        :      0.39s CPU      0.41s WALL (   17574 calls)

     Called by h_psi:
     h_psi:calbec :      5.60s CPU      6.30s WALL (   23118 calls)
     vloc_psi     :     79.84s CPU     95.73s WALL (   23118 calls)
     add_vuspsi   :      4.68s CPU      5.06s WALL (   23118 calls)

     General routines
     calbec       :      6.99s CPU      7.75s WALL (   27078 calls)
     fft          :      1.03s CPU      1.92s WALL (    1115 calls)
     ffts         :      0.04s CPU      0.09s WALL (      75 calls)
     fftw         :     83.18s CPU     99.68s WALL (  525366 calls)

     Parallel routines

     PWSCF        :   2m40.95s CPU   3m 7.00s WALL


   This run was terminated on:  17: 1: 6  28Dec2024            

=------------------------------------------------------------------------------=
   JOB DONE.
=------------------------------------------------------------------------------=
