
     Program PWSCF v.7.2 starts on 28Dec2024 at 18:25:49 

     This program is part of the open-source Quantum ESPRESSO suite
     for quantum simulation of materials; please cite
         "P. Giannozzi et al., J. Phys.:Condens. Matter 21 395502 (2009);
         "P. Giannozzi et al., J. Phys.:Condens. Matter 29 465901 (2017);
         "P. Giannozzi et al., J. Chem. Phys. 152 154105 (2020);
          URL http://www.quantum-espresso.org", 
     in publications or presentations arising from this work. More details at
     http://www.quantum-espresso.org/quote

     Parallel version (MPI & OpenMP), running on       8 processor cores
     Number of MPI processes:                 8
     Threads/MPI process:                     1

     MPI processes distributed on     1 nodes
     483583 MiB available memory on the printing compute node when the environment starts

     Waiting for input...
     Reading input from standard input

     Current dimensions of program PWSCF are:
     Max number of different atomic species (ntypx) = 10
     Max number of k-points (npk) =  40000
     Max angular momentum in pseudopotentials (lmaxx) =  4

     R & G space division:  proc/nbgrp/npool/nimage =       8
     Subspace diagonalization in iterative solution of the eigenvalue problem:
     a serial algorithm will be used


     Parallelization info
     --------------------
     sticks:   dense  smooth     PW     G-vecs:    dense   smooth      PW
     Min         125     125     36                 3823     3823     600
     Max         126     126     37                 3826     3826     601
     Sum        1003    1003    295                30593    30593    4807

     Using Slab Decomposition



     bravais-lattice index     =            4
     lattice parameter (alat)  =       6.7252  a.u.
     unit-cell volume          =     317.2413 (a.u.)^3
     number of atoms/cell      =            6
     number of atomic types    =            2
     number of electrons       =        20.00
     number of Kohn-Sham states=           14
     kinetic-energy cutoff     =      80.0000  Ry
     charge density cutoff     =     320.0000  Ry
     scf convergence threshold =      1.0E-08
     mixing beta               =       0.7000
     number of iterations used =            8  plain     mixing
     energy convergence thresh.=      1.0E-04
     force convergence thresh. =      1.0E-03
     press convergence thresh. =      1.0E+00
     Exchange-correlation= PBE
                           (   1   4   3   4   0   0   0)
     nstep                     =           50


     celldm(1)=   6.725248  celldm(2)=   0.000000  celldm(3)=   1.204298
     celldm(4)=   0.000000  celldm(5)=   0.000000  celldm(6)=   0.000000

     crystal axes: (cart. coord. in units of alat)
               a(1) = (   1.000000   0.000000   0.000000 )  
               a(2) = (  -0.500000   0.866025   0.000000 )  
               a(3) = (   0.000000   0.000000   1.204298 )  

     reciprocal axes: (cart. coord. in units 2 pi/alat)
               b(1) = (  1.000000  0.577350 -0.000000 )  
               b(2) = (  0.000000  1.154701  0.000000 )  
               b(3) = (  0.000000 -0.000000  0.830359 )  


     PseudoPot. # 1 for Si read from file:
     ../pseudo/Si_ONCV_PBE_sr.upf
     MD5 check sum: e543d271109d17c80368dfa7c482276d
     Pseudo is Norm-conserving + core correction, Zval =  4.0
     Generated using ONCVPSP code by D. R. Hamann
     Using radial grid of 1510 points,  6 beta functions with: 
                l(1) =   0
                l(2) =   0
                l(3) =   1
                l(4) =   1
                l(5) =   2
                l(6) =   2

     PseudoPot. # 2 for Li read from file:
     ../pseudo/Li_ONCV_PBE_sr.upf
     MD5 check sum: 50ff420e78310ffa21704f3361e624a4
     Pseudo is Norm-conserving, Zval =  3.0
     Generated using ONCVPSP code by D. R. Hamann
     Using radial grid of 1944 points,  4 beta functions with: 
                l(1) =   0
                l(2) =   0
                l(3) =   1
                l(4) =   1

     atomic species   valence    mass     pseudopotential
        Si             4.00    28.08550     Si( 1.00)
        Li             3.00     6.94100     Li( 1.00)

     12 Sym. Ops., with inversion, found



   Cartesian axes

     site n.     atom                  positions (alat units)
         1           Si  tau(   1) = (  -0.0000000   0.5773503   0.1012815  )
         2           Si  tau(   2) = (   0.5000000   0.2886751   1.1030169  )
         3           Li  tau(   3) = (   0.0000000   0.0000000   0.3025872  )
         4           Li  tau(   4) = (   0.0000000   0.0000000   0.9017112  )
         5           Li  tau(   5) = (  -0.0000000   0.5773503   0.7020975  )
         6           Li  tau(   6) = (   0.5000000   0.2886751   0.5022009  )

     number of k points=    27  Marzari-Vanderbilt smearing, width (Ry)=  0.0200
                       cart. coord. in units 2pi/alat
        k(    1) = (   0.0000000   0.0000000   0.0000000), wk =   0.0111111
        k(    2) = (   0.0000000   0.0000000   0.1660718), wk =   0.0222222
        k(    3) = (   0.0000000   0.0000000   0.3321436), wk =   0.0222222
        k(    4) = (   0.0000000   0.1924501   0.0000000), wk =   0.0666667
        k(    5) = (   0.0000000   0.1924501   0.1660718), wk =   0.0666667
        k(    6) = (   0.0000000   0.1924501   0.3321436), wk =   0.0666667
        k(    7) = (   0.0000000   0.3849002   0.0000000), wk =   0.0666667
        k(    8) = (   0.0000000   0.3849002   0.1660718), wk =   0.0666667
        k(    9) = (   0.0000000   0.3849002   0.3321436), wk =   0.0666667
        k(   10) = (   0.0000000  -0.5773503   0.0000000), wk =   0.0333333
        k(   11) = (   0.0000000  -0.5773503   0.1660718), wk =   0.0666667
        k(   12) = (   0.0000000  -0.5773503   0.3321436), wk =   0.0666667
        k(   13) = (   0.1666667   0.2886751   0.0000000), wk =   0.0666667
        k(   14) = (   0.1666667   0.2886751   0.1660718), wk =   0.1333333
        k(   15) = (   0.1666667   0.2886751   0.3321436), wk =   0.1333333
        k(   16) = (   0.1666667   0.4811252   0.0000000), wk =   0.1333333
        k(   17) = (   0.1666667   0.4811252   0.1660718), wk =   0.1333333
        k(   18) = (   0.1666667   0.4811252   0.3321436), wk =   0.1333333
        k(   19) = (   0.3333333   0.5773503   0.0000000), wk =   0.0222222
        k(   20) = (   0.3333333   0.5773503   0.1660718), wk =   0.0444444
        k(   21) = (   0.3333333   0.5773503   0.3321436), wk =   0.0444444
        k(   22) = (   0.0000000   0.1924501  -0.1660718), wk =   0.0666667
        k(   23) = (   0.0000000   0.1924501  -0.3321436), wk =   0.0666667
        k(   24) = (   0.0000000   0.3849002  -0.1660718), wk =   0.0666667
        k(   25) = (   0.0000000   0.3849002  -0.3321436), wk =   0.0666667
        k(   26) = (  -0.1666667   0.4811252  -0.1660718), wk =   0.1333333
        k(   27) = (  -0.1666667   0.4811252  -0.3321436), wk =   0.1333333

     Dense  grid:    30593 G-vectors     FFT dimensions: (  40,  40,  48)

     Estimated max dynamical RAM per process >      17.68 MB

     Estimated total dynamical RAM >     141.42 MB

     Initial potential from superposition of free atoms

     starting charge      19.9805, renormalised to      20.0000
     Starting wfcs are   16 randomized atomic wfcs

     total cpu time spent up to now is        1.7 secs

     Self-consistent Calculation

     iteration #  1     ecut=    80.00 Ry     beta= 0.70
     Davidson diagonalization with overlap
     ethr =  1.00E-02,  avg # of iterations =  6.4

     Threshold (ethr) on eigenvalues was too large:
     Diagonalizing with lowered threshold

     Davidson diagonalization with overlap
     ethr =  1.67E-04,  avg # of iterations =  3.6

     total cpu time spent up to now is        2.9 secs

     total energy              =     -74.13001606 Ry
     estimated scf accuracy    <       0.03325986 Ry

     iteration #  2     ecut=    80.00 Ry     beta= 0.70
     Davidson diagonalization with overlap
     ethr =  1.66E-04,  avg # of iterations =  2.2

     total cpu time spent up to now is        3.4 secs

     total energy              =     -74.13226369 Ry
     estimated scf accuracy    <       0.01095917 Ry

     iteration #  3     ecut=    80.00 Ry     beta= 0.70
     Davidson diagonalization with overlap
     ethr =  5.48E-05,  avg # of iterations =  2.3

     total cpu time spent up to now is        4.0 secs

     total energy              =     -74.13494609 Ry
     estimated scf accuracy    <       0.00163269 Ry

     iteration #  4     ecut=    80.00 Ry     beta= 0.70
     Davidson diagonalization with overlap
     ethr =  8.16E-06,  avg # of iterations =  2.5

     total cpu time spent up to now is        4.4 secs

     total energy              =     -74.13518963 Ry
     estimated scf accuracy    <       0.00000416 Ry

     iteration #  5     ecut=    80.00 Ry     beta= 0.70
     Davidson diagonalization with overlap
     ethr =  2.08E-08,  avg # of iterations =  4.5

     total cpu time spent up to now is        4.9 secs

     total energy              =     -74.13519470 Ry
     estimated scf accuracy    <       0.00000141 Ry

     iteration #  6     ecut=    80.00 Ry     beta= 0.70
     Davidson diagonalization with overlap
     ethr =  7.07E-09,  avg # of iterations =  2.0

     total cpu time spent up to now is        5.3 secs

     total energy              =     -74.13519505 Ry
     estimated scf accuracy    <       0.00000009 Ry

     iteration #  7     ecut=    80.00 Ry     beta= 0.70
     Davidson diagonalization with overlap
     ethr =  4.55E-10,  avg # of iterations =  2.0

     total cpu time spent up to now is        5.6 secs

     End of self-consistent calculation

          k = 0.0000 0.0000 0.0000 (  3827 PWs)   bands (ev):

   -35.3128 -35.0055 -34.8897 -34.6936  -2.7283   5.1478   7.6159   8.1688
     8.1688  10.0671  10.0671  13.2615  16.9821  17.4196

          k = 0.0000 0.0000 0.1661 (  3857 PWs)   bands (ev):

   -35.2927 -35.0387 -34.8739 -34.6963  -2.7494   4.6498   8.3073   8.3073
     8.7412  10.2644  10.2644  13.0665  15.2374  15.2374

          k = 0.0000 0.0000 0.3321 (  3863 PWs)   bands (ev):

   -35.2482 -35.0974 -34.8554 -34.7009  -2.7835   4.1611   8.5701   8.5701
    10.6738  10.6738  10.8994  12.5563  13.8401  13.8403

          k = 0.0000 0.1925 0.0000 (  3829 PWs)   bands (ev):

   -35.2872 -34.9994 -34.8974 -34.7156  -2.4079   5.2319   5.9900   6.9543
     7.7457  10.7133  12.0196  13.9830  15.1903  15.6931

          k = 0.0000 0.1925 0.1661 (  3855 PWs)   bands (ev):

   -35.2668 -35.0324 -34.8821 -34.7184  -2.4263   4.7684   6.0623   7.1169
     8.7739  10.9068  12.2278  12.5928  13.5525  14.9661

          k = 0.0000 0.1925 0.3321 (  3848 PWs)   bands (ev):

   -35.2203 -35.0909 -34.8662 -34.7224  -2.4559   4.2897   6.2389   7.4402
    10.0678  11.4629  12.0068  12.0139  12.6583  14.2313

          k = 0.0000 0.3849 0.0000 (  3830 PWs)   bands (ev):

   -35.2294 -34.9869 -34.9082 -34.7710  -1.4893   3.0394   5.8450   5.9269
     8.0574  10.7011  11.3815  13.9695  14.1967  14.9639

          k = 0.0000 0.3849 0.1661 (  3837 PWs)   bands (ev):

   -35.2078 -35.0185 -34.8952 -34.7741  -1.4997   3.0685   5.4823   6.0179
     8.7368  10.3562  11.0415  12.3053  15.4853  15.9866

          k = 0.0000 0.3849 0.3321 (  3824 PWs)   bands (ev):

   -35.1551 -35.0755 -34.8898 -34.7754  -1.5146   3.0945   5.1193   6.3654
     8.4483  10.4405  10.7921  12.5097  15.9393  16.4647

          k = 0.0000-0.5774 0.0000 (  3826 PWs)   bands (ev):

   -35.1956 -34.9837 -34.9028 -34.8115  -0.5639   1.4765   5.4636   6.2921
     8.2924  10.1698  10.7009  13.2601  13.9230  14.8426

          k = 0.0000-0.5774 0.1661 (  3824 PWs)   bands (ev):

   -35.1751 -35.0021 -34.9067 -34.8098  -0.5630   1.4925   5.6394   6.0249
     7.7544  10.3539  11.5269  11.8753  14.1434  17.4139

          k = 0.0000-0.5774 0.3321 (  3818 PWs)   bands (ev):

   -35.1211 -35.0543 -34.9107 -34.8075  -0.5613   1.5187   5.6731   5.9935
     7.2038  10.3537  10.3663  13.1527  16.1049  18.0283

          k = 0.1667 0.2887 0.0000 (  3845 PWs)   bands (ev):

   -35.2453 -34.9888 -34.9069 -34.7555  -1.7803   3.9145   5.5290   5.8289
     7.9696  11.9772  12.0960  12.8541  14.6390  14.6696

          k = 0.1667 0.2887 0.1661 (  3837 PWs)   bands (ev):

   -35.2248 -35.0183 -34.8960 -34.7575  -1.7926   3.9138   5.4377   5.6672
     8.6232  11.1241  12.4637  12.8763  12.9636  15.8540

          k = 0.1667 0.2887 0.3321 (  3831 PWs)   bands (ev):

   -35.1747 -35.0774 -34.8840 -34.7607  -1.8126   3.8694   5.1349   5.9201
     9.0812  10.3135  12.3945  12.7515  13.7212  15.9695

          k = 0.1667 0.4811 0.0000 (  3840 PWs)   bands (ev):

   -35.1983 -34.9770 -34.9034 -34.8148  -0.6483   1.8528   4.6730   6.4300
     8.0350  10.4648  12.1951  13.3332  14.0093  14.4338

          k = 0.1667 0.4811 0.1661 (  3833 PWs)   bands (ev):

   -35.1773 -35.0018 -34.8981 -34.8164  -0.6494   1.8761   4.7863   6.0599
     8.0167   9.9832  12.4805  12.7681  14.9572  16.1305

          k = 0.1667 0.4811 0.3321 (  3819 PWs)   bands (ev):

   -35.1227 -35.0571 -34.8980 -34.8159  -0.6496   1.9093   4.9938   5.7060
     7.5612   9.4534  12.2944  14.1269  16.0279  17.0754

          k = 0.3333 0.5774 0.0000 (  3828 PWs)   bands (ev):

   -35.1839 -34.9674 -34.8706 -34.8706   0.5889   0.5889   3.9384   7.2699
     7.2699  10.2700  13.1409  13.1409  13.9095  16.2059

          k = 0.3333 0.5774 0.1661 (  3822 PWs)   bands (ev):

   -35.1635 -34.9883 -34.8704 -34.8704   0.6014   0.6014   4.0303   6.9823
     6.9823   9.5855  14.0324  14.0324  14.9551  16.1275

          k = 0.3333 0.5774 0.3321 (  3831 PWs)   bands (ev):

   -35.1098 -35.0428 -34.8700 -34.8700   0.6222   0.6222   4.1976   6.5965
     6.5965   8.7807  15.6884  15.6884  15.8964  16.3664

          k = 0.0000 0.1925-0.1661 (  3855 PWs)   bands (ev):

   -35.2671 -35.0308 -34.8839 -34.7178  -2.4259   4.7706   6.0674   7.1194
     8.7079  10.7657  12.0652  13.5130  13.8486  15.0435

          k = 0.0000 0.1925-0.3321 (  3848 PWs)   bands (ev):

   -35.2208 -35.0899 -34.8671 -34.7221  -2.4556   4.2911   6.2358   7.4426
    10.1339  10.8955  11.8405  12.8795  13.0118  14.2396

          k = 0.0000 0.3849-0.1661 (  3837 PWs)   bands (ev):

   -35.2099 -35.0086 -34.9067 -34.7705  -1.4976   3.0547   5.5883   6.0186
     8.1053  10.6018  12.2348  13.0187  13.2321  15.8699

          k = 0.0000 0.3849-0.3321 (  3824 PWs)   bands (ev):

   -35.1590 -35.0682 -34.8954 -34.7731  -1.5132   3.0858   5.1577   6.3661
     8.2299  10.5277  10.7768  13.8297  14.4663  16.0542

          k =-0.1667 0.4811-0.1661 (  3833 PWs)   bands (ev):

   -35.1783 -34.9963 -34.9054 -34.8135  -0.6478   1.8715   4.7912   6.1342
     7.7318  10.3177  12.4495  13.4138  13.7513  16.4179

          k =-0.1667 0.4811-0.3321 (  3819 PWs)   bands (ev):

   -35.1250 -35.0528 -34.9016 -34.8143  -0.6486   1.9063   4.9992   5.7298
     7.4677   9.5157  12.3325  14.7510  15.2500  16.7217

     the Fermi energy is    10.9656 ev

!    total energy              =     -74.13519507 Ry
     estimated scf accuracy    <          1.2E-09 Ry
     smearing contrib. (-TS)   =       0.00094433 Ry
     internal energy E=F+TS    =     -74.13613939 Ry

     The total energy is F=E-TS. E is the sum of the following terms:
     one-electron contribution =     -12.53412387 Ry
     hartree contribution      =      11.07377158 Ry
     xc contribution           =     -20.96849056 Ry
     ewald contribution        =     -51.70729655 Ry

     convergence has been achieved in   7 iterations

     Forces acting on atoms (cartesian axes, Ry/au):

     atom    1 type  1   force =     0.00000000   -0.00000000    0.05994968
     atom    2 type  1   force =    -0.00000000   -0.00000000   -0.05994968
     atom    3 type  2   force =    -0.00000000    0.00000000    0.00750307
     atom    4 type  2   force =     0.00000000    0.00000000   -0.00750307
     atom    5 type  2   force =     0.00000000   -0.00000000    0.01185547
     atom    6 type  2   force =    -0.00000000   -0.00000000   -0.01185547
     The non-local contrib.  to forces
     atom    1 type  1   force =     0.00000000   -0.00000000   -0.02752926
     atom    2 type  1   force =    -0.00000000    0.00000000    0.02752926
     atom    3 type  2   force =     0.00000000    0.00000000   -0.02832632
     atom    4 type  2   force =     0.00000000    0.00000000    0.02832632
     atom    5 type  2   force =     0.00000000    0.00000000    0.04387631
     atom    6 type  2   force =    -0.00000000   -0.00000000   -0.04387631
     The ionic contribution  to forces
     atom    1 type  1   force =     0.00000010   -0.00000006    0.28496545
     atom    2 type  1   force =    -0.00000010    0.00000006   -0.28496545
     atom    3 type  2   force =    -0.00000000    0.00000000    0.39427318
     atom    4 type  2   force =     0.00000000   -0.00000000   -0.39427318
     atom    5 type  2   force =     0.00000007   -0.00000004   -0.18141901
     atom    6 type  2   force =    -0.00000007    0.00000004    0.18141901
     The local contribution  to forces
     atom    1 type  1   force =    -0.00000002    0.00000001   -0.19631312
     atom    2 type  1   force =     0.00000002   -0.00000001    0.19631312
     atom    3 type  2   force =    -0.00000000    0.00000000   -0.35842437
     atom    4 type  2   force =    -0.00000000   -0.00000000    0.35842437
     atom    5 type  2   force =     0.00000065   -0.00000037    0.14938733
     atom    6 type  2   force =    -0.00000065    0.00000037   -0.14938733
     The core correction contribution to forces
     atom    1 type  1   force =    -0.00000000    0.00000000   -0.00115799
     atom    2 type  1   force =     0.00000000   -0.00000000    0.00115799
     atom    3 type  2   force =     0.00000000    0.00000000    0.00000000
     atom    4 type  2   force =     0.00000000    0.00000000    0.00000000
     atom    5 type  2   force =     0.00000000    0.00000000    0.00000000
     atom    6 type  2   force =     0.00000000    0.00000000    0.00000000
     The Hubbard contrib.    to forces
     atom    1 type  1   force =     0.00000000    0.00000000    0.00000000
     atom    2 type  1   force =     0.00000000    0.00000000    0.00000000
     atom    3 type  2   force =     0.00000000    0.00000000    0.00000000
     atom    4 type  2   force =     0.00000000    0.00000000    0.00000000
     atom    5 type  2   force =     0.00000000    0.00000000    0.00000000
     atom    6 type  2   force =     0.00000000    0.00000000    0.00000000
     The SCF correction term to forces
     atom    1 type  1   force =    -0.00000000    0.00000000   -0.00001541
     atom    2 type  1   force =     0.00000000   -0.00000000    0.00001541
     atom    3 type  2   force =     0.00000000   -0.00000000   -0.00001942
     atom    4 type  2   force =    -0.00000000    0.00000000    0.00001942
     atom    5 type  2   force =    -0.00000000    0.00000000    0.00001084
     atom    6 type  2   force =     0.00000000   -0.00000000   -0.00001084

     Total force =     0.087073     Total SCF correction =     0.000038


     Computing stress (Cartesian axis) and pressure

          total   stress  (Ry/bohr**3)                   (kbar)     P=      808.91
   0.00535805   0.00000000   0.00000000          788.20        0.00        0.00
   0.00000000   0.00535805   0.00000000            0.00      788.20        0.00
  -0.00000000  -0.00000000   0.00578051           -0.00       -0.00      850.34


     BFGS Geometry Optimization
     Energy error            =      0.0E+00 Ry
     Gradient error          =      6.0E-02 Ry/Bohr
     Cell gradient error     =      3.5E+02 kbar

     number of scf cycles    =   1
     number of bfgs steps    =   0

     enthalpy           new  =     -73.0569138154 Ry

     new trust radius        =       0.2120951482 bohr
ibrav =      4
 celldm(1) =      7.05463769
 celldm(3) =      1.21642381
Input lattice vectors:
     1.04897802     0.00000000    -0.00000000
    -0.52448901     0.90844162    -0.00000000
     0.00000000     0.00000000     1.27600185
New lattice vectors in INITIAL alat:
     1.04897802     0.00000000     0.00000000
    -0.52448901     0.90844162     0.00000000
     0.00000000     0.00000000     1.27600185
New lattice vectors in NEW alat (for information only):
     1.00000000     0.00000000     0.00000000
    -0.50000000     0.86602540     0.00000000
     0.00000000     0.00000000     1.21642381
Discrepancy in bohr =     0.000000    0.000000    0.000000
     new conv_thr            =       0.0000000100 Ry

     new unit-cell volume =    369.86198 a.u.^3 (    54.80789 Ang^3 )
     density =      2.54302 g/cm^3

CELL_PARAMETERS (alat=  6.72524831)
   1.048978024   0.000000000   0.000000000
  -0.524489012   0.908441617   0.000000000
   0.000000000   0.000000000   1.276001848

ATOMIC_POSITIONS (crystal)
Si            0.3333333300        0.6666666700        0.0915019202
Si            0.6666666700        0.3333333300        0.9084980798
Li           -0.0000000000        0.0000000000        0.2521823957
Li            0.0000000000        0.0000000000        0.7478176043
Li            0.3333333300        0.6666666700        0.5844567812
Li            0.6666666700        0.3333333300        0.4155432188



     Writing config-only to output data dir ./output/SiLi.save/
     NEW-OLD atomic charge density approx. for the potential
     extrapolated charge   22.84265, renormalised to   20.00000

     total cpu time spent up to now is        7.2 secs

     Self-consistent Calculation

     iteration #  1     ecut=    80.00 Ry     beta= 0.70
     Davidson diagonalization with overlap
     ethr =  1.00E-06,  avg # of iterations =  9.8

     total cpu time spent up to now is        8.2 secs

     total energy              =     -74.30915111 Ry
     estimated scf accuracy    <       0.01203910 Ry

     iteration #  2     ecut=    80.00 Ry     beta= 0.70
     Davidson diagonalization with overlap
     ethr =  6.02E-05,  avg # of iterations =  3.1

     total cpu time spent up to now is        8.6 secs

     total energy              =     -74.35988484 Ry
     estimated scf accuracy    <       0.01158522 Ry

     iteration #  3     ecut=    80.00 Ry     beta= 0.70
     Davidson diagonalization with overlap
     ethr =  5.79E-05,  avg # of iterations =  1.0

     total cpu time spent up to now is        9.0 secs

     total energy              =     -74.35962284 Ry
     estimated scf accuracy    <       0.00340489 Ry

     iteration #  4     ecut=    80.00 Ry     beta= 0.70
     Davidson diagonalization with overlap
     ethr =  1.70E-05,  avg # of iterations =  1.0

     total cpu time spent up to now is        9.2 secs

     total energy              =     -74.35838038 Ry
     estimated scf accuracy    <       0.00232293 Ry

     iteration #  5     ecut=    80.00 Ry     beta= 0.70
     Davidson diagonalization with overlap
     ethr =  1.16E-05,  avg # of iterations =  1.0

     total cpu time spent up to now is        9.6 secs

     total energy              =     -74.35832896 Ry
     estimated scf accuracy    <       0.00026476 Ry

     iteration #  6     ecut=    80.00 Ry     beta= 0.70
     Davidson diagonalization with overlap
     ethr =  1.32E-06,  avg # of iterations =  2.4

     total cpu time spent up to now is       10.0 secs

     total energy              =     -74.35837995 Ry
     estimated scf accuracy    <       0.00000827 Ry

     iteration #  7     ecut=    80.00 Ry     beta= 0.70
     Davidson diagonalization with overlap
     ethr =  4.14E-08,  avg # of iterations =  2.7

     total cpu time spent up to now is       10.3 secs

     total energy              =     -74.35837731 Ry
     estimated scf accuracy    <       0.00000583 Ry

     iteration #  8     ecut=    80.00 Ry     beta= 0.70
     Davidson diagonalization with overlap
     ethr =  2.92E-08,  avg # of iterations =  2.0

     total cpu time spent up to now is       10.7 secs

     total energy              =     -74.35837761 Ry
     estimated scf accuracy    <       0.00000060 Ry

     iteration #  9     ecut=    80.00 Ry     beta= 0.70
     Davidson diagonalization with overlap
     ethr =  3.01E-09,  avg # of iterations =  2.0

     total cpu time spent up to now is       11.0 secs

     End of self-consistent calculation

          k = 0.0000 0.0000 0.0000 (  3827 PWs)   bands (ev):

   -36.8728 -36.6812 -36.6109 -36.4882  -3.6110   3.6749   5.8900   6.7330
     6.7330   8.6670   8.6670  10.5004  14.6293  15.2452

          k = 0.0000 0.0000 0.1567 (  3857 PWs)   bands (ev):

   -36.8615 -36.7006 -36.6009 -36.4903  -3.6120   3.1161   6.8502   6.8502
     7.0157   8.8392   8.8392  10.3959  13.2790  13.2790

          k = 0.0000 0.0000 0.3135 (  3863 PWs)   bands (ev):

   -36.8374 -36.7332 -36.5889 -36.4939  -3.6138   2.5779   7.0696   7.0696
     9.0671   9.1925   9.1925  10.1844  12.0641  12.0641

          k = 0.0000 0.1835 0.0000 (  3829 PWs)   bands (ev):

   -36.8556 -36.6769 -36.6168 -36.5028  -3.3094   3.6847   4.7366   5.6825
     6.0379   8.9816  10.3549  11.9921  12.5704  13.6931

          k = 0.0000 0.1835 0.1567 (  3855 PWs)   bands (ev):

   -36.8440 -36.6965 -36.6068 -36.5050  -3.3085   3.2015   4.7564   5.8193
     7.0909   9.0499  10.5519  10.8556  11.7461  12.4760

          k = 0.0000 0.1835 0.3135 (  3848 PWs)   bands (ev):

   -36.8187 -36.7290 -36.5963 -36.5082  -3.3067   2.6945   4.8906   6.0933
     8.3264   9.8386   9.9935  10.2299  11.1096  12.2061

          k = 0.0000 0.3669 0.0000 (  3830 PWs)   bands (ev):

   -36.8159 -36.6684 -36.6258 -36.5398  -2.4450   1.7746   4.5372   4.6814
     6.3900   8.7926   9.6726  11.7346  12.0985  13.0205

          k = 0.0000 0.3669 0.1567 (  3837 PWs)   bands (ev):

   -36.8031 -36.6881 -36.6164 -36.5423  -2.4383   1.7876   4.0658   4.8294
     7.0455   8.7088   9.1006  10.5505  13.4895  13.5988

          k = 0.0000 0.3669 0.3135 (  3824 PWs)   bands (ev):

   -36.7734 -36.7197 -36.6133 -36.5436  -2.4262   1.7887   3.6858   5.1256
     6.7775   8.8895   9.2146  10.3201  13.9948  14.4016

          k = 0.0000-0.5504 0.0000 (  3826 PWs)   bands (ev):

   -36.7917 -36.6681 -36.6212 -36.5677  -1.5721   0.3189   4.3346   4.8792
     6.6247   8.5772   8.7623  11.0029  11.9342  12.8167

          k = 0.0000-0.5504 0.1567 (  3824 PWs)   bands (ev):

   -36.7793 -36.6775 -36.6254 -36.5665  -1.5587   0.3398   4.4863   4.5763
     6.1422   8.7388   9.4855  10.1534  11.8881  15.0769

          k = 0.0000-0.5504 0.3135 (  3818 PWs)   bands (ev):

   -36.7471 -36.7067 -36.6299 -36.5650  -1.5363   0.3741   4.1915   4.7881
     5.6188   8.7058   8.8292  10.9602  13.8502  15.4846

          k = 0.1589 0.2752 0.0000 (  3845 PWs)   bands (ev):

   -36.8271 -36.6692 -36.6249 -36.5293  -2.7192   2.5535   4.3515   4.4809
     6.2888  10.1296  10.1470  11.0561  12.5013  12.5865

          k = 0.1589 0.2752 0.1567 (  3837 PWs)   bands (ev):

   -36.8152 -36.6870 -36.6173 -36.5310  -2.7140   2.5148   4.0710   4.4719
     6.9616   9.3553  10.5585  10.8882  11.2127  13.6863

          k = 0.1589 0.2752 0.3135 (  3831 PWs)   bands (ev):

   -36.7873 -36.7203 -36.6093 -36.5336  -2.7053   2.4026   3.7809   4.6970
     7.4041   8.6810  10.5999  11.0901  11.5349  13.6699

          k = 0.1589 0.4587 0.0000 (  3840 PWs)   bands (ev):

   -36.7939 -36.6611 -36.6245 -36.5692  -1.6559   0.6673   3.5316   5.0282
     6.4216   8.8317  10.1850  11.1105  11.9071  12.3830

          k = 0.1589 0.4587 0.1567 (  3833 PWs)   bands (ev):

   -36.7811 -36.6764 -36.6205 -36.5707  -1.6436   0.6893   3.6294   4.6309
     6.4128   8.3879  10.4444  10.8496  12.6405  13.8866

          k = 0.1589 0.4587 0.3135 (  3819 PWs)   bands (ev):

   -36.7487 -36.7082 -36.6213 -36.5705  -1.6223   0.7223   3.7923   4.2702
     5.9826   7.8868  10.5433  11.8799  14.0396  14.7027

          k = 0.3178 0.5504 0.0000 (  3828 PWs)   bands (ev):

   -36.7836 -36.6523 -36.6061 -36.6061  -0.5055  -0.5055   2.8249   5.7893
     5.7893   8.7026  10.8995  10.8995  11.7587  14.0464

          k = 0.3178 0.5504 0.1567 (  3822 PWs)   bands (ev):

   -36.7712 -36.6649 -36.6060 -36.6060  -0.4863  -0.4863   2.9135   5.4904
     5.4904   8.0004  11.7497  11.7497  12.8589  13.9936

          k = 0.3178 0.5504 0.3135 (  3831 PWs)   bands (ev):

   -36.7386 -36.6979 -36.6059 -36.6059  -0.4542  -0.4542   3.0761   5.0946
     5.0946   7.2093  13.5298  13.5298  14.0245  14.0245

          k = 0.0000 0.1835-0.1567 (  3855 PWs)   bands (ev):

   -36.8443 -36.6953 -36.6081 -36.5046  -3.3083   3.2049   4.7643   5.8263
     6.9843   9.0885  10.3044  11.5004  12.1776  12.6529

          k = 0.0000 0.1835-0.3135 (  3848 PWs)   bands (ev):

   -36.8190 -36.7283 -36.5970 -36.5079  -3.3066   2.6963   4.8877   6.0994
     8.3151   9.2878  10.0431  11.1487  11.3715  12.1077

          k = 0.0000 0.3669-0.1567 (  3837 PWs)   bands (ev):

   -36.8047 -36.6801 -36.6256 -36.5396  -2.4374   1.7808   4.1539   4.8321
     6.4906   8.8533  10.4403  10.9896  11.1402  14.0688

          k = 0.0000 0.3669-0.3135 (  3824 PWs)   bands (ev):

   -36.7760 -36.7144 -36.6177 -36.5418  -2.4256   1.7851   3.7137   5.1280
     6.6039   8.8658   9.1871  11.5750  12.4009  14.1655

          k =-0.1589 0.4587-0.1567 (  3833 PWs)   bands (ev):

   -36.7820 -36.6714 -36.6271 -36.5684  -1.6429   0.6872   3.6337   4.6963
     6.1632   8.7103  10.4573  11.2260  11.7623  14.2112

          k =-0.1589 0.4587-0.3135 (  3819 PWs)   bands (ev):

   -36.7506 -36.7046 -36.6244 -36.5692  -1.6218   0.7210   3.7970   4.2898
     5.9033   7.9418  10.5370  12.4858  13.1852  14.4713

     the Fermi energy is     9.2335 ev

!    total energy              =     -74.35837767 Ry
     estimated scf accuracy    <          3.5E-09 Ry
     smearing contrib. (-TS)   =       0.00161810 Ry
     internal energy E=F+TS    =     -74.35999577 Ry

     The total energy is F=E-TS. E is the sum of the following terms:
     one-electron contribution =     -16.15679562 Ry
     hartree contribution      =      11.54594543 Ry
     xc contribution           =     -20.59119998 Ry
     ewald contribution        =     -49.15794560 Ry

     convergence has been achieved in   9 iterations

     Forces acting on atoms (cartesian axes, Ry/au):

     atom    1 type  1   force =    -0.00000000    0.00000000    0.01763757
     atom    2 type  1   force =     0.00000000    0.00000000   -0.01763757
     atom    3 type  2   force =     0.00000000    0.00000000   -0.00645499
     atom    4 type  2   force =     0.00000000    0.00000000    0.00645499
     atom    5 type  2   force =     0.00000000   -0.00000000    0.01652166
     atom    6 type  2   force =     0.00000000   -0.00000000   -0.01652166
     The non-local contrib.  to forces
     atom    1 type  1   force =     0.00000000   -0.00000000   -0.07093111
     atom    2 type  1   force =     0.00000000   -0.00000000    0.07093111
     atom    3 type  2   force =     0.00000000    0.00000000   -0.03108915
     atom    4 type  2   force =     0.00000000    0.00000000    0.03108915
     atom    5 type  2   force =     0.00000000    0.00000000    0.04101221
     atom    6 type  2   force =    -0.00000000   -0.00000000   -0.04101221
     The ionic contribution  to forces
     atom    1 type  1   force =     0.00000009   -0.00000005    0.19447607
     atom    2 type  1   force =    -0.00000009    0.00000005   -0.19447607
     atom    3 type  2   force =    -0.00000000    0.00000000    0.31008321
     atom    4 type  2   force =     0.00000000   -0.00000000   -0.31008321
     atom    5 type  2   force =     0.00000007   -0.00000004   -0.11574058
     atom    6 type  2   force =    -0.00000007    0.00000004    0.11574058
     The local contribution  to forces
     atom    1 type  1   force =    -0.00000001    0.00000001   -0.10816120
     atom    2 type  1   force =     0.00000001   -0.00000001    0.10816120
     atom    3 type  2   force =     0.00000000    0.00000000   -0.28542677
     atom    4 type  2   force =    -0.00000000   -0.00000000    0.28542677
     atom    5 type  2   force =     0.00000068   -0.00000039    0.09126122
     atom    6 type  2   force =    -0.00000068    0.00000039   -0.09126122
     The core correction contribution to forces
     atom    1 type  1   force =    -0.00000000    0.00000000    0.00225410
     atom    2 type  1   force =     0.00000000   -0.00000000   -0.00225410
     atom    3 type  2   force =     0.00000000    0.00000000    0.00000000
     atom    4 type  2   force =     0.00000000    0.00000000    0.00000000
     atom    5 type  2   force =     0.00000000    0.00000000    0.00000000
     atom    6 type  2   force =     0.00000000    0.00000000    0.00000000
     The Hubbard contrib.    to forces
     atom    1 type  1   force =     0.00000000    0.00000000    0.00000000
     atom    2 type  1   force =     0.00000000    0.00000000    0.00000000
     atom    3 type  2   force =     0.00000000    0.00000000    0.00000000
     atom    4 type  2   force =     0.00000000    0.00000000    0.00000000
     atom    5 type  2   force =     0.00000000    0.00000000    0.00000000
     atom    6 type  2   force =     0.00000000    0.00000000    0.00000000
     The SCF correction term to forces
     atom    1 type  1   force =    -0.00000000    0.00000000   -0.00000029
     atom    2 type  1   force =     0.00000000   -0.00000000    0.00000029
     atom    3 type  2   force =     0.00000000   -0.00000000   -0.00002229
     atom    4 type  2   force =    -0.00000000    0.00000000    0.00002229
     atom    5 type  2   force =    -0.00000000    0.00000000   -0.00001119
     atom    6 type  2   force =     0.00000000   -0.00000000    0.00001119

     Total force =     0.035376     Total SCF correction =     0.000035


     Computing stress (Cartesian axis) and pressure

          total   stress  (Ry/bohr**3)                   (kbar)     P=      442.85
   0.00291282   0.00000000   0.00000000          428.49        0.00        0.00
   0.00000000   0.00291282   0.00000000            0.00      428.49        0.00
   0.00000000   0.00000000   0.00320570            0.00        0.00      471.58

     Energy error            =      4.4E-02 Ry
     Gradient error          =      1.8E-02 Ry/Bohr
     Cell gradient error     =      7.2E+01 kbar

     number of scf cycles    =   2
     number of bfgs steps    =   1

     enthalpy           old  =     -73.0569138154 Ry
     enthalpy           new  =     -73.1012423624 Ry

     CASE: enthalpy          _new < enthalpy          _old

     new trust radius        =       0.0386020651 bohr
ibrav =      4
 celldm(1) =      6.98383733
 celldm(3) =      1.22500675
Input lattice vectors:
     1.03845048     0.00000000    -0.00000000
    -0.51922524     0.89932450    -0.00000000
     0.00000000     0.00000000     1.27210885
New lattice vectors in INITIAL alat:
     1.03845048     0.00000000     0.00000000
    -0.51922524     0.89932450     0.00000000
     0.00000000     0.00000000     1.27210885
New lattice vectors in NEW alat (for information only):
     1.00000000     0.00000000     0.00000000
    -0.50000000     0.86602540     0.00000000
     0.00000000     0.00000000     1.22500675
Discrepancy in bohr =     0.000000    0.000000    0.000000
     new conv_thr            =       0.0000000018 Ry

     new unit-cell volume =    361.36947 a.u.^3 (    53.54943 Ang^3 )
     density =      2.60278 g/cm^3

CELL_PARAMETERS (alat=  6.72524831)
   1.038450479   0.000000000   0.000000000
  -0.519225240   0.899324496   0.000000000
   0.000000000   0.000000000   1.272108850

ATOMIC_POSITIONS (crystal)
Si            0.3333333300        0.6666666700        0.0936568534
Si            0.6666666700        0.3333333300        0.9063431466
Li           -0.0000000000        0.0000000000        0.2514759317
Li            0.0000000000        0.0000000000        0.7485240683
Li            0.3333333300        0.6666666700        0.5863516979
Li            0.6666666700        0.3333333300        0.4136483021



     Writing config-only to output data dir ./output/SiLi.save/
     NEW-OLD atomic charge density approx. for the potential
     extrapolated charge   19.53044, renormalised to   20.00000

     total cpu time spent up to now is       12.5 secs

     Self-consistent Calculation

     iteration #  1     ecut=    80.00 Ry     beta= 0.70
     Davidson diagonalization with overlap
     ethr =  1.00E-06,  avg # of iterations =  6.0

     total cpu time spent up to now is       13.1 secs

     total energy              =     -74.33182319 Ry
     estimated scf accuracy    <       0.00038154 Ry

     iteration #  2     ecut=    80.00 Ry     beta= 0.70
     Davidson diagonalization with overlap
     ethr =  1.91E-06,  avg # of iterations =  3.1

     total cpu time spent up to now is       13.6 secs

     total energy              =     -74.33315326 Ry
     estimated scf accuracy    <       0.00024971 Ry

     iteration #  3     ecut=    80.00 Ry     beta= 0.70
     Davidson diagonalization with overlap
     ethr =  1.25E-06,  avg # of iterations =  1.0

     total cpu time spent up to now is       13.9 secs

     total energy              =     -74.33312766 Ry
     estimated scf accuracy    <       0.00006377 Ry

     iteration #  4     ecut=    80.00 Ry     beta= 0.70
     Davidson diagonalization with overlap
     ethr =  3.19E-07,  avg # of iterations =  1.1

     total cpu time spent up to now is       14.2 secs

     total energy              =     -74.33312521 Ry
     estimated scf accuracy    <       0.00000875 Ry

     iteration #  5     ecut=    80.00 Ry     beta= 0.70
     Davidson diagonalization with overlap
     ethr =  4.38E-08,  avg # of iterations =  2.1

     total cpu time spent up to now is       14.5 secs

     total energy              =     -74.33312656 Ry
     estimated scf accuracy    <       0.00000051 Ry

     iteration #  6     ecut=    80.00 Ry     beta= 0.70
     Davidson diagonalization with overlap
     ethr =  2.56E-09,  avg # of iterations =  2.2

     total cpu time spent up to now is       14.9 secs

     total energy              =     -74.33312665 Ry
     estimated scf accuracy    <       0.00000002 Ry

     iteration #  7     ecut=    80.00 Ry     beta= 0.70
     Davidson diagonalization with overlap
     ethr =  1.07E-10,  avg # of iterations =  2.9

     total cpu time spent up to now is       15.2 secs

     End of self-consistent calculation

          k = 0.0000 0.0000 0.0000 (  3827 PWs)   bands (ev):

   -36.6466 -36.4488 -36.3578 -36.2255  -3.4820   3.8513   6.0299   7.0217
     7.0217   8.9218   8.9218  10.9831  15.0671  15.5185

          k = 0.0000 0.0000 0.1572 (  3857 PWs)   bands (ev):

   -36.6344 -36.4687 -36.3481 -36.2275  -3.4849   3.2907   7.1406   7.1406
     7.1638   9.0943   9.0943  10.8682  13.5661  13.5661

          k = 0.0000 0.0000 0.3144 (  3863 PWs)   bands (ev):

   -36.6078 -36.5041 -36.3359 -36.2310  -3.4897   2.7553   7.3637   7.3637
     9.2494   9.4479   9.4479  10.5777  12.3422  12.3422

          k = 0.0000 0.1853 0.0000 (  3829 PWs)   bands (ev):

   -36.6284 -36.4440 -36.3638 -36.2411  -3.1756   3.8789   4.9685   5.9302
     6.1806   9.2911  10.6619  12.3010  13.0143  13.9277

          k = 0.0000 0.1853 0.1572 (  3855 PWs)   bands (ev):

   -36.6159 -36.4640 -36.3544 -36.2432  -3.1765   3.3841   5.0003   6.0692
     7.2436   9.3605  10.8560  11.1178  12.0024  12.9301

          k = 0.0000 0.1853 0.3144 (  3848 PWs)   bands (ev):

   -36.5881 -36.4993 -36.3438 -36.2463  -3.1778   2.8758   5.1426   6.3473
     8.5451  10.1184  10.2259  10.4851  11.4075  12.5575

          k = 0.0000 0.3706 0.0000 (  3830 PWs)   bands (ev):

   -36.5870 -36.4339 -36.3733 -36.2806  -2.2974   1.9882   4.7037   4.9041
     6.5423   9.1200   9.9116  12.0020  12.3420  13.3147

          k = 0.0000 0.3706 0.1572 (  3837 PWs)   bands (ev):

   -36.5734 -36.4537 -36.3648 -36.2829  -2.2924   2.0001   4.2329   5.0540
     7.2312   8.9332   9.4103  10.7803  13.8489  13.8726

          k = 0.0000 0.3706 0.3144 (  3824 PWs)   bands (ev):

   -36.5413 -36.4884 -36.3611 -36.2840  -2.2830   1.9977   3.8628   5.3541
     6.9868   9.1666   9.4381  10.5753  14.3627  14.6417

          k = 0.0000-0.5560 0.0000 (  3826 PWs)   bands (ev):

   -36.5622 -36.4310 -36.3705 -36.3097  -1.4098   0.5083   4.5495   5.0376
     6.8005   8.8046   9.0657  11.2710  12.1427  13.1044

          k = 0.0000-0.5560 0.1572 (  3824 PWs)   bands (ev):

   -36.5494 -36.4423 -36.3733 -36.3086  -1.3977   0.5280   4.7028   4.7422
     6.3278   9.0361   9.7241  10.3776  12.1473  15.3641

          k = 0.0000-0.5560 0.3144 (  3818 PWs)   bands (ev):

   -36.5158 -36.4742 -36.3765 -36.3071  -1.3775   0.5601   4.3651   5.0086
     5.8128   9.0067   9.0455  11.2265  14.0961  15.7266

          k = 0.1605 0.2780 0.0000 (  3845 PWs)   bands (ev):

   -36.5985 -36.4356 -36.3719 -36.2695  -2.5760   2.7822   4.5667   4.6535
     6.4373  10.3958  10.4835  11.3799  12.7408  12.8625

          k = 0.1605 0.2780 0.1572 (  3837 PWs)   bands (ev):

   -36.5858 -36.4536 -36.3650 -36.2710  -2.5725   2.7377   4.2510   4.6881
     7.1235   9.6064  10.8905  11.1434  11.5377  14.0040

          k = 0.1605 0.2780 0.3144 (  3831 PWs)   bands (ev):

   -36.5555 -36.4896 -36.3569 -36.2735  -2.5667   2.6138   3.9783   4.9133
     7.6048   8.9081  10.9135  11.3651  11.8358  13.9672

          k = 0.1605 0.4633 0.0000 (  3840 PWs)   bands (ev):

   -36.5643 -36.4260 -36.3715 -36.3117  -1.4951   0.8658   3.7342   5.1929
     6.5856   9.0446  10.5189  11.3748  12.1343  12.6753

          k = 0.1605 0.4633 0.1572 (  3833 PWs)   bands (ev):

   -36.5510 -36.4416 -36.3680 -36.3129  -1.4842   0.8870   3.8306   4.8009
     6.5968   8.5919  10.7773  11.0959  12.9145  14.1933

          k = 0.1605 0.4633 0.3144 (  3819 PWs)   bands (ev):

   -36.5170 -36.4758 -36.3680 -36.3127  -1.4652   0.9183   3.9881   4.4531
     6.1773   8.0994  10.8672  12.1390  14.4138  14.9374

          k = 0.3210 0.5560 0.0000 (  3828 PWs)   bands (ev):

   -36.5537 -36.4183 -36.3504 -36.3504  -0.3248  -0.3248   3.0157   5.9559
     5.9559   8.8962  11.1700  11.1700  11.9924  14.4514

          k = 0.3210 0.5560 0.1572 (  3822 PWs)   bands (ev):

   -36.5409 -36.4314 -36.3503 -36.3503  -0.3066  -0.3066   3.1029   5.6644
     5.6644   8.2037  12.0162  12.0162  13.0933  14.3948

          k = 0.3210 0.5560 0.3144 (  3831 PWs)   bands (ev):

   -36.5072 -36.4654 -36.3502 -36.3502  -0.2761  -0.2761   3.2627   5.2765
     5.2765   7.4206  13.8309  13.8309  14.3721  14.3721

          k = 0.0000 0.1853-0.1572 (  3855 PWs)   bands (ev):

   -36.6162 -36.4629 -36.3556 -36.2428  -3.1763   3.3876   5.0099   6.0757
     7.1365   9.3921  10.6049  11.7807  12.4353  13.1023

          k = 0.0000 0.1853-0.3144 (  3848 PWs)   bands (ev):

   -36.5885 -36.4986 -36.3444 -36.2460  -3.1777   2.8775   5.1403   6.3531
     8.5145   9.5747  10.3088  11.3807  11.6578  12.3918

          k = 0.0000 0.3706-0.1572 (  3837 PWs)   bands (ev):

   -36.5750 -36.4468 -36.3726 -36.2804  -2.2913   1.9921   4.3294   5.0564
     6.6511   9.1692  10.6785  11.2530  11.4007  14.4297

          k = 0.0000 0.3706-0.3144 (  3824 PWs)   bands (ev):

   -36.5441 -36.4833 -36.3651 -36.2824  -2.2823   1.9933   3.8944   5.3563
     6.7959   9.1681   9.4126  11.8419  12.6604  14.5329

          k =-0.1605 0.4633-0.1572 (  3833 PWs)   bands (ev):

   -36.5519 -36.4377 -36.3731 -36.3109  -1.4834   0.8845   3.8360   4.8696
     6.3353   8.9250  10.8029  11.4739  12.0142  14.4910

          k =-0.1605 0.4633-0.3144 (  3819 PWs)   bands (ev):

   -36.5188 -36.4725 -36.3706 -36.3115  -1.4646   0.9168   3.9948   4.4726
     6.0927   8.1577  10.8700  12.7379  13.4669  14.8741

     the Fermi energy is     9.5079 ev

!    total energy              =     -74.33312665 Ry
     estimated scf accuracy    <          9.9E-10 Ry
     smearing contrib. (-TS)   =       0.00115673 Ry
     internal energy E=F+TS    =     -74.33428338 Ry

     The total energy is F=E-TS. E is the sum of the following terms:
     one-electron contribution =     -15.62589259 Ry
     hartree contribution      =      11.47373719 Ry
     xc contribution           =     -20.64395376 Ry
     ewald contribution        =     -49.53817422 Ry

     convergence has been achieved in   7 iterations

     Forces acting on atoms (cartesian axes, Ry/au):

     atom    1 type  1   force =     0.00000000    0.00000000    0.01637161
     atom    2 type  1   force =    -0.00000000   -0.00000000   -0.01637161
     atom    3 type  2   force =     0.00000000    0.00000000   -0.00322783
     atom    4 type  2   force =     0.00000000    0.00000000    0.00322783
     atom    5 type  2   force =    -0.00000000   -0.00000000    0.01498567
     atom    6 type  2   force =    -0.00000000   -0.00000000   -0.01498567
     The non-local contrib.  to forces
     atom    1 type  1   force =     0.00000000    0.00000000   -0.07386278
     atom    2 type  1   force =     0.00000000   -0.00000000    0.07386278
     atom    3 type  2   force =     0.00000000    0.00000000   -0.03142193
     atom    4 type  2   force =    -0.00000000   -0.00000000    0.03142193
     atom    5 type  2   force =     0.00000000    0.00000000    0.04021645
     atom    6 type  2   force =    -0.00000000    0.00000000   -0.04021645
     The ionic contribution  to forces
     atom    1 type  1   force =     0.00000009   -0.00000005    0.19954953
     atom    2 type  1   force =    -0.00000009    0.00000005   -0.19954953
     atom    3 type  2   force =    -0.00000000    0.00000000    0.32934621
     atom    4 type  2   force =     0.00000000   -0.00000000   -0.32934621
     atom    5 type  2   force =     0.00000007   -0.00000004   -0.12790392
     atom    6 type  2   force =    -0.00000007    0.00000004    0.12790392
     The local contribution  to forces
     atom    1 type  1   force =    -0.00000001    0.00000001   -0.11157302
     atom    2 type  1   force =     0.00000001   -0.00000001    0.11157302
     atom    3 type  2   force =    -0.00000000    0.00000000   -0.30116670
     atom    4 type  2   force =     0.00000000   -0.00000000    0.30116670
     atom    5 type  2   force =     0.00000067   -0.00000039    0.10267914
     atom    6 type  2   force =    -0.00000067    0.00000039   -0.10267914
     The core correction contribution to forces
     atom    1 type  1   force =    -0.00000000    0.00000000    0.00225347
     atom    2 type  1   force =     0.00000000   -0.00000000   -0.00225347
     atom    3 type  2   force =     0.00000000    0.00000000    0.00000000
     atom    4 type  2   force =     0.00000000    0.00000000    0.00000000
     atom    5 type  2   force =     0.00000000    0.00000000    0.00000000
     atom    6 type  2   force =     0.00000000    0.00000000    0.00000000
     The Hubbard contrib.    to forces
     atom    1 type  1   force =     0.00000000    0.00000000    0.00000000
     atom    2 type  1   force =     0.00000000    0.00000000    0.00000000
     atom    3 type  2   force =     0.00000000    0.00000000    0.00000000
     atom    4 type  2   force =     0.00000000    0.00000000    0.00000000
     atom    5 type  2   force =     0.00000000    0.00000000    0.00000000
     atom    6 type  2   force =     0.00000000    0.00000000    0.00000000
     The SCF correction term to forces
     atom    1 type  1   force =    -0.00000000    0.00000000    0.00000441
     atom    2 type  1   force =     0.00000000   -0.00000000   -0.00000441
     atom    3 type  2   force =     0.00000000   -0.00000000    0.00001460
     atom    4 type  2   force =    -0.00000000    0.00000000   -0.00001460
     atom    5 type  2   force =    -0.00000000    0.00000000   -0.00000600
     atom    6 type  2   force =     0.00000000   -0.00000000    0.00000600

     Total force =     0.031718     Total SCF correction =     0.000023


     Computing stress (Cartesian axis) and pressure

          total   stress  (Ry/bohr**3)                   (kbar)     P=      486.59
   0.00326632   0.00000000   0.00000000          480.49        0.00        0.00
   0.00000000   0.00326632   0.00000000            0.00      480.49        0.00
   0.00000000   0.00000000   0.00339065            0.00        0.00      498.78

     Energy error            =      3.6E-03 Ry
     Gradient error          =      1.6E-02 Ry/Bohr
     Cell gradient error     =      2.0E+01 kbar

     number of scf cycles    =   3
     number of bfgs steps    =   2

     enthalpy           old  =     -73.1012423624 Ry
     enthalpy           new  =     -73.1048567803 Ry

     CASE: enthalpy          _new < enthalpy          _old

     new trust radius        =       0.0376228714 bohr
ibrav =      4
 celldm(1) =      6.93321317
 celldm(3) =      1.23447367
Input lattice vectors:
     1.03092300     0.00000000     0.00000000
    -0.51546150     0.89280551     0.00000000
     0.00000000     0.00000000     1.27264730
New lattice vectors in INITIAL alat:
     1.03092300     0.00000000     0.00000000
    -0.51546150     0.89280551     0.00000000
     0.00000000     0.00000000     1.27264730
New lattice vectors in NEW alat (for information only):
     1.00000000     0.00000000     0.00000000
    -0.50000000     0.86602540     0.00000000
     0.00000000     0.00000000     1.23447367
Discrepancy in bohr =     0.000000    0.000000    0.000000
     new conv_thr            =       0.0000000016 Ry

     new unit-cell volume =    356.30025 a.u.^3 (    52.79825 Ang^3 )
     density =      2.63981 g/cm^3

CELL_PARAMETERS (alat=  6.72524831)
   1.030923001   0.000000000   0.000000000
  -0.515461500   0.892805508   0.000000000
   0.000000000   0.000000000   1.272647303

ATOMIC_POSITIONS (crystal)
Si            0.3333333300        0.6666666700        0.0980544900
Si            0.6666666700        0.3333333300        0.9019455100
Li           -0.0000000000        0.0000000000        0.2506033699
Li            0.0000000000        0.0000000000        0.7493966301
Li            0.3333333300        0.6666666700        0.5902100019
Li            0.6666666700        0.3333333300        0.4097899981



     Writing config-only to output data dir ./output/SiLi.save/
     NEW-OLD atomic charge density approx. for the potential
     extrapolated charge   19.71573, renormalised to   20.00000

     total cpu time spent up to now is       16.6 secs

     Self-consistent Calculation

     iteration #  1     ecut=    80.00 Ry     beta= 0.70
     Davidson diagonalization with overlap
     ethr =  1.00E-06,  avg # of iterations =  6.1

     total cpu time spent up to now is       17.2 secs

     total energy              =     -74.31736687 Ry
     estimated scf accuracy    <       0.00014150 Ry

     iteration #  2     ecut=    80.00 Ry     beta= 0.70
     Davidson diagonalization with overlap
     ethr =  7.08E-07,  avg # of iterations =  3.0

     total cpu time spent up to now is       17.6 secs

     total energy              =     -74.31785552 Ry
     estimated scf accuracy    <       0.00010811 Ry

     iteration #  3     ecut=    80.00 Ry     beta= 0.70
     Davidson diagonalization with overlap
     ethr =  5.41E-07,  avg # of iterations =  1.0

     total cpu time spent up to now is       17.9 secs

     total energy              =     -74.31785158 Ry
     estimated scf accuracy    <       0.00002646 Ry

     iteration #  4     ecut=    80.00 Ry     beta= 0.70
     Davidson diagonalization with overlap
     ethr =  1.32E-07,  avg # of iterations =  1.0

     total cpu time spent up to now is       18.2 secs

     total energy              =     -74.31784643 Ry
     estimated scf accuracy    <       0.00001110 Ry

     iteration #  5     ecut=    80.00 Ry     beta= 0.70
     Davidson diagonalization with overlap
     ethr =  5.55E-08,  avg # of iterations =  2.0

     total cpu time spent up to now is       18.5 secs

     total energy              =     -74.31784744 Ry
     estimated scf accuracy    <       0.00000040 Ry

     iteration #  6     ecut=    80.00 Ry     beta= 0.70
     Davidson diagonalization with overlap
     ethr =  2.01E-09,  avg # of iterations =  2.8

     total cpu time spent up to now is       18.9 secs

     total energy              =     -74.31784754 Ry
     estimated scf accuracy    <          9.5E-09 Ry

     iteration #  7     ecut=    80.00 Ry     beta= 0.70
     Davidson diagonalization with overlap
     ethr =  4.76E-11,  avg # of iterations =  3.4

     total cpu time spent up to now is       19.2 secs

     total energy              =     -74.31784754 Ry
     estimated scf accuracy    <          2.5E-09 Ry

     iteration #  8     ecut=    80.00 Ry     beta= 0.70
     Davidson diagonalization with overlap
     ethr =  1.27E-11,  avg # of iterations =  2.0

     total cpu time spent up to now is       19.6 secs

     End of self-consistent calculation

          k = 0.0000 0.0000 0.0000 (  3827 PWs)   bands (ev):

   -36.5147 -36.3202 -36.1966 -36.0584  -3.3798   3.9529   6.0306   7.2563
     7.2563   9.1018   9.1018  11.3229  15.4075  15.6389

          k = 0.0000 0.0000 0.1572 (  3857 PWs)   bands (ev):

   -36.5016 -36.3398 -36.1883 -36.0603  -3.3830   3.3723   7.1879   7.3771
     7.3771   9.2736   9.2736  11.2013  13.7320  13.7320

          k = 0.0000 0.0000 0.3143 (  3863 PWs)   bands (ev):

   -36.4723 -36.3773 -36.1771 -36.0634  -3.3883   2.8289   7.6048   7.6048
     9.3070   9.6253   9.6253  10.8376  12.5081  12.5081

          k = 0.0000 0.1867 0.0000 (  3829 PWs)   bands (ev):

   -36.4966 -36.3150 -36.2023 -36.0745  -3.0705   3.9843   5.1583   6.1254
     6.1873   9.5113  10.8835  12.4993  13.3147  14.0261

          k = 0.0000 0.1867 0.1572 (  3855 PWs)   bands (ev):

   -36.4833 -36.3344 -36.1944 -36.0764  -3.0716   3.4670   5.1958   6.2664
     7.2764   9.5699  11.0699  11.2879  12.1540  13.2590

          k = 0.0000 0.1867 0.3143 (  3848 PWs)   bands (ev):

   -36.4528 -36.3720 -36.1847 -36.0791  -3.0733   2.9495   5.3459   6.5496
     8.6466  10.3035  10.3502  10.6217  11.6391  12.7942

          k = 0.0000 0.3734 0.0000 (  3830 PWs)   bands (ev):

   -36.4561 -36.3036 -36.2109 -36.1149  -2.1835   2.1427   4.8016   5.0783
     6.5663   9.3458  10.0769  12.1307  12.4323  13.5226

          k = 0.0000 0.3734 0.1572 (  3837 PWs)   bands (ev):

   -36.4422 -36.3222 -36.2044 -36.1169  -2.1788   2.1504   4.3223   5.2299
     7.2960   9.0590   9.6399  10.8953  13.9992  14.1108

          k = 0.0000 0.3734 0.3143 (  3824 PWs)   bands (ev):

   -36.4082 -36.3591 -36.2007 -36.1178  -2.1698   2.1378   3.9631   5.5345
     7.0841   9.3779   9.5564  10.7023  14.6419  14.7646

          k = 0.0000-0.5600 0.0000 (  3826 PWs)   bands (ev):

   -36.4328 -36.2984 -36.2089 -36.1441  -1.2871   0.6504   4.7173   5.1148
     6.8569   8.9260   9.3047  11.4029  12.2046  13.3006

          k = 0.0000-0.5600 0.1572 (  3824 PWs)   bands (ev):

   -36.4199 -36.3108 -36.2103 -36.1432  -1.2752   0.6689   4.8209   4.8723
     6.4058   9.2632   9.8484  10.4901  12.2746  15.5199

          k = 0.0000-0.5600 0.3143 (  3818 PWs)   bands (ev):

   -36.3860 -36.3442 -36.2121 -36.1419  -1.2553   0.6989   4.4463   5.1825
     5.9045   9.1595   9.2405  11.3647  14.2198  15.7950

          k = 0.1617 0.2800 0.0000 (  3845 PWs)   bands (ev):

   -36.4672 -36.3061 -36.2094 -36.1037  -2.4648   2.9397   4.7336   4.7690
     6.4540  10.5632  10.7083  11.6221  12.8274  13.0313

          k = 0.1617 0.2800 0.1572 (  3837 PWs)   bands (ev):

   -36.4540 -36.3234 -36.2040 -36.1049  -2.4616   2.8804   4.3689   4.8565
     7.1653   9.7557  11.1214  11.2653  11.7988  14.2065

          k = 0.1617 0.2800 0.3143 (  3831 PWs)   bands (ev):

   -36.4214 -36.3611 -36.1969 -36.1070  -2.4562   2.7301   4.1211   5.0830
     7.6896   9.0335  11.1267  11.5518  12.0319  14.1312

          k = 0.1617 0.4667 0.0000 (  3840 PWs)   bands (ev):

   -36.4345 -36.2955 -36.2079 -36.1462  -1.3731   1.0119   3.8912   5.2827
     6.6330   9.1747  10.7418  11.5008  12.2113  12.8745

          k = 0.1617 0.4667 0.1572 (  3833 PWs)   bands (ev):

   -36.4212 -36.3105 -36.2053 -36.1472  -1.3625   1.0318   3.9850   4.8898
     6.6721   8.7074  10.9708  11.2571  13.0461  14.3598

          k = 0.1617 0.4667 0.3143 (  3819 PWs)   bands (ev):

   -36.3867 -36.3457 -36.2048 -36.1470  -1.3437   1.0605   4.1291   4.5609
     6.2687   8.2143  11.1108  12.2600  14.6917  15.0266

          k = 0.3233 0.5600 0.0000 (  3828 PWs)   bands (ev):

   -36.4244 -36.2891 -36.1850 -36.1850  -0.1903  -0.1903   3.1663   6.0311
     6.0311   9.0097  11.2966  11.2966  12.0749  14.7607

          k = 0.3233 0.5600 0.1572 (  3822 PWs)   bands (ev):

   -36.4116 -36.3021 -36.1849 -36.1849  -0.1724  -0.1724   3.2531   5.7453
     5.7453   8.3168  12.1351  12.1351  13.1888  14.7020

          k = 0.3233 0.5600 0.3143 (  3831 PWs)   bands (ev):

   -36.3780 -36.3360 -36.1847 -36.1847  -0.1426  -0.1426   3.4122   5.3636
     5.3636   7.5359  13.9596  13.9596  14.6347  14.6347

          k = 0.0000 0.1867-0.1572 (  3855 PWs)   bands (ev):

   -36.4836 -36.3335 -36.1954 -36.0760  -3.0714   3.4707   5.2087   6.2728
     7.1635   9.6126  10.8083  11.9317  12.5988  13.4407

          k = 0.0000 0.1867-0.3143 (  3848 PWs)   bands (ev):

   -36.4532 -36.3713 -36.1852 -36.0789  -3.0732   2.9513   5.3446   6.5553
     8.5889   9.7837  10.4594  11.4957  11.8764  12.5564

          k = 0.0000 0.3734-0.1572 (  3837 PWs)   bands (ev):

   -36.4438 -36.3172 -36.2100 -36.1147  -2.1776   2.1414   4.4288   5.2322
     6.6957   9.4055  10.8010  11.3896  11.5573  14.7098

          k = 0.0000 0.3734-0.3143 (  3824 PWs)   bands (ev):

   -36.4110 -36.3546 -36.2038 -36.1164  -2.1691   2.1328   3.9983   5.5367
     6.8780   9.3993   9.5324  11.9635  12.8234  14.8166

          k =-0.1617 0.4667-0.1572 (  3833 PWs)   bands (ev):

   -36.4219 -36.3080 -36.2087 -36.1456  -1.3616   1.0291   3.9921   4.9621
     6.4003   9.0492  11.0421  11.5840  12.1556  14.6196

          k =-0.1617 0.4667-0.3143 (  3819 PWs)   bands (ev):

   -36.3883 -36.3432 -36.2067 -36.1460  -1.3432   1.0588   4.1390   4.5788
     6.1793   8.2751  11.1213  12.8402  13.6454  15.1736

     the Fermi energy is     9.6930 ev

!    total energy              =     -74.31784754 Ry
     estimated scf accuracy    <          2.0E-10 Ry
     smearing contrib. (-TS)   =       0.00068529 Ry
     internal energy E=F+TS    =     -74.31853283 Ry

     The total energy is F=E-TS. E is the sum of the following terms:
     one-electron contribution =     -15.30765556 Ry
     hartree contribution      =      11.43312481 Ry
     xc contribution           =     -20.67341116 Ry
     ewald contribution        =     -49.77059092 Ry

     convergence has been achieved in   8 iterations

     Forces acting on atoms (cartesian axes, Ry/au):

     atom    1 type  1   force =    -0.00000000    0.00000000    0.01021164
     atom    2 type  1   force =     0.00000000    0.00000000   -0.01021164
     atom    3 type  2   force =    -0.00000000   -0.00000000    0.00022170
     atom    4 type  2   force =     0.00000000    0.00000000   -0.00022170
     atom    5 type  2   force =     0.00000000    0.00000000    0.01101354
     atom    6 type  2   force =    -0.00000000   -0.00000000   -0.01101354
     The non-local contrib.  to forces
     atom    1 type  1   force =     0.00000000   -0.00000000   -0.08410472
     atom    2 type  1   force =     0.00000000    0.00000000    0.08410472
     atom    3 type  2   force =    -0.00000000   -0.00000000   -0.03269186
     atom    4 type  2   force =     0.00000000    0.00000000    0.03269186
     atom    5 type  2   force =     0.00000000    0.00000000    0.03810295
     atom    6 type  2   force =     0.00000000   -0.00000000   -0.03810295
     The ionic contribution  to forces
     atom    1 type  1   force =     0.00000009   -0.00000005    0.19549953
     atom    2 type  1   force =    -0.00000009    0.00000005   -0.19549953
     atom    3 type  2   force =    -0.00000000    0.00000000    0.34445483
     atom    4 type  2   force =     0.00000000   -0.00000000   -0.34445483
     atom    5 type  2   force =     0.00000007   -0.00000004   -0.14541872
     atom    6 type  2   force =    -0.00000007    0.00000004    0.14541872
     The local contribution  to forces
     atom    1 type  1   force =    -0.00000001    0.00000001   -0.10392598
     atom    2 type  1   force =     0.00000001   -0.00000001    0.10392598
     atom    3 type  2   force =    -0.00000000    0.00000000   -0.31154898
     atom    4 type  2   force =     0.00000000   -0.00000000    0.31154898
     atom    5 type  2   force =     0.00000067   -0.00000039    0.11833189
     atom    6 type  2   force =    -0.00000067    0.00000039   -0.11833189
     The core correction contribution to forces
     atom    1 type  1   force =    -0.00000000    0.00000000    0.00273862
     atom    2 type  1   force =     0.00000000   -0.00000000   -0.00273862
     atom    3 type  2   force =     0.00000000    0.00000000    0.00000000
     atom    4 type  2   force =     0.00000000    0.00000000    0.00000000
     atom    5 type  2   force =     0.00000000    0.00000000    0.00000000
     atom    6 type  2   force =     0.00000000    0.00000000    0.00000000
     The Hubbard contrib.    to forces
     atom    1 type  1   force =     0.00000000    0.00000000    0.00000000
     atom    2 type  1   force =     0.00000000    0.00000000    0.00000000
     atom    3 type  2   force =     0.00000000    0.00000000    0.00000000
     atom    4 type  2   force =     0.00000000    0.00000000    0.00000000
     atom    5 type  2   force =     0.00000000    0.00000000    0.00000000
     atom    6 type  2   force =     0.00000000    0.00000000    0.00000000
     The SCF correction term to forces
     atom    1 type  1   force =    -0.00000000    0.00000000    0.00000418
     atom    2 type  1   force =     0.00000000   -0.00000000   -0.00000418
     atom    3 type  2   force =     0.00000000   -0.00000000    0.00000771
     atom    4 type  2   force =    -0.00000000    0.00000000   -0.00000771
     atom    5 type  2   force =    -0.00000000    0.00000000   -0.00000258
     atom    6 type  2   force =     0.00000000   -0.00000000    0.00000258

     Total force =     0.021243     Total SCF correction =     0.000013


     Computing stress (Cartesian axis) and pressure

          total   stress  (Ry/bohr**3)                   (kbar)     P=      512.52
   0.00351119   0.00000000   0.00000000          516.51        0.00        0.00
   0.00000000   0.00351119   0.00000000            0.00      516.51        0.00
   0.00000000   0.00000000   0.00342980            0.00        0.00      504.54

     Energy error            =      2.0E-03 Ry
     Gradient error          =      1.1E-02 Ry/Bohr
     Cell gradient error     =      1.7E+01 kbar

     number of scf cycles    =   4
     number of bfgs steps    =   3

     enthalpy           old  =     -73.1048567803 Ry
     enthalpy           new  =     -73.1068076115 Ry

     CASE: enthalpy          _new < enthalpy          _old

     new trust radius        =       0.0343461386 bohr
ibrav =      4
 celldm(1) =      6.92497612
 celldm(3) =      1.23659093
Input lattice vectors:
     1.02969821     0.00000000     0.00000000
    -0.51484910     0.89174480     0.00000000
     0.00000000     0.00000000     1.27331546
New lattice vectors in INITIAL alat:
     1.02969821     0.00000000     0.00000000
    -0.51484910     0.89174480     0.00000000
     0.00000000     0.00000000     1.27331546
New lattice vectors in NEW alat (for information only):
     1.00000000     0.00000000     0.00000000
    -0.50000000     0.86602540     0.00000000
     0.00000000     0.00000000     1.23659093
Discrepancy in bohr =     0.000000    0.000000    0.000000
     new conv_thr            =       0.0000000011 Ry

     new unit-cell volume =    355.64076 a.u.^3 (    52.70052 Ang^3 )
     density =      2.64471 g/cm^3

CELL_PARAMETERS (alat=  6.72524831)
   1.029698206   0.000000000   0.000000000
  -0.514849103   0.891744805   0.000000000
   0.000000000   0.000000000   1.273315464

ATOMIC_POSITIONS (crystal)
Si            0.3333333300        0.6666666700        0.1020674195
Si            0.6666666700        0.3333333300        0.8979325805
Li           -0.0000000000       -0.0000000000        0.2501457269
Li            0.0000000000        0.0000000000        0.7498542731
Li            0.3333333300        0.6666666700        0.5940829212
Li            0.6666666700        0.3333333300        0.4059170788



     Writing config-only to output data dir ./output/SiLi.save/
     NEW-OLD atomic charge density approx. for the potential
     extrapolated charge   19.96295, renormalised to   20.00000

     total cpu time spent up to now is       20.9 secs

     Self-consistent Calculation

     iteration #  1     ecut=    80.00 Ry     beta= 0.70
     Davidson diagonalization with overlap
     ethr =  1.00E-06,  avg # of iterations =  5.1

     total cpu time spent up to now is       21.5 secs

     total energy              =     -74.31653609 Ry
     estimated scf accuracy    <       0.00002852 Ry

     iteration #  2     ecut=    80.00 Ry     beta= 0.70
     Davidson diagonalization with overlap
     ethr =  1.43E-07,  avg # of iterations =  2.6

     total cpu time spent up to now is       21.9 secs

     total energy              =     -74.31654943 Ry
     estimated scf accuracy    <       0.00003050 Ry

     iteration #  3     ecut=    80.00 Ry     beta= 0.70
     Davidson diagonalization with overlap
     ethr =  1.43E-07,  avg # of iterations =  2.0

     total cpu time spent up to now is       22.2 secs

     total energy              =     -74.31655506 Ry
     estimated scf accuracy    <       0.00000107 Ry

     iteration #  4     ecut=    80.00 Ry     beta= 0.70
     Davidson diagonalization with overlap
     ethr =  5.33E-09,  avg # of iterations =  2.1

     total cpu time spent up to now is       22.6 secs

     total energy              =     -74.31655520 Ry
     estimated scf accuracy    <       0.00000005 Ry

     iteration #  5     ecut=    80.00 Ry     beta= 0.70
     Davidson diagonalization with overlap
     ethr =  2.64E-10,  avg # of iterations =  2.8

     total cpu time spent up to now is       22.9 secs

     total energy              =     -74.31655521 Ry
     estimated scf accuracy    <          2.1E-09 Ry

     iteration #  6     ecut=    80.00 Ry     beta= 0.70
     Davidson diagonalization with overlap
     ethr =  1.03E-11,  avg # of iterations =  3.3

     total cpu time spent up to now is       23.3 secs

     End of self-consistent calculation

          k = 0.0000 0.0000 0.0000 (  3827 PWs)   bands (ev):

   -36.5054 -36.3180 -36.1668 -36.0291  -3.3325   3.9748   5.9437   7.3314
     7.3314   9.1341   9.1341  11.3901  15.5179  15.5968

          k = 0.0000 0.0000 0.1571 (  3857 PWs)   bands (ev):

   -36.4919 -36.3369 -36.1598 -36.0308  -3.3345   3.3614   7.1350   7.4549
     7.4549   9.3065   9.3065  11.2696  13.7289  13.7289

          k = 0.0000 0.0000 0.3141 (  3863 PWs)   bands (ev):

   -36.4606 -36.3754 -36.1499 -36.0337  -3.3377   2.8008   7.6890   7.6890
     9.2797   9.6595   9.6595  10.8873  12.5036  12.5036

          k = 0.0000 0.1869 0.0000 (  3829 PWs)   bands (ev):

   -36.4883 -36.3126 -36.1719 -36.0450  -3.0236   3.9937   5.2285   6.1059
     6.1832   9.5575  10.9278  12.5385  13.3521  13.9918

          k = 0.0000 0.1869 0.1571 (  3855 PWs)   bands (ev):

   -36.4747 -36.3311 -36.1654 -36.0467  -3.0235   3.4506   5.2632   6.3267
     7.2291   9.6033  11.1067  11.3191  12.1624  13.3299

          k = 0.0000 0.1869 0.3141 (  3848 PWs)   bands (ev):

   -36.4423 -36.3696 -36.1569 -36.0491  -3.0232   2.9178   5.4200   6.6168
     8.6291  10.3314  10.3580  10.6036  11.7060  12.8494

          k = 0.0000 0.3738 0.0000 (  3830 PWs)   bands (ev):

   -36.4508 -36.3007 -36.1789 -36.0845  -2.1380   2.1829   4.8255   5.1293
     6.4992   9.3872  10.1313  12.1151  12.3824  13.5838

          k = 0.0000 0.3738 0.1571 (  3837 PWs)   bands (ev):

   -36.4368 -36.3181 -36.1738 -36.0861  -2.1321   2.1859   4.3290   5.2833
     7.2557   9.0725   9.7035  10.8773  13.9862  14.1741

          k = 0.0000 0.3738 0.3141 (  3824 PWs)   bands (ev):

   -36.4019 -36.3556 -36.1706 -36.0869  -2.1211   2.1624   3.9735   5.5946
     7.0598   9.4511   9.5387  10.6960  14.7177  14.7830

          k = 0.0000-0.5607 0.0000 (  3826 PWs)   bands (ev):

   -36.4297 -36.2947 -36.1764 -36.1126  -1.2441   0.6965   4.7664   5.1172
     6.8121   8.9409   9.3774  11.3928  12.1466  13.3579

          k = 0.0000-0.5607 0.1571 (  3824 PWs)   bands (ev):

   -36.4169 -36.3075 -36.1772 -36.1118  -1.2311   0.7148   4.8148   4.9238
     6.3789   9.3430   9.8437  10.4737  12.2728  15.5362

          k = 0.0000-0.5607 0.3141 (  3818 PWs)   bands (ev):

   -36.3831 -36.3412 -36.1784 -36.1108  -1.2093   0.7443   4.4328   5.2406
     5.8854   9.1421   9.3198  11.3655  14.2378  15.7434

          k = 0.1619 0.2803 0.0000 (  3845 PWs)   bands (ev):

   -36.4609 -36.3035 -36.1777 -36.0735  -2.4188   2.9706   4.7848   4.8106
     6.3802  10.5971  10.7367  11.6823  12.7764  13.0624

          k = 0.1619 0.2803 0.1571 (  3837 PWs)   bands (ev):

   -36.4475 -36.3200 -36.1735 -36.0746  -2.4144   2.8969   4.4011   4.9106
     7.1175   9.7695  11.1648  11.2435  11.8844  14.2448

          k = 0.1619 0.2803 0.3141 (  3831 PWs)   bands (ev):

   -36.4136 -36.3582 -36.1674 -36.0764  -2.4070   2.7222   4.1687   5.1420
     7.6586   9.0276  11.1696  11.5898  12.0703  14.1487

          k = 0.1619 0.4672 0.0000 (  3840 PWs)   bands (ev):

   -36.4311 -36.2928 -36.1748 -36.1147  -1.3291   1.0542   3.9412   5.2960
     6.5867   9.2042  10.7722  11.4844  12.1583  12.9319

          k = 0.1619 0.4672 0.1571 (  3833 PWs)   bands (ev):

   -36.4179 -36.3073 -36.1728 -36.1154  -1.3174   1.0734   4.0344   4.8931
     6.6439   8.7192  10.9679  11.2940  13.0365  14.3700

          k = 0.1619 0.4672 0.3141 (  3819 PWs)   bands (ev):

   -36.3835 -36.3424 -36.1723 -36.1153  -1.2968   1.1004   4.1664   4.5765
     6.2486   8.2068  11.1825  12.2428  14.7641  15.0098

          k = 0.3237 0.5607 0.0000 (  3828 PWs)   bands (ev):

   -36.4219 -36.2872 -36.1518 -36.1518  -0.1481  -0.1481   3.2205   6.0216
     6.0216   9.0320  11.2734  11.2734  12.0240  14.8479

          k = 0.3237 0.5607 0.1571 (  3822 PWs)   bands (ev):

   -36.4092 -36.3001 -36.1517 -36.1517  -0.1296  -0.1296   3.3092   5.7339
     5.7339   8.3229  12.1107  12.1107  13.1600  14.7893

          k = 0.3237 0.5607 0.3141 (  3831 PWs)   bands (ev):

   -36.3758 -36.3338 -36.1515 -36.1515  -0.0987  -0.0987   3.4724   5.3497
     5.3497   7.5304  13.9282  13.9282  14.7109  14.7109

          k = 0.0000 0.1869-0.1571 (  3855 PWs)   bands (ev):

   -36.4749 -36.3304 -36.1662 -36.0464  -3.0233   3.4543   5.2798   6.3333
     7.1088   9.6652  10.8379  11.9254  12.6164  13.5273

          k = 0.0000 0.1869-0.3141 (  3848 PWs)   bands (ev):

   -36.4427 -36.3690 -36.1574 -36.0489  -3.0231   2.9196   5.4195   6.6227
     8.5556   9.8382  10.4501  11.4830  11.9358  12.5825

          k = 0.0000 0.3738-0.1571 (  3837 PWs)   bands (ev):

   -36.4382 -36.3144 -36.1780 -36.0843  -2.1309   2.1764   4.4421   5.2857
     6.6504   9.4720  10.7860  11.3776  11.5943  14.7853

          k = 0.0000 0.3738-0.3141 (  3824 PWs)   bands (ev):

   -36.4045 -36.3518 -36.1730 -36.0857  -2.1204   2.1573   4.0106   5.5968
     6.8501   9.4724   9.5150  11.9421  12.8711  14.8965

          k =-0.1619 0.4672-0.1571 (  3833 PWs)   bands (ev):

   -36.4185 -36.3056 -36.1752 -36.1141  -1.3165   1.0706   4.0428   4.9675
     6.3691   9.0604  11.0844  11.5628  12.1704  14.6148

          k =-0.1619 0.4672-0.3141 (  3819 PWs)   bands (ev):

   -36.3847 -36.3405 -36.1736 -36.1145  -1.2962   1.0987   4.1791   4.5926
     6.1580   8.2672  11.1927  12.8103  13.6877  15.2536

     the Fermi energy is     9.7259 ev

!    total energy              =     -74.31655521 Ry
     estimated scf accuracy    <          2.4E-10 Ry
     smearing contrib. (-TS)   =       0.00052406 Ry
     internal energy E=F+TS    =     -74.31707927 Ry

     The total energy is F=E-TS. E is the sum of the following terms:
     one-electron contribution =     -15.27470815 Ry
     hartree contribution      =      11.43232638 Ry
     xc contribution           =     -20.67371935 Ry
     ewald contribution        =     -49.80097815 Ry

     convergence has been achieved in   6 iterations

     Forces acting on atoms (cartesian axes, Ry/au):

     atom    1 type  1   force =    -0.00000000   -0.00000000    0.00377941
     atom    2 type  1   force =     0.00000000    0.00000000   -0.00377941
     atom    3 type  2   force =     0.00000000   -0.00000000    0.00195746
     atom    4 type  2   force =     0.00000000   -0.00000000   -0.00195746
     atom    5 type  2   force =    -0.00000000   -0.00000000    0.00656349
     atom    6 type  2   force =    -0.00000000   -0.00000000   -0.00656349
     The non-local contrib.  to forces
     atom    1 type  1   force =     0.00000000    0.00000000   -0.09476276
     atom    2 type  1   force =     0.00000000   -0.00000000    0.09476276
     atom    3 type  2   force =    -0.00000000   -0.00000000   -0.03382617
     atom    4 type  2   force =     0.00000000    0.00000000    0.03382617
     atom    5 type  2   force =     0.00000000    0.00000000    0.03603529
     atom    6 type  2   force =     0.00000000   -0.00000000   -0.03603529
     The ionic contribution  to forces
     atom    1 type  1   force =     0.00000009   -0.00000005    0.18595034
     atom    2 type  1   force =    -0.00000009    0.00000005   -0.18595034
     atom    3 type  2   force =    -0.00000000    0.00000000    0.34588063
     atom    4 type  2   force =     0.00000000   -0.00000000   -0.34588063
     atom    5 type  2   force =     0.00000007   -0.00000004   -0.16077065
     atom    6 type  2   force =    -0.00000007    0.00000004    0.16077065
     The local contribution  to forces
     atom    1 type  1   force =    -0.00000001    0.00000001   -0.09076939
     atom    2 type  1   force =     0.00000001   -0.00000001    0.09076939
     atom    3 type  2   force =    -0.00000000    0.00000000   -0.31008806
     atom    4 type  2   force =     0.00000000   -0.00000000    0.31008806
     atom    5 type  2   force =     0.00000067   -0.00000039    0.13129628
     atom    6 type  2   force =    -0.00000067    0.00000039   -0.13129628
     The core correction contribution to forces
     atom    1 type  1   force =    -0.00000000    0.00000000    0.00336722
     atom    2 type  1   force =     0.00000000   -0.00000000   -0.00336722
     atom    3 type  2   force =     0.00000000    0.00000000    0.00000000
     atom    4 type  2   force =     0.00000000    0.00000000    0.00000000
     atom    5 type  2   force =     0.00000000    0.00000000    0.00000000
     atom    6 type  2   force =     0.00000000    0.00000000    0.00000000
     The Hubbard contrib.    to forces
     atom    1 type  1   force =     0.00000000    0.00000000    0.00000000
     atom    2 type  1   force =     0.00000000    0.00000000    0.00000000
     atom    3 type  2   force =     0.00000000    0.00000000    0.00000000
     atom    4 type  2   force =     0.00000000    0.00000000    0.00000000
     atom    5 type  2   force =     0.00000000    0.00000000    0.00000000
     atom    6 type  2   force =     0.00000000    0.00000000    0.00000000
     The SCF correction term to forces
     atom    1 type  1   force =     0.00000000   -0.00000000   -0.00000601
     atom    2 type  1   force =    -0.00000000    0.00000000    0.00000601
     atom    3 type  2   force =     0.00000000   -0.00000000   -0.00000893
     atom    4 type  2   force =    -0.00000000    0.00000000    0.00000893
     atom    5 type  2   force =    -0.00000000    0.00000000    0.00000256
     atom    6 type  2   force =     0.00000000   -0.00000000   -0.00000256

     Total force =     0.011063     Total SCF correction =     0.000016


     Computing stress (Cartesian axis) and pressure

          total   stress  (Ry/bohr**3)                   (kbar)     P=      513.81
   0.00354563   0.00000000   0.00000000          521.58        0.00        0.00
   0.00000000   0.00354563   0.00000000            0.00      521.58        0.00
   0.00000000   0.00000000   0.00338715            0.00        0.00      498.27

     Energy error            =      9.5E-04 Ry
     Gradient error          =      6.6E-03 Ry/Bohr
     Cell gradient error     =      2.2E+01 kbar

     number of scf cycles    =   5
     number of bfgs steps    =   4

     enthalpy           old  =     -73.1068076115 Ry
     enthalpy           new  =     -73.1077568291 Ry

     CASE: enthalpy          _new < enthalpy          _old

     new trust radius        =       0.0312235237 bohr
ibrav =      4
 celldm(1) =      6.94110850
 celldm(3) =      1.23213049
Input lattice vectors:
     1.03209698    -0.00000000     0.00000000
    -0.51604849     0.89382221     0.00000000
     0.00000000     0.00000000     1.27167817
New lattice vectors in INITIAL alat:
     1.03209698     0.00000000     0.00000000
    -0.51604849     0.89382221     0.00000000
     0.00000000     0.00000000     1.27167817
New lattice vectors in NEW alat (for information only):
     1.00000000     0.00000000     0.00000000
    -0.50000000     0.86602540     0.00000000
     0.00000000     0.00000000     1.23213049
Discrepancy in bohr =     0.000000    0.000000    0.000000
     new conv_thr            =       0.0000000007 Ry

     new unit-cell volume =    356.84025 a.u.^3 (    52.87827 Ang^3 )
     density =      2.63582 g/cm^3

CELL_PARAMETERS (alat=  6.72524831)
   1.032096984   0.000000000   0.000000000
  -0.516048492   0.893822208   0.000000000
   0.000000000   0.000000000   1.271678166

ATOMIC_POSITIONS (crystal)
Si            0.3333333300        0.6666666700        0.1052653349
Si            0.6666666700        0.3333333300        0.8947346651
Li           -0.0000000000       -0.0000000000        0.2501321747
Li            0.0000000000        0.0000000000        0.7498678253
Li            0.3333333300        0.6666666700        0.5977290967
Li            0.6666666700        0.3333333300        0.4022709033



     Writing config-only to output data dir ./output/SiLi.save/
     NEW-OLD atomic charge density approx. for the potential
     extrapolated charge   20.06716, renormalised to   20.00000

     total cpu time spent up to now is       24.7 secs

     Self-consistent Calculation

     iteration #  1     ecut=    80.00 Ry     beta= 0.70
     Davidson diagonalization with overlap
     ethr =  1.00E-06,  avg # of iterations =  4.7

     total cpu time spent up to now is       25.2 secs

     total energy              =     -74.32114611 Ry
     estimated scf accuracy    <       0.00003586 Ry

     iteration #  2     ecut=    80.00 Ry     beta= 0.70
     Davidson diagonalization with overlap
     ethr =  1.79E-07,  avg # of iterations =  2.1

     total cpu time spent up to now is       25.6 secs

     total energy              =     -74.32117894 Ry
     estimated scf accuracy    <       0.00002610 Ry

     iteration #  3     ecut=    80.00 Ry     beta= 0.70
     Davidson diagonalization with overlap
     ethr =  1.31E-07,  avg # of iterations =  2.0

     total cpu time spent up to now is       25.9 secs

     total energy              =     -74.32118297 Ry
     estimated scf accuracy    <       0.00000221 Ry

     iteration #  4     ecut=    80.00 Ry     beta= 0.70
     Davidson diagonalization with overlap
     ethr =  1.11E-08,  avg # of iterations =  1.6

     total cpu time spent up to now is       26.2 secs

     total energy              =     -74.32118307 Ry
     estimated scf accuracy    <       0.00000035 Ry

[...]
     number of iterations used =            8  plain     mixing
     press convergence thresh. =      1.0E+00
     Exchange-correlation= PBE
                           (   1   4   3   4   0   0   0)

     celldm(1)=   6.725248  celldm(2)=   0.000000  celldm(3)=   1.204298
     celldm(4)=   0.000000  celldm(5)=   0.000000  celldm(6)=   0.000000

     crystal axes: (cart. coord. in units of alat)
               a(1) = (   1.035155   0.000000   0.000000 )  
               a(2) = (  -0.517578   0.896471   0.000000 )  
               a(3) = (   0.000000   0.000000   1.267046 )  

     reciprocal axes: (cart. coord. in units 2 pi/alat)
               b(1) = (  0.966039  0.557743 -0.000000 )  
               b(2) = (  0.000000  1.115486  0.000000 )  
               b(3) = (  0.000000 -0.000000  0.789237 )  


     PseudoPot. # 1 for Si read from file:
     ../pseudo/Si_ONCV_PBE_sr.upf
     MD5 check sum: e543d271109d17c80368dfa7c482276d
     Pseudo is Norm-conserving + core correction, Zval =  4.0
     Generated using ONCVPSP code by D. R. Hamann
     Using radial grid of 1510 points,  6 beta functions with: 
                l(1) =   0
                l(2) =   0
                l(3) =   1
                l(4) =   1
                l(5) =   2
                l(6) =   2

     PseudoPot. # 2 for Li read from file:
     ../pseudo/Li_ONCV_PBE_sr.upf
     MD5 check sum: 50ff420e78310ffa21704f3361e624a4
     Pseudo is Norm-conserving, Zval =  3.0
     Generated using ONCVPSP code by D. R. Hamann
     Using radial grid of 1944 points,  4 beta functions with: 
                l(1) =   0
                l(2) =   0
                l(3) =   1
                l(4) =   1

     atomic species   valence    mass     pseudopotential
        Si             4.00    28.08550     Si( 1.00)
        Li             3.00     6.94100     Li( 1.00)

     12 Sym. Ops., with inversion, found



   Cartesian axes

     site n.     atom                  positions (alat units)
         1           Si  tau(   1) = (  -0.0000000   0.5976471   0.1341653  )
         2           Si  tau(   2) = (   0.5175776   0.2988235   1.1328808  )
         3           Li  tau(   3) = (  -0.0000000  -0.0000000   0.3181756  )
         4           Li  tau(   4) = (   0.0000000   0.0000000   0.9488704  )
         5           Li  tau(   5) = (  -0.0000000   0.5976471   0.7594069  )
         6           Li  tau(   6) = (   0.5175776   0.2988235   0.5076392  )

     number of k points=    27  Marzari-Vanderbilt smearing, width (Ry)=  0.0200
                       cart. coord. in units 2pi/alat
        k(    1) = (   0.0000000   0.0000000   0.0000000), wk =   0.0111111
        k(    2) = (   0.0000000   0.0000000   0.1578475), wk =   0.0222222
        k(    3) = (   0.0000000   0.0000000   0.3156949), wk =   0.0222222
        k(    4) = (   0.0000000   0.1859143   0.0000000), wk =   0.0666667
        k(    5) = (   0.0000000   0.1859143   0.1578475), wk =   0.0666667
        k(    6) = (   0.0000000   0.1859143   0.3156949), wk =   0.0666667
        k(    7) = (   0.0000000   0.3718285   0.0000000), wk =   0.0666667
        k(    8) = (   0.0000000   0.3718285   0.1578475), wk =   0.0666667
        k(    9) = (   0.0000000   0.3718285   0.3156949), wk =   0.0666667
        k(   10) = (   0.0000000  -0.5577428   0.0000000), wk =   0.0333333
        k(   11) = (   0.0000000  -0.5577428   0.1578475), wk =   0.0666667
        k(   12) = (   0.0000000  -0.5577428   0.3156949), wk =   0.0666667
        k(   13) = (   0.1610065   0.2788714   0.0000000), wk =   0.0666667
        k(   14) = (   0.1610065   0.2788714   0.1578475), wk =   0.1333333
        k(   15) = (   0.1610065   0.2788714   0.3156949), wk =   0.1333333
        k(   16) = (   0.1610065   0.4647856   0.0000000), wk =   0.1333333
        k(   17) = (   0.1610065   0.4647856   0.1578475), wk =   0.1333333
        k(   18) = (   0.1610065   0.4647856   0.3156949), wk =   0.1333333
        k(   19) = (   0.3220129   0.5577428   0.0000000), wk =   0.0222222
        k(   20) = (   0.3220129   0.5577428   0.1578475), wk =   0.0444444
        k(   21) = (   0.3220129   0.5577428   0.3156949), wk =   0.0444444
        k(   22) = (   0.0000000   0.1859143  -0.1578475), wk =   0.0666667
        k(   23) = (   0.0000000   0.1859143  -0.3156949), wk =   0.0666667
        k(   24) = (   0.0000000   0.3718285  -0.1578475), wk =   0.0666667
        k(   25) = (   0.0000000   0.3718285  -0.3156949), wk =   0.0666667
        k(   26) = (  -0.1610065   0.4647856  -0.1578475), wk =   0.1333333
        k(   27) = (  -0.1610065   0.4647856  -0.3156949), wk =   0.1333333

     Dense  grid:    34585 G-vectors     FFT dimensions: (  40,  40,  50)

     Estimated max dynamical RAM per process >      18.55 MB

     Estimated total dynamical RAM >     148.40 MB

     Initial potential from superposition of free atoms

     starting charge      19.9805, renormalised to      20.0000
     Starting wfcs are   16 randomized atomic wfcs

     total cpu time spent up to now is       39.5 secs

     Self-consistent Calculation

     iteration #  1     ecut=    80.00 Ry     beta= 0.70
     Davidson diagonalization with overlap
     c_bands:  1 eigenvalues not converged
     c_bands:  2 eigenvalues not converged
     c_bands:  1 eigenvalues not converged
     c_bands:  1 eigenvalues not converged
     c_bands:  2 eigenvalues not converged
     c_bands:  1 eigenvalues not converged
     c_bands:  1 eigenvalues not converged
     c_bands:  1 eigenvalues not converged
     c_bands:  1 eigenvalues not converged
     ethr =  1.00E-06,  avg # of iterations = 18.2

     total cpu time spent up to now is       40.9 secs

     total energy              =     -74.30773877 Ry
     estimated scf accuracy    <       0.05275983 Ry

     iteration #  2     ecut=    80.00 Ry     beta= 0.70
     Davidson diagonalization with overlap
     ethr =  2.64E-04,  avg # of iterations =  2.4

     total cpu time spent up to now is       41.3 secs

     total energy              =     -74.31451348 Ry
     estimated scf accuracy    <       0.04526713 Ry

     iteration #  3     ecut=    80.00 Ry     beta= 0.70
     Davidson diagonalization with overlap
     ethr =  2.26E-04,  avg # of iterations =  2.0

     total cpu time spent up to now is       41.7 secs

     total energy              =     -74.32408005 Ry
     estimated scf accuracy    <       0.00091258 Ry

     iteration #  4     ecut=    80.00 Ry     beta= 0.70
     Davidson diagonalization with overlap
     ethr =  4.56E-06,  avg # of iterations =  2.5

     total cpu time spent up to now is       42.0 secs

     total energy              =     -74.32415816 Ry
     estimated scf accuracy    <       0.00003030 Ry

     iteration #  5     ecut=    80.00 Ry     beta= 0.70
     Davidson diagonalization with overlap
     ethr =  1.51E-07,  avg # of iterations =  2.2

     total cpu time spent up to now is       42.4 secs

     total energy              =     -74.32416728 Ry
     estimated scf accuracy    <       0.00000037 Ry

     iteration #  6     ecut=    80.00 Ry     beta= 0.70
     Davidson diagonalization with overlap
     ethr =  1.86E-09,  avg # of iterations =  3.7

     total cpu time spent up to now is       42.9 secs

     total energy              =     -74.32416747 Ry
     estimated scf accuracy    <          9.5E-09 Ry

     iteration #  7     ecut=    80.00 Ry     beta= 0.70
     Davidson diagonalization with overlap
     ethr =  4.74E-11,  avg # of iterations =  2.6

     total cpu time spent up to now is       43.3 secs

     total energy              =     -74.32416748 Ry
     estimated scf accuracy    <          1.4E-09 Ry

     iteration #  8     ecut=    80.00 Ry     beta= 0.70
     Davidson diagonalization with overlap
     ethr =  6.86E-12,  avg # of iterations =  2.1

     total cpu time spent up to now is       43.6 secs

     End of self-consistent calculation

          k = 0.0000 0.0000 0.0000 (  4345 PWs)   bands (ev):

   -36.5744 -36.3926 -36.2086 -36.0775  -3.2966   3.9983   5.8225   7.2608
     7.2608   9.0375   9.0375  11.2225  15.4503  15.4543

          k = 0.0000 0.0000 0.1578 (  4296 PWs)   bands (ev):

   -36.5603 -36.4106 -36.2034 -36.0790  -3.2957   3.3191   7.0829   7.3914
     7.3914   9.2164   9.2164  11.1125  13.5951  13.5951

          k = 0.0000 0.0000 0.3157 (  4308 PWs)   bands (ev):

   -36.5266 -36.4497 -36.1956 -36.0814  -3.2942   2.7211   7.6413   7.6413
     9.2684   9.5861   9.5861  10.7803  12.3469  12.3469

          k = 0.0000 0.1859 0.0000 (  4321 PWs)   bands (ev):

   -36.5595 -36.3874 -36.2126 -36.0923  -2.9922   3.9757   5.2156   5.9881
     6.1196   9.4566  10.8160  12.4920  13.1717  13.8886

          k = 0.0000 0.1859 0.1578 (  4303 PWs)   bands (ev):

   -36.5454 -36.4050 -36.2078 -36.0937  -2.9892   3.3917   5.2336   6.2701
     7.1748   9.4948  10.9965  11.2646  12.0621  13.1704

          k = 0.0000 0.1859 0.3157 (  4306 PWs)   bands (ev):

   -36.5109 -36.4440 -36.2013 -36.0957  -2.9840   2.8273   5.4010   6.5781
     8.5564  10.2740  10.2875  10.4615  11.6290  12.7834

          k = 0.0000 0.3718 0.0000 (  4325 PWs)   bands (ev):

   -36.5277 -36.3759 -36.2168 -36.1286  -2.1203   2.1404   4.8511   5.0739
     6.3922   9.2824  10.1497  12.0328  12.2664  13.5591

          k = 0.0000 0.3718 0.1578 (  4327 PWs)   bands (ev):

   -36.5135 -36.3923 -36.2134 -36.1299  -2.1113   2.1395   4.3128   5.2351
     7.1657   9.0444   9.6446  10.7740  13.9362  14.0727

          k = 0.0000 0.3718 0.3157 (  4322 PWs)   bands (ev):

   -36.4776 -36.4302 -36.2109 -36.1306  -2.0950   2.1045   3.9471   5.5648
     6.9584   9.4095   9.4323  10.6403  14.6198  14.8195

          k = 0.0000-0.5577 0.0000 (  4320 PWs)   bands (ev):

   -36.5104 -36.3698 -36.2132 -36.1542  -1.2424   0.6808   4.7140   5.1175
     6.7181   8.9133   9.3357  11.3262  12.0426  13.3517

          k = 0.0000-0.5577 0.1578 (  4342 PWs)   bands (ev):

   -36.4971 -36.3833 -36.2136 -36.1537  -1.2262   0.7002   4.7844   4.8786
     6.3003   9.3130   9.7904  10.3759  12.2437  15.5136

          k = 0.0000-0.5577 0.3157 (  4322 PWs)   bands (ev):

   -36.4621 -36.4186 -36.2142 -36.1529  -1.1990   0.7314   4.3743   5.2140
     5.8041   9.0177   9.2817  11.3147  14.2816  15.7044

          k = 0.1610 0.2789 0.0000 (  4336 PWs)   bands (ev):

   -36.5361 -36.3787 -36.2163 -36.1186  -2.3966   2.9085   4.7426   4.8513
     6.2661  10.5776  10.5946  11.5908  12.6590  13.0252

          k = 0.1610 0.2789 0.1578 (  4324 PWs)   bands (ev):

   -36.5223 -36.3947 -36.2133 -36.1195  -2.3891   2.8232   4.4022   4.8761
     7.0423   9.7052  11.0608  11.1301  11.8233  14.1965

          k = 0.1610 0.2789 0.3157 (  4315 PWs)   bands (ev):

   -36.4869 -36.4331 -36.2089 -36.1209  -2.3765   2.6270   4.1688   5.1240
     7.5594   8.9283  11.0927  11.5542  11.9758  14.1185

          k = 0.1610 0.4648 0.0000 (  4321 PWs)   bands (ev):

   -36.5114 -36.3687 -36.2114 -36.1561  -1.3246   1.0256   3.9088   5.3050
     6.5001   9.2137  10.6411  11.4041  12.0499  12.9219

          k = 0.1610 0.4648 0.1578 (  4322 PWs)   bands (ev):

   -36.4978 -36.3831 -36.2101 -36.1567  -1.3099   1.0454   4.0073   4.8689
     6.5646   8.6939  10.8410  11.2375  12.9803  14.3184

          k = 0.1610 0.4648 0.3157 (  4334 PWs)   bands (ev):

   -36.4624 -36.4192 -36.2096 -36.1566  -1.2840   1.0723   4.1401   4.5455
     6.1618   8.1165  11.1190  12.1726  14.6557  15.0395

          k = 0.3220 0.5577 0.0000 (  4308 PWs)   bands (ev):

   -36.5037 -36.3641 -36.1896 -36.1896  -0.1626  -0.1626   3.2052   5.9924
     5.9924   9.0404  11.1693  11.1693  11.9151  14.7544

          k = 0.3220 0.5577 0.1578 (  4332 PWs)   bands (ev):

   -36.4904 -36.3776 -36.1895 -36.1895  -0.1417  -0.1417   3.3009   5.6868
     5.6868   8.2818  12.0234  12.0234  13.0972  14.6987

          k = 0.3220 0.5577 0.3157 (  4347 PWs)   bands (ev):

   -36.4558 -36.4126 -36.1893 -36.1893  -0.1068  -0.1068   3.4787   5.2819
     5.2819   7.4478  13.8275  13.8275  14.6580  14.6580

          k = 0.0000 0.1859-0.1578 (  4303 PWs)   bands (ev):

   -36.5456 -36.4044 -36.2084 -36.0934  -2.9890   3.3944   5.2545   6.2773
     7.0455   9.5796  10.7236  11.8182  12.5214  13.3884

          k = 0.0000 0.1859-0.3157 (  4306 PWs)   bands (ev):

   -36.5113 -36.4435 -36.2016 -36.0955  -2.9838   2.8288   5.4011   6.5847
     8.4853   9.7728  10.3101  11.4069  11.8587  12.5530

          k = 0.0000 0.3718-0.1578 (  4327 PWs)   bands (ev):

   -36.5145 -36.3900 -36.2161 -36.1285  -2.1101   2.1291   4.4303   5.2377
     6.5758   9.4007  10.6806  11.2935  11.5979  14.6716

          k = 0.0000 0.3718-0.3157 (  4322 PWs)   bands (ev):

   -36.4794 -36.4276 -36.2125 -36.1297  -2.0942   2.0989   3.9845   5.5673
     6.7624   9.3851   9.4230  11.8614  12.9065  14.7992

          k =-0.1610 0.4648-0.1578 (  4322 PWs)   bands (ev):

   -36.4982 -36.3822 -36.2117 -36.1557  -1.3089   1.0422   4.0165   4.9443
     6.2972   9.0168  10.9649  11.4882  12.1431  14.5844

          k =-0.1610 0.4648-0.3157 (  4334 PWs)   bands (ev):

   -36.4632 -36.4181 -36.2105 -36.1560  -1.2833   1.0704   4.1545   4.5595
     6.0754   8.1713  11.1165  12.7369  13.6889  15.1539

     the Fermi energy is     9.6451 ev

!    total energy              =     -74.32416748 Ry
     estimated scf accuracy    <          9.5E-11 Ry
     smearing contrib. (-TS)   =       0.00083505 Ry
     internal energy E=F+TS    =     -74.32500253 Ry

     The total energy is F=E-TS. E is the sum of the following terms:
     one-electron contribution =     -15.41228438 Ry
     hartree contribution      =      11.45543427 Ry
     xc contribution           =     -20.65552988 Ry
     ewald contribution        =     -49.71262254 Ry

     convergence has been achieved in   8 iterations

     Forces acting on atoms (cartesian axes, Ry/au):

     atom    1 type  1   force =     0.00000000    0.00000000    0.00006079
     atom    2 type  1   force =    -0.00000000   -0.00000000   -0.00006079
     atom    3 type  2   force =    -0.00000000    0.00000000    0.00077530
     atom    4 type  2   force =     0.00000000   -0.00000000   -0.00077530
     atom    5 type  2   force =     0.00000000    0.00000000   -0.00005361
     atom    6 type  2   force =     0.00000000    0.00000000    0.00005361
     The non-local contrib.  to forces
     atom    1 type  1   force =     0.00000000   -0.00000000   -0.10278514
     atom    2 type  1   force =     0.00000000   -0.00000000    0.10278514
     atom    3 type  2   force =     0.00000000   -0.00000000   -0.03347545
     atom    4 type  2   force =    -0.00000000   -0.00000000    0.03347545
     atom    5 type  2   force =     0.00000000    0.00000000    0.03392985
     atom    6 type  2   force =     0.00000000   -0.00000000   -0.03392985
     The ionic contribution  to forces
     atom    1 type  1   force =     0.00000009   -0.00000005    0.17384713
     atom    2 type  1   force =    -0.00000009    0.00000005   -0.17384713
     atom    3 type  2   force =    -0.00000000    0.00000000    0.31733855
     atom    4 type  2   force =     0.00000000   -0.00000000   -0.31733855
     atom    5 type  2   force =     0.00000007   -0.00000004   -0.17943219
     atom    6 type  2   force =    -0.00000007    0.00000004    0.17943219
     The local contribution  to forces
     atom    1 type  1   force =    -0.00000001    0.00000001   -0.07494981
     atom    2 type  1   force =     0.00000001   -0.00000001    0.07494981
     atom    3 type  2   force =     0.00000000    0.00000000   -0.28307975
     atom    4 type  2   force =    -0.00000000   -0.00000000    0.28307975
     atom    5 type  2   force =     0.00000067   -0.00000039    0.14544040
     atom    6 type  2   force =    -0.00000067    0.00000039   -0.14544040
     The core correction contribution to forces
     atom    1 type  1   force =    -0.00000000    0.00000000    0.00395459
     atom    2 type  1   force =     0.00000000   -0.00000000   -0.00395459
     atom    3 type  2   force =     0.00000000    0.00000000    0.00000000
     atom    4 type  2   force =     0.00000000    0.00000000    0.00000000
     atom    5 type  2   force =     0.00000000    0.00000000    0.00000000
     atom    6 type  2   force =     0.00000000    0.00000000    0.00000000
     The Hubbard contrib.    to forces
     atom    1 type  1   force =     0.00000000    0.00000000    0.00000000
     atom    2 type  1   force =     0.00000000    0.00000000    0.00000000
     atom    3 type  2   force =     0.00000000    0.00000000    0.00000000
     atom    4 type  2   force =     0.00000000    0.00000000    0.00000000
     atom    5 type  2   force =     0.00000000    0.00000000    0.00000000
     atom    6 type  2   force =     0.00000000    0.00000000    0.00000000
     The SCF correction term to forces
     atom    1 type  1   force =    -0.00000000    0.00000000   -0.00000598
     atom    2 type  1   force =     0.00000000   -0.00000000    0.00000598
     atom    3 type  2   force =     0.00000000   -0.00000000   -0.00000805
     atom    4 type  2   force =    -0.00000000    0.00000000    0.00000805
     atom    5 type  2   force =    -0.00000000    0.00000000    0.00000832
     atom    6 type  2   force =     0.00000000   -0.00000000   -0.00000832

     Total force =     0.001102     Total SCF correction =     0.000018


     Computing stress (Cartesian axis) and pressure

          total   stress  (Ry/bohr**3)                   (kbar)     P=      500.10
   0.00339596   0.00000000   0.00000000          499.56        0.00        0.00
   0.00000000   0.00339596   0.00000000            0.00      499.56        0.00
   0.00000000   0.00000000   0.00340701            0.00        0.00      501.19


     Writing all to output data dir ./output/SiLi.save/

     init_run     :      1.11s CPU      1.74s WALL (       2 calls)
     electrons    :     25.77s CPU     29.20s WALL (      10 calls)
     update_pot   :      2.73s CPU      2.79s WALL (       8 calls)
     forces       :      2.08s CPU      2.16s WALL (      10 calls)
     stress       :      7.91s CPU      8.33s WALL (      10 calls)

     Called by init_run:
     wfcinit      :      0.27s CPU      0.28s WALL (       2 calls)
     potinit      :      0.34s CPU      0.69s WALL (       2 calls)
     hinit0       :      0.47s CPU      0.64s WALL (       2 calls)

     Called by electrons:
     c_bands      :     22.05s CPU     23.90s WALL (      72 calls)
     sum_band     :      2.95s CPU      3.19s WALL (      72 calls)
     v_of_rho     :      0.80s CPU      2.31s WALL (      78 calls)
     mix_rho      :      0.07s CPU      0.19s WALL (      72 calls)

     Called by c_bands:
     init_us_2    :      0.64s CPU      0.74s WALL (    4482 calls)
     init_us_2:cp :      0.64s CPU      0.73s WALL (    4482 calls)
     cegterg      :     20.34s CPU     21.08s WALL (    1944 calls)

     Called by *egterg:
     cdiaghg      :      1.60s CPU      1.65s WALL (    7265 calls)
     h_psi        :     16.59s CPU     17.20s WALL (    7643 calls)
     g_psi        :      0.09s CPU      0.09s WALL (    5645 calls)

     Called by h_psi:
     h_psi:calbec :      1.47s CPU      1.51s WALL (    7643 calls)
     vloc_psi     :     13.86s CPU     14.38s WALL (    7643 calls)
     add_vuspsi   :      1.19s CPU      1.23s WALL (    7643 calls)

     General routines
     calbec       :      1.89s CPU      1.95s WALL (    8993 calls)
     fft          :      0.97s CPU      2.88s WALL (    1032 calls)
     ffts         :      0.05s CPU      0.10s WALL (      72 calls)
     fftw         :     14.19s CPU     14.71s WALL (  178960 calls)

     Parallel routines

     PWSCF        :     39.99s CPU     44.96s WALL


   This run was terminated on:  18:26:34  28Dec2024            

=------------------------------------------------------------------------------=
   JOB DONE.
=------------------------------------------------------------------------------=
