
     Program PWSCF v.7.2 starts on 28Dec2024 at 18:25:48 

     This program is part of the open-source Quantum ESPRESSO suite
     for quantum simulation of materials; please cite
         "P. Giannozzi et al., J. Phys.:Condens. Matter 21 395502 (2009);
         "P. Giannozzi et al., J. Phys.:Condens. Matter 29 465901 (2017);
         "P. Giannozzi et al., J. Chem. Phys. 152 154105 (2020);
          URL http://www.quantum-espresso.org", 
     in publications or presentations arising from this work. More details at
     http://www.quantum-espresso.org/quote

     Parallel version (MPI & OpenMP), running on       8 processor cores
     Number of MPI processes:                 8
     Threads/MPI process:                     1

     MPI processes distributed on     1 nodes
     482442 MiB available memory on the printing compute node when the environment starts

     Waiting for input...
     Reading input from standard input

     Current dimensions of program PWSCF are:
     Max number of different atomic species (ntypx) = 10
     Max number of k-points (npk) =  40000
     Max angular momentum in pseudopotentials (lmaxx) =  4

     R & G space division:  proc/nbgrp/npool/nimage =       8
     Subspace diagonalization in iterative solution of the eigenvalue problem:
     a serial algorithm will be used


     Parallelization info
     --------------------
     sticks:   dense  smooth     PW     G-vecs:    dense   smooth      PW
     Min         406     406    114                11466    11466    1712
     Max         407     407    115                11468    11468    1715
     Sum        3253    3253    913                91735    91735   13703

     Using Slab Decomposition



     bravais-lattice index     =            4
     lattice parameter (alat)  =      12.1143  a.u.
     unit-cell volume          =     946.9109 (a.u.)^3
     number of atoms/cell      =            6
     number of atomic types    =            2
     number of electrons       =        22.00
     number of Kohn-Sham states=           15
     kinetic-energy cutoff     =      80.0000  Ry
     charge density cutoff     =     320.0000  Ry
     scf convergence threshold =      1.0E-08
     mixing beta               =       0.7000
     number of iterations used =            8  plain     mixing
     energy convergence thresh.=      1.0E-04
     force convergence thresh. =      1.0E-03
     press convergence thresh. =      1.0E+00
     Exchange-correlation= PBE
                           (   1   4   3   4   0   0   0)
     nstep                     =           50


     celldm(1)=  12.114332  celldm(2)=   0.000000  celldm(3)=   0.615007
     celldm(4)=   0.000000  celldm(5)=   0.000000  celldm(6)=   0.000000

     crystal axes: (cart. coord. in units of alat)
               a(1) = (   1.000000   0.000000   0.000000 )  
               a(2) = (  -0.500000   0.866025   0.000000 )  
               a(3) = (   0.000000   0.000000   0.615007 )  

     reciprocal axes: (cart. coord. in units 2 pi/alat)
               b(1) = (  1.000000  0.577350 -0.000000 )  
               b(2) = (  0.000000  1.154701  0.000000 )  
               b(3) = (  0.000000 -0.000000  1.625998 )  


     PseudoPot. # 1 for Si read from file:
     ../pseudo/Si_ONCV_PBE_sr.upf
     MD5 check sum: e543d271109d17c80368dfa7c482276d
     Pseudo is Norm-conserving + core correction, Zval =  4.0
     Generated using ONCVPSP code by D. R. Hamann
     Using radial grid of 1510 points,  6 beta functions with: 
                l(1) =   0
                l(2) =   0
                l(3) =   1
                l(4) =   1
                l(5) =   2
                l(6) =   2

     PseudoPot. # 2 for Li read from file:
     ../pseudo/Li_ONCV_PBE_sr.upf
     MD5 check sum: 50ff420e78310ffa21704f3361e624a4
     Pseudo is Norm-conserving, Zval =  3.0
     Generated using ONCVPSP code by D. R. Hamann
     Using radial grid of 1944 points,  4 beta functions with: 
                l(1) =   0
                l(2) =   0
                l(3) =   1
                l(4) =   1

     atomic species   valence    mass     pseudopotential
        Si             4.00    28.08550     Si( 1.00)
        Li             3.00     6.94100     Li( 1.00)

     12 Sym. Ops. (no inversion) found



   Cartesian axes

     site n.     atom                  positions (alat units)
         1           Si  tau(   1) = (  -0.1422015   0.2463002   0.0000000  )
         2           Si  tau(   2) = (   0.2844030   0.0000000   0.0000000  )
         3           Si  tau(   3) = (   0.3577985   0.6197252   0.0000000  )
         4           Si  tau(   4) = (   0.0000000   0.0000000   0.3075035  )
         5           Li  tau(   5) = (  -0.0000000   0.5773503   0.0000000  )
         6           Li  tau(   6) = (   0.5000000   0.2886751   0.0000000  )

     number of k points=    42  Marzari-Vanderbilt smearing, width (Ry)=  0.0200
                       cart. coord. in units 2pi/alat
        k(    1) = (   0.0000000   0.0000000   0.0000000), wk =   0.0055556
        k(    2) = (   0.0000000   0.0000000   0.1625998), wk =   0.0111111
        k(    3) = (   0.0000000   0.0000000   0.3251995), wk =   0.0111111
        k(    4) = (   0.0000000   0.0000000   0.4877993), wk =   0.0111111
        k(    5) = (   0.0000000   0.0000000   0.6503991), wk =   0.0111111
        k(    6) = (   0.0000000   0.0000000  -0.8129989), wk =   0.0055556
        k(    7) = (   0.0000000   0.1924501   0.0000000), wk =   0.0333333
        k(    8) = (   0.0000000   0.1924501   0.1625998), wk =   0.0666667
        k(    9) = (   0.0000000   0.1924501   0.3251995), wk =   0.0666667
        k(   10) = (   0.0000000   0.1924501   0.4877993), wk =   0.0666667
        k(   11) = (   0.0000000   0.1924501   0.6503991), wk =   0.0666667
        k(   12) = (   0.0000000   0.1924501  -0.8129989), wk =   0.0333333
        k(   13) = (   0.0000000   0.3849002   0.0000000), wk =   0.0333333
        k(   14) = (   0.0000000   0.3849002   0.1625998), wk =   0.0666667
        k(   15) = (   0.0000000   0.3849002   0.3251995), wk =   0.0666667
        k(   16) = (   0.0000000   0.3849002   0.4877993), wk =   0.0666667
        k(   17) = (   0.0000000   0.3849002   0.6503991), wk =   0.0666667
        k(   18) = (   0.0000000   0.3849002  -0.8129989), wk =   0.0333333
        k(   19) = (   0.0000000  -0.5773503   0.0000000), wk =   0.0166667
        k(   20) = (   0.0000000  -0.5773503   0.1625998), wk =   0.0333333
        k(   21) = (   0.0000000  -0.5773503   0.3251995), wk =   0.0333333
        k(   22) = (   0.0000000  -0.5773503   0.4877993), wk =   0.0333333
        k(   23) = (   0.0000000  -0.5773503   0.6503991), wk =   0.0333333
        k(   24) = (   0.0000000  -0.5773503  -0.8129989), wk =   0.0166667
        k(   25) = (   0.1666667   0.2886751   0.0000000), wk =   0.0333333
        k(   26) = (   0.1666667   0.2886751   0.1625998), wk =   0.0666667
        k(   27) = (   0.1666667   0.2886751   0.3251995), wk =   0.0666667
        k(   28) = (   0.1666667   0.2886751   0.4877993), wk =   0.0666667
        k(   29) = (   0.1666667   0.2886751   0.6503991), wk =   0.0666667
        k(   30) = (   0.1666667   0.2886751  -0.8129989), wk =   0.0333333
        k(   31) = (   0.1666667   0.4811252   0.0000000), wk =   0.0666667
        k(   32) = (   0.1666667   0.4811252   0.1625998), wk =   0.1333333
        k(   33) = (   0.1666667   0.4811252   0.3251995), wk =   0.1333333
        k(   34) = (   0.1666667   0.4811252   0.4877993), wk =   0.1333333
        k(   35) = (   0.1666667   0.4811252   0.6503991), wk =   0.1333333
        k(   36) = (   0.1666667   0.4811252  -0.8129989), wk =   0.0666667
        k(   37) = (   0.3333333   0.5773503   0.0000000), wk =   0.0111111
        k(   38) = (   0.3333333   0.5773503   0.1625998), wk =   0.0222222
        k(   39) = (   0.3333333   0.5773503   0.3251995), wk =   0.0222222
        k(   40) = (   0.3333333   0.5773503   0.4877993), wk =   0.0222222
        k(   41) = (   0.3333333   0.5773503   0.6503991), wk =   0.0222222
        k(   42) = (   0.3333333   0.5773503  -0.8129989), wk =   0.0111111

     Dense  grid:    91735 G-vectors     FFT dimensions: (  72,  72,  45)

     Estimated max dynamical RAM per process >      36.11 MB

     Estimated total dynamical RAM >     288.86 MB

     Initial potential from superposition of free atoms

     starting charge      21.9884, renormalised to      22.0000
     Starting wfcs are   20 randomized atomic wfcs

     total cpu time spent up to now is        5.0 secs

     Self-consistent Calculation

     iteration #  1     ecut=    80.00 Ry     beta= 0.70
     Davidson diagonalization with overlap
     ethr =  1.00E-02,  avg # of iterations =  3.3

     Threshold (ethr) on eigenvalues was too large:
     Diagonalizing with lowered threshold

     Davidson diagonalization with overlap
     ethr =  3.08E-04,  avg # of iterations =  3.5

     total cpu time spent up to now is        8.9 secs

     total energy              =     -62.31648295 Ry
     estimated scf accuracy    <       0.06657747 Ry

     iteration #  2     ecut=    80.00 Ry     beta= 0.70
     Davidson diagonalization with overlap
     ethr =  3.03E-04,  avg # of iterations =  2.1

     total cpu time spent up to now is       10.6 secs

     total energy              =     -62.31663575 Ry
     estimated scf accuracy    <       0.02505322 Ry

     iteration #  3     ecut=    80.00 Ry     beta= 0.70
     Davidson diagonalization with overlap
     ethr =  1.14E-04,  avg # of iterations =  2.5

     total cpu time spent up to now is       12.3 secs

     total energy              =     -62.32357119 Ry
     estimated scf accuracy    <       0.01247190 Ry

     iteration #  4     ecut=    80.00 Ry     beta= 0.70
     Davidson diagonalization with overlap
     ethr =  5.67E-05,  avg # of iterations =  2.3

     total cpu time spent up to now is       14.0 secs

     total energy              =     -62.32535728 Ry
     estimated scf accuracy    <       0.00020592 Ry

     iteration #  5     ecut=    80.00 Ry     beta= 0.70
     Davidson diagonalization with overlap
     ethr =  9.36E-07,  avg # of iterations =  6.0

     total cpu time spent up to now is       16.4 secs

     total energy              =     -62.32552407 Ry
     estimated scf accuracy    <       0.00011845 Ry

     iteration #  6     ecut=    80.00 Ry     beta= 0.70
     Davidson diagonalization with overlap
     ethr =  5.38E-07,  avg # of iterations =  2.0

     total cpu time spent up to now is       18.0 secs

     total energy              =     -62.32553675 Ry
     estimated scf accuracy    <       0.00000423 Ry

     iteration #  7     ecut=    80.00 Ry     beta= 0.70
     Davidson diagonalization with overlap
     ethr =  1.92E-08,  avg # of iterations =  4.5

     total cpu time spent up to now is       20.0 secs

     total energy              =     -62.32553918 Ry
     estimated scf accuracy    <       0.00000281 Ry

     iteration #  8     ecut=    80.00 Ry     beta= 0.70
     Davidson diagonalization with overlap
     ethr =  1.28E-08,  avg # of iterations =  1.2

     total cpu time spent up to now is       21.4 secs

     total energy              =     -62.32553913 Ry
     estimated scf accuracy    <       0.00000061 Ry

     iteration #  9     ecut=    80.00 Ry     beta= 0.70
     Davidson diagonalization with overlap
     ethr =  2.75E-09,  avg # of iterations =  2.3

     total cpu time spent up to now is       23.1 secs

     End of self-consistent calculation

          k = 0.0000 0.0000 0.0000 ( 11433 PWs)   bands (ev):

   -42.9720 -42.9707  -7.1994  -3.6462  -3.6462  -1.6086   0.3258   0.3258
     1.2906   2.7081   3.2772   4.6845   4.6845   4.9433   4.9433

          k = 0.0000 0.0000 0.1626 ( 11445 PWs)   bands (ev):

   -42.9720 -42.9707  -7.1122  -3.5823  -3.5823  -1.6615   0.3815   0.3815
     0.5506   2.7677   3.9657   3.9657   4.2510   5.2164   5.2164

          k = 0.0000 0.0000 0.3252 ( 11391 PWs)   bands (ev):

   -42.9719 -42.9706  -6.8527  -3.4001  -3.4001  -2.0368  -0.1977   0.5359
     0.5359   2.9221   2.9221   2.9396   4.8440   5.4177   5.4177

          k = 0.0000 0.0000 0.4878 ( 11433 PWs)   bands (ev):

   -42.9719 -42.9706  -6.4304  -3.1348  -3.1348  -2.9070  -0.2708   0.7395
     0.7395   1.9720   1.9720   3.1978   3.8675   5.6002   5.6002

          k = 0.0000 0.0000 0.6504 ( 11446 PWs)   bands (ev):

   -42.9718 -42.9705  -5.8823  -3.8511  -2.8696  -2.8696  -0.0597   0.8365
     0.8365   1.3804   1.3804   3.0909   3.4704   5.6847   5.6847

          k = 0.0000 0.0000-0.8130 ( 11458 PWs)   bands (ev):

   -42.9718 -42.9705  -5.4841  -4.3937  -2.7496  -2.7496   0.0708   0.7475
     0.7475   1.2921   1.2921   2.7793   3.6013   5.5394   5.8820

          k = 0.0000 0.1925 0.0000 ( 11440 PWs)   bands (ev):

   -42.9719 -42.9708  -7.1664  -3.8289  -3.7081  -1.4552   0.3982   0.6304
     1.3236   2.9173   3.2597   4.2730   4.4657   4.7408   4.8932

          k = 0.0000 0.1925 0.1626 ( 11459 PWs)   bands (ev):

   -42.9719 -42.9708  -7.0790  -3.7646  -3.6442  -1.5192   0.4278   0.5277
     0.7859   2.9630   3.6940   3.8877   4.3046   4.7094   4.9985

          k = 0.0000 0.1925 0.3252 ( 11444 PWs)   bands (ev):

   -42.9718 -42.9707  -6.8189  -3.5815  -3.4620  -1.9419  -0.1507   0.6221
     0.8721   2.7293   2.8131   3.2047   4.6880   5.1412   5.2225

          k = 0.0000 0.1925 0.4878 ( 11420 PWs)   bands (ev):

   -42.9718 -42.9707  -6.3951  -3.3254  -3.1968  -2.8386  -0.1983   0.8249
     1.0118   1.8504   1.9250   3.3904   4.1333   5.1047   5.3165

          k = 0.0000 0.1925 0.6504 ( 11429 PWs)   bands (ev):

   -42.9717 -42.9706  -5.8434  -3.8296  -3.0220  -2.9311  -0.0035   0.7778
     0.8509   1.4274   1.5995   3.4223   3.6271   5.2693   5.3028

          k = 0.0000 0.1925-0.8130 ( 11438 PWs)   bands (ev):

   -42.9717 -42.9706  -5.4381  -4.3769  -2.9029  -2.8111   0.1185   0.5441
     0.7065   1.4070   1.6562   3.1291   3.7420   5.0664   5.3693

          k = 0.0000 0.3849 0.0000 ( 11442 PWs)   bands (ev):

   -42.9717 -42.9710  -7.0953  -4.1448  -3.8181  -1.2209   0.6864   1.3561
     1.3944   3.0096   3.3248   3.5653   4.0373   4.4161   4.7997

          k = 0.0000 0.3849 0.1626 ( 11449 PWs)   bands (ev):

   -42.9717 -42.9710  -7.0074  -4.0796  -3.7541  -1.3033   0.4901   0.9027
     1.4675   3.1051   3.2718   3.7392   3.9524   4.3404   4.6195

          k = 0.0000 0.3849 0.3252 ( 11441 PWs)   bands (ev):

   -42.9717 -42.9709  -6.7458  -3.8932  -3.5718  -1.8055  -0.0589   0.9846
     1.5353   2.4817   2.6898   3.6899   3.7345   4.4347   5.5263

          k = 0.0000 0.3849 0.4878 ( 11454 PWs)   bands (ev):

   -42.9716 -42.9709  -6.3184  -3.6231  -3.3067  -2.7689  -0.0654   1.1139
     1.1641   1.8824   2.1596   3.8404   3.8927   4.6062   4.8210

          k = 0.0000 0.3849 0.6504 ( 11437 PWs)   bands (ev):

   -42.9715 -42.9708  -5.7578  -3.7778  -3.3204  -3.0393   0.1118   0.5149
     0.8520   1.7207   2.3067   3.8706   4.0132   4.3812   4.8032

          k = 0.0000 0.3849-0.8130 ( 11416 PWs)   bands (ev):

   -42.9715 -42.9708  -5.3338  -4.3422  -3.2017  -2.9192   0.2211   0.2334
     0.6292   1.7941   2.4033   3.6799   4.0817   4.4454   4.9423

          k = 0.0000-0.5774 0.0000 ( 11480 PWs)   bands (ev):

   -42.9716 -42.9711  -7.0567  -4.2879  -3.8676  -1.1354   0.9715   1.4326
     1.9389   2.6339   2.8966   3.7861   3.8727   4.2746   4.7558

          k = 0.0000-0.5774 0.1626 ( 11444 PWs)   bands (ev):

   -42.9716 -42.9711  -6.9686  -4.2223  -3.8036  -1.2229   0.5216   1.2740
     1.9614   2.6307   3.0412   3.6970   3.9605   4.1864   4.5578

          k = 0.0000-0.5774 0.3252 ( 11458 PWs)   bands (ev):

   -42.9715 -42.9711  -6.7060  -4.0346  -3.6212  -1.7531  -0.0270   1.3637
     1.8171   2.4535   2.6117   3.3031   3.8599   4.0386   5.5780

          k = 0.0000-0.5774 0.4878 ( 11442 PWs)   bands (ev):

   -42.9714 -42.9710  -6.2764  -3.7589  -3.3561  -2.7414  -0.0137   1.0726
     1.3251   2.0314   2.5137   3.5198   3.9636   4.1723   4.8410

          k = 0.0000-0.5774 0.6504 ( 11438 PWs)   bands (ev):

   -42.9714 -42.9710  -5.7100  -3.7374  -3.4791  -3.0876   0.1671   0.3798
     0.8378   2.0833   2.6858   3.9060   4.0386   4.2237   4.2950

          k = 0.0000-0.5774-0.8130 ( 11468 PWs)   bands (ev):

   -42.9714 -42.9709  -5.2734  -4.3244  -3.3505  -2.9676   0.1043   0.2640
     0.5926   2.1812   2.7654   3.7986   4.1405   4.2595   4.3550

          k = 0.1667 0.2887 0.0000 ( 11451 PWs)   bands (ev):

   -42.9718 -42.9709  -7.1139  -4.0405  -3.8301  -1.2368   0.5278   1.1685
     1.3759   3.0907   3.2585   3.7398   4.1741   4.5212   4.7826

          k = 0.1667 0.2887 0.1626 ( 11456 PWs)   bands (ev):

   -42.9718 -42.9709  -7.0261  -3.9756  -3.7660  -1.3228   0.5880   0.5966
     1.3102   3.2472   3.2477   3.8042   4.0500   4.4104   4.7230

          k = 0.1667 0.2887 0.3252 ( 11445 PWs)   bands (ev):

   -42.9717 -42.9709  -6.7649  -3.7904  -3.5832  -1.8258  -0.0221   0.7546
     1.4014   2.5703   2.6730   3.5625   3.8986   4.8057   5.4960

          k = 0.1667 0.2887 0.4878 ( 11438 PWs)   bands (ev):

   -42.9716 -42.9708  -6.3386  -3.5257  -3.3169  -2.7801  -0.0436   0.9500
     1.2011   1.8195   2.0451   3.7189   4.0273   4.8554   4.9667

          k = 0.1667 0.2887 0.6504 ( 11432 PWs)   bands (ev):

   -42.9716 -42.9707  -5.7804  -3.7929  -3.2147  -3.0501   0.1286   0.6117
     0.8136   1.5245   2.1460   3.8630   3.8995   4.5582   5.0067

          k = 0.1667 0.2887-0.8130 ( 11426 PWs)   bands (ev):

   -42.9716 -42.9707  -5.3619  -4.3510  -3.0976  -2.9291   0.2388   0.3325
     0.6078   1.5850   2.2400   3.6482   3.9880   4.6111   4.7921

          k = 0.1667 0.4811 0.0000 ( 11453 PWs)   bands (ev):

   -42.9716 -42.9711  -7.0571  -4.2237  -3.9557  -1.0240   0.8531   1.4321
     1.6639   2.7403   3.2652   3.6459   3.9541   4.3450   4.6578

          k = 0.1667 0.4811 0.1626 ( 11439 PWs)   bands (ev):

   -42.9716 -42.9711  -6.9689  -4.1583  -3.8913  -1.1377   0.6253   1.0239
     1.7560   2.7609   3.2260   3.8231   3.9526   4.2146   4.4895

          k = 0.1667 0.4811 0.3252 ( 11447 PWs)   bands (ev):

   -42.9715 -42.9711  -6.7064  -3.9714  -3.7077  -1.7276   0.1250   1.1330
     1.7469   2.4187   2.5384   3.4247   3.9944   4.2164   5.6317

          k = 0.1667 0.4811 0.4878 ( 11447 PWs)   bands (ev):

   -42.9714 -42.9710  -6.2768  -3.6978  -3.4404  -2.7340   0.1372   1.1207
     1.2043   1.8223   2.3745   3.5955   4.1235   4.3737   5.1664

          k = 0.1667 0.4811 0.6504 ( 11428 PWs)   bands (ev):

   -42.9714 -42.9710  -5.7107  -3.7417  -3.4109  -3.1689   0.2956   0.4538
     0.7409   1.8621   2.5630   3.8960   4.2545   4.4232   4.6144

          k = 0.1667 0.4811-0.8130 ( 11434 PWs)   bands (ev):

   -42.9714 -42.9709  -5.2745  -4.3245  -3.2873  -3.0473   0.1729   0.3902
     0.4920   1.9739   2.6581   4.1148   4.1302   4.3099   4.7065

          k = 0.3333 0.5774 0.0000 ( 11445 PWs)   bands (ev):

   -42.9714 -42.9714  -7.0374  -4.1480  -4.1480  -0.8553   1.1945   1.1945
     1.4514   3.2156   3.2156   3.3361   4.0829   4.4430   4.4430

          k = 0.3333 0.5774 0.1626 ( 11454 PWs)   bands (ev):

   -42.9713 -42.9713  -6.9491  -4.0830  -4.0830  -1.0083   0.8236   1.2519
     1.2519   3.0547   3.0547   4.0707   4.0707   4.1172   4.2358

          k = 0.3333 0.5774 0.3252 ( 11457 PWs)   bands (ev):

   -42.9713 -42.9713  -6.6860  -3.8972  -3.8972  -1.6797   0.3442   1.3880
     1.3880   2.3559   2.3559   3.9102   3.9102   4.2104   5.4923

          k = 0.3333 0.5774 0.4878 ( 11463 PWs)   bands (ev):

   -42.9712 -42.9712  -6.2553  -3.6251  -3.6251  -2.7152   0.3545   1.1717
     1.1717   1.9217   1.9217   4.0724   4.0724   4.3336   5.6685

          k = 0.3333 0.5774 0.6504 ( 11424 PWs)   bands (ev):

   -42.9712 -42.9712  -5.6862  -3.7200  -3.3505  -3.3505   0.4934   0.5431
     0.5431   2.1294   2.1294   4.3107   4.3107   4.4407   5.1849

          k = 0.3333 0.5774-0.8130 ( 11400 PWs)   bands (ev):

   -42.9711 -42.9711  -5.2431  -4.3156  -3.2249  -3.2249   0.2772   0.2772
     0.5645   2.2579   2.2579   4.4715   4.4715   4.4836   4.9732

     the Fermi energy is     3.3447 ev

!    total energy              =     -62.32553923 Ry
     estimated scf accuracy    <          9.9E-09 Ry
     smearing contrib. (-TS)   =      -0.00117395 Ry
     internal energy E=F+TS    =     -62.32436528 Ry

     The total energy is F=E-TS. E is the sum of the following terms:
     one-electron contribution =     -15.70533752 Ry
     hartree contribution      =      11.32459017 Ry
     xc contribution           =     -18.55238010 Ry
     ewald contribution        =     -39.39123784 Ry

     convergence has been achieved in   9 iterations

     Forces acting on atoms (cartesian axes, Ry/au):

     atom    1 type  1   force =     0.05993261   -0.10380633    0.00000000
     atom    2 type  1   force =    -0.11986522   -0.00000000   -0.00000000
     atom    3 type  1   force =     0.05993261    0.10380633   -0.00000000
     atom    4 type  1   force =     0.00000000   -0.00000000    0.00000000
     atom    5 type  2   force =    -0.00000000   -0.00000000    0.00000000
     atom    6 type  2   force =    -0.00000000   -0.00000000    0.00000000
     The non-local contrib.  to forces
     atom    1 type  1   force =     0.11944818   -0.20689031    0.00000000
     atom    2 type  1   force =    -0.23889636    0.00000000    0.00000000
     atom    3 type  1   force =     0.11944818    0.20689031    0.00000000
     atom    4 type  1   force =     0.00000000    0.00000000    0.00000000
     atom    5 type  2   force =     0.00000000    0.00000000    0.00000000
     atom    6 type  2   force =     0.00000000   -0.00000000   -0.00000000
     The ionic contribution  to forces
     atom    1 type  1   force =    -0.27839739    0.48219854   -0.00000000
     atom    2 type  1   force =     0.55679488    0.00000006    0.00000000
     atom    3 type  1   force =    -0.27839749   -0.48219859   -0.00000000
     atom    4 type  1   force =    -0.00000000   -0.00000000    0.00000000
     atom    5 type  2   force =     0.00000007   -0.00000004    0.00000000
     atom    6 type  2   force =    -0.00000007    0.00000004    0.00000000
     The local contribution  to forces
     atom    1 type  1   force =     0.22580935   -0.39111327    0.00000000
     atom    2 type  1   force =    -0.45161870   -0.00000000    0.00000000
     atom    3 type  1   force =     0.22580935    0.39111327    0.00000000
     atom    4 type  1   force =     0.00000000    0.00000000   -0.00000000
     atom    5 type  2   force =     0.00000118   -0.00000068    0.00000000
     atom    6 type  2   force =    -0.00000118    0.00000068    0.00000000
     The core correction contribution to forces
     atom    1 type  1   force =    -0.00696148    0.01205765   -0.00000000
     atom    2 type  1   force =     0.01392297    0.00000000    0.00000000
     atom    3 type  1   force =    -0.00696148   -0.01205765   -0.00000000
     atom    4 type  1   force =     0.00000000    0.00000000   -0.00000000
     atom    5 type  2   force =     0.00000000    0.00000000    0.00000000
     atom    6 type  2   force =     0.00000000    0.00000000    0.00000000
     The Hubbard contrib.    to forces
     atom    1 type  1   force =     0.00000000    0.00000000    0.00000000
     atom    2 type  1   force =     0.00000000    0.00000000    0.00000000
     atom    3 type  1   force =     0.00000000    0.00000000    0.00000000
     atom    4 type  1   force =     0.00000000    0.00000000    0.00000000
     atom    5 type  2   force =     0.00000000    0.00000000    0.00000000
     atom    6 type  2   force =     0.00000000    0.00000000    0.00000000
     The SCF correction term to forces
     atom    1 type  1   force =     0.00003403   -0.00005893    0.00000000
     atom    2 type  1   force =    -0.00006805    0.00000000    0.00000000
     atom    3 type  1   force =     0.00003403    0.00005893    0.00000000
     atom    4 type  1   force =    -0.00000000   -0.00000000   -0.00000000
     atom    5 type  2   force =     0.00000000   -0.00000000    0.00000000
     atom    6 type  2   force =    -0.00000000    0.00000000    0.00000000

     Total force =     0.207613     Total SCF correction =     0.000118


     Computing stress (Cartesian axis) and pressure

          total   stress  (Ry/bohr**3)                   (kbar)     P=      -21.80
   0.00011240   0.00000000   0.00000000           16.53        0.00        0.00
   0.00000000   0.00011240  -0.00000000            0.00       16.53       -0.00
  -0.00000000  -0.00000000  -0.00066940           -0.00       -0.00      -98.47


     BFGS Geometry Optimization
     Energy error            =      0.0E+00 Ry
     Gradient error          =      1.2E-01 Ry/Bohr
     Cell gradient error     =      6.0E+02 kbar

     number of scf cycles    =   1
     number of bfgs steps    =   0

     enthalpy           new  =     -59.1070543850 Ry

     new trust radius        =       0.5000000000 bohr
ibrav =      4
 celldm(1) =     11.31925970
 celldm(3) =      0.60473100
Input lattice vectors:
     0.93436927     0.00000000    -0.00000000
    -0.46718464     0.80918753    -0.00000000
     0.00000000    -0.00000000     0.56504206
New lattice vectors in INITIAL alat:
     0.93436927     0.00000000     0.00000000
    -0.46718464     0.80918753     0.00000000
     0.00000000     0.00000000     0.56504206
New lattice vectors in NEW alat (for information only):
     1.00000000     0.00000000     0.00000000
    -0.50000000     0.86602540     0.00000000
     0.00000000     0.00000000     0.60473100
Discrepancy in bohr =     0.000000    0.000000    0.000000
     new conv_thr            =       0.0000000100 Ry

     new unit-cell volume =    759.53350 a.u.^3 (   112.55125 Ang^3 )
     density =      1.86226 g/cm^3

CELL_PARAMETERS (alat= 12.11433210)
   0.934369274   0.000000000   0.000000000
  -0.467184637   0.809187528   0.000000000
   0.000000000   0.000000000   0.565042062

ATOMIC_POSITIONS (crystal)
Si            0.0000000000        0.2764994371        0.0000000000
Si            0.2764994371       -0.0000000000       -0.0000000000
Si            0.7235005629        0.7235005629       -0.0000000000
Si            0.0000000000       -0.0000000000        0.5000000000
Li            0.3333333300        0.6666666700        0.0000000000
Li            0.6666666700        0.3333333300        0.0000000000



     Writing config-only to output data dir ./output/SiLi.save/
     NEW-OLD atomic charge density approx. for the potential
     extrapolated charge   16.57544, renormalised to   22.00000

     total cpu time spent up to now is       28.6 secs

     Self-consistent Calculation

     iteration #  1     ecut=    80.00 Ry     beta= 0.70
     Davidson diagonalization with overlap
     c_bands:  1 eigenvalues not converged
     c_bands:  1 eigenvalues not converged
     ethr =  1.00E-06,  avg # of iterations = 14.1

     total cpu time spent up to now is       34.6 secs

     total energy              =     -61.89345929 Ry
     estimated scf accuracy    <       0.35551029 Ry

     iteration #  2     ecut=    80.00 Ry     beta= 0.70
     Davidson diagonalization with overlap
     ethr =  1.62E-03,  avg # of iterations =  4.6

     total cpu time spent up to now is       36.9 secs

     total energy              =     -62.23269334 Ry
     estimated scf accuracy    <       1.28917184 Ry

     iteration #  3     ecut=    80.00 Ry     beta= 0.70
     Davidson diagonalization with overlap
     ethr =  1.62E-03,  avg # of iterations =  2.0

     total cpu time spent up to now is       38.5 secs

     total energy              =     -62.33358363 Ry
     estimated scf accuracy    <       0.11899614 Ry

     iteration #  4     ecut=    80.00 Ry     beta= 0.70
     Davidson diagonalization with overlap
     ethr =  5.41E-04,  avg # of iterations =  2.0

     total cpu time spent up to now is       40.1 secs

     total energy              =     -62.33602152 Ry
     estimated scf accuracy    <       0.02438746 Ry

     iteration #  5     ecut=    80.00 Ry     beta= 0.70
     Davidson diagonalization with overlap
     ethr =  1.11E-04,  avg # of iterations =  3.1

     total cpu time spent up to now is       41.8 secs

     total energy              =     -62.34107047 Ry
     estimated scf accuracy    <       0.00056820 Ry

     iteration #  6     ecut=    80.00 Ry     beta= 0.70
     Davidson diagonalization with overlap
     ethr =  2.58E-06,  avg # of iterations =  7.1

     total cpu time spent up to now is       44.5 secs

     total energy              =     -62.34161128 Ry
     estimated scf accuracy    <       0.00010293 Ry

     iteration #  7     ecut=    80.00 Ry     beta= 0.70
     Davidson diagonalization with overlap
     ethr =  4.68E-07,  avg # of iterations =  2.8

     total cpu time spent up to now is       46.3 secs

     total energy              =     -62.34163335 Ry
     estimated scf accuracy    <       0.00012366 Ry

     iteration #  8     ecut=    80.00 Ry     beta= 0.70
     Davidson diagonalization with overlap
     ethr =  4.68E-07,  avg # of iterations =  2.3

     total cpu time spent up to now is       47.9 secs

     total energy              =     -62.34165934 Ry
     estimated scf accuracy    <       0.00000114 Ry

     iteration #  9     ecut=    80.00 Ry     beta= 0.70
     Davidson diagonalization with overlap
     ethr =  5.16E-09,  avg # of iterations =  3.9

     total cpu time spent up to now is       49.8 secs

     total energy              =     -62.34165963 Ry
     estimated scf accuracy    <       0.00000043 Ry

     iteration # 10     ecut=    80.00 Ry     beta= 0.70
     Davidson diagonalization with overlap
     ethr =  1.95E-09,  avg # of iterations =  2.0

     total cpu time spent up to now is       51.4 secs

     total energy              =     -62.34165973 Ry
     estimated scf accuracy    <       0.00000001 Ry

     iteration # 11     ecut=    80.00 Ry     beta= 0.70
     Davidson diagonalization with overlap
     ethr =  6.49E-11,  avg # of iterations =  2.3

     total cpu time spent up to now is       53.1 secs

     End of self-consistent calculation

          k = 0.0000 0.0000 0.0000 ( 11433 PWs)   bands (ev):

   -41.2410 -41.2378  -7.1123  -2.4230  -2.4230  -0.0870   1.3272   1.3272
     2.4416   4.5631   5.2828   6.7830   6.7830   7.0716   7.0716

          k = 0.0000 0.0000 0.1770 ( 11445 PWs)   bands (ev):

   -41.2410 -41.2377  -7.0074  -2.3311  -2.3311  -0.0567   1.4012   1.4012
     1.5132   4.6409   5.8676   5.8676   6.4482   7.4406   7.4406

          k = 0.0000 0.0000 0.3540 ( 11391 PWs)   bands (ev):

   -41.2408 -41.2376  -6.6949  -2.0625  -2.0625  -0.4650   0.6018   1.6093
     1.6093   4.5460   4.5460   4.8704   6.9305   7.7189   7.7189

          k = 0.0000 0.0000 0.5309 ( 11433 PWs)   bands (ev):

   -41.2405 -41.2373  -6.1856  -1.7805  -1.6459  -1.6459   0.8120   1.8930
     1.8930   3.2973   3.2973   5.2350   5.6539   7.9513   7.9513

          k = 0.0000 0.0000 0.7079 ( 11446 PWs)   bands (ev):

   -41.2403 -41.2371  -5.5234  -3.0143  -1.1730  -1.1730   1.2041   1.9622
     1.9622   2.5237   2.5237   4.6764   5.6711   7.3716   7.3716

          k = 0.0000 0.0000-0.8849 ( 11458 PWs)   bands (ev):

   -41.2403 -41.2371  -5.0424  -3.6911  -0.9210  -0.9210   1.4142   1.6767
     1.6767   2.5128   2.5128   4.2726   5.9241   7.0422   7.0422

          k = 0.0000 0.2060 0.0000 ( 11440 PWs)   bands (ev):

   -41.2408 -41.2380  -7.0803  -2.6745  -2.5092   0.1177   1.4608   1.7187
     2.4734   4.7868   5.2981   6.2099   6.4765   6.8203   7.0165

          k = 0.0000 0.2060 0.1770 ( 11459 PWs)   bands (ev):

   -41.2408 -41.2379  -6.9752  -2.5828  -2.4177   0.1386   1.4911   1.5714
     1.8214   4.8478   5.5963   5.7727   6.4624   6.7607   7.1336

          k = 0.0000 0.2060 0.3540 ( 11444 PWs)   bands (ev):

   -41.2406 -41.2377  -6.6624  -2.3149  -2.1502  -0.3860   0.7376   1.7541
     2.0091   4.3194   4.4529   5.1196   6.7114   7.3243   7.5983

          k = 0.0000 0.2060 0.5309 ( 11420 PWs)   bands (ev):

   -41.2403 -41.2375  -6.1524  -1.9206  -1.7369  -1.7159   0.9667   2.0387
     2.2416   3.1290   3.2539   5.4195   5.9460   7.3907   7.5476

          k = 0.0000 0.2060 0.7079 ( 11429 PWs)   bands (ev):

   -41.2401 -41.2373  -5.4887  -2.9857  -1.4160  -1.2673   1.3241   1.8429
     1.9669   2.6513   2.8481   5.0496   5.7947   6.8914   7.5525

          k = 0.0000 0.2060-0.8849 ( 11438 PWs)   bands (ev):

   -41.2401 -41.2373  -5.0046  -3.6653  -1.1623  -1.0189   1.4381   1.5148
     1.6288   2.7153   2.9637   4.6712   6.0405   6.4620   7.3091

          k = 0.0000 0.4119 0.0000 ( 11442 PWs)   bands (ev):

   -41.2403 -41.2385  -7.0122  -3.0812  -2.6585   0.3490   1.9906   2.5409
     2.6371   4.9521   5.1726   5.4219   5.8365   6.4354   6.9132

          k = 0.0000 0.4119 0.1770 ( 11449 PWs)   bands (ev):

   -41.2403 -41.2384  -6.9069  -2.9895  -2.5674   0.3621   1.5707   2.1110
     2.7247   4.8846   5.1057   5.6561   5.8385   6.3998   6.6578

          k = 0.0000 0.4119 0.3540 ( 11441 PWs)   bands (ev):

   -41.2401 -41.2382  -6.5933  -2.7211  -2.3014  -0.2845   0.9007   2.3042
     2.8786   3.9690   4.2948   5.6031   5.6734   6.3845   7.9020

          k = 0.0000 0.4119 0.5309 ( 11454 PWs)   bands (ev):

   -41.2399 -41.2380  -6.0817  -2.3068  -1.8907  -1.6685   1.1454   2.4432
     2.5045   3.2061   3.5077   5.7811   5.8936   6.6151   6.7558

          k = 0.0000 0.4119 0.7079 ( 11437 PWs)   bands (ev):

   -41.2397 -41.2378  -5.4142  -2.9244  -1.8223  -1.4270   1.4371   1.5437
     1.9322   3.1719   3.7504   5.4970   6.1695   6.4182   6.8134

          k = 0.0000 0.4119-0.8849 ( 11416 PWs)   bands (ev):

   -41.2396 -41.2377  -4.9230  -3.6114  -1.5678  -1.1836   1.0624   1.5387
     1.6486   3.3204   3.9022   5.1894   6.3200   6.4762   6.6534

          k = 0.0000-0.6179 0.0000 ( 11480 PWs)   bands (ev):

   -41.2400 -41.2389  -6.9759  -3.2569  -2.7244   0.4033   2.5235   2.5767
     3.3428   4.2631   4.6593   5.5689   5.8469   6.2729   6.8646

          k = 0.0000-0.6179 0.1770 ( 11444 PWs)   bands (ev):

   -41.2399 -41.2388  -6.8705  -3.1652  -2.6335   0.4176   1.6076   2.6582
     3.4006   4.2596   4.6913   5.5035   5.9611   6.1952   6.6464

          k = 0.0000-0.6179 0.3540 ( 11458 PWs)   bands (ev):

   -41.2397 -41.2386  -6.5564  -2.8966  -2.3679  -0.2451   0.9422   2.8358
     3.3610   3.9026   4.1415   4.9898   5.6882   6.0919   7.8423

          k = 0.0000-0.6179 0.5309 ( 11442 PWs)   bands (ev):

   -41.2395 -41.2384  -6.0438  -2.4791  -1.9584  -1.6394   1.1943   2.3394
     2.7297   3.4576   4.0315   5.2888   5.8258   6.2969   6.5772

          k = 0.0000-0.6179 0.7079 ( 11438 PWs)   bands (ev):

   -41.2393 -41.2382  -5.3741  -2.8906  -2.0029  -1.4966   1.3409   1.5285
     1.9023   3.6665   4.3212   5.6095   5.8092   6.0931   6.4940

          k = 0.0000-0.6179-0.8849 ( 11468 PWs)   bands (ev):

   -41.2392 -41.2381  -4.8785  -3.5833  -1.7476  -1.2549   0.9031   1.4962
     1.6920   3.8366   4.4569   5.2036   6.1773   6.2225   6.6111

          k = 0.1784 0.3090 0.0000 ( 11451 PWs)   bands (ev):

   -41.2405 -41.2383  -7.0298  -2.9502  -2.6747   0.3999   1.6483   2.4468
     2.5234   5.0870   5.1547   5.5061   6.1195   6.5587   6.8882

          k = 0.1784 0.3090 0.1770 ( 11456 PWs)   bands (ev):

   -41.2404 -41.2383  -6.9246  -2.8585  -2.5835   0.4004   1.6016   1.7276
     2.5406   5.0577   5.1317   5.6925   5.9655   6.5449   6.7836

          k = 0.1784 0.3090 0.3540 ( 11445 PWs)   bands (ev):

   -41.2402 -41.2381  -6.6112  -2.5905  -2.3171  -0.2984   0.9658   1.9518
     2.7086   4.0982   4.2795   5.5245   5.7884   6.8928   8.0031

          k = 0.1784 0.3090 0.5309 ( 11438 PWs)   bands (ev):

   -41.2400 -41.2379  -6.1000  -2.1802  -1.9049  -1.6804   1.2044   2.2321
     2.5078   3.1322   3.3580   5.7637   5.9002   6.9619   7.0990

          k = 0.1784 0.3090 0.7079 ( 11432 PWs)   bands (ev):

   -41.2398 -41.2377  -5.4336  -2.9405  -1.6899  -1.4402   1.5040   1.6443
     1.8935   2.8604   3.5573   5.5555   6.0218   6.6150   6.7316

          k = 0.1784 0.3090-0.8849 ( 11426 PWs)   bands (ev):

   -41.2397 -41.2376  -4.9444  -3.6252  -1.4358  -1.1950   1.1842   1.5105
     1.6936   3.0061   3.7029   5.2638   6.1378   6.2486   6.8307

          k = 0.1784 0.5149 0.0000 ( 11453 PWs)   bands (ev):

   -41.2400 -41.2389  -6.9762  -3.1785  -2.8398   0.6442   2.1693   2.5763
     3.1000   4.4019   5.1302   5.5150   5.9093   6.3566   6.7413

          k = 0.1784 0.5149 0.1770 ( 11439 PWs)   bands (ev):

   -41.2399 -41.2388  -6.8707  -3.0868  -2.7487   0.6224   1.6600   2.2790
     3.1793   4.3941   4.9860   5.6652   5.9495   6.2416   6.6067

          k = 0.1784 0.5149 0.3540 ( 11447 PWs)   bands (ev):

   -41.2397 -41.2386  -6.5567  -2.8187  -2.4827  -0.2270   1.1760   2.4854
     3.2608   3.8750   4.0892   5.1598   5.9780   6.1826   8.2758

          k = 0.1784 0.5149 0.5309 ( 11447 PWs)   bands (ev):

   -41.2395 -41.2384  -6.0441  -2.4027  -2.0716  -1.6365   1.4236   2.4064
     2.5779   3.1624   3.8553   5.3916   6.1739   6.3903   7.0651

          k = 0.1784 0.5149 0.7079 ( 11428 PWs)   bands (ev):

   -41.2393 -41.2382  -5.3744  -2.8912  -1.9259  -1.6068   1.4197   1.7281
     1.7884   3.3706   4.1644   5.7442   6.1154   6.4154   6.6538

          k = 0.1784 0.5149-0.8849 ( 11434 PWs)   bands (ev):

   -41.2392 -41.2381  -4.8789  -3.5835  -1.6724  -1.3624   0.9870   1.3722
     1.8751   3.5675   4.3205   5.6166   6.1667   6.5093   6.8479

          k = 0.3567 0.6179 0.0000 ( 11445 PWs)   bands (ev):

   -41.2394 -41.2394  -6.9577  -3.0841  -3.0841   0.9672   2.4995   2.4995
     2.5943   4.9404   4.9404   5.4112   6.1025   6.4791   6.4791

          k = 0.3567 0.6179 0.1770 ( 11454 PWs)   bands (ev):

   -41.2393 -41.2393  -6.8522  -2.9928  -2.9928   0.8686   1.7956   2.5792
     2.5792   4.7687   4.7687   5.9559   5.9559   6.1533   6.5293

          k = 0.3567 0.6179 0.3540 ( 11457 PWs)   bands (ev):

   -41.2392 -41.2392  -6.5379  -2.7256  -2.7256  -0.1943   1.5011   2.7915
     2.7915   3.8668   3.8668   5.7348   5.7348   6.2934   8.1601

          k = 0.3567 0.6179 0.5309 ( 11463 PWs)   bands (ev):

   -41.2389 -41.2389  -6.0248  -2.3114  -2.3114  -1.6199   1.7284   2.4901
     2.4901   3.3271   3.3271   5.9539   5.9539   6.4830   8.1756

          k = 0.3567 0.6179 0.7079 ( 11424 PWs)   bands (ev):

   -41.2387 -41.2387  -5.3539  -2.8740  -1.8420  -1.8420   1.5385   1.5385
     1.9889   3.7022   3.7022   6.2471   6.2471   6.6530   7.0170

          k = 0.3567 0.6179-0.8849 ( 11400 PWs)   bands (ev):

   -41.2387 -41.2387  -4.8561  -3.5694  -1.5927  -1.5927   1.1115   1.1115
     2.1058   3.9207   3.9207   6.4540   6.5315   6.5315   6.7227

     the Fermi energy is     5.1676 ev

!    total energy              =     -62.34165973 Ry
     estimated scf accuracy    <          8.2E-11 Ry
     smearing contrib. (-TS)   =      -0.00174352 Ry
     internal energy E=F+TS    =     -62.33991621 Ry

     The total energy is F=E-TS. E is the sum of the following terms:
     one-electron contribution =     -11.73242497 Ry
     hartree contribution      =      10.72319848 Ry
     xc contribution           =     -19.06254046 Ry
     ewald contribution        =     -42.26814926 Ry

     convergence has been achieved in  11 iterations

     Forces acting on atoms (cartesian axes, Ry/au):

     atom    1 type  1   force =     0.05300860   -0.09181359    0.00000000
     atom    2 type  1   force =    -0.10601721   -0.00000000   -0.00000000
     atom    3 type  1   force =     0.05300860    0.09181359    0.00000000
     atom    4 type  1   force =     0.00000000   -0.00000000    0.00000000
     atom    5 type  2   force =     0.00000000   -0.00000000    0.00000000
     atom    6 type  2   force =     0.00000000    0.00000000    0.00000000
     The non-local contrib.  to forces
     atom    1 type  1   force =     0.11608395   -0.20106330   -0.00000000
     atom    2 type  1   force =    -0.23216790   -0.00000000    0.00000000
     atom    3 type  1   force =     0.11608395    0.20106330    0.00000000
     atom    4 type  1   force =     0.00000000    0.00000000    0.00000000
     atom    5 type  2   force =     0.00000000    0.00000000    0.00000000
     atom    6 type  2   force =     0.00000000    0.00000000    0.00000000
     The ionic contribution  to forces
     atom    1 type  1   force =    -0.44485018    0.77050324   -0.00000000
     atom    2 type  1   force =     0.88970048    0.00000006   -0.00000000
     atom    3 type  1   force =    -0.44485029   -0.77050331   -0.00000000
     atom    4 type  1   force =    -0.00000000   -0.00000000    0.00000000
     atom    5 type  2   force =     0.00000008   -0.00000005    0.00000000
     atom    6 type  2   force =    -0.00000008    0.00000005    0.00000000
     The local contribution  to forces
     atom    1 type  1   force =     0.38770057   -0.67151709    0.00000000
     atom    2 type  1   force =    -0.77540114    0.00000000    0.00000000
     atom    3 type  1   force =     0.38770057    0.67151709    0.00000000
     atom    4 type  1   force =     0.00000000    0.00000000   -0.00000000
     atom    5 type  2   force =     0.00000109   -0.00000063   -0.00000000
     atom    6 type  2   force =    -0.00000109    0.00000063    0.00000000
     The core correction contribution to forces
     atom    1 type  1   force =    -0.00592830    0.01026811    0.00000000
     atom    2 type  1   force =     0.01185659    0.00000000    0.00000000
     atom    3 type  1   force =    -0.00592830   -0.01026811    0.00000000
     atom    4 type  1   force =     0.00000000   -0.00000000   -0.00000000
     atom    5 type  2   force =     0.00000000    0.00000000    0.00000000
     atom    6 type  2   force =     0.00000000    0.00000000    0.00000000
     The Hubbard contrib.    to forces
     atom    1 type  1   force =     0.00000000    0.00000000    0.00000000
     atom    2 type  1   force =     0.00000000    0.00000000    0.00000000
     atom    3 type  1   force =     0.00000000    0.00000000    0.00000000
     atom    4 type  1   force =     0.00000000    0.00000000    0.00000000
     atom    5 type  2   force =     0.00000000    0.00000000    0.00000000
     atom    6 type  2   force =     0.00000000    0.00000000    0.00000000
     The SCF correction term to forces
     atom    1 type  1   force =     0.00000263   -0.00000456   -0.00000000
     atom    2 type  1   force =    -0.00000526   -0.00000000   -0.00000000
     atom    3 type  1   force =     0.00000263    0.00000456   -0.00000000
     atom    4 type  1   force =     0.00000000    0.00000000    0.00000000
     atom    5 type  2   force =    -0.00000000    0.00000000   -0.00000000
     atom    6 type  2   force =     0.00000000   -0.00000000   -0.00000000

     Total force =     0.183627     Total SCF correction =     0.000009


     Computing stress (Cartesian axis) and pressure

          total   stress  (Ry/bohr**3)                   (kbar)     P=       81.18
   0.00094401   0.00000000  -0.00000000          138.87        0.00       -0.00
   0.00000000   0.00094401  -0.00000000            0.00      138.87       -0.00
   0.00000000   0.00000000  -0.00023253            0.00        0.00      -34.21

     Energy error            =      6.5E-01 Ry
     Gradient error          =      1.1E-01 Ry/Bohr
     Cell gradient error     =      5.3E+02 kbar

     number of scf cycles    =   2
     number of bfgs steps    =   1

     enthalpy           old  =     -59.1070543850 Ry
     enthalpy           new  =     -59.7600578323 Ry

     CASE: enthalpy          _new < enthalpy          _old

     new trust radius        =       0.7311045035 bohr
ibrav =      4
 celldm(1) =     10.37816466
 celldm(3) =      0.57208276
Input lattice vectors:
     0.85668484     0.00000000     0.00000000
    -0.42834242     0.74191083     0.00000000
    -0.00000000     0.00000000     0.49009463
New lattice vectors in INITIAL alat:
     0.85668484     0.00000000     0.00000000
    -0.42834242     0.74191083     0.00000000
     0.00000000     0.00000000     0.49009463
New lattice vectors in NEW alat (for information only):
     1.00000000     0.00000000     0.00000000
    -0.50000000     0.86602540     0.00000000
     0.00000000     0.00000000     0.57208276
Discrepancy in bohr =     0.000000    0.000000    0.000000
     new conv_thr            =       0.0000000100 Ry

     new unit-cell volume =    553.79772 a.u.^3 (    82.06436 Ang^3 )
     density =      2.55409 g/cm^3

CELL_PARAMETERS (alat= 12.11433210)
   0.856684840   0.000000000   0.000000000
  -0.428342420   0.741910834   0.000000000
   0.000000000   0.000000000   0.490094627

ATOMIC_POSITIONS (crystal)
Si            0.0000000000        0.2637906554        0.0000000000
Si            0.2637906554       -0.0000000000       -0.0000000000
Si            0.7362093446        0.7362093446       -0.0000000000
Si            0.0000000000       -0.0000000000        0.5000000000
Li            0.3333333300        0.6666666700        0.0000000000
Li            0.6666666700        0.3333333300        0.0000000000



     Writing config-only to output data dir ./output/SiLi.save/
     NEW-OLD atomic charge density approx. for the potential

     negative rho (up, down):  8.585E-04 0.000E+00
     extrapolated charge   13.83130, renormalised to   22.00000

     total cpu time spent up to now is       58.4 secs

     Self-consistent Calculation

     iteration #  1     ecut=    80.00 Ry     beta= 0.70
     Davidson diagonalization with overlap
     c_bands:  1 eigenvalues not converged
     c_bands:  1 eigenvalues not converged
     c_bands:  3 eigenvalues not converged
     c_bands:  1 eigenvalues not converged
     c_bands:  1 eigenvalues not converged
     ethr =  1.00E-06,  avg # of iterations = 15.9

     total cpu time spent up to now is       65.0 secs

     total energy              =     -60.56780272 Ry
     estimated scf accuracy    <       1.33245204 Ry

     iteration #  2     ecut=    80.00 Ry     beta= 0.70
     Davidson diagonalization with overlap
     ethr =  6.06E-03,  avg # of iterations =  4.4

     total cpu time spent up to now is       67.3 secs

     total energy              =     -61.56347431 Ry
     estimated scf accuracy    <       5.57929651 Ry

     iteration #  3     ecut=    80.00 Ry     beta= 0.70
     Davidson diagonalization with overlap
     ethr =  6.06E-03,  avg # of iterations =  2.0

     total cpu time spent up to now is       68.9 secs

     total energy              =     -61.99374572 Ry
     estimated scf accuracy    <       0.46514535 Ry

     iteration #  4     ecut=    80.00 Ry     beta= 0.70
     Davidson diagonalization with overlap
     ethr =  2.11E-03,  avg # of iterations =  2.1

     total cpu time spent up to now is       70.6 secs

     total energy              =     -62.03655853 Ry
     estimated scf accuracy    <       0.04981061 Ry

     iteration #  5     ecut=    80.00 Ry     beta= 0.70
     Davidson diagonalization with overlap
     ethr =  2.26E-04,  avg # of iterations =  3.8

     total cpu time spent up to now is       72.4 secs

     total energy              =     -62.05174612 Ry
     estimated scf accuracy    <       0.00039604 Ry

     iteration #  6     ecut=    80.00 Ry     beta= 0.70
     Davidson diagonalization with overlap
     ethr =  1.80E-06,  avg # of iterations =  8.1

     total cpu time spent up to now is       75.0 secs

     total energy              =     -62.05229082 Ry
     estimated scf accuracy    <       0.00002029 Ry

     iteration #  7     ecut=    80.00 Ry     beta= 0.70
     Davidson diagonalization with overlap
     ethr =  9.22E-08,  avg # of iterations =  2.5

     total cpu time spent up to now is       76.5 secs

     total energy              =     -62.05229188 Ry
     estimated scf accuracy    <       0.00000375 Ry

     iteration #  8     ecut=    80.00 Ry     beta= 0.70
     Davidson diagonalization with overlap
     ethr =  1.71E-08,  avg # of iterations =  3.1

     total cpu time spent up to now is       78.2 secs

     total energy              =     -62.05229296 Ry
     estimated scf accuracy    <       0.00000266 Ry

     iteration #  9     ecut=    80.00 Ry     beta= 0.70
     Davidson diagonalization with overlap
     ethr =  1.21E-08,  avg # of iterations =  2.0

     total cpu time spent up to now is       79.6 secs

     total energy              =     -62.05229337 Ry
     estimated scf accuracy    <       0.00000004 Ry

     iteration # 10     ecut=    80.00 Ry     beta= 0.70
     Davidson diagonalization with overlap
     ethr =  1.66E-10,  avg # of iterations =  4.3

     total cpu time spent up to now is       81.6 secs

     total energy              =     -62.05229340 Ry
     estimated scf accuracy    <       0.00000004 Ry

     iteration # 11     ecut=    80.00 Ry     beta= 0.70
     Davidson diagonalization with overlap
     ethr =  1.64E-10,  avg # of iterations =  2.0

     total cpu time spent up to now is       83.1 secs

     End of self-consistent calculation

          k = 0.0000 0.0000 0.0000 ( 11433 PWs)   bands (ev):

   -38.4302 -38.4206  -6.9451  -0.6508  -0.6508   2.0557   3.1679   3.1679
     5.1259   7.7033   9.1432  10.3328  10.3328  11.1571  11.1571

          k = 0.0000 0.0000 0.2040 ( 11445 PWs)   bands (ev):

   -38.4297 -38.4201  -6.8075  -0.5143  -0.5143   2.1612   3.2854   3.2854
     3.9717   7.8063   9.4559   9.4559  10.4823  11.2326  11.2326

          k = 0.0000 0.0000 0.4081 ( 11391 PWs)   bands (ev):

   -38.4285 -38.4190  -6.3986  -0.1069  -0.1069   1.8990   2.6303   3.6266
     3.6266   7.7381   7.7381   8.1161  10.4858  11.5054  11.5054

          k = 0.0000 0.0000 0.6121 ( 11433 PWs)   bands (ev):

   -38.4269 -38.4176  -5.7354   0.0839   0.5623   0.5623   3.1159   4.1447
     4.1447   5.9601   5.9601   8.6354   8.7680  11.3645  11.3645

          k = 0.0000 0.0000 0.8162 ( 11446 PWs)   bands (ev):

   -38.4257 -38.4164  -4.8843  -1.5156   1.4605   1.4605   3.7800   4.3421
     4.3421   4.7236   4.7236   7.3720   9.3682  10.0171  10.0171

          k = 0.0000 0.0000-1.0202 ( 11458 PWs)   bands (ev):

   -38.4252 -38.4160  -4.2888  -2.3643   2.2179   2.2179   3.3549   3.3549
     4.1805   4.9944   4.9944   6.7260   9.4705   9.4705  10.2404

          k = 0.0000 0.2246 0.0000 ( 11440 PWs)   bands (ev):

   -38.4296 -38.4211  -6.9164  -0.9792  -0.7675   2.3264   3.3941   3.6344
     5.1533   7.9468   9.0944   9.5976   9.8229  10.8707  11.1054

          k = 0.0000 0.2246 0.2040 ( 11459 PWs)   bands (ev):

   -38.4291 -38.4207  -6.7788  -0.8438  -0.6314   2.4316   3.5081   3.7466
     4.0098   8.0367   9.0510   9.2663  10.3165  10.5490  10.7959

          k = 0.0000 0.2246 0.4081 ( 11444 PWs)   bands (ev):

   -38.4279 -38.4196  -6.3700  -0.4401  -0.2256   1.9653   2.8589   3.8590
     4.0907   7.4579   7.6325   8.3786  10.1056  10.8956  11.3734

          k = 0.0000 0.2246 0.6121 ( 11420 PWs)   bands (ev):

   -38.4264 -38.4181  -5.7072   0.1009   0.2451   0.4398   3.3641   4.3728
     4.5878   5.7057   5.9153   8.7749   9.0715  11.0626  11.2532

          k = 0.0000 0.2246 0.8162 ( 11429 PWs)   bands (ev):

   -38.4252 -38.4170  -4.8576  -1.4785   1.1114   1.3261   3.9839   4.0210
     4.2333   5.0726   5.2688   7.7768   9.0482  10.1572  10.3515

          k = 0.0000 0.2246-1.0202 ( 11438 PWs)   bands (ev):

   -38.4247 -38.4165  -4.2655  -2.3236   1.8368   2.0460   3.0676   3.2976
     4.3625   5.3600   5.5463   7.1776   8.7835   9.8020  10.2955

          k = 0.0000 0.4493 0.0000 ( 11442 PWs)   bands (ev):

   -38.4281 -38.4226  -6.8563  -1.4791  -0.9654   2.5245   4.2418   4.7633
     5.2103   7.9421   8.2737   8.8407   9.2826  10.4414  11.0074

          k = 0.0000 0.4493 0.2040 ( 11449 PWs)   bands (ev):

   -38.4277 -38.4222  -6.7187  -1.3444  -0.8298   2.6342   4.0127   4.4000
     4.8814   7.9211   8.2214   8.8712   9.4503  10.1355  10.5820

          k = 0.0000 0.4493 0.4081 ( 11441 PWs)   bands (ev):

   -38.4265 -38.4210  -6.3101  -0.9427  -0.4259   2.0565   3.0181   4.7057
     5.2028   6.9473   7.3752   8.7590   8.9995   9.6345  11.5705

          k = 0.0000 0.4493 0.6121 ( 11454 PWs)   bands (ev):

   -38.4250 -38.4195  -5.6483  -0.2859   0.2008   0.2346   3.5350   4.9783
     5.3211   5.5843   6.0478   8.8641   9.2339   9.9564  10.2524

          k = 0.0000 0.4493 0.8162 ( 11437 PWs)   bands (ev):

   -38.4237 -38.4184  -4.8022  -1.3997   0.5984   1.1049   3.5482   4.0305
     4.2166   5.9431   6.4187   8.1054   9.2985  10.1643  10.3686

          k = 0.0000 0.4493-1.0202 ( 11416 PWs)   bands (ev):

   -38.4233 -38.4179  -4.2172  -2.2375   1.3086   1.7807   2.6002   3.1904
     4.4960   6.2896   6.7315   7.5552   9.0121  10.3497  10.5501

          k = 0.0000-0.6739 0.0000 ( 11480 PWs)   bands (ev):

   -38.4270 -38.4238  -6.8249  -1.6868  -1.0515   2.5523   5.0203   5.2399
     5.6607   7.0058   7.3889   9.1548   9.2810  10.2640  10.9609

          k = 0.0000-0.6739 0.2040 ( 11444 PWs)   bands (ev):

   -38.4265 -38.4233  -6.6873  -1.5522  -0.9161   2.6643   4.0608   5.1669
     5.7770   7.0464   7.3895   8.9761   9.4466   9.9541  10.5817

          k = 0.0000-0.6739 0.4081 ( 11458 PWs)   bands (ev):

   -38.4253 -38.4221  -6.2788  -1.1507  -0.5128   2.0979   3.0374   5.4818
     6.1161   6.5679   6.9626   7.9878   8.8402   9.5893  11.3419

          k = 0.0000-0.6739 0.6121 ( 11442 PWs)   bands (ev):

   -38.4238 -38.4207  -5.6175  -0.4913   0.1454   0.2368   3.5608   4.9415
     5.5120   6.0282   6.6391   8.3203   8.8398   9.7400   9.9655

          k = 0.0000-0.6739 0.8162 ( 11438 PWs)   bands (ev):

   -38.4226 -38.4195  -4.7733  -1.3575   0.3884   1.0106   3.3524   3.9796
     4.2424   6.5600   7.2248   8.1539   9.0594   9.4711  10.3228

          k = 0.0000-0.6739-1.0202 ( 11468 PWs)   bands (ev):

   -38.4221 -38.4191  -4.1922  -2.1916   1.0991   1.6718   2.3971   3.1400
     4.5352   6.9470   7.4533   7.5304   9.6925   9.8845  10.6843

          k = 0.1945 0.3370 0.0000 ( 11451 PWs)   bands (ev):

   -38.4286 -38.4222  -6.8717  -1.3225  -0.9824   2.6760   3.6482   4.5846
     5.1957   8.1490   8.3497   9.2420   9.3537  10.5789  10.9725

          k = 0.1945 0.3370 0.2040 ( 11456 PWs)   bands (ev):

   -38.4281 -38.4217  -6.7341  -1.1877  -0.8468   2.7789   3.7675   4.0334
     4.7133   8.1166   8.3689   9.0676   9.5851  10.4255  10.5426

          k = 0.1945 0.3370 0.4081 ( 11445 PWs)   bands (ev):

   -38.4269 -38.4206  -6.3255  -0.7857  -0.4429   2.0375   3.1737   4.1164
     5.0285   7.1232   7.4101   8.8457   8.9440  10.3625  11.7568

          k = 0.1945 0.3370 0.6121 ( 11438 PWs)   bands (ev):

   -38.4254 -38.4191  -5.6634  -0.1329   0.1867   0.2179   3.6760   4.6312
     5.1461   5.7569   5.7887   8.9747   9.1371  10.5375  10.6688

          k = 0.1945 0.3370 0.8162 ( 11432 PWs)   bands (ev):

   -38.4242 -38.4180  -4.8164  -1.4201   0.7566   1.0919   3.6939   4.0490
     4.2778   5.4474   6.2109   8.3201   8.8861  10.2620  10.4576

          k = 0.1945 0.3370-1.0202 ( 11426 PWs)   bands (ev):

   -38.4237 -38.4175  -4.2296  -2.2598   1.4663   1.7778   2.7545   3.1522
     4.5854   5.8169   6.5048   7.8437   8.3926  10.3923  10.6965

          k = 0.1945 0.5616 0.0000 ( 11453 PWs)   bands (ev):

   -38.4270 -38.4238  -6.8250  -1.5954  -1.1910   2.9213   4.4139   5.2397
     5.4502   7.1327   8.1185   9.1721   9.2587  10.3602  10.8141

          k = 0.1945 0.5616 0.2040 ( 11439 PWs)   bands (ev):

   -38.4265 -38.4233  -6.6875  -1.4608  -1.0559   3.0255   4.0683   4.5487
     5.5753   7.1573   8.0338   9.1725   9.3964   9.8992  10.5149

          k = 0.1945 0.5616 0.4081 ( 11447 PWs)   bands (ev):

   -38.4253 -38.4221  -6.2790  -1.0592  -0.6532   2.1007   3.3970   4.8780
     5.9087   6.6535   7.1032   8.2033   9.2127   9.6144  11.9117

          k = 0.1945 0.5616 0.6121 ( 11447 PWs)   bands (ev):

   -38.4238 -38.4207  -5.6176  -0.4007   0.0047   0.2377   3.8981   5.0120
     5.2594   5.6794   6.4437   8.4224   9.4149   9.9526  10.3892

          k = 0.1945 0.5616 0.8162 ( 11428 PWs)   bands (ev):

   -38.4226 -38.4195  -4.7734  -1.3580   0.4780   0.8730   3.4479   3.8743
     4.4857   6.1666   7.0375   8.5418   9.1080   9.9819  10.2306

          k = 0.1945 0.5616-1.0202 ( 11434 PWs)   bands (ev):

   -38.4221 -38.4191  -4.1923  -2.1921   1.1815   1.5434   2.5029   2.9822
     4.7682   6.6160   7.3739   7.9518   9.1576   9.8296  10.3503

          k = 0.3891 0.6739 0.0000 ( 11445 PWs)   bands (ev):

   -38.4254 -38.4254  -6.8091  -1.4845  -1.4845   3.4357   4.7280   4.7280
     5.2546   7.8214   7.8214   9.0907   9.4739  10.5091  10.5091

          k = 0.3891 0.6739 0.2040 ( 11454 PWs)   bands (ev):

   -38.4249 -38.4249  -6.6715  -1.3497  -1.3497   3.5118   4.1281   4.8475
     4.8475   7.7589   7.7589   9.5464   9.5464   9.5661  10.1961

          k = 0.3891 0.6739 0.4081 ( 11457 PWs)   bands (ev):

   -38.4237 -38.4237  -6.2631  -0.9479  -0.9479   2.1222   3.8895   5.1967
     5.1967   6.8628   6.8628   8.8571   8.8571   9.8268  11.2364

          k = 0.3891 0.6739 0.6121 ( 11463 PWs)   bands (ev):

   -38.4222 -38.4222  -5.6020  -0.2896  -0.2896   0.2562   4.3426   5.1172
     5.1172   5.8501   5.8501   9.1262   9.1262  10.1993  11.7841

          k = 0.3891 0.6739 0.8162 ( 11424 PWs)   bands (ev):

   -38.4211 -38.4211  -4.7588  -1.3368   0.5827   0.5827   3.5806   3.5806
     4.8153   6.5511   6.5511   9.2844   9.2844  10.2098  10.2098

          k = 0.3891 0.6739-1.0202 ( 11400 PWs)   bands (ev):

   -38.4206 -38.4206  -4.1796  -2.1690   1.2689   1.2689   2.6559   2.6559
     5.0363   7.0471   7.0471   8.8202   8.8202  10.2169  10.2169

     the Fermi energy is     8.1593 ev

!    total energy              =     -62.05229340 Ry
     estimated scf accuracy    <          1.9E-10 Ry
     smearing contrib. (-TS)   =      -0.00148808 Ry
     internal energy E=F+TS    =     -62.05080532 Ry

     The total energy is F=E-TS. E is the sum of the following terms:
     one-electron contribution =      -5.49838620 Ry
     hartree contribution      =      10.00885096 Ry
     xc contribution           =     -19.97607883 Ry
     ewald contribution        =     -46.58519125 Ry

     convergence has been achieved in  11 iterations

     Forces acting on atoms (cartesian axes, Ry/au):

     atom    1 type  1   force =    -0.01376283    0.02383793    0.00000000
     atom    2 type  1   force =     0.02752567    0.00000000    0.00000000
     atom    3 type  1   force =    -0.01376283   -0.02383793    0.00000000
     atom    4 type  1   force =     0.00000000   -0.00000000    0.00000000
     atom    5 type  2   force =     0.00000000   -0.00000000    0.00000000
     atom    6 type  2   force =    -0.00000000   -0.00000000    0.00000000
     The non-local contrib.  to forces
     atom    1 type  1   force =     0.05059838   -0.08763896    0.00000000
     atom    2 type  1   force =    -0.10119676   -0.00000000    0.00000000
     atom    3 type  1   force =     0.05059838    0.08763896    0.00000000
     atom    4 type  1   force =     0.00000000   -0.00000000    0.00000000
     atom    5 type  2   force =     0.00000000    0.00000000    0.00000000
     atom    6 type  2   force =    -0.00000000    0.00000000   -0.00000000
     The ionic contribution  to forces
     atom    1 type  1   force =    -0.85354485    1.47838320   -0.00000000
     atom    2 type  1   force =     1.70708983    0.00000007   -0.00000000
     atom    3 type  1   force =    -0.85354498   -1.47838327   -0.00000000
     atom    4 type  1   force =    -0.00000000   -0.00000000   -0.00000000
     atom    5 type  2   force =     0.00000009   -0.00000005    0.00000000
     atom    6 type  2   force =    -0.00000009    0.00000005    0.00000000
     The local contribution  to forces
     atom    1 type  1   force =     0.78875490   -1.36616357   -0.00000000
     atom    2 type  1   force =    -1.57750981    0.00000000   -0.00000000
     atom    3 type  1   force =     0.78875490    1.36616357   -0.00000000
     atom    4 type  1   force =     0.00000000    0.00000000   -0.00000000
     atom    5 type  2   force =     0.00000099   -0.00000057    0.00000000
     atom    6 type  2   force =    -0.00000099    0.00000057    0.00000000
     The core correction contribution to forces
     atom    1 type  1   force =     0.00042313   -0.00073289    0.00000000
     atom    2 type  1   force =    -0.00084626    0.00000000    0.00000000
     atom    3 type  1   force =     0.00042313    0.00073289    0.00000000
     atom    4 type  1   force =     0.00000000    0.00000000   -0.00000000
     atom    5 type  2   force =     0.00000000    0.00000000    0.00000000
     atom    6 type  2   force =     0.00000000    0.00000000    0.00000000
     The Hubbard contrib.    to forces
     atom    1 type  1   force =     0.00000000    0.00000000    0.00000000
     atom    2 type  1   force =     0.00000000    0.00000000    0.00000000
     atom    3 type  1   force =     0.00000000    0.00000000    0.00000000
     atom    4 type  1   force =     0.00000000    0.00000000    0.00000000
     atom    5 type  2   force =     0.00000000    0.00000000    0.00000000
     atom    6 type  2   force =     0.00000000    0.00000000    0.00000000
     The SCF correction term to forces
     atom    1 type  1   force =     0.00000569   -0.00000985   -0.00000000
     atom    2 type  1   force =    -0.00001137    0.00000000   -0.00000000
     atom    3 type  1   force =     0.00000569    0.00000985   -0.00000000
     atom    4 type  1   force =    -0.00000000   -0.00000000   -0.00000000
     atom    5 type  2   force =     0.00000000   -0.00000000   -0.00000000
     atom    6 type  2   force =    -0.00000000    0.00000000   -0.00000000

     Total force =     0.047676     Total SCF correction =     0.000020


     Computing stress (Cartesian axis) and pressure

          total   stress  (Ry/bohr**3)                   (kbar)     P=      501.55
   0.00361384   0.00000000   0.00000000          531.61        0.00        0.00
   0.00000000   0.00361384   0.00000000            0.00      531.61        0.00
   0.00000000   0.00000000   0.00300072            0.00        0.00      441.42

     Energy error            =      4.1E-01 Ry
     Gradient error          =      2.8E-02 Ry/Bohr
     Cell gradient error     =      5.9E+01 kbar

     number of scf cycles    =   3
     number of bfgs steps    =   2

     enthalpy           old  =     -59.7600578323 Ry
     enthalpy           new  =     -60.1699732120 Ry

     CASE: enthalpy          _new < enthalpy          _old

     new trust radius        =       0.0482063562 bohr
ibrav =      4
 celldm(1) =     10.41411101
 celldm(3) =      0.56426887
Input lattice vectors:
     0.85965210     0.00000000    -0.00000000
    -0.42982605     0.74448056    -0.00000000
     0.00000000    -0.00000000     0.48507492
New lattice vectors in INITIAL alat:
     0.85965210     0.00000000     0.00000000
    -0.42982605     0.74448056     0.00000000
     0.00000000     0.00000000     0.48507492
New lattice vectors in NEW alat (for information only):
     1.00000000     0.00000000     0.00000000
    -0.50000000     0.86602540     0.00000000
     0.00000000     0.00000000     0.56426887
Discrepancy in bohr =     0.000000    0.000000    0.000000
     new conv_thr            =       0.0000000028 Ry

     new unit-cell volume =    551.92915 a.u.^3 (    81.78746 Ang^3 )
     density =      2.56274 g/cm^3

CELL_PARAMETERS (alat= 12.11433210)
   0.859652098   0.000000000   0.000000000
  -0.429826049   0.744480555   0.000000000
   0.000000000   0.000000000   0.485074917

ATOMIC_POSITIONS (crystal)
Si            0.0000000000        0.2656595871        0.0000000000
Si            0.2656595871       -0.0000000000       -0.0000000000
Si            0.7343404129        0.7343404129       -0.0000000000
Si            0.0000000000       -0.0000000000        0.5000000000
Li            0.3333333300        0.6666666700        0.0000000000
Li            0.6666666700        0.3333333300        0.0000000000



     Writing config-only to output data dir ./output/SiLi.save/
     NEW-OLD atomic charge density approx. for the potential
     extrapolated charge   21.92556, renormalised to   22.00000

     total cpu time spent up to now is       88.1 secs

     Self-consistent Calculation

     iteration #  1     ecut=    80.00 Ry     beta= 0.70
     Davidson diagonalization with overlap
     ethr =  1.00E-06,  avg # of iterations =  6.2

     total cpu time spent up to now is       90.7 secs

     total energy              =     -62.05008704 Ry
     estimated scf accuracy    <       0.00016312 Ry

     iteration #  2     ecut=    80.00 Ry     beta= 0.70
     Davidson diagonalization with overlap
     ethr =  7.41E-07,  avg # of iterations =  3.1

     total cpu time spent up to now is       92.6 secs

     total energy              =     -62.05018747 Ry
     estimated scf accuracy    <       0.00046682 Ry

     iteration #  3     ecut=    80.00 Ry     beta= 0.70
     Davidson diagonalization with overlap
     ethr =  7.41E-07,  avg # of iterations =  2.0

     total cpu time spent up to now is       94.1 secs

     total energy              =     -62.05021978 Ry
     estimated scf accuracy    <       0.00003769 Ry

     iteration #  4     ecut=    80.00 Ry     beta= 0.70
     Davidson diagonalization with overlap
     ethr =  1.71E-07,  avg # of iterations =  2.5

     total cpu time spent up to now is       95.6 secs

     total energy              =     -62.05023043 Ry
     estimated scf accuracy    <       0.00000060 Ry

     iteration #  5     ecut=    80.00 Ry     beta= 0.70
     Davidson diagonalization with overlap
     ethr =  2.73E-09,  avg # of iterations =  4.1

     total cpu time spent up to now is       97.4 secs

     total energy              =     -62.05023085 Ry
     estimated scf accuracy    <       0.00000009 Ry

     iteration #  6     ecut=    80.00 Ry     beta= 0.70
     Davidson diagonalization with overlap
     ethr =  4.17E-10,  avg # of iterations =  2.2

     total cpu time spent up to now is       98.8 secs

     total energy              =     -62.05023088 Ry
     estimated scf accuracy    <          7.5E-09 Ry

     iteration #  7     ecut=    80.00 Ry     beta= 0.70
     Davidson diagonalization with overlap
     ethr =  3.39E-11,  avg # of iterations =  2.2

     total cpu time spent up to now is      100.2 secs

     End of self-consistent calculation

          k = 0.0000 0.0000 0.0000 ( 11433 PWs)   bands (ev):

   -38.3891 -38.3799  -6.8679  -0.6731  -0.6731   2.0452   3.1630   3.1630
     5.4730   7.6306   9.4497  10.2855  10.2855  11.3896  11.3896

          k = 0.0000 0.0000 0.2062 ( 11445 PWs)   bands (ev):

   -38.3886 -38.3794  -6.7268  -0.5332  -0.5332   2.1560   3.2846   3.2846
     4.2721   7.7359   9.5672   9.5672  10.8297  11.2526  11.2526

          k = 0.0000 0.0000 0.4123 ( 11391 PWs)   bands (ev):

   -38.3872 -38.3781  -6.3072  -0.1157  -0.1156   2.0979   2.6832   3.6385
     3.6385   7.8724   7.8724   8.0525  10.6187  11.4458  11.4458

          k = 0.0000 0.0000 0.6185 ( 11433 PWs)   bands (ev):

   -38.3855 -38.3765  -5.6254   0.2816   0.5712   0.5712   3.1409   4.1782
     4.1782   6.0629   6.0629   8.5833   8.8506  11.4310  11.4310

          k = 0.0000 0.0000 0.8246 ( 11446 PWs)   bands (ev):

   -38.3841 -38.3752  -4.7441  -1.3635   1.4979   1.4979   3.8335   4.4001
     4.4001   4.7906   4.7906   7.4077   9.3328  10.0397  10.0397

          k = 0.0000 0.0000-1.0308 ( 11458 PWs)   bands (ev):

   -38.3836 -38.3747  -4.1133  -2.2529   2.3034   2.3034   3.3624   3.3624
     4.2613   5.0784   5.0784   6.7286   9.4686   9.4686  10.2525

          k = 0.0000 0.2239 0.0000 ( 11440 PWs)   bands (ev):

   -38.3886 -38.3804  -6.8387  -0.9962  -0.7878   2.3111   3.3836   3.6282
     5.5007   7.8753   9.2739   9.6668   9.7727  11.1077  11.3383

          k = 0.0000 0.2239 0.2062 ( 11459 PWs)   bands (ev):

   -38.3881 -38.3799  -6.6976  -0.8574  -0.6482   2.4220   3.5033   3.7468
     4.3060   7.9696   9.1143   9.3408  10.4051  10.8335  10.9002

          k = 0.0000 0.2239 0.4123 ( 11444 PWs)   bands (ev):

   -38.3867 -38.3786  -6.2782  -0.4434  -0.2321   2.1877   2.8838   3.8649
     4.1012   7.5906   7.7541   8.3308  10.1050  10.8503  11.4526

          k = 0.0000 0.2239 0.6185 ( 11420 PWs)   bands (ev):

   -38.3850 -38.3770  -5.5967   0.2134   0.3457   0.4513   3.3852   4.4005
     4.6204   5.8098   6.0154   8.7379   9.1292  11.0707  11.2684

          k = 0.0000 0.2239 0.8246 ( 11429 PWs)   bands (ev):

   -38.3836 -38.3757  -4.7171  -1.3261   1.1550   1.3669   4.0366   4.0799
     4.2906   5.1319   5.3322   7.8038   9.0407  10.1667  10.3719

          k = 0.0000 0.2239-1.0308 ( 11438 PWs)   bands (ev):

   -38.3831 -38.3752  -4.0898  -2.2117   1.9275   2.1337   3.0782   3.3052
     4.4379   5.4396   5.6295   7.1742   8.7750   9.7976  10.3056

          k = 0.0000 0.4477 0.0000 ( 11442 PWs)   bands (ev):

   -38.3872 -38.3818  -6.7778  -1.4907  -0.9826   2.5100   4.2182   4.7521
     5.5583   7.8825   8.2192   8.7805   9.5794  10.6836  11.2411

          k = 0.0000 0.4477 0.2062 ( 11449 PWs)   bands (ev):

   -38.3867 -38.3813  -6.6367  -1.3526  -0.8435   2.6247   4.2289   4.4631
     4.8766   7.8924   8.1989   8.8243   9.6132  10.2873  10.9219

          k = 0.0000 0.4477 0.4123 ( 11441 PWs)   bands (ev):

   -38.3853 -38.3800  -6.2175  -0.9407  -0.4290   2.2929   3.0302   4.6996
     5.2086   7.0699   7.4766   8.7275   8.9648   9.6219  11.6948

          k = 0.0000 0.4477 0.6185 ( 11454 PWs)   bands (ev):

   -38.3836 -38.3784  -5.5368  -0.2653   0.2496   0.4003   3.5569   5.0405
     5.3829   5.6411   6.1109   8.8561   9.2067   9.9307  10.2866

          k = 0.0000 0.4477 0.8246 ( 11437 PWs)   bands (ev):

   -38.3822 -38.3770  -4.6606  -1.2462   0.6475   1.1506   3.6132   4.0832
     4.2719   5.9882   6.4747   8.1266   9.2926  10.1552  10.3589

          k = 0.0000 0.4477-1.0308 ( 11416 PWs)   bands (ev):

   -38.3817 -38.3765  -4.0411  -2.1240   1.4043   1.8715   2.6141   3.1982
     4.5705   6.3606   6.8093   7.5519   8.9926  10.3530  10.5472

          k = 0.0000-0.6716 0.0000 ( 11480 PWs)   bands (ev):

   -38.3860 -38.3830  -6.7459  -1.6968  -1.0674   2.5381   4.9966   5.5883
     5.6459   6.9348   7.3475   9.0856   9.5805  10.5080  11.1949

          k = 0.0000-0.6716 0.2062 ( 11444 PWs)   bands (ev):

   -38.3855 -38.3824  -6.6048  -1.5589  -0.9285   2.6548   4.3523   5.1580
     5.7661   6.9920   7.3657   9.0294   9.5136  10.1308  10.9128

          k = 0.0000-0.6716 0.4123 ( 11458 PWs)   bands (ev):

   -38.3842 -38.3811  -6.1856  -1.1472  -0.5147   2.3376   3.0470   5.4755
     6.1173   6.6571   7.0287   7.9822   8.8875   9.5386  11.4638

          k = 0.0000-0.6716 0.6185 ( 11442 PWs)   bands (ev):

   -38.3825 -38.3795  -5.5055  -0.4700   0.1624   0.4373   3.5825   5.0484
     5.5966   6.0508   6.6616   8.2668   8.8400   9.8092   9.9310

          k = 0.0000-0.6716 0.8246 ( 11438 PWs)   bands (ev):

   -38.3811 -38.3781  -4.6311  -1.2034   0.4389   1.0581   3.4186   4.0324
     4.2973   6.6016   7.2779   8.1892   9.0195   9.4778  10.3100

          k = 0.0000-0.6716-1.0308 ( 11468 PWs)   bands (ev):

   -38.3806 -38.3776  -4.0158  -2.0773   1.1964   1.7637   2.4119   3.1479
     4.6100   7.0177   7.4525   7.6050   9.7110   9.8772  10.6867

          k = 0.1939 0.3358 0.0000 ( 11451 PWs)   bands (ev):

   -38.3876 -38.3814  -6.7935  -1.3354  -0.9994   2.6578   3.6338   4.5714
     5.5435   8.0952   8.2811   9.2977   9.5377  10.8195  11.2070

          k = 0.1939 0.3358 0.2062 ( 11456 PWs)   bands (ev):

   -38.3871 -38.3809  -6.6524  -1.1972  -0.8605   2.7673   3.7568   4.3228
     4.7147   8.0942   8.3219   9.0878   9.7495  10.5186  10.8764

          k = 0.1939 0.3358 0.4123 ( 11445 PWs)   bands (ev):

   -38.3857 -38.3796  -6.2330  -0.7850  -0.4461   2.2741   3.1832   4.1170
     5.0332   7.2464   7.5253   8.8018   8.9239  10.3215  11.8747

          k = 0.1939 0.3358 0.6185 ( 11438 PWs)   bands (ev):

   -38.3840 -38.3780  -5.5522  -0.1116   0.2331   0.3836   3.6958   4.6549
     5.2227   5.8434   5.8530   8.9709   9.1091  10.5648  10.6464

          k = 0.1939 0.3358 0.8246 ( 11432 PWs)   bands (ev):

   -38.3826 -38.3767  -4.6751  -1.2670   0.8046   1.1372   3.7573   4.1060
     4.3279   5.4998   6.2661   8.3325   8.8987  10.2631  10.4430

          k = 0.1939 0.3358-1.0308 ( 11426 PWs)   bands (ev):

   -38.3821 -38.3761  -4.0535  -2.1467   1.5607   1.8686   2.7676   3.1605
     4.6572   5.8953   6.5809   7.8331   8.3860  10.3984  10.4991

          k = 0.1939 0.5597 0.0000 ( 11453 PWs)   bands (ev):

   -38.3860 -38.3830  -6.7461  -1.6061  -1.2054   2.9037   4.3915   5.4331
     5.5881   7.0712   8.0689   9.1243   9.5206  10.6030  11.0505

          k = 0.1939 0.5597 0.2062 ( 11439 PWs)   bands (ev):

   -38.3855 -38.3824  -6.6050  -1.4681  -1.0668   3.0144   4.3397   4.5573
     5.5637   7.1137   8.0203   9.1749   9.5131  10.0561  10.8066

          k = 0.1939 0.5597 0.4123 ( 11447 PWs)   bands (ev):

   -38.3842 -38.3811  -6.1858  -1.0563  -0.6537   2.3434   3.4014   4.8713
     5.9079   6.7416   7.2057   8.2128   9.2033   9.5673  12.0339

          k = 0.1939 0.5597 0.6185 ( 11447 PWs)   bands (ev):

   -38.3825 -38.3795  -5.5056  -0.3798   0.0228   0.4381   3.9186   5.1091
     5.3169   5.7401   6.4638   8.3868   9.3993   9.9251  10.4410

          k = 0.1939 0.5597 0.8246 ( 11428 PWs)   bands (ev):

   -38.3811 -38.3781  -4.6313  -1.2039   0.5282   0.9213   3.5129   3.9320
     4.5366   6.2082   7.0874   8.5585   9.0992   9.9838  10.2203

          k = 0.1939 0.5597-1.0308 ( 11434 PWs)   bands (ev):

   -38.3806 -38.3776  -4.0159  -2.0777   1.2781   1.6366   2.5169   2.9917
     4.8388   6.6896   7.4487   7.9463   9.1386   9.8320  10.3490

          k = 0.3878 0.6716 0.0000 ( 11445 PWs)   bands (ev):

   -38.3845 -38.3845  -6.7299  -1.4961  -1.4961   3.4150   4.7042   4.7042
     5.6031   7.7646   7.7646   9.3399   9.4020  10.7498  10.7498

          k = 0.3878 0.6716 0.2062 ( 11454 PWs)   bands (ev):

   -38.3840 -38.3840  -6.5888  -1.3579  -1.3579   3.5075   4.4194   4.8270
     4.8270   7.7368   7.7368   9.4985   9.7089   9.7089  10.3804

          k = 0.3878 0.6716 0.4123 ( 11457 PWs)   bands (ev):

   -38.3826 -38.3826  -6.1697  -0.9458  -0.9458   2.3671   3.8914   5.1871
     5.1871   6.9727   6.9727   8.8448   8.8448   9.7718  11.2657

          k = 0.3878 0.6716 0.6185 ( 11463 PWs)   bands (ev):

   -38.3810 -38.3810  -5.4897  -0.2694  -0.2694   0.4573   4.3636   5.2120
     5.2120   5.8672   5.8672   9.0951   9.0951  10.1647  11.3613

          k = 0.3878 0.6716 0.8246 ( 11424 PWs)   bands (ev):

   -38.3796 -38.3796  -4.6164  -1.1824   0.6329   0.6329   3.6430   3.6430
     4.8650   6.5898   6.5898   9.2922   9.2922  10.2073  10.2073

          k = 0.3878 0.6716-1.0308 ( 11400 PWs)   bands (ev):

   -38.3791 -38.3791  -4.0031  -2.0542   1.3646   1.3646   2.6683   2.6683
     5.1026   7.1218   7.1218   8.8080   8.8080  10.2092  10.2092

     the Fermi energy is     8.1350 ev

!    total energy              =     -62.05023088 Ry
     estimated scf accuracy    <          7.5E-10 Ry
     smearing contrib. (-TS)   =      -0.00111589 Ry
     internal energy E=F+TS    =     -62.04911498 Ry

     The total energy is F=E-TS. E is the sum of the following terms:
     one-electron contribution =      -5.23665142 Ry
     hartree contribution      =       9.92214860 Ry
     xc contribution           =     -19.97586415 Ry
     ewald contribution        =     -46.75874802 Ry

     convergence has been achieved in   7 iterations

     Forces acting on atoms (cartesian axes, Ry/au):

     atom    1 type  1   force =    -0.01187356    0.02056560   -0.00000000
     atom    2 type  1   force =     0.02374711   -0.00000000    0.00000000
     atom    3 type  1   force =    -0.01187356   -0.02056560    0.00000000
     atom    4 type  1   force =    -0.00000000    0.00000000    0.00000000
     atom    5 type  2   force =    -0.00000000   -0.00000000   -0.00000000
     atom    6 type  2   force =     0.00000000    0.00000000    0.00000000
     The non-local contrib.  to forces
     atom    1 type  1   force =     0.05003139   -0.08665690    0.00000000
     atom    2 type  1   force =    -0.10006277    0.00000000    0.00000000
     atom    3 type  1   force =     0.05003139    0.08665690    0.00000000
     atom    4 type  1   force =    -0.00000000    0.00000000    0.00000000
     atom    5 type  2   force =     0.00000000    0.00000000    0.00000000
     atom    6 type  2   force =     0.00000000    0.00000000   -0.00000000
     The ionic contribution  to forces
     atom    1 type  1   force =    -0.84209900    1.45855839   -0.00000000
     atom    2 type  1   force =     1.68419812    0.00000007   -0.00000000
     atom    3 type  1   force =    -0.84209912   -1.45855846   -0.00000000
     atom    4 type  1   force =    -0.00000000    0.00000000    0.00000000
     atom    5 type  2   force =     0.00000009   -0.00000005    0.00000000
     atom    6 type  2   force =    -0.00000009    0.00000005    0.00000000
     The local contribution  to forces
     atom    1 type  1   force =     0.77978087   -1.35062009    0.00000000
     atom    2 type  1   force =    -1.55956174    0.00000000    0.00000000
     atom    3 type  1   force =     0.77978087    1.35062009    0.00000000
     atom    4 type  1   force =     0.00000000   -0.00000000   -0.00000000
     atom    5 type  2   force =     0.00000099   -0.00000057    0.00000000
     atom    6 type  2   force =    -0.00000099    0.00000057    0.00000000
     The core correction contribution to forces
     atom    1 type  1   force =     0.00040159   -0.00069557   -0.00000000
     atom    2 type  1   force =    -0.00080318    0.00000000   -0.00000000
     atom    3 type  1   force =     0.00040159    0.00069557   -0.00000000
     atom    4 type  1   force =     0.00000000   -0.00000000   -0.00000000
     atom    5 type  2   force =     0.00000000    0.00000000    0.00000000
     atom    6 type  2   force =     0.00000000    0.00000000    0.00000000
     The Hubbard contrib.    to forces
     atom    1 type  1   force =     0.00000000    0.00000000    0.00000000
     atom    2 type  1   force =     0.00000000    0.00000000    0.00000000
     atom    3 type  1   force =     0.00000000    0.00000000    0.00000000
     atom    4 type  1   force =     0.00000000    0.00000000    0.00000000
     atom    5 type  2   force =     0.00000000    0.00000000    0.00000000
     atom    6 type  2   force =     0.00000000    0.00000000    0.00000000
     The SCF correction term to forces
     atom    1 type  1   force =     0.00001168   -0.00002023   -0.00000000
     atom    2 type  1   force =    -0.00002336    0.00000000    0.00000000
     atom    3 type  1   force =     0.00001168    0.00002023   -0.00000000
     atom    4 type  1   force =     0.00000000    0.00000000    0.00000000
     atom    5 type  2   force =    -0.00000000    0.00000000   -0.00000000
     atom    6 type  2   force =     0.00000000   -0.00000000   -0.00000000

     Total force =     0.041131     Total SCF correction =     0.000040


     Computing stress (Cartesian axis) and pressure

          total   stress  (Ry/bohr**3)                   (kbar)     P=      505.21
   0.00360451   0.00000000   0.00000000          530.24        0.00        0.00
   0.00000000   0.00360451   0.00000000            0.00      530.24        0.00
   0.00000000  -0.00000000   0.00309404            0.00       -0.00      455.15

     Energy error            =      4.3E-03 Ry
     Gradient error          =      2.4E-02 Ry/Bohr
     Cell gradient error     =      4.5E+01 kbar

     number of scf cycles    =   4
     number of bfgs steps    =   3

[...]

     starting charge      21.9884, renormalised to      22.0000
     Starting wfcs are   20 randomized atomic wfcs

     total cpu time spent up to now is      495.7 secs

     Self-consistent Calculation

     iteration #  1     ecut=    80.00 Ry     beta= 0.70
     Davidson diagonalization with overlap
     c_bands:  1 eigenvalues not converged
     c_bands:  1 eigenvalues not converged
     c_bands:  1 eigenvalues not converged
     c_bands:  1 eigenvalues not converged
     c_bands:  1 eigenvalues not converged
     c_bands:  1 eigenvalues not converged
     c_bands:  1 eigenvalues not converged
     c_bands:  1 eigenvalues not converged
     c_bands:  1 eigenvalues not converged
     c_bands:  1 eigenvalues not converged
     c_bands:  1 eigenvalues not converged
     c_bands:  1 eigenvalues not converged
     c_bands:  1 eigenvalues not converged
     c_bands:  1 eigenvalues not converged
     c_bands:  1 eigenvalues not converged
     c_bands:  1 eigenvalues not converged
     c_bands:  2 eigenvalues not converged
     c_bands:  1 eigenvalues not converged
     c_bands:  1 eigenvalues not converged
     c_bands:  1 eigenvalues not converged
     c_bands:  1 eigenvalues not converged
     c_bands:  2 eigenvalues not converged
     c_bands:  1 eigenvalues not converged
     c_bands:  1 eigenvalues not converged
     c_bands:  1 eigenvalues not converged
     c_bands:  1 eigenvalues not converged
     c_bands:  1 eigenvalues not converged
     ethr =  1.00E-06,  avg # of iterations = 19.1

     total cpu time spent up to now is      499.1 secs

     total energy              =     -62.16097673 Ry
     estimated scf accuracy    <       0.08870601 Ry

     iteration #  2     ecut=    80.00 Ry     beta= 0.70
     Davidson diagonalization with overlap
     ethr =  4.03E-04,  avg # of iterations =  2.1

     total cpu time spent up to now is      500.0 secs

     total energy              =     -62.15784722 Ry
     estimated scf accuracy    <       0.04933942 Ry

     iteration #  3     ecut=    80.00 Ry     beta= 0.70
     Davidson diagonalization with overlap
     ethr =  2.24E-04,  avg # of iterations =  2.2

     total cpu time spent up to now is      500.8 secs

     total energy              =     -62.17173085 Ry
     estimated scf accuracy    <       0.02054956 Ry

     iteration #  4     ecut=    80.00 Ry     beta= 0.70
     Davidson diagonalization with overlap
     ethr =  9.34E-05,  avg # of iterations =  1.9

     total cpu time spent up to now is      501.6 secs

     total energy              =     -62.17488211 Ry
     estimated scf accuracy    <       0.00013052 Ry

     iteration #  5     ecut=    80.00 Ry     beta= 0.70
     Davidson diagonalization with overlap
     c_bands:  1 eigenvalues not converged
     ethr =  5.93E-07,  avg # of iterations =  6.1

     total cpu time spent up to now is      502.8 secs

     total energy              =     -62.17500912 Ry
     estimated scf accuracy    <       0.00012204 Ry

     iteration #  6     ecut=    80.00 Ry     beta= 0.70
     Davidson diagonalization with overlap
     ethr =  5.55E-07,  avg # of iterations =  2.1

     total cpu time spent up to now is      503.6 secs

     total energy              =     -62.17503201 Ry
     estimated scf accuracy    <       0.00000012 Ry

     iteration #  7     ecut=    80.00 Ry     beta= 0.70
     Davidson diagonalization with overlap
     ethr =  5.67E-10,  avg # of iterations =  5.6

     total cpu time spent up to now is      504.8 secs

     total energy              =     -62.17503258 Ry
     estimated scf accuracy    <       0.00000038 Ry

     iteration #  8     ecut=    80.00 Ry     beta= 0.70
     Davidson diagonalization with overlap
     ethr =  5.67E-10,  avg # of iterations =  2.3

     total cpu time spent up to now is      505.7 secs

     total energy              =     -62.17503264 Ry
     estimated scf accuracy    <          3.5E-09 Ry

     iteration #  9     ecut=    80.00 Ry     beta= 0.70
     Davidson diagonalization with overlap
     ethr =  1.59E-11,  avg # of iterations =  4.3

     total cpu time spent up to now is      506.7 secs

     total energy              =     -62.17503264 Ry
     estimated scf accuracy    <          3.1E-09 Ry

     iteration # 10     ecut=    80.00 Ry     beta= 0.70
     Davidson diagonalization with overlap
     ethr =  1.40E-11,  avg # of iterations =  2.0

     total cpu time spent up to now is      507.5 secs

     End of self-consistent calculation

          k = 0.0000 0.0000 0.0000 (  5941 PWs)   bands (ev):

   -36.8169 -36.8132  -5.7344  -1.9873  -1.9873   0.7299   2.7968   2.7968
     5.8349   7.7134   7.7134  11.7600  11.7600  11.7781  14.9928

          k = 0.0000 0.0000 0.2871 (  5964 PWs)   bands (ev):

   -36.8032 -36.7996  -5.4508  -1.7066  -1.7066   0.9821   3.0746   3.0746
     6.0477   7.9761   7.9761  11.7284  12.0296  12.0296  15.1800

          k = 0.0000 0.0000 0.5743 (  5958 PWs)   bands (ev):

   -36.7673 -36.7640  -4.6048  -0.8708  -0.8708   1.7229   3.9063   3.9063
     6.6813   8.7620   8.7620  10.6842  12.7888  12.7888  14.4990

          k = 0.0000 0.0000 0.8614 (  5964 PWs)   bands (ev):

   -36.7226 -36.7197  -3.2124   0.4981   0.4981   2.8559   5.2849   5.2849
     7.7160   7.8509  10.0529  10.0529  11.1776  11.1776  13.0701

          k = 0.0000 0.0000 1.1486 (  6000 PWs)   bands (ev):

   -36.6862 -36.6836  -1.3084   2.3325   2.3325   3.3064   5.9429   7.1643
     7.1643   8.0725   8.0725   9.0751  10.1113  11.8120  11.8120

          k = 0.0000 0.0000-1.4357 (  5952 PWs)   bands (ev):

   -36.6723 -36.6698   0.7776   1.3336   3.9090   3.9090   6.0142   6.0142
     7.3852   7.6627   9.0680   9.0680  10.1066  10.4546  10.4546

          k = 0.0000 0.2009 0.0000 (  5935 PWs)   bands (ev):

   -36.8167 -36.8134  -5.7035  -2.1439  -2.0439   0.8682   2.9052   3.1401
     6.0046   7.0248   7.4077  11.5607  11.7538  12.3764  14.2555

          k = 0.0000 0.2009 0.2871 (  5937 PWs)   bands (ev):

   -36.8030 -36.7999  -5.4196  -1.8650  -1.7634   1.1249   3.1777   3.4150
     6.2262   7.2810   7.6715  11.7227  11.8927  12.5745  14.4130

          k = 0.0000 0.2009 0.5743 (  5950 PWs)   bands (ev):

   -36.7671 -36.7642  -4.5728  -1.0345  -0.9281   1.8790   3.9924   4.2376
     6.8864   8.0341   8.4597  10.8233  12.5424  13.1448  14.2178

          k = 0.0000 0.2009 0.8614 (  5958 PWs)   bands (ev):

   -36.7224 -36.7198  -3.1793   0.3253   0.4401   3.0327   5.3365   5.5958
     7.8355   7.9645   9.4266   9.7415  11.0063  11.1476  13.2112

          k = 0.0000 0.2009 1.1486 (  5975 PWs)   bands (ev):

   -36.6861 -36.6838  -1.2744   2.1363   2.2742   3.4449   6.0285   7.1319
     7.3814   7.9611   8.0888   9.3782  10.2556  11.2278  11.5481

          k = 0.0000 0.2009-1.4357 (  5952 PWs)   bands (ev):

   -36.6721 -36.6700   0.7915   1.4016   3.7430   3.8543   5.8147   5.9300
     7.6128   7.7928   9.2807   9.4300   9.5626  10.6638  11.3962

          k = 0.0000 0.4018 0.0000 (  5898 PWs)   bands (ev):

   -36.8161 -36.8140  -5.6375  -2.4282  -2.1463   1.1071   3.2887   3.9720
     5.8056   6.2168   6.8587  10.8253  11.9002  12.4673  13.2927

          k = 0.0000 0.4018 0.2871 (  5931 PWs)   bands (ev):

   -36.8025 -36.8004  -5.3529  -2.1518  -1.8661   1.3708   3.5515   4.2399
     6.0596   6.4672   7.1153  10.9970  12.0726  12.6713  13.5076

          k = 0.0000 0.4018 0.5743 (  5931 PWs)   bands (ev):

   -36.7666 -36.7647  -4.5043  -1.3285  -1.0317   2.1458   4.3342   5.0406
     6.8097   7.2120   7.8803  10.7322  12.2521  13.0814  13.7672

          k = 0.0000 0.4018 0.8614 (  5965 PWs)   bands (ev):

   -36.7219 -36.7203  -3.1081   0.0202   0.3354   3.3333   5.6010   6.3549
     7.6431   8.4105   8.4687   9.1269  10.7792  11.0489  13.3846

          k = 0.0000 0.4018 1.1486 (  5955 PWs)   bands (ev):

   -36.6857 -36.6842  -1.2011   1.8217   2.1684   3.6427   6.1428   7.3024
     7.4775   7.9435   8.4109   9.7884  10.0367  10.8429  11.0261

          k = 0.0000 0.4018-1.4357 (  5960 PWs)   bands (ev):

   -36.6718 -36.6703   0.8199   1.5641   3.4020   3.7542   5.5026   5.7864
     7.9661   8.0348   9.4668   9.8695  10.2794  10.9411  12.1311

          k = 0.0000-0.6027 0.0000 (  5912 PWs)   bands (ev):

   -36.8157 -36.8145  -5.6020  -2.5603  -2.1931   1.2069   3.7098   4.5985
     5.1873   5.6576   6.9931  10.2607  12.2338  12.4785  12.5290

          k = 0.0000-0.6027 0.2871 (  5910 PWs)   bands (ev):

   -36.8020 -36.8008  -5.3171  -2.2849  -1.9130   1.4730   3.9690   4.8502
     5.4545   5.9198   7.2515  10.4444  12.3556  12.7038  12.7509

          k = 0.0000-0.6027 0.5743 (  5940 PWs)   bands (ev):

   -36.7662 -36.7651  -4.4674  -1.4645  -1.0789   2.2558   4.7386   5.6010
     6.2530   6.6962   8.0222  10.4846  12.0936  13.0436  13.3136

          k = 0.0000-0.6027 0.8614 (  5954 PWs)   bands (ev):

   -36.7216 -36.7206  -3.0697  -0.1197   0.2876   3.4579   5.9368   6.8364
     7.5550   7.7478   8.3313   9.2525  10.6937  10.9594  13.1269

          k = 0.0000-0.6027 1.1486 (  5944 PWs)   bands (ev):

   -36.6853 -36.6845  -1.1615   1.6827   2.1200   3.7230   6.1572   7.3033
     7.6696   8.1165   8.5615   9.5335   9.8186  10.9851  11.0290

          k = 0.0000-0.6027-1.4357 (  5932 PWs)   bands (ev):

   -36.6715 -36.6706   0.8345   1.6663   3.2176   3.7082   5.3719   5.7236
     8.0298   8.1699  10.1030  10.3039  10.3991  10.9792  11.5746

          k = 0.1740 0.3013 0.0000 (  5907 PWs)   bands (ev):

   -36.8163 -36.8138  -5.6546  -2.3339  -2.1533   1.0824   3.0847   3.7668
     6.0473   6.2519   7.0981  10.5992  12.1708  12.5739  13.7351

          k = 0.1740 0.3013 0.2871 (  5938 PWs)   bands (ev):

   -36.8026 -36.8002  -5.3702  -2.0566  -1.8735   1.3449   3.3492   4.0371
     6.3016   6.4899   7.3614  10.7821  12.3248  12.7856  13.9836

          k = 0.1740 0.3013 0.5743 (  5939 PWs)   bands (ev):

   -36.7667 -36.7645  -4.5221  -1.2310  -1.0402   2.1162   4.1393   4.8448
     7.0521   7.1989   8.1488  10.6359  12.2924  13.1738  13.6390

          k = 0.1740 0.3013 0.8614 (  5953 PWs)   bands (ev):

   -36.7221 -36.7202  -3.1266   0.1212   0.3252   3.2941   5.4399   6.1612
     7.7271   8.3526   8.5936   9.4318  10.7969  11.0651  13.0793

          k = 0.1740 0.3013 1.1486 (  5965 PWs)   bands (ev):

   -36.6858 -36.6841  -1.2202   1.9234   2.1563   3.6068   6.1873   7.0979
     7.5056   8.0116   8.2154   9.8835  10.0219  10.8584  11.2369

          k = 0.1740 0.3013-1.4357 (  5974 PWs)   bands (ev):

   -36.6719 -36.6702   0.8127   1.5186   3.5263   3.7363   5.5981   5.7869
     7.9626   7.9969   9.3283   9.6135  10.0739  10.9411  12.3392

          k = 0.1740 0.5022 0.0000 (  5895 PWs)   bands (ev):

   -36.8157 -36.8145  -5.6023  -2.5025  -2.2672   1.3115   3.4938   4.3829
     5.2949   6.0687   7.0467   9.7909  11.7381  12.1528  14.0712

          k = 0.1740 0.5022 0.2871 (  5917 PWs)   bands (ev):

   -36.8020 -36.8008  -5.3174  -2.2265  -1.9882   1.5795   3.7507   4.6390
     5.5581   6.3304   7.3069   9.9910  11.9264  12.3568  14.1485

          k = 0.1740 0.5022 0.5743 (  5948 PWs)   bands (ev):

   -36.7662 -36.7651  -4.4677  -1.4042  -1.1572   2.3665   4.5164   5.4025
     6.3417   7.1098   8.0825  10.1732  12.1801  12.6579  13.0066

          k = 0.1740 0.5022 0.8614 (  5958 PWs)   bands (ev):

   -36.7216 -36.7206  -3.0700  -0.0567   0.2045   3.5646   5.7594   6.6350
     7.5163   8.0880   8.4476   9.3391  10.6817  10.9009  12.6410

          k = 0.1740 0.5022 1.1486 (  5965 PWs)   bands (ev):

   -36.6853 -36.6845  -1.1619   1.7479   2.0303   3.7441   6.3440   7.2605
     7.4256   8.0119   8.5101   9.5626  10.1730  11.0555  11.1075

          k = 0.1740 0.5022-1.4357 (  5978 PWs)   bands (ev):

   -36.6715 -36.6706   0.8344   1.6623   3.3014   3.6092   5.4242   5.6499
     8.1232   8.4208   9.5402  10.1805  10.4752  10.8387  11.6133

          k = 0.3479 0.6027 0.0000 (  5868 PWs)   bands (ev):

   -36.8151 -36.8151  -5.5842  -2.4369  -2.4369   1.4888   3.8406   3.8406
     5.8101   5.8101   7.2243   9.1052  11.6545  11.6545  16.0416

          k = 0.3479 0.6027 0.2871 (  5910 PWs)   bands (ev):

   -36.8014 -36.8014  -5.2991  -2.1598  -2.1598   1.7604   4.0922   4.0922
     6.0760   6.0760   7.4918   9.3176  11.8486  11.8486  15.2455

          k = 0.3479 0.6027 0.5743 (  5955 PWs)   bands (ev):

   -36.7656 -36.7656  -4.4489  -1.3345  -1.3345   2.5573   4.8436   4.8436
     6.8706   6.8706   8.2907   9.6488  12.2661  12.2661  12.6312

          k = 0.3479 0.6027 0.8614 (  5952 PWs)   bands (ev):

   -36.7211 -36.7211  -3.0504   0.0182   0.0182   3.7568   6.0773   6.0773
     7.9268   8.1717   8.1717   9.6038  10.6999  10.6999  12.0828

          k = 0.3479 0.6027 1.1486 (  5973 PWs)   bands (ev):

   -36.6849 -36.6849  -1.1418   1.8319   1.8319   3.8017   6.6356   7.2548
     7.2548   8.0989   8.0989  10.0451  10.0451  11.2333  11.3491

          k = 0.3479 0.6027-1.4357 (  5964 PWs)   bands (ev):

   -36.6710 -36.6710   0.8418   1.7154   3.3875   3.3875   5.4815   5.4815
     8.2564   8.9767   9.6377   9.6377  10.5645  10.5645  11.8667

     the Fermi energy is     9.3276 ev

!    total energy              =     -62.17503264 Ry
     estimated scf accuracy    <          5.0E-11 Ry
     smearing contrib. (-TS)   =      -0.00177319 Ry
     internal energy E=F+TS    =     -62.17325945 Ry

     The total energy is F=E-TS. E is the sum of the following terms:
     one-electron contribution =       0.23314578 Ry
     hartree contribution      =       8.25348992 Ry
     xc contribution           =     -20.08613800 Ry
     ewald contribution        =     -50.57375714 Ry

     convergence has been achieved in  10 iterations

     Forces acting on atoms (cartesian axes, Ry/au):

     atom    1 type  1   force =    -0.00001683    0.00002915    0.00000000
     atom    2 type  1   force =     0.00003366    0.00000000   -0.00000000
     atom    3 type  1   force =    -0.00001683   -0.00002915    0.00000000
     atom    4 type  1   force =     0.00000000    0.00000000    0.00000000
     atom    5 type  2   force =    -0.00000000    0.00000000   -0.00000000
     atom    6 type  2   force =     0.00000000   -0.00000000   -0.00000000
     The non-local contrib.  to forces
     atom    1 type  1   force =     0.02542565   -0.04403852    0.00000000
     atom    2 type  1   force =    -0.05085131    0.00000000    0.00000000
     atom    3 type  1   force =     0.02542565    0.04403852    0.00000000
     atom    4 type  1   force =     0.00000000   -0.00000000    0.00000000
     atom    5 type  2   force =    -0.00000000   -0.00000000    0.00000000
     atom    6 type  2   force =    -0.00000000   -0.00000000    0.00000000
     The ionic contribution  to forces
     atom    1 type  1   force =    -0.35255273    0.61063940    0.00000000
     atom    2 type  1   force =     0.70510560    0.00000008    0.00000000
     atom    3 type  1   force =    -0.35255287   -0.61063949    0.00000000
     atom    4 type  1   force =    -0.00000000   -0.00000000   -0.00000000
     atom    5 type  2   force =     0.00000010   -0.00000006    0.00000000
     atom    6 type  2   force =    -0.00000010    0.00000006    0.00000000
     The local contribution  to forces
     atom    1 type  1   force =     0.32666279   -0.56579655    0.00000000
     atom    2 type  1   force =    -0.65332558    0.00000000    0.00000000
     atom    3 type  1   force =     0.32666279    0.56579655    0.00000000
     atom    4 type  1   force =     0.00000000   -0.00000000    0.00000000
     atom    5 type  2   force =     0.00000113   -0.00000065    0.00000000
     atom    6 type  2   force =    -0.00000113    0.00000065    0.00000000
     The core correction contribution to forces
     atom    1 type  1   force =     0.00044433   -0.00076960    0.00000000
     atom    2 type  1   force =    -0.00088865   -0.00000000    0.00000000
     atom    3 type  1   force =     0.00044433    0.00076960    0.00000000
     atom    4 type  1   force =     0.00000000    0.00000000    0.00000000
     atom    5 type  2   force =     0.00000000    0.00000000    0.00000000
     atom    6 type  2   force =     0.00000000    0.00000000    0.00000000
     The Hubbard contrib.    to forces
     atom    1 type  1   force =     0.00000000    0.00000000    0.00000000
     atom    2 type  1   force =     0.00000000    0.00000000    0.00000000
     atom    3 type  1   force =     0.00000000    0.00000000    0.00000000
     atom    4 type  1   force =     0.00000000    0.00000000    0.00000000
     atom    5 type  2   force =     0.00000000    0.00000000    0.00000000
     atom    6 type  2   force =     0.00000000    0.00000000    0.00000000
     The SCF correction term to forces
     atom    1 type  1   force =     0.00000322   -0.00000558   -0.00000000
     atom    2 type  1   force =    -0.00000645    0.00000000   -0.00000000
     atom    3 type  1   force =     0.00000322    0.00000558   -0.00000000
     atom    4 type  1   force =    -0.00000000   -0.00000000    0.00000000
     atom    5 type  2   force =     0.00000000   -0.00000000   -0.00000000
     atom    6 type  2   force =    -0.00000000    0.00000000    0.00000000

     Total force =     0.000058     Total SCF correction =     0.000011
     SCF correction compared to forces is large: reduce conv_thr to get better values


     Computing stress (Cartesian axis) and pressure

          total   stress  (Ry/bohr**3)                   (kbar)     P=      500.04
   0.00339875  -0.00000000  -0.00000000          499.97       -0.00       -0.00
  -0.00000000   0.00339875   0.00000000           -0.00      499.97        0.00
   0.00000000   0.00000000   0.00340009            0.00        0.00      500.17


     Writing all to output data dir ./output/SiLi.save/

     init_run     :      2.85s CPU      5.42s WALL (       2 calls)
     electrons    :    346.79s CPU    385.48s WALL (      26 calls)
     update_pot   :     21.24s CPU     21.42s WALL (      24 calls)
     forces       :     15.68s CPU     15.93s WALL (      26 calls)
     stress       :     77.38s CPU     80.12s WALL (      26 calls)

     Called by init_run:
     wfcinit      :      1.38s CPU      3.31s WALL (       2 calls)
     potinit      :      0.75s CPU      1.12s WALL (       2 calls)
     hinit0       :      0.61s CPU      0.76s WALL (       2 calls)

     Called by electrons:
     c_bands      :    305.94s CPU    338.80s WALL (     225 calls)
     sum_band     :     37.09s CPU     41.76s WALL (     225 calls)
     v_of_rho     :      3.86s CPU      4.88s WALL (     249 calls)
     mix_rho      :      0.29s CPU      0.36s WALL (     225 calls)

     Called by c_bands:
     init_us_2    :      8.35s CPU      9.23s WALL (   21168 calls)
     init_us_2:cp :      8.32s CPU      9.21s WALL (   21168 calls)
     cegterg      :    281.38s CPU    310.79s WALL (    9450 calls)

     Called by *egterg:
     cdiaghg      :      9.71s CPU     10.16s WALL (   42356 calls)
     h_psi        :    241.95s CPU    272.17s WALL (   43532 calls)
     g_psi        :      1.38s CPU      1.41s WALL (   33998 calls)

     Called by h_psi:
     h_psi:calbec :     19.99s CPU     21.64s WALL (   43532 calls)
     vloc_psi     :    203.40s CPU    231.35s WALL (   43532 calls)
     add_vuspsi   :     17.76s CPU     18.35s WALL (   43532 calls)

     General routines
     calbec       :     23.50s CPU     25.22s WALL (   48992 calls)
     fft          :      1.97s CPU      3.22s WALL (    3140 calls)
     ffts         :      0.10s CPU      0.17s WALL (     225 calls)
     fftw         :    206.40s CPU    234.69s WALL ( 1024914 calls)

     Parallel routines

     PWSCF        :   7m44.46s CPU   8m29.65s WALL


   This run was terminated on:  18:34:18  28Dec2024            

=------------------------------------------------------------------------------=
   JOB DONE.
=------------------------------------------------------------------------------=
