
     Program PWSCF v.7.2 starts on 27Dec2024 at 12:10:38 

     This program is part of the open-source Quantum ESPRESSO suite
     for quantum simulation of materials; please cite
         "P. Giannozzi et al., J. Phys.:Condens. Matter 21 395502 (2009);
         "P. Giannozzi et al., J. Phys.:Condens. Matter 29 465901 (2017);
         "P. Giannozzi et al., J. Chem. Phys. 152 154105 (2020);
          URL http://www.quantum-espresso.org", 
     in publications or presentations arising from this work. More details at
     http://www.quantum-espresso.org/quote

     Parallel version (MPI & OpenMP), running on       8 processor cores
     Number of MPI processes:                 8
     Threads/MPI process:                     1

     MPI processes distributed on     1 nodes
     483054 MiB available memory on the printing compute node when the environment starts

     Waiting for input...
     Reading input from standard input

     Current dimensions of program PWSCF are:
     Max number of different atomic species (ntypx) = 10
     Max number of k-points (npk) =  40000
     Max angular momentum in pseudopotentials (lmaxx) =  4

     R & G space division:  proc/nbgrp/npool/nimage =       8
     Subspace diagonalization in iterative solution of the eigenvalue problem:
     a serial algorithm will be used


     Parallelization info
     --------------------
     sticks:   dense  smooth     PW     G-vecs:    dense   smooth      PW
     Min         101     101     30                 5837     5837     910
     Max         103     103     31                 5840     5840     915
     Sum         817     817    241                46707    46707    7295

     Using Slab Decomposition



     bravais-lattice index     =            4
     lattice parameter (alat)  =       6.0601  a.u.
     unit-cell volume          =     482.2773 (a.u.)^3
     number of atoms/cell      =            3
     number of atomic types    =            2
     number of electrons       =        11.00
     number of Kohn-Sham states=           10
     kinetic-energy cutoff     =      80.0000  Ry
     charge density cutoff     =     320.0000  Ry
     scf convergence threshold =      1.0E-08
     mixing beta               =       0.7000
     number of iterations used =            8  plain     mixing
     energy convergence thresh.=      1.0E-04
     force convergence thresh. =      1.0E-03
     press convergence thresh. =      1.0E+00
     Exchange-correlation= PBE
                           (   1   4   3   4   0   0   0)
     nstep                     =           50


     celldm(1)=   6.060096  celldm(2)=   0.000000  celldm(3)=   2.502233
     celldm(4)=   0.000000  celldm(5)=   0.000000  celldm(6)=   0.000000

     crystal axes: (cart. coord. in units of alat)
               a(1) = (   1.000000   0.000000   0.000000 )  
               a(2) = (  -0.500000   0.866025   0.000000 )  
               a(3) = (   0.000000   0.000000   2.502233 )  

     reciprocal axes: (cart. coord. in units 2 pi/alat)
               b(1) = (  1.000000  0.577350 -0.000000 )  
               b(2) = (  0.000000  1.154701  0.000000 )  
               b(3) = (  0.000000 -0.000000  0.399643 )  


     PseudoPot. # 1 for Si read from file:
     ../pseudo/Si_ONCV_PBE_sr.upf
     MD5 check sum: e543d271109d17c80368dfa7c482276d
     Pseudo is Norm-conserving + core correction, Zval =  4.0
     Generated using ONCVPSP code by D. R. Hamann
     Using radial grid of 1510 points,  6 beta functions with: 
                l(1) =   0
                l(2) =   0
                l(3) =   1
                l(4) =   1
                l(5) =   2
                l(6) =   2

     PseudoPot. # 2 for Li read from file:
     ../pseudo/Li_ONCV_PBE_sr.upf
     MD5 check sum: 50ff420e78310ffa21704f3361e624a4
     Pseudo is Norm-conserving, Zval =  3.0
     Generated using ONCVPSP code by D. R. Hamann
     Using radial grid of 1944 points,  4 beta functions with: 
                l(1) =   0
                l(2) =   0
                l(3) =   1
                l(4) =   1

     atomic species   valence    mass     pseudopotential
        Si             4.00    28.08550     Si( 1.00)
        Li             3.00     6.94100     Li( 1.00)

     24 Sym. Ops., with inversion, found



   Cartesian axes

     site n.     atom                  positions (alat units)
         1           Si  tau(   1) = (   0.0000000   0.0000000   0.4925720  )
         2           Si  tau(   2) = (   0.0000000   0.0000000   2.0096607  )
         3           Li  tau(   3) = (   0.0000000   0.0000000   1.2511164  )

     number of k points=    48  Marzari-Vanderbilt smearing, width (Ry)=  0.0200
                       cart. coord. in units 2pi/alat
        k(    1) = (   0.0000000   0.0000000   0.0000000), wk =   0.0041322
        k(    2) = (   0.0000000   0.0000000   0.0999108), wk =   0.0082645
        k(    3) = (   0.0000000   0.0000000  -0.1998215), wk =   0.0041322
        k(    4) = (   0.0000000   0.1049728   0.0000000), wk =   0.0247934
        k(    5) = (   0.0000000   0.1049728   0.0999108), wk =   0.0495868
        k(    6) = (   0.0000000   0.1049728  -0.1998215), wk =   0.0247934
        k(    7) = (   0.0000000   0.2099456   0.0000000), wk =   0.0247934
        k(    8) = (   0.0000000   0.2099456   0.0999108), wk =   0.0495868
        k(    9) = (   0.0000000   0.2099456  -0.1998215), wk =   0.0247934
        k(   10) = (   0.0000000   0.3149183   0.0000000), wk =   0.0247934
        k(   11) = (   0.0000000   0.3149183   0.0999108), wk =   0.0495868
        k(   12) = (   0.0000000   0.3149183  -0.1998215), wk =   0.0247934
        k(   13) = (   0.0000000   0.4198911   0.0000000), wk =   0.0247934
        k(   14) = (   0.0000000   0.4198911   0.0999108), wk =   0.0495868
        k(   15) = (   0.0000000   0.4198911  -0.1998215), wk =   0.0247934
        k(   16) = (   0.0000000   0.5248639   0.0000000), wk =   0.0247934
        k(   17) = (   0.0000000   0.5248639   0.0999108), wk =   0.0495868
        k(   18) = (   0.0000000   0.5248639  -0.1998215), wk =   0.0247934
        k(   19) = (   0.0909091   0.1574592   0.0000000), wk =   0.0247934
        k(   20) = (   0.0909091   0.1574592   0.0999108), wk =   0.0495868
        k(   21) = (   0.0909091   0.1574592  -0.1998215), wk =   0.0247934
        k(   22) = (   0.0909091   0.2624319   0.0000000), wk =   0.0495868
        k(   23) = (   0.0909091   0.2624319   0.0999108), wk =   0.0991736
        k(   24) = (   0.0909091   0.2624319  -0.1998215), wk =   0.0495868
        k(   25) = (   0.0909091   0.3674047   0.0000000), wk =   0.0495868
        k(   26) = (   0.0909091   0.3674047   0.0999108), wk =   0.0991736
        k(   27) = (   0.0909091   0.3674047  -0.1998215), wk =   0.0495868
        k(   28) = (   0.0909091   0.4723775   0.0000000), wk =   0.0495868
        k(   29) = (   0.0909091   0.4723775   0.0999108), wk =   0.0991736
        k(   30) = (   0.0909091   0.4723775  -0.1998215), wk =   0.0495868
        k(   31) = (   0.0909091   0.5773503   0.0000000), wk =   0.0247934
        k(   32) = (   0.0909091   0.5773503   0.0999108), wk =   0.0495868
        k(   33) = (   0.0909091   0.5773503  -0.1998215), wk =   0.0247934
        k(   34) = (   0.1818182   0.3149183   0.0000000), wk =   0.0247934
        k(   35) = (   0.1818182   0.3149183   0.0999108), wk =   0.0495868
        k(   36) = (   0.1818182   0.3149183  -0.1998215), wk =   0.0247934
        k(   37) = (   0.1818182   0.4198911   0.0000000), wk =   0.0495868
        k(   38) = (   0.1818182   0.4198911   0.0999108), wk =   0.0991736
        k(   39) = (   0.1818182   0.4198911  -0.1998215), wk =   0.0495868
        k(   40) = (   0.1818182   0.5248639   0.0000000), wk =   0.0495868
        k(   41) = (   0.1818182   0.5248639   0.0999108), wk =   0.0991736
        k(   42) = (   0.1818182   0.5248639  -0.1998215), wk =   0.0495868
        k(   43) = (   0.2727273   0.4723775   0.0000000), wk =   0.0247934
        k(   44) = (   0.2727273   0.4723775   0.0999108), wk =   0.0495868
        k(   45) = (   0.2727273   0.4723775  -0.1998215), wk =   0.0247934
        k(   46) = (   0.2727273   0.5773503   0.0000000), wk =   0.0247934
        k(   47) = (   0.2727273   0.5773503   0.0999108), wk =   0.0495868
        k(   48) = (   0.2727273   0.5773503  -0.1998215), wk =   0.0247934

     Dense  grid:    46707 G-vectors     FFT dimensions: (  36,  36,  90)

     Estimated max dynamical RAM per process >      21.56 MB

     Estimated total dynamical RAM >     172.51 MB

     Initial potential from superposition of free atoms

     starting charge      10.9942, renormalised to      11.0000
     Starting wfcs are   10 randomized atomic wfcs

     total cpu time spent up to now is        1.2 secs

     Self-consistent Calculation

     iteration #  1     ecut=    80.00 Ry     beta= 0.70
     Davidson diagonalization with overlap
     ethr =  1.00E-02,  avg # of iterations =  4.2

     Threshold (ethr) on eigenvalues was too large:
     Diagonalizing with lowered threshold

     Davidson diagonalization with overlap
     ethr =  4.23E-04,  avg # of iterations =  2.3

     total cpu time spent up to now is        2.8 secs

     total energy              =     -31.11102293 Ry
     estimated scf accuracy    <       0.05413156 Ry

     iteration #  2     ecut=    80.00 Ry     beta= 0.70
     Davidson diagonalization with overlap
     ethr =  4.92E-04,  avg # of iterations =  2.5

     total cpu time spent up to now is        3.4 secs

     total energy              =     -31.10133018 Ry
     estimated scf accuracy    <       0.22676816 Ry

     iteration #  3     ecut=    80.00 Ry     beta= 0.70
     Davidson diagonalization with overlap
     ethr =  4.92E-04,  avg # of iterations =  2.0

     total cpu time spent up to now is        4.0 secs

     total energy              =     -31.13662732 Ry
     estimated scf accuracy    <       0.00052827 Ry

     iteration #  4     ecut=    80.00 Ry     beta= 0.70
     Davidson diagonalization with overlap
     ethr =  4.80E-06,  avg # of iterations =  4.7

     total cpu time spent up to now is        4.8 secs

     total energy              =     -31.13683404 Ry
     estimated scf accuracy    <       0.00024956 Ry

     iteration #  5     ecut=    80.00 Ry     beta= 0.70
     Davidson diagonalization with overlap
     ethr =  2.27E-06,  avg # of iterations =  1.9

     total cpu time spent up to now is        5.3 secs

     total energy              =     -31.13688607 Ry
     estimated scf accuracy    <       0.00001332 Ry

     iteration #  6     ecut=    80.00 Ry     beta= 0.70
     Davidson diagonalization with overlap
     ethr =  1.21E-07,  avg # of iterations =  1.9

     total cpu time spent up to now is        5.8 secs

     total energy              =     -31.13688868 Ry
     estimated scf accuracy    <       0.00000012 Ry

     iteration #  7     ecut=    80.00 Ry     beta= 0.70
     Davidson diagonalization with overlap
     ethr =  1.09E-09,  avg # of iterations =  3.7

     total cpu time spent up to now is        6.4 secs

     End of self-consistent calculation

          k = 0.0000 0.0000 0.0000 (  5845 PWs)   bands (ev):

   -43.3024  -6.1379  -5.2438  -0.4107   2.9199   5.5736   8.8309   8.8309
     9.4535   9.4535

          k = 0.0000 0.0000 0.0999 (  5833 PWs)   bands (ev):

   -43.3024  -6.1189  -5.2823  -0.1715   2.2169   6.6001   8.8759   8.8759
     9.3853   9.3853

          k = 0.0000 0.0000-0.1998 (  5864 PWs)   bands (ev):

   -43.3024  -6.0984  -5.3219   0.1860   1.5516   8.1581   8.9356   8.9356
     9.3029   9.3030

          k = 0.0000 0.1050 0.0000 (  5847 PWs)   bands (ev):

   -43.3018  -5.9929  -5.0992  -0.2776   3.0461   5.6554   7.7205   8.4636
     8.4930   9.1361

          k = 0.0000 0.1050 0.0999 (  5834 PWs)   bands (ev):

   -43.3018  -5.9740  -5.1376  -0.0386   2.3434   6.6481   7.7483   8.4339
     8.5398   9.0643

          k = 0.0000 0.1050-0.1998 (  5832 PWs)   bands (ev):

   -43.3018  -5.9536  -5.1772   0.3187   1.6789   7.7338   7.9093   8.6024
     8.6057   8.9773

          k = 0.0000 0.2099 0.0000 (  5845 PWs)   bands (ev):

   -43.3004  -5.5619  -4.6694   0.1185   3.4110   5.6107   5.9287   6.5154
     7.8093   8.4845

          k = 0.0000 0.2099 0.0999 (  5839 PWs)   bands (ev):

   -43.3004  -5.5433  -4.7074   0.3553   2.7160   5.7016   6.1916   7.1311
     7.8591   8.4065

          k = 0.0000 0.2099-0.1998 (  5848 PWs)   bands (ev):

   -43.3004  -5.5233  -4.7463   0.7093   2.0589   5.7315   6.2091   7.9265
     8.3118   8.3753

          k = 0.0000 0.3149 0.0000 (  5831 PWs)   bands (ev):

   -43.2985  -4.8594  -3.9706   0.7611   3.5246   3.8522   4.5814   6.0756
     7.1555   7.8545

          k = 0.0000 0.3149 0.0999 (  5839 PWs)   bands (ev):

   -43.2985  -4.8424  -4.0060   0.9900   3.2517   3.6419   4.2481   7.0933
     7.2076   7.7715

          k = 0.0000 0.3149-0.1998 (  5824 PWs)   bands (ev):

   -43.2985  -4.8241  -4.0423   1.3287   2.6726   3.6203   4.1666   7.2788
     7.6705   8.1154

          k = 0.0000 0.4199 0.0000 (  5843 PWs)   bands (ev):

   -43.2968  -3.9330  -3.0532   1.3634   1.8514   2.4349   4.8093   5.7059
     6.6795   7.3936

          k = 0.0000 0.4199 0.0999 (  5829 PWs)   bands (ev):

   -43.2968  -3.9210  -3.0796   1.5297   1.8820   2.3770   4.0976   6.5273
     6.7332   7.3073

          k = 0.0000 0.4199-0.1998 (  5830 PWs)   bands (ev):

   -43.2968  -3.9084  -3.1064   1.6951   2.0915   2.1675   3.6297   6.8069
     7.2020   7.2584

          k = 0.0000 0.5249 0.0000 (  5831 PWs)   bands (ev):

   -43.2957  -3.0003  -2.1419   0.0806   1.0294   2.6023   4.7639   5.3870
     6.4330   7.1543

          k = 0.0000 0.5249 0.0999 (  5826 PWs)   bands (ev):

   -43.2957  -3.0034  -2.1403   0.1587   0.8849   2.6717   4.7701   5.5708
     6.4874   7.0663

          k = 0.0000 0.5249-0.1998 (  5826 PWs)   bands (ev):

   -43.2957  -3.0065  -2.1387   0.2734   0.7117   2.7366   4.7121   5.9881
     6.5624   6.9590

          k = 0.0909 0.1575 0.0000 (  5851 PWs)   bands (ev):

   -43.3008  -5.7048  -4.8119  -0.0129   3.2923   5.7938   6.4222   7.2291
     7.6461   8.3531

          k = 0.0909 0.1575 0.0999 (  5846 PWs)   bands (ev):

   -43.3008  -5.6861  -4.8501   0.2249   2.5932   6.4349   6.5793   7.4148
     7.6993   8.2682

          k = 0.0909 0.1575-0.1998 (  5838 PWs)   bands (ev):

   -43.3008  -5.6659  -4.8893   0.5805   1.9328   6.4496   6.8912   7.7723
     8.1646   8.4346

          k = 0.0909 0.2624 0.0000 (  5837 PWs)   bands (ev):

   -43.2992  -5.1372  -4.2466   0.5081   3.7420   4.5353   5.4615   6.0564
     6.6063   7.3710

          k = 0.0909 0.2624 0.0999 (  5843 PWs)   bands (ev):

   -43.2992  -5.1193  -4.2834   0.7409   3.0737   4.5962   5.2163   6.6629
     7.1096   7.3245

          k = 0.0909 0.2624-0.1998 (  5842 PWs)   bands (ev):

   -43.2992  -5.1001  -4.3211   1.0872   2.4343   4.6219   5.1479   6.7410
     7.1469   8.3322

          k = 0.0909 0.3674 0.0000 (  5839 PWs)   bands (ev):

   -43.2974  -4.3165  -3.4319   1.2444   2.5983   3.3586   4.5744   5.8725
     6.0511   6.6734

          k = 0.0909 0.3674 0.0999 (  5828 PWs)   bands (ev):

   -43.2974  -4.3016  -3.4635   1.4647   2.6085   3.3223   3.8054   5.9316
     6.5362   7.0020

          k = 0.0909 0.3674-0.1998 (  5814 PWs)   bands (ev):

   -43.2974  -4.2858  -3.4957   1.7875   2.6740   2.9721   3.4379   6.0101
     6.4311   7.8313

          k = 0.0909 0.4724 0.0000 (  5828 PWs)   bands (ev):

   -43.2960  -3.3401  -2.4702   0.7887   1.7304   2.2637   5.1917   5.3268
     5.4449   6.2719

          k = 0.0909 0.4724 0.0999 (  5826 PWs)   bands (ev):

   -43.2960  -3.3347  -2.4847   0.8704   1.5901   2.4020   4.5546   5.4971
     6.0631   6.1858

          k = 0.0909 0.4724-0.1998 (  5822 PWs)   bands (ev):

   -43.2960  -3.3291  -2.4991   0.9772   1.4492   2.5309   4.2324   5.5778
     6.0082   6.7312

          k = 0.0909 0.5774 0.0000 (  5824 PWs)   bands (ev):

   -43.2955  -2.7232  -1.8738  -0.0643   0.8901   2.8812   4.6505   5.2987
     5.5026   6.1603

          k = 0.0909 0.5774 0.0999 (  5817 PWs)   bands (ev):

   -43.2955  -2.7334  -1.8584   0.0147   0.7384   2.8938   5.0044   5.3094
     5.4885   6.0031

          k = 0.0909 0.5774-0.1998 (  5824 PWs)   bands (ev):

   -43.2955  -2.7432  -1.8433   0.1374   0.5493   2.9069   5.3534   5.4342
     5.5006   5.8697

          k = 0.1818 0.3149 0.0000 (  5829 PWs)   bands (ev):

   -43.2976  -4.4478  -3.5618   1.1351   3.3307   3.9052   4.6708   4.9861
     5.8213   6.1820

          k = 0.1818 0.3149 0.0999 (  5828 PWs)   bands (ev):

   -43.2976  -4.4321  -3.5948   1.3566   3.2864   3.7459   4.0551   5.0524
     5.7054   7.1854

          k = 0.1818 0.3149-0.1998 (  5838 PWs)   bands (ev):

   -43.2976  -4.4154  -3.6285   1.6805   3.0248   3.3980   4.0058   5.1488
     5.5622   8.1247

          k = 0.1818 0.4199 0.0000 (  5825 PWs)   bands (ev):

   -43.2961  -3.5470  -2.6715   1.6330   2.1882   2.6666   4.0082   4.8175
     5.1766   5.9260

          k = 0.1818 0.4199 0.0999 (  5826 PWs)   bands (ev):

   -43.2961  -3.5376  -2.6933   1.7823   2.1954   2.6340   4.0672   4.4301
     4.7472   6.7740

          k = 0.1818 0.4199-0.1998 (  5818 PWs)   bands (ev):

   -43.2961  -3.5278  -2.7152   1.9296   2.3967   2.4195   4.0014   4.1686
     4.6035   7.5054

          k = 0.1818 0.5249 0.0000 (  5806 PWs)   bands (ev):

   -43.2953  -2.6634  -1.8100   0.4918   1.4333   2.8895   3.6219   4.4476
     5.1863   5.6714

          k = 0.1818 0.5249 0.0999 (  5816 PWs)   bands (ev):

   -43.2953  -2.6701  -1.8017   0.5693   1.2913   2.9397   3.6702   4.3483
     5.1396   5.9153

          k = 0.1818 0.5249-0.1998 (  5808 PWs)   bands (ev):

   -43.2953  -2.6767  -1.7934   0.6822   1.1216   2.9801   3.7602   4.1943
     5.0875   6.3620

          k = 0.2727 0.4724 0.0000 (  5827 PWs)   bands (ev):

   -43.2952  -2.6792  -1.8219   1.1694   2.0990   2.5346   2.8935   3.4379
     5.6720   5.7347

          k = 0.2727 0.4724 0.0999 (  5805 PWs)   bands (ev):

   -43.2952  -2.6827  -1.8198   1.2481   1.9665   2.6081   2.9581   3.3025
     5.1471   6.5145

          k = 0.2727 0.4724-0.1998 (  5810 PWs)   bands (ev):

   -43.2952  -2.6863  -1.8177   1.3504   1.8305   2.7188   2.9927   3.1344
     4.9731   7.1270

          k = 0.2727 0.5774 0.0000 (  5800 PWs)   bands (ev):

   -43.2948  -2.1915  -1.3524   0.8122   1.7509   2.0094   2.9244   3.3608
     5.5803   5.9170

          k = 0.2727 0.5774 0.0999 (  5797 PWs)   bands (ev):

   -43.2948  -2.2098  -1.3219   0.8895   1.6044   2.0852   2.7859   3.3166
     5.9014   5.9274

          k = 0.2727 0.5774-0.1998 (  5820 PWs)   bands (ev):

   -43.2948  -2.2270  -1.2923   1.0084   1.4220   2.1967   2.6221   3.2643
     5.9116   6.4134

     the Fermi energy is     3.0807 ev

!    total energy              =     -31.13688879 Ry
     estimated scf accuracy    <          5.5E-09 Ry
     smearing contrib. (-TS)   =       0.00083529 Ry
     internal energy E=F+TS    =     -31.13772408 Ry

     The total energy is F=E-TS. E is the sum of the following terms:
     one-electron contribution =      -5.27532121 Ry
     hartree contribution      =       4.32701973 Ry
     xc contribution           =      -9.05940215 Ry
     ewald contribution        =     -21.13002044 Ry

     convergence has been achieved in   7 iterations

     Forces acting on atoms (cartesian axes, Ry/au):

     atom    1 type  1   force =     0.00000000    0.00000000   -0.05719390
     atom    2 type  1   force =     0.00000000   -0.00000000    0.05719390
     atom    3 type  2   force =     0.00000000    0.00000000    0.00000000
     The non-local contrib.  to forces
     atom    1 type  1   force =     0.00000000    0.00000000   -0.12012422
     atom    2 type  1   force =     0.00000000   -0.00000000    0.12012422
     atom    3 type  2   force =     0.00000000    0.00000000    0.00000000
     The ionic contribution  to forces
     atom    1 type  1   force =    -0.00000000    0.00000000   -0.61169636
     atom    2 type  1   force =    -0.00000000    0.00000000    0.61169636
     atom    3 type  2   force =     0.00000000   -0.00000000   -0.00000000
     The local contribution  to forces
     atom    1 type  1   force =     0.00000000    0.00000000    0.66699265
     atom    2 type  1   force =    -0.00000000    0.00000000   -0.66699265
     atom    3 type  2   force =     0.00000000    0.00000000    0.00000000
     The core correction contribution to forces
     atom    1 type  1   force =     0.00000000    0.00000000    0.00769080
     atom    2 type  1   force =     0.00000000    0.00000000   -0.00769080
     atom    3 type  2   force =     0.00000000    0.00000000    0.00000000
     The Hubbard contrib.    to forces
     atom    1 type  1   force =     0.00000000    0.00000000    0.00000000
     atom    2 type  1   force =     0.00000000    0.00000000    0.00000000
     atom    3 type  2   force =     0.00000000    0.00000000    0.00000000
     The SCF correction term to forces
     atom    1 type  1   force =     0.00000000    0.00000000   -0.00005678
     atom    2 type  1   force =    -0.00000000    0.00000000    0.00005678
     atom    3 type  2   force =     0.00000000    0.00000000    0.00000000

     Total force =     0.080884     Total SCF correction =     0.000080


     Computing stress (Cartesian axis) and pressure

          total   stress  (Ry/bohr**3)                   (kbar)     P=      -85.52
  -0.00073905  -0.00000000   0.00000000         -108.72       -0.00        0.00
  -0.00000000  -0.00073905   0.00000000           -0.00     -108.72        0.00
  -0.00000000   0.00000000  -0.00026606           -0.00        0.00      -39.14


     BFGS Geometry Optimization
     Energy error            =      0.0E+00 Ry
     Gradient error          =      5.7E-02 Ry/Bohr
     Cell gradient error     =      6.1E+02 kbar

     number of scf cycles    =   1
     number of bfgs steps    =   0

     enthalpy           new  =     -29.4976615957 Ry

     new trust radius        =       0.4543668408 bohr
ibrav =      4
 celldm(1) =      5.43318220
 celldm(3) =      2.53523510
Input lattice vectors:
     0.89655054     0.00000000    -0.00000000
    -0.44827527     0.77643554     0.00000000
     0.00000000     0.00000000     2.27296640
New lattice vectors in INITIAL alat:
     0.89655054     0.00000000     0.00000000
    -0.44827527     0.77643554     0.00000000
     0.00000000     0.00000000     2.27296640
New lattice vectors in NEW alat (for information only):
     1.00000000     0.00000000     0.00000000
    -0.50000000     0.86602540     0.00000000
     0.00000000     0.00000000     2.53523510
Discrepancy in bohr =     0.000000    0.000000    0.000000
     new conv_thr            =       0.0000000100 Ry

     new unit-cell volume =    352.13701 a.u.^3 (    52.18132 Ang^3 )
     density =      2.00838 g/cm^3

CELL_PARAMETERS (alat=  6.06009584)
   0.896550540   0.000000000   0.000000000
  -0.448275270   0.776435543   0.000000000
   0.000000000   0.000000000   2.272966396

ATOMIC_POSITIONS (crystal)
Si            0.0000000000        0.0000000000        0.1930812531
Si           -0.0000000000       -0.0000000000        0.8069187469
Li            0.0000000000        0.0000000000        0.5000000000



     Writing config-only to output data dir ./output/SiLi.save/
     NEW-OLD atomic charge density approx. for the potential
     extrapolated charge    6.93684, renormalised to   11.00000

     total cpu time spent up to now is        8.3 secs

     Self-consistent Calculation

     iteration #  1     ecut=    80.00 Ry     beta= 0.70
     Davidson diagonalization with overlap
     ethr =  1.00E-06,  avg # of iterations = 11.2

     total cpu time spent up to now is       10.0 secs

     total energy              =     -30.79140832 Ry
     estimated scf accuracy    <       0.47292072 Ry

     iteration #  2     ecut=    80.00 Ry     beta= 0.70
     Davidson diagonalization with overlap
     ethr =  4.30E-03,  avg # of iterations =  2.9

     total cpu time spent up to now is       10.7 secs

     total energy              =     -30.89824125 Ry
     estimated scf accuracy    <       2.81335566 Ry

     iteration #  3     ecut=    80.00 Ry     beta= 0.70
     Davidson diagonalization with overlap
     ethr =  4.30E-03,  avg # of iterations =  2.0

     total cpu time spent up to now is       11.2 secs

     total energy              =     -31.18642468 Ry
     estimated scf accuracy    <       0.06785041 Ry

     iteration #  4     ecut=    80.00 Ry     beta= 0.70
     Davidson diagonalization with overlap
     ethr =  6.17E-04,  avg # of iterations =  2.9

     total cpu time spent up to now is       11.8 secs

     total energy              =     -31.20187588 Ry
     estimated scf accuracy    <       0.00266241 Ry

     iteration #  5     ecut=    80.00 Ry     beta= 0.70
     Davidson diagonalization with overlap
     ethr =  2.42E-05,  avg # of iterations =  3.6

     total cpu time spent up to now is       12.4 secs

     total energy              =     -31.20263454 Ry
     estimated scf accuracy    <       0.00026675 Ry

     iteration #  6     ecut=    80.00 Ry     beta= 0.70
     Davidson diagonalization with overlap
     ethr =  2.42E-06,  avg # of iterations =  3.0

     total cpu time spent up to now is       13.0 secs

     total energy              =     -31.20262184 Ry
     estimated scf accuracy    <       0.00008795 Ry

     iteration #  7     ecut=    80.00 Ry     beta= 0.70
     Davidson diagonalization with overlap
     ethr =  8.00E-07,  avg # of iterations =  2.0

     total cpu time spent up to now is       13.5 secs

     total energy              =     -31.20264013 Ry
     estimated scf accuracy    <       0.00000298 Ry

     iteration #  8     ecut=    80.00 Ry     beta= 0.70
     Davidson diagonalization with overlap
     ethr =  2.71E-08,  avg # of iterations =  2.3

     total cpu time spent up to now is       14.1 secs

     total energy              =     -31.20264032 Ry
     estimated scf accuracy    <       0.00000076 Ry

     iteration #  9     ecut=    80.00 Ry     beta= 0.70
     Davidson diagonalization with overlap
     ethr =  6.93E-09,  avg # of iterations =  1.9

     total cpu time spent up to now is       14.5 secs

     End of self-consistent calculation

          k = 0.0000 0.0000 0.0000 (  5845 PWs)   bands (ev):

   -40.5457  -5.3931  -3.9942   0.8921   5.2633   8.3750  13.9278  13.9278
    15.0098  15.0098

          k = 0.0000 0.0000 0.1100 (  5833 PWs)   bands (ev):

   -40.5457  -5.3776  -4.0384   1.1418   4.4685   9.6082  13.9976  13.9976
    14.8711  14.8711

          k = 0.0000 0.0000-0.2200 (  5864 PWs)   bands (ev):

   -40.5457  -5.3614  -4.0825   1.4688   3.7814  11.8071  12.0489  14.0919
    14.7124  14.7128

          k = 0.0000 0.1171 0.0000 (  5847 PWs)   bands (ev):

   -40.5438  -5.2040  -3.8043   1.0589   5.4284   8.4704  12.1798  13.2581
    13.4747  14.3551

          k = 0.0000 0.1171 0.1100 (  5834 PWs)   bands (ev):

   -40.5438  -5.1881  -3.8497   1.3116   4.6271   9.6689  12.1902  13.3277
    13.3949  14.2174

          k = 0.0000 0.1171-0.2200 (  5832 PWs)   bands (ev):

   -40.5438  -5.1714  -3.8949   1.6435   3.9345  11.4066  11.9387  13.1787
    13.3734  14.0607

          k = 0.0000 0.2342 0.0000 (  5845 PWs)   bands (ev):

   -40.5385  -4.6388  -3.2367   1.5567   5.9054   8.6990   9.3683  10.7660
    12.1590  13.2828

          k = 0.0000 0.2342 0.1100 (  5839 PWs)   bands (ev):

   -40.5385  -4.6216  -3.2853   1.8170   5.0962   9.1919   9.8199  11.0003
    12.2301  13.1415

          k = 0.0000 0.2342-0.2200 (  5848 PWs)   bands (ev):

   -40.5385  -4.6036  -3.3337   2.1621   4.3928   9.2542  10.2172  12.3254
    12.4109  12.9809

          k = 0.0000 0.3513 0.0000 (  5831 PWs)   bands (ev):

   -40.5316  -3.7039  -2.2987   2.3719   6.4903   6.5032   8.1768   8.9498
    11.2253  12.3729

          k = 0.0000 0.3513 0.1100 (  5839 PWs)   bands (ev):

   -40.5316  -3.6855  -2.3512   2.6406   5.8257   6.5251   7.6229  10.4717
    11.2982  12.2262

          k = 0.0000 0.3513-0.2200 (  5824 PWs)   bands (ev):

   -40.5316  -3.6659  -2.4035   3.0003   5.1500   6.5225   7.5041  11.3965
    12.0597  12.0616

          k = 0.0000 0.4683 0.0000 (  5843 PWs)   bands (ev):

   -40.5252  -2.4178  -1.0089   3.2870   4.0990   5.0963   8.0342   8.3809
    10.5788  11.7433

          k = 0.0000 0.4683 0.1100 (  5829 PWs)   bands (ev):

   -40.5252  -2.3999  -1.0622   3.5538   4.0849   5.0592   6.8295   9.7349
    10.6532  11.5922

          k = 0.0000 0.4683-0.2200 (  5830 PWs)   bands (ev):

   -40.5252  -2.3810  -1.1150   3.8870   4.1357   4.9032   6.2202  10.7539
    11.3929  11.4206

          k = 0.0000 0.5854 0.0000 (  5831 PWs)   bands (ev):

   -40.5214  -0.8822   0.5349   1.5745   2.9574   4.9514   6.9302   8.9386
    10.2508  11.4241

          k = 0.0000 0.5854 0.1100 (  5826 PWs)   bands (ev):

   -40.5214  -0.8794   0.5086   1.6630   2.8007   5.0502   7.1502   9.0088
    10.3261  11.2705

          k = 0.0000 0.5854-0.2200 (  5826 PWs)   bands (ev):

   -40.5214  -0.8767   0.4859   1.7586   2.6504   5.1153   7.4428   9.4712
     9.6953  10.4281

          k = 0.1014 0.1756 0.0000 (  5851 PWs)   bands (ev):

   -40.5401  -4.8268  -3.4255   1.3913   5.7506   8.6426  10.4963  11.6036
    11.9182  12.7629

          k = 0.1014 0.1756 0.1100 (  5846 PWs)   bands (ev):

   -40.5401  -4.8101  -3.4731   1.6492   4.9413   9.6530  10.6169  11.6765
    11.9690  12.6175

          k = 0.1014 0.1756-0.2200 (  5838 PWs)   bands (ev):

   -40.5401  -4.7925  -3.5205   1.9903   4.2404  10.2106  11.1696  11.7740
    12.4527  12.6650

          k = 0.1014 0.2927 0.0000 (  5837 PWs)   bands (ev):

   -40.5341  -4.0765  -2.6725   2.0497   6.3368   7.9243   8.9524   9.4805
    10.1193  11.3665

          k = 0.1014 0.2927 0.1100 (  5843 PWs)   bands (ev):

   -40.5341  -4.0584  -2.7237   2.3155   5.5520   7.9239   8.9302  10.1513
    10.5981  11.3275

          k = 0.1014 0.2927-0.2200 (  5842 PWs)   bands (ev):

   -40.5341  -4.0394  -2.7747   2.6703   4.8501   7.9208   8.9257  10.2359
    10.9714  12.4564

          k = 0.1014 0.4098 0.0000 (  5839 PWs)   bands (ev):

   -40.5274  -2.9639  -1.5565   2.9971   5.2885   6.2528   7.8114   8.8591
     9.2393  10.5219

          k = 0.1014 0.4098 0.1100 (  5828 PWs)   bands (ev):

   -40.5274  -2.9452  -1.6107   3.2703   5.2811   6.2419   6.6395   9.2327
    10.0556  10.6542

          k = 0.1014 0.4098-0.2200 (  5814 PWs)   bands (ev):

   -40.5274  -2.9253  -1.6645   3.6379   5.3060   5.7351   6.3238   9.3096
    10.0919  11.8096

          k = 0.1014 0.5269 0.0000 (  5828 PWs)   bands (ev):

   -40.5224  -1.5263  -0.1144   2.6965   4.1017   4.4228   7.7941   8.5310
     8.6825  10.1086

          k = 0.1014 0.5269 0.1100 (  5826 PWs)   bands (ev):

   -40.5224  -1.5120  -0.1619   2.7946   3.9441   4.6253   7.2838   8.6856
     9.2486   9.8670

          k = 0.1014 0.5269-0.2200 (  5822 PWs)   bands (ev):

   -40.5224  -1.4972  -0.2084   2.8916   3.8604   4.7620   6.9465   8.7759
     9.5697  10.3717

          k = 0.1014 0.6440 0.0000 (  5824 PWs)   bands (ev):

   -40.5205  -0.2692   1.1518   1.1596   2.5208   5.4694   6.6103   8.4953
     8.9587  10.1248

          k = 0.1014 0.6440 0.1100 (  5817 PWs)   bands (ev):

   -40.5205  -0.2893   1.2005   1.2433   2.3147   5.4352   7.1266   8.5198
     9.0576   9.7752

          k = 0.1014 0.6440-0.2200 (  5824 PWs)   bands (ev):

   -40.5205  -0.3084   1.2410   1.3733   2.0828   5.4001   7.9523   8.5999
     9.1206   9.4628

          k = 0.2028 0.3513 0.0000 (  5829 PWs)   bands (ev):

   -40.5282  -3.1473  -1.7404   2.8533   6.5240   6.7616   7.6866   8.5253
     8.9441   9.1122

          k = 0.2028 0.3513 0.1100 (  5828 PWs)   bands (ev):

   -40.5282  -3.1284  -1.7946   3.1240   6.2098   6.5671   7.7053   7.7674
     8.7754  10.7834

          k = 0.2028 0.3513-0.2200 (  5838 PWs)   bands (ev):

   -40.5282  -3.1084  -1.8484   3.4864   5.6091   6.4850   7.5957   7.8777
     8.5846  12.2758

          k = 0.2028 0.4683 0.0000 (  5825 PWs)   bands (ev):

   -40.5229  -1.8711  -0.4609   3.7269   4.5841   5.5206   6.5622   7.6725
     8.7221   8.8000

          k = 0.2028 0.4683 0.1100 (  5826 PWs)   bands (ev):

   -40.5229  -1.8538  -0.5137   3.9877   4.5506   5.5141   6.6285   7.2272
     7.7152  10.2279

          k = 0.2028 0.4683-0.2200 (  5818 PWs)   bands (ev):

   -40.5229  -1.8355  -0.5660   4.3056   4.5872   5.3853   6.6848   6.7072
     7.5117  11.6621

          k = 0.2028 0.5854 0.0000 (  5806 PWs)   bands (ev):

   -40.5197  -0.3580   1.0615   2.1050   3.4812   5.3208   6.2106   7.3294
     7.4682   9.6042

          k = 0.2028 0.5854 0.1100 (  5816 PWs)   bands (ev):

   -40.5197  -0.3578   1.0402   2.1929   3.3293   5.4144   6.2356   7.2446
     7.6859   9.4969

          k = 0.2028 0.5854-0.2200 (  5808 PWs)   bands (ev):

   -40.5197  -0.3576   1.0225   2.2865   3.1851   5.4798   6.2779   7.1183
     7.9614  10.2331

          k = 0.3042 0.5269 0.0000 (  5827 PWs)   bands (ev):

   -40.5194  -0.4779   0.9381   3.3141   4.4602   4.7195   5.3744   5.7764
     8.3432   9.5510

          k = 0.3042 0.5269 0.1100 (  5805 PWs)   bands (ev):

   -40.5194  -0.4700   0.9019   3.4054   4.5465   4.6055   5.4940   5.5893
     8.0148  10.1563

          k = 0.3042 0.5269-0.2200 (  5810 PWs)   bands (ev):

   -40.5194  -0.4619   0.8673   3.4840   4.5852   4.6665   5.3782   5.4898
     7.8881  11.0161

          k = 0.3042 0.6440 0.0000 (  5800 PWs)   bands (ev):

   -40.5181   0.6601   2.1001   2.2601   3.6119   3.8972   5.2360   6.2419
     7.7761  10.0245

          k = 0.3042 0.6440 0.1100 (  5797 PWs)   bands (ev):

   -40.5181   0.6290   2.1681   2.3499   3.4122   3.9866   5.0664   6.1166
     8.2846   9.5631

          k = 0.3042 0.6440-0.2200 (  5820 PWs)   bands (ev):

   -40.5181   0.6000   2.2359   2.4765   3.1873   4.0970   4.8998   5.9694
     9.0979   9.8124

     the Fermi energy is     5.6277 ev

!    total energy              =     -31.20264044 Ry
     estimated scf accuracy    <          4.9E-09 Ry
     smearing contrib. (-TS)   =       0.00030977 Ry
     internal energy E=F+TS    =     -31.20295021 Ry

     The total energy is F=E-TS. E is the sum of the following terms:
     one-electron contribution =      -2.06810906 Ry
     hartree contribution      =       3.80418563 Ry
     xc contribution           =      -9.38898618 Ry
     ewald contribution        =     -23.55004060 Ry

     convergence has been achieved in   9 iterations

     Forces acting on atoms (cartesian axes, Ry/au):

     atom    1 type  1   force =    -0.00000000   -0.00000000   -0.08407641
     atom    2 type  1   force =     0.00000000   -0.00000000    0.08407641
     atom    3 type  2   force =     0.00000000    0.00000000    0.00000000
     The non-local contrib.  to forces
     atom    1 type  1   force =     0.00000000    0.00000000   -0.15093483
     atom    2 type  1   force =     0.00000000   -0.00000000    0.15093483
     atom    3 type  2   force =     0.00000000    0.00000000    0.00000000
     The ionic contribution  to forces
     atom    1 type  1   force =     0.00000000    0.00000000   -0.57616556
     atom    2 type  1   force =     0.00000000    0.00000000    0.57616556
     atom    3 type  2   force =    -0.00000000    0.00000000   -0.00000000
     The local contribution  to forces
     atom    1 type  1   force =     0.00000000    0.00000000    0.63364312
     atom    2 type  1   force =    -0.00000000   -0.00000000   -0.63364312
     atom    3 type  2   force =     0.00000000    0.00000000    0.00000000
     The core correction contribution to forces
     atom    1 type  1   force =     0.00000000    0.00000000    0.00943274
     atom    2 type  1   force =    -0.00000000    0.00000000   -0.00943274
     atom    3 type  2   force =     0.00000000    0.00000000    0.00000000
     The Hubbard contrib.    to forces
     atom    1 type  1   force =     0.00000000    0.00000000    0.00000000
     atom    2 type  1   force =     0.00000000    0.00000000    0.00000000
     atom    3 type  2   force =     0.00000000    0.00000000    0.00000000
     The SCF correction term to forces
     atom    1 type  1   force =    -0.00000000   -0.00000000   -0.00005189
     atom    2 type  1   force =     0.00000000   -0.00000000    0.00005189
     atom    3 type  2   force =    -0.00000000    0.00000000    0.00000000

     Total force =     0.118902     Total SCF correction =     0.000073


     Computing stress (Cartesian axis) and pressure

          total   stress  (Ry/bohr**3)                   (kbar)     P=      -19.62
  -0.00047522   0.00000000   0.00000000          -69.91        0.00        0.00
   0.00000000  -0.00047522   0.00000000            0.00      -69.91        0.00
   0.00000000   0.00000000   0.00055038            0.00        0.00       80.96

     Energy error            =      5.1E-01 Ry
     Gradient error          =      8.4E-02 Ry/Bohr
     Cell gradient error     =      5.7E+02 kbar

     number of scf cycles    =   2
     number of bfgs steps    =   1

     enthalpy           old  =     -29.4976615957 Ry
     enthalpy           new  =     -30.0057510589 Ry

     CASE: enthalpy          _new < enthalpy          _old

     new trust radius        =       0.6495768582 bohr
ibrav =      4
 celldm(1) =      4.49281173
 celldm(3) =      2.68267788
Input lattice vectors:
     0.74137635     0.00000000     0.00000000
    -0.37068818     0.64205075    -0.00000000
     0.00000000     0.00000000     1.98887394
New lattice vectors in INITIAL alat:
     0.74137635     0.00000000     0.00000000
    -0.37068818     0.64205075     0.00000000
     0.00000000     0.00000000     1.98887394
New lattice vectors in NEW alat (for information only):
     1.00000000     0.00000000     0.00000000
    -0.50000000     0.86602540     0.00000000
     0.00000000     0.00000000     2.68267788
Discrepancy in bohr =     0.000000    0.000000    0.000000
     new conv_thr            =       0.0000000084 Ry

     new unit-cell volume =    210.69480 a.u.^3 (    31.22175 Ang^3 )
     density =      3.35663 g/cm^3

CELL_PARAMETERS (alat=  6.06009584)
   0.741376350   0.000000000   0.000000000
  -0.370688175   0.642050753   0.000000000
   0.000000000   0.000000000   1.988873938

ATOMIC_POSITIONS (crystal)
Si            0.0000000000        0.0000000000        0.1833315716
Si           -0.0000000000       -0.0000000000        0.8166684284
Li            0.0000000000        0.0000000000        0.5000000000



     Writing config-only to output data dir ./output/SiLi.save/
     NEW-OLD atomic charge density approx. for the potential

     negative rho (up, down):  2.062E-01 0.000E+00
     extrapolated charge    3.61944, renormalised to   11.00000

     total cpu time spent up to now is       16.4 secs

     Self-consistent Calculation

     iteration #  1     ecut=    80.00 Ry     beta= 0.70
     Davidson diagonalization with overlap
     c_bands:  1 eigenvalues not converged
     c_bands:  1 eigenvalues not converged
     ethr =  1.00E-06,  avg # of iterations = 14.6

     negative rho (up, down):  3.118E-03 0.000E+00

     total cpu time spent up to now is       18.4 secs

     total energy              =     -30.19261930 Ry
     estimated scf accuracy    <       3.01681530 Ry

     iteration #  2     ecut=    80.00 Ry     beta= 0.70
     Davidson diagonalization with overlap
     ethr =  1.00E-02,  avg # of iterations =  3.4

     total cpu time spent up to now is       19.0 secs

     total energy              =     -29.95242847 Ry
     estimated scf accuracy    <       5.01270203 Ry

     iteration #  3     ecut=    80.00 Ry     beta= 0.70
     Davidson diagonalization with overlap
     ethr =  1.00E-02,  avg # of iterations =  2.5

     total cpu time spent up to now is       19.6 secs

     total energy              =     -30.95516688 Ry
     estimated scf accuracy    <       0.72500367 Ry

     iteration #  4     ecut=    80.00 Ry     beta= 0.70
     Davidson diagonalization with overlap
     ethr =  6.59E-03,  avg # of iterations =  1.4

     total cpu time spent up to now is       20.1 secs

     total energy              =     -31.08268845 Ry
     estimated scf accuracy    <       0.02097425 Ry

     iteration #  5     ecut=    80.00 Ry     beta= 0.70
     Davidson diagonalization with overlap
     ethr =  1.91E-04,  avg # of iterations =  2.1

     total cpu time spent up to now is       20.6 secs

     total energy              =     -31.08632633 Ry
     estimated scf accuracy    <       0.00030857 Ry

     iteration #  6     ecut=    80.00 Ry     beta= 0.70
     Davidson diagonalization with overlap
     ethr =  2.81E-06,  avg # of iterations =  6.0

     total cpu time spent up to now is       21.3 secs

     total energy              =     -31.08644958 Ry
     estimated scf accuracy    <       0.00004593 Ry

     iteration #  7     ecut=    80.00 Ry     beta= 0.70
     Davidson diagonalization with overlap
     ethr =  4.18E-07,  avg # of iterations =  2.1

     total cpu time spent up to now is       21.8 secs

     total energy              =     -31.08645939 Ry
     estimated scf accuracy    <       0.00000480 Ry

     iteration #  8     ecut=    80.00 Ry     beta= 0.70
     Davidson diagonalization with overlap
     ethr =  4.36E-08,  avg # of iterations =  1.7

     total cpu time spent up to now is       22.3 secs

     total energy              =     -31.08646043 Ry
     estimated scf accuracy    <       0.00000037 Ry

     iteration #  9     ecut=    80.00 Ry     beta= 0.70
     Davidson diagonalization with overlap
     ethr =  3.34E-09,  avg # of iterations =  1.9

     total cpu time spent up to now is       22.9 secs

     total energy              =     -31.08646052 Ry
     estimated scf accuracy    <       0.00000004 Ry

     iteration # 10     ecut=    80.00 Ry     beta= 0.70
     Davidson diagonalization with overlap
     ethr =  3.58E-10,  avg # of iterations =  1.6

     total cpu time spent up to now is       23.3 secs

     End of self-consistent calculation

          k = 0.0000 0.0000 0.0000 (  5845 PWs)   bands (ev):

   -34.9205  -3.8843  -1.4046   4.0210  10.0179  14.1514  24.9617  26.4718
    26.6715  26.6715

          k = 0.0000 0.0000 0.1257 (  5833 PWs)   bands (ev):

   -34.9205  -3.8918  -1.4034   4.1613   9.3282  15.4368  22.1753  26.7756
    26.7756  28.4897

          k = 0.0000 0.0000-0.2514 (  5864 PWs)   bands (ev):

   -34.9205  -3.8993  -1.4021   4.3188   8.7727  17.1780  19.9309  26.9180
    26.9180  28.0867

          k = 0.0000 0.1416 0.0000 (  5847 PWs)   bands (ev):

   -34.9070  -3.6058  -1.1253   4.2560  10.2682  14.2563  22.0681  24.1166
    24.3501  24.6038

          k = 0.0000 0.1416 0.1257 (  5834 PWs)   bands (ev):

   -34.9070  -3.6117  -1.1292   4.4102   9.5446  15.5427  21.5237  23.1504
    24.1910  24.2233

          k = 0.0000 0.1416-0.2514 (  5832 PWs)   bands (ev):

   -34.9070  -3.6177  -1.1330   4.5845   8.9646  17.2258  19.9038  22.7856
    24.0857  25.6147

          k = 0.0000 0.2832 0.0000 (  5845 PWs)   bands (ev):

   -34.8706  -2.7734  -0.2915   4.9586  11.0000  14.5119  17.6680  20.0390
    22.2838  24.3588

          k = 0.0000 0.2832 0.1257 (  5839 PWs)   bands (ev):

   -34.8706  -2.7747  -0.3109   5.1540  10.1843  15.6292  17.8958  19.9477
    22.1231  22.3664

          k = 0.0000 0.2832-0.2514 (  5848 PWs)   bands (ev):

   -34.8706  -2.7760  -0.3298   5.3791   9.5362  16.4987  18.9419  19.4672
    20.7280  23.8420

          k = 0.0000 0.4248 0.0000 (  5831 PWs)   bands (ev):

   -34.8227  -1.3964   1.0842   6.1161  12.0645  13.1576  15.1322  16.0801
    20.8781  20.9078

          k = 0.0000 0.4248 0.1257 (  5839 PWs)   bands (ev):

   -34.8227  -1.3900   1.0382   6.3787  11.1959  13.1395  15.1854  17.3692
    20.7914  20.9962

          k = 0.0000 0.4248-0.2514 (  5824 PWs)   bands (ev):

   -34.8227  -1.3834   0.9937   6.6915  10.4686  13.1208  15.2202  19.1206
    20.1557  21.1068

          k = 0.0000 0.5664 0.0000 (  5843 PWs)   bands (ev):

   -34.7786   0.5077   2.9766   7.5891   9.5762  11.4088  14.5330  14.6704
    18.8013  19.9911

          k = 0.0000 0.5664 0.1257 (  5829 PWs)   bands (ev):

   -34.7786   0.5256   2.8895   7.9521   9.5203  11.5112  12.6239  16.6707
    18.6355  20.0836

          k = 0.0000 0.5664-0.2514 (  5830 PWs)   bands (ev):

   -34.7786   0.5442   2.8062   8.4133   9.4692  11.5434  11.7028  17.6736
    19.0583  19.3181

          k = 0.0000 0.7080 0.0000 (  5831 PWs)   bands (ev):

   -34.7523   2.8900   5.3014   5.8912   8.4240   9.9511  12.4530  16.2997
    18.8815  19.5331

          k = 0.0000 0.7080 0.1257 (  5826 PWs)   bands (ev):

   -34.7523   2.9303   5.1119   5.9495   8.4094  10.3668  12.4610  15.7935
    17.5350  19.6277

          k = 0.0000 0.7080-0.2514 (  5826 PWs)   bands (ev):

   -34.7523   2.9740   4.9568   5.9632   8.4631  10.6473  12.8710  14.5682
    17.5720  19.3645

          k = 0.1226 0.2124 0.0000 (  5851 PWs)   bands (ev):

   -34.8820  -3.0503  -0.5687   4.7250  10.7606  14.4473  19.8778  20.1621
    21.8040  23.0929

          k = 0.1226 0.2124 0.1257 (  5846 PWs)   bands (ev):

   -34.8820  -3.0532  -0.5829   4.9067   9.9733  15.6908  19.9460  20.0583
    21.6314  23.0258

          k = 0.1226 0.2124-0.2514 (  5838 PWs)   bands (ev):

   -34.8820  -3.0560  -0.5968   5.1147   9.3468  17.0955  19.7233  20.0259
    21.4554  22.1264

          k = 0.1226 0.3540 0.0000 (  5837 PWs)   bands (ev):

   -34.8399  -1.9456   0.5361   5.6578  11.6913  14.5711  15.8310  17.9913
    18.4460  21.1661

          k = 0.1226 0.3540 0.1257 (  5843 PWs)   bands (ev):

   -34.8399  -1.9423   0.5010   5.8929  10.8080  15.0358  16.4535  17.8713
    18.7271  21.2129

          k = 0.1226 0.3540-0.2514 (  5842 PWs)   bands (ev):

   -34.8399  -1.9389   0.4669   6.1693  10.1036  15.1694  17.2980  17.5558
    19.4669  21.3630

          k = 0.1226 0.4956 0.0000 (  5839 PWs)   bands (ev):

   -34.7939  -0.3045   2.1712   7.0229  11.4703  12.4892  14.7463  15.0269
    17.2991  19.9645

          k = 0.1226 0.4956 0.1257 (  5828 PWs)   bands (ev):

   -34.7939  -0.2918   2.1034   7.3372  11.4360  11.9312  13.6511  16.4254
    17.8235  19.4219

          k = 0.1226 0.4956-0.2514 (  5814 PWs)   bands (ev):

   -34.7939  -0.2787   2.0381   7.7218  11.2033  11.4216  13.4881  16.6779
    18.6033  19.6133

          k = 0.1226 0.6372 0.0000 (  5828 PWs)   bands (ev):

   -34.7586   1.8480   4.2976   7.5319   9.2307  10.0979  13.7083  15.3305
    16.4440  19.3548

          k = 0.1226 0.6372 0.1257 (  5826 PWs)   bands (ev):

   -34.7586   1.8752   4.1753   7.6677   9.3791  10.1985  13.0356  15.7133
    16.5310  17.7850

          k = 0.1226 0.6372-0.2514 (  5822 PWs)   bands (ev):

   -34.7586   1.9039   4.0604   7.7609   9.8076  10.0717  12.5077  15.9650
    16.3504  17.6957

          k = 0.1226 0.7788 0.0000 (  5824 PWs)   bands (ev):

   -34.7455   4.1149   4.9625   6.3778   7.6284  10.9578  11.6881  16.1476
    16.2904  19.5536

          k = 0.1226 0.7788 0.1257 (  5817 PWs)   bands (ev):

   -34.7455   4.2068   4.9309   6.0969   7.7334  11.5413  11.7335  15.9573
    16.3168  16.7293

          k = 0.1226 0.7788-0.2514 (  5824 PWs)   bands (ev):

   -34.7455   4.3204   4.9007   5.8216   7.8423  11.3919  13.3063  14.0647
    15.9398  17.0027

          k = 0.2452 0.4248 0.0000 (  5829 PWs)   bands (ev):

   -34.7996  -0.5763   1.9009   6.8121  12.6818  13.6298  13.9966  15.6898
    15.9659  18.2658

          k = 0.2452 0.4248 0.1257 (  5828 PWs)   bands (ev):

   -34.7996  -0.5653   1.8394   7.1097  11.7994  13.7063  13.9903  15.4851
    16.3967  19.4007

          k = 0.2452 0.4248-0.2514 (  5838 PWs)   bands (ev):

   -34.7996  -0.5541   1.7800   7.4703  11.0423  13.7974  13.9527  15.2782
    16.6962  20.9707

          k = 0.2452 0.5664 0.0000 (  5825 PWs)   bands (ev):

   -34.7625   1.3169   3.7771   8.3093  10.2323  12.1300  12.9739  14.0599
    15.5265  17.5129

          k = 0.2452 0.5664 0.1257 (  5826 PWs)   bands (ev):

   -34.7625   1.3392   3.6758   8.6877  10.2259  12.1098  12.9435  13.2045
    15.4126  17.8871

          k = 0.2452 0.5664-0.2514 (  5818 PWs)   bands (ev):

   -34.7625   1.3625   3.5793   9.1648  10.2197  12.0929  12.3103  12.9806
    15.3908  18.2524

          k = 0.2452 0.7080 0.0000 (  5806 PWs)   bands (ev):

   -34.7404   3.6854   6.0796   6.6679   9.1536  10.5667  12.2429  13.7366
    14.2738  18.3018

          k = 0.2452 0.7080 0.1257 (  5816 PWs)   bands (ev):

   -34.7404   3.7290   5.8880   6.7261   9.1013  10.9242  12.4917  13.3545
    14.7191  16.6622

          k = 0.2452 0.7080-0.2514 (  5808 PWs)   bands (ev):

   -34.7404   3.7765   5.7263   6.7490   9.0909  11.2380  12.6074  13.6389
    14.8386  15.3801

          k = 0.3679 0.6372 0.0000 (  5827 PWs)   bands (ev):

   -34.7385   3.4410   5.8579   8.8717   9.2479  11.0297  11.0485  12.1717
    15.1725  16.1041

          k = 0.3679 0.6372 0.1257 (  5805 PWs)   bands (ev):

   -34.7385   3.4777   5.7061   8.9553   9.4374  10.7921  11.0857  12.5941
    14.4217  17.7015

          k = 0.3679 0.6372-0.2514 (  5810 PWs)   bands (ev):

   -34.7385   3.5173   5.5640   9.0565   9.5572  10.5549  11.3857  12.8786
    13.7781  17.0051

          k = 0.3679 0.7788 0.0000 (  5800 PWs)   bands (ev):

   -34.7295   5.6987   6.4412   7.9256   8.9280   9.0604  11.6708  12.6800
    13.3045  15.4870

          k = 0.3679 0.7788 0.1257 (  5797 PWs)   bands (ev):

   -34.7295   5.7877   6.4490   7.6605   8.7712   9.1691  11.7730  13.2007
    13.4379  15.8299

          k = 0.3679 0.7788-0.2514 (  5820 PWs)   bands (ev):

   -34.7295   5.8969   6.4564   7.3989   8.7234   9.1409  12.1860  12.6980
    15.7699  18.2002

     the Fermi energy is    11.7102 ev

!    total energy              =     -31.08646052 Ry
     estimated scf accuracy    <          4.3E-09 Ry
     smearing contrib. (-TS)   =       0.00005204 Ry
     internal energy E=F+TS    =     -31.08651256 Ry

     The total energy is F=E-TS. E is the sum of the following terms:
     one-electron contribution =       4.08411303 Ry
     hartree contribution      =       3.07842465 Ry
     xc contribution           =     -10.14466253 Ry
     ewald contribution        =     -28.10438771 Ry

     convergence has been achieved in  10 iterations

     Forces acting on atoms (cartesian axes, Ry/au):

     atom    1 type  1   force =     0.00000000   -0.00000000   -0.06189410
     atom    2 type  1   force =     0.00000000    0.00000000    0.06189410
     atom    3 type  2   force =     0.00000000    0.00000000    0.00000000
     The non-local contrib.  to forces
     atom    1 type  1   force =    -0.00000000   -0.00000000   -0.02399900
     atom    2 type  1   force =    -0.00000000   -0.00000000    0.02399900
     atom    3 type  2   force =     0.00000000    0.00000000   -0.00000000
     The ionic contribution  to forces
     atom    1 type  1   force =    -0.00000000   -0.00000000   -0.15110050
     atom    2 type  1   force =     0.00000000   -0.00000000    0.15110050
     atom    3 type  2   force =     0.00000000    0.00000000   -0.00000000
     The local contribution  to forces
     atom    1 type  1   force =     0.00000000   -0.00000000    0.11239208
     atom    2 type  1   force =    -0.00000000    0.00000000   -0.11239208
     atom    3 type  2   force =     0.00000000    0.00000000    0.00000000
     The core correction contribution to forces
     atom    1 type  1   force =    -0.00000000    0.00000000    0.00070799
     atom    2 type  1   force =     0.00000000    0.00000000   -0.00070799
     atom    3 type  2   force =     0.00000000    0.00000000    0.00000000
     The Hubbard contrib.    to forces
     atom    1 type  1   force =     0.00000000    0.00000000    0.00000000
     atom    2 type  1   force =     0.00000000    0.00000000    0.00000000
     atom    3 type  2   force =     0.00000000    0.00000000    0.00000000
     The SCF correction term to forces
     atom    1 type  1   force =    -0.00000000   -0.00000000    0.00010533
     atom    2 type  1   force =     0.00000000    0.00000000   -0.00010533
     atom    3 type  2   force =     0.00000000    0.00000000    0.00000000

     Total force =     0.087531     Total SCF correction =     0.000149


     Computing stress (Cartesian axis) and pressure

          total   stress  (Ry/bohr**3)                   (kbar)     P=      548.43
   0.00291095   0.00000000   0.00000000          428.22        0.00        0.00
   0.00000000   0.00291095   0.00000000            0.00      428.22        0.00
   0.00000000   0.00000000   0.00536258            0.00        0.00      788.86

     Energy error            =      3.6E-01 Ry
     Gradient error          =      6.2E-02 Ry/Bohr
     Cell gradient error     =      2.9E+02 kbar

     number of scf cycles    =   3
     number of bfgs steps    =   2

     enthalpy           old  =     -30.0057510589 Ry
     enthalpy           new  =     -30.3703234442 Ry

     CASE: enthalpy          _new < enthalpy          _old

     new trust radius        =       0.0826277257 bohr
ibrav =      4
 celldm(1) =      4.42165882
 celldm(3) =      2.80343097
Input lattice vectors:
     0.72963513     0.00000000    -0.00000000
    -0.36481757     0.63188256     0.00000000
     0.00000000     0.00000000     2.04548172
New lattice vectors in INITIAL alat:
     0.72963513     0.00000000     0.00000000
    -0.36481757     0.63188256     0.00000000
     0.00000000     0.00000000     2.04548172
New lattice vectors in NEW alat (for information only):
     1.00000000     0.00000000     0.00000000
    -0.50000000     0.86602540     0.00000000
     0.00000000     0.00000000     2.80343097
Discrepancy in bohr =     0.000000    0.000000    0.000000
     new conv_thr            =       0.0000000062 Ry

     new unit-cell volume =    209.88248 a.u.^3 (    31.10137 Ang^3 )
     density =      3.36962 g/cm^3

CELL_PARAMETERS (alat=  6.06009584)
   0.729635132   0.000000000   0.000000000
  -0.364817566   0.631882560   0.000000000
   0.000000000   0.000000000   2.045481721

ATOMIC_POSITIONS (crystal)
Si            0.0000000000       -0.0000000000        0.1799707406
Si            0.0000000000        0.0000000000        0.8200292594
Li            0.0000000000        0.0000000000        0.5000000000



     Writing config-only to output data dir ./output/SiLi.save/
     NEW-OLD atomic charge density approx. for the potential
     extrapolated charge   10.95745, renormalised to   11.00000

     total cpu time spent up to now is       25.1 secs

     Self-consistent Calculation

     iteration #  1     ecut=    80.00 Ry     beta= 0.70
     Davidson diagonalization with overlap
     ethr =  1.00E-06,  avg # of iterations =  9.0

     total cpu time spent up to now is       26.3 secs

     total energy              =     -31.09723810 Ry
     estimated scf accuracy    <       0.00300762 Ry

     iteration #  2     ecut=    80.00 Ry     beta= 0.70
     Davidson diagonalization with overlap
     ethr =  2.73E-05,  avg # of iterations =  2.5

     total cpu time spent up to now is       26.9 secs

     total energy              =     -31.09527657 Ry
     estimated scf accuracy    <       0.02668240 Ry

     iteration #  3     ecut=    80.00 Ry     beta= 0.70
     Davidson diagonalization with overlap
     ethr =  2.73E-05,  avg # of iterations =  2.2

     total cpu time spent up to now is       27.4 secs

     total energy              =     -31.09878295 Ry
     estimated scf accuracy    <       0.00006722 Ry

     iteration #  4     ecut=    80.00 Ry     beta= 0.70
     Davidson diagonalization with overlap
     ethr =  6.11E-07,  avg # of iterations =  2.5

     total cpu time spent up to now is       27.9 secs

     total energy              =     -31.09879513 Ry
     estimated scf accuracy    <       0.00000310 Ry

     iteration #  5     ecut=    80.00 Ry     beta= 0.70
     Davidson diagonalization with overlap
     ethr =  2.82E-08,  avg # of iterations =  2.4

     total cpu time spent up to now is       28.5 secs

     total energy              =     -31.09879584 Ry
     estimated scf accuracy    <       0.00000005 Ry

     iteration #  6     ecut=    80.00 Ry     beta= 0.70
     Davidson diagonalization with overlap
     ethr =  4.83E-10,  avg # of iterations =  3.3

     total cpu time spent up to now is       29.0 secs

     total energy              =     -31.09879586 Ry
     estimated scf accuracy    <       0.00000002 Ry

     iteration #  7     ecut=    80.00 Ry     beta= 0.70
     Davidson diagonalization with overlap
     ethr =  1.92E-10,  avg # of iterations =  1.6

     total cpu time spent up to now is       29.5 secs

     End of self-consistent calculation

          k = 0.0000 0.0000 0.0000 (  5845 PWs)   bands (ev):

   -34.7910  -4.0872  -1.6729   3.8733   9.5211  13.5935  24.3624  25.1097
    27.7549  27.7549

          k = 0.0000 0.0000 0.1222 (  5833 PWs)   bands (ev):

   -34.7910  -4.0945  -1.6666   3.9821   8.9239  14.7875  21.2630  27.8346
    27.8347  29.5764

          k = 0.0000 0.0000-0.2444 (  5864 PWs)   bands (ev):

   -34.7910  -4.1018  -1.6604   4.1027   8.4410  16.4586  19.0281  27.9353
    27.9353  29.2534

          k = 0.0000 0.1439 0.0000 (  5847 PWs)   bands (ev):

   -34.7756  -3.7992  -1.3848   4.1207   9.7850  13.7111  22.4750  24.4888
    24.6461  24.8246

          k = 0.0000 0.1439 0.1222 (  5834 PWs)   bands (ev):

   -34.7756  -3.8053  -1.3827   4.2425   9.1516  14.9214  21.0613  23.3306
    24.6831  24.8767

          k = 0.0000 0.1439-0.2444 (  5832 PWs)   bands (ev):

   -34.7756  -3.8113  -1.3806   4.3785   8.6429  16.5850  19.0545  23.2539
    24.5880  26.3091

          k = 0.0000 0.2877 0.0000 (  5845 PWs)   bands (ev):

   -34.7341  -2.9387  -0.5254   4.8606  10.5613  14.0231  18.0737  20.3430
    22.9844  24.9210

          k = 0.0000 0.2877 0.1222 (  5839 PWs)   bands (ev):

   -34.7341  -2.9410  -0.5358   5.0210   9.8248  15.1887  18.1766  20.2541
    21.6813  23.0448

          k = 0.0000 0.2877-0.2444 (  5848 PWs)   bands (ev):

   -34.7341  -2.9433  -0.5459   5.2040   9.2433  16.3999  18.7973  19.3851
    20.4903  24.5547

          k = 0.0000 0.4316 0.0000 (  5831 PWs)   bands (ev):

   -34.6795  -1.5163   0.8909   6.0812  11.7407  13.3693  14.8512  16.2305
    21.1544  21.5940

          k = 0.0000 0.4316 0.1222 (  5839 PWs)   bands (ev):

   -34.6795  -1.5123   0.8592   6.3049  10.8959  13.3944  15.3538  17.0325
    20.8895  21.6600

          k = 0.0000 0.4316-0.2444 (  5824 PWs)   bands (ev):

   -34.6795  -1.5082   0.8283   6.5699  10.2194  13.3929  15.5202  18.7990
    19.5902  21.7379

          k = 0.0000 0.5755 0.0000 (  5843 PWs)   bands (ev):

   -34.6291   0.4481   2.8343   7.6712   9.7410  11.5153  14.3965  14.5321
    18.5980  20.6664

          k = 0.0000 0.5755 0.1222 (  5829 PWs)   bands (ev):

   -34.6291   0.4615   2.7699   7.9873   9.6992  11.5839  12.5317  16.6264
    18.4864  20.7362

          k = 0.0000 0.5755-0.2444 (  5830 PWs)   bands (ev):

   -34.6291   0.4752   2.7076   8.3870   9.6603  11.4858  11.7704  17.8552
    18.8384  19.2901

          k = 0.0000 0.7194 0.0000 (  5831 PWs)   bands (ev):

   -34.5990   2.8927   5.1938   6.0449   8.5214  10.0576  12.6340  16.1597
    18.3237  20.2027

          k = 0.0000 0.7194 0.1222 (  5826 PWs)   bands (ev):

   -34.5990   2.9252   5.0541   6.0781   8.5291  10.4338  12.5652  15.5840
    17.3994  20.2744

          k = 0.0000 0.7194-0.2444 (  5826 PWs)   bands (ev):

   -34.5990   2.9598   4.9299   6.0903   8.5782  10.7582  12.7228  14.5638
    17.4653  19.5385

          k = 0.1246 0.2158 0.0000 (  5851 PWs)   bands (ev):

   -34.7471  -3.2250  -0.8111   4.6145  10.3060  13.9328  20.3154  20.6327
    22.0974  23.5660

          k = 0.1246 0.2158 0.1222 (  5846 PWs)   bands (ev):

   -34.7471  -3.2285  -0.8173   4.7621   9.6026  15.1483  20.1756  20.3640
    21.9801  23.2789

          k = 0.1246 0.2158-0.2444 (  5838 PWs)   bands (ev):

   -34.7471  -3.2320  -0.8233   4.9292   9.0445  16.6874  19.0544  20.4185
    21.8606  22.4597

          k = 0.1246 0.3597 0.0000 (  5837 PWs)   bands (ev):

   -34.6991  -2.0835   0.3269   5.5970  11.3065  14.2340  16.0918  18.2047
    18.8971  21.6327

          k = 0.1246 0.3597 0.1222 (  5843 PWs)   bands (ev):

   -34.6991  -2.0820   0.3040   5.7950  10.4823  15.0436  16.4845  18.1051
    18.9784  21.6480

          k = 0.1246 0.3597-0.2444 (  5842 PWs)   bands (ev):

   -34.6991  -2.0805   0.2815   6.0258   9.8374  15.3994  17.5869  17.6541
    19.2798  21.2830

          k = 0.1246 0.5035 0.0000 (  5839 PWs)   bands (ev):

   -34.6466  -0.3893   2.0083   7.0411  11.7078  12.3755  14.7000  14.8438
    17.7079  19.7907

          k = 0.1246 0.5035 0.1222 (  5828 PWs)   bands (ev):

   -34.6466  -0.3802   1.9592   7.3133  11.6583  11.7103  13.8529  16.4337
    17.9901  19.7276

          k = 0.1246 0.5035-0.2444 (  5814 PWs)   bands (ev):

   -34.6466  -0.3709   1.9115   7.6459  10.9848  11.6684  13.7413  16.9504
    18.7040  19.8574

          k = 0.1246 0.6474 0.0000 (  5828 PWs)   bands (ev):

   -34.6063   1.8278   4.1847   7.7335   9.2907  10.2090  13.8768  15.1546
    16.8364  18.4323

          k = 0.1246 0.6474 0.1222 (  5826 PWs)   bands (ev):

   -34.6063   1.8488   4.0928   7.8409   9.4650  10.2858  12.9997  15.7918
    16.8025  17.8145

          k = 0.1246 0.6474-0.2444 (  5822 PWs)   bands (ev):

   -34.6063   1.8708   4.0049   7.9174   9.8465  10.2294  12.3442  16.1559
    16.6230  17.7456

          k = 0.1246 0.7913 0.0000 (  5824 PWs)   bands (ev):

   -34.5912   4.1003   5.1381   6.2277   7.7721  11.1146  11.8628  16.3591
    16.5330  19.1748

          k = 0.1246 0.7913 0.1222 (  5817 PWs)   bands (ev):

   -34.5912   4.1701   5.1134   6.0197   7.8562  11.7330  11.7921  16.0160
    16.2942  16.7912

          k = 0.1246 0.7913-0.2444 (  5824 PWs)   bands (ev):

   -34.5912   4.2519   5.0896   5.8151   7.9430  11.6027  13.1757  13.9702
    16.3166  16.9568

          k = 0.2492 0.4316 0.0000 (  5829 PWs)   bands (ev):

   -34.6531  -0.6698   1.7308   6.8142  12.4270  13.8761  14.1099  15.7961
    15.9712  18.6350

          k = 0.2492 0.4316 0.1222 (  5828 PWs)   bands (ev):

   -34.6531  -0.6621   1.6867   7.0713  11.5341  13.9321  14.2912  15.6517
    16.5986  19.3480

          k = 0.2492 0.4316-0.2444 (  5838 PWs)   bands (ev):

   -34.6531  -0.6543   1.6437   7.3821  10.8161  13.9958  14.3279  15.5056
    17.0863  21.0727

          k = 0.2492 0.5755 0.0000 (  5825 PWs)   bands (ev):

   -34.6107   1.2819   3.6553   8.4224  10.4083  12.2401  13.2739  14.0331
    15.6016  17.6035

          k = 0.2492 0.5755 0.1222 (  5826 PWs)   bands (ev):

   -34.6107   1.2988   3.5797   8.7549  10.4071  12.2206  12.9590  13.3940
    15.7125  18.0971

          k = 0.2492 0.5755-0.2444 (  5818 PWs)   bands (ev):

   -34.6107   1.3163   3.5069   9.1760  10.4068  12.1109  12.2993  13.3083
    15.7753  18.4888

          k = 0.2492 0.7194 0.0000 (  5806 PWs)   bands (ev):

   -34.5854   3.7098   5.9899   6.8351   9.2449  10.7272  12.5290  13.9798
    14.4919  18.4897

          k = 0.2492 0.7194 0.1222 (  5816 PWs)   bands (ev):

   -34.5854   3.7447   5.8484   6.8703   9.2164  11.0611  12.7304  13.5597
    14.9546  16.5438

          k = 0.2492 0.7194-0.2444 (  5808 PWs)   bands (ev):

   -34.5854   3.7821   5.7203   6.8895   9.2111  11.3893  12.9285  13.5164
    15.1592  15.4143

          k = 0.3738 0.6474 0.0000 (  5827 PWs)   bands (ev):

   -34.5832   3.4647   5.7775   8.9838   9.5875  11.0037  11.2144  12.5347
    15.4020  16.4433

          k = 0.3738 0.6474 0.1222 (  5805 PWs)   bands (ev):

   -34.5832   3.4935   5.6632   9.0461   9.7640  10.8322  11.2884  12.8553
    14.5607  17.0762

          k = 0.3738 0.6474-0.2444 (  5810 PWs)   bands (ev):

   -34.5832   3.5240   5.5540   9.1179   9.8899  10.6606  11.5635  13.1736
    13.7450  17.1892

          k = 0.3738 0.7913 0.0000 (  5800 PWs)   bands (ev):

   -34.5730   5.7256   6.6115   7.8159   8.9793   9.3702  12.0120  12.8971
    13.5263  15.8020

          k = 0.3738 0.7913 0.1222 (  5797 PWs)   bands (ev):

   -34.5730   5.7927   6.6224   7.6214   8.8756   9.4171  12.1461  13.4409
    13.5587  16.0574

          k = 0.3738 0.7913-0.2444 (  5820 PWs)   bands (ev):

   -34.5730   5.8709   6.6332   7.4288   8.8080   9.4139  12.5184  13.0335
    14.9078  15.7355

     the Fermi energy is    11.7681 ev

!    total energy              =     -31.09879587 Ry
     estimated scf accuracy    <          1.2E-09 Ry
     smearing contrib. (-TS)   =      -0.00071432 Ry
     internal energy E=F+TS    =     -31.09808155 Ry

     The total energy is F=E-TS. E is the sum of the following terms:
     one-electron contribution =       4.13559639 Ry
     hartree contribution      =       3.06721974 Ry
     xc contribution           =     -10.16402061 Ry
     ewald contribution        =     -28.13687707 Ry

     convergence has been achieved in   7 iterations

     Forces acting on atoms (cartesian axes, Ry/au):

     atom    1 type  1   force =     0.00000000   -0.00000000   -0.02784229
     atom    2 type  1   force =    -0.00000000    0.00000000    0.02784229
     atom    3 type  2   force =     0.00000000    0.00000000   -0.00000000
     The non-local contrib.  to forces
     atom    1 type  1   force =     0.00000000    0.00000000    0.00672839
     atom    2 type  1   force =     0.00000000    0.00000000   -0.00672839
     atom    3 type  2   force =    -0.00000000    0.00000000    0.00000000
     The ionic contribution  to forces
     atom    1 type  1   force =     0.00000000    0.00000000    0.08753584
     atom    2 type  1   force =    -0.00000000   -0.00000000   -0.08753584
     atom    3 type  2   force =    -0.00000000   -0.00000000   -0.00000000
     The local contribution  to forces
     atom    1 type  1   force =    -0.00000000    0.00000000   -0.12114909
     atom    2 type  1   force =    -0.00000000   -0.00000000    0.12114909
     atom    3 type  2   force =     0.00000000    0.00000000    0.00000000
     The core correction contribution to forces
     atom    1 type  1   force =     0.00000000   -0.00000000   -0.00101902
     atom    2 type  1   force =    -0.00000000    0.00000000    0.00101902
     atom    3 type  2   force =     0.00000000    0.00000000    0.00000000
     The Hubbard contrib.    to forces
     atom    1 type  1   force =     0.00000000    0.00000000    0.00000000
     atom    2 type  1   force =     0.00000000    0.00000000    0.00000000
     atom    3 type  2   force =     0.00000000    0.00000000    0.00000000
     The SCF correction term to forces
     atom    1 type  1   force =    -0.00000000   -0.00000000    0.00006158
     atom    2 type  1   force =    -0.00000000    0.00000000   -0.00006158
     atom    3 type  2   force =    -0.00000000   -0.00000000    0.00000000

     Total force =     0.039375     Total SCF correction =     0.000087


     Computing stress (Cartesian axis) and pressure

          total   stress  (Ry/bohr**3)                   (kbar)     P=      550.27
   0.00329639   0.00000000   0.00000000          484.92        0.00        0.00
   0.00000000   0.00329639   0.00000000            0.00      484.92        0.00
   0.00000000   0.00000000   0.00462918            0.00        0.00      680.98

     Energy error            =      1.5E-02 Ry
     Gradient error          =      2.8E-02 Ry/Bohr
     Cell gradient error     =      1.8E+02 kbar

     number of scf cycles    =   4
     number of bfgs steps    =   3

     enthalpy           old  =     -30.3703234442 Ry
     enthalpy           new  =     -30.3854198175 Ry

     CASE: enthalpy          _new < enthalpy          _old

     new trust radius        =       0.1182139462 bohr
ibrav =      4
 celldm(1) =      4.39762997
 celldm(3) =      2.93375148
Input lattice vectors:
     0.72567004     0.00000000     0.00000000
    -0.36283502     0.62844869    -0.00000000
     0.00000000     0.00000000     2.12893554
New lattice vectors in INITIAL alat:
     0.72567004     0.00000000     0.00000000
    -0.36283502     0.62844869     0.00000000
     0.00000000     0.00000000     2.12893554
New lattice vectors in NEW alat (for information only):
     1.00000000     0.00000000     0.00000000
    -0.50000000     0.86602540     0.00000000
     0.00000000     0.00000000     2.93375148
Discrepancy in bohr =     0.000000    0.000000    0.000000
     new conv_thr            =       0.0000000028 Ry

     new unit-cell volume =    216.07773 a.u.^3 (    32.01942 Ang^3 )
     density =      3.27301 g/cm^3

CELL_PARAMETERS (alat=  6.06009584)
   0.725670036   0.000000000   0.000000000
  -0.362835018   0.628448686   0.000000000
   0.000000000   0.000000000   2.128935543

ATOMIC_POSITIONS (crystal)
Si            0.0000000000       -0.0000000000        0.1768939226
Si            0.0000000000        0.0000000000        0.8231060774
Li            0.0000000000        0.0000000000        0.5000000000



     Writing config-only to output data dir ./output/SiLi.save/
     NEW-OLD atomic charge density approx. for the potential
     extrapolated charge   11.31522, renormalised to   11.00000

     total cpu time spent up to now is       31.2 secs

     Self-consistent Calculation

     iteration #  1     ecut=    80.00 Ry     beta= 0.70
     Davidson diagonalization with overlap
     c_bands:  2 eigenvalues not converged
     ethr =  1.00E-06,  avg # of iterations =  9.2

     total cpu time spent up to now is       32.5 secs

     total energy              =     -31.12416631 Ry
     estimated scf accuracy    <       0.00219757 Ry

     iteration #  2     ecut=    80.00 Ry     beta= 0.70
     Davidson diagonalization with overlap
     ethr =  2.00E-05,  avg # of iterations =  2.6

     total cpu time spent up to now is       33.0 secs

     total energy              =     -31.12294949 Ry
     estimated scf accuracy    <       0.01714350 Ry

     iteration #  3     ecut=    80.00 Ry     beta= 0.70
     Davidson diagonalization with overlap
     ethr =  2.00E-05,  avg # of iterations =  2.2

     total cpu time spent up to now is       33.6 secs

     total energy              =     -31.12553598 Ry
     estimated scf accuracy    <       0.00049987 Ry

     iteration #  4     ecut=    80.00 Ry     beta= 0.70
     Davidson diagonalization with overlap
     ethr =  4.54E-06,  avg # of iterations =  1.0

     total cpu time spent up to now is       34.0 secs

     total energy              =     -31.12557777 Ry
     estimated scf accuracy    <       0.00001394 Ry

     iteration #  5     ecut=    80.00 Ry     beta= 0.70
     Davidson diagonalization with overlap
     ethr =  1.27E-07,  avg # of iterations =  2.1

     total cpu time spent up to now is       34.5 secs

     total energy              =     -31.12558005 Ry
     estimated scf accuracy    <       0.00000013 Ry

     iteration #  6     ecut=    80.00 Ry     beta= 0.70
     Davidson diagonalization with overlap
     ethr =  1.22E-09,  avg # of iterations =  3.3

     total cpu time spent up to now is       35.0 secs

     total energy              =     -31.12558013 Ry
     estimated scf accuracy    <          4.4E-09 Ry

     iteration #  7     ecut=    80.00 Ry     beta= 0.70
     Davidson diagonalization with overlap
     ethr =  4.03E-11,  avg # of iterations =  2.6

     total cpu time spent up to now is       35.5 secs

     End of self-consistent calculation

          k = 0.0000 0.0000 0.0000 (  5845 PWs)   bands (ev):

   -35.1924  -4.4221  -2.1646   3.4815   8.6727  12.5397  22.9452  23.0192
    27.9204  27.9204

          k = 0.0000 0.0000 0.1174 (  5833 PWs)   bands (ev):

   -35.1924  -4.4274  -2.1597   3.5747   8.1423  13.6489  19.6525  26.5594
    26.5654  27.9785

          k = 0.0000 0.0000-0.2349 (  5864 PWs)   bands (ev):

   -35.1924  -4.4326  -2.1548   3.6774   7.7119  15.2661  17.4645  28.0472
    28.0472  29.4325

          k = 0.0000 0.1447 0.0000 (  5847 PWs)   bands (ev):

   -35.1765  -4.1304  -1.8735   3.7371   8.9443  12.6691  21.9885  23.1108
    23.7876  24.6338

          k = 0.0000 0.1447 0.1174 (  5834 PWs)   bands (ev):

   -35.1765  -4.1347  -1.8716   3.8417   8.3779  13.8034  19.6459  23.0719
    24.4248  24.8383

          k = 0.0000 0.1447-0.2349 (  5832 PWs)   bands (ev):

   -35.1765  -4.1390  -1.8696   3.9577   7.9222  15.4453  17.5283  23.0984
    24.3750  26.1914

          k = 0.0000 0.2893 0.0000 (  5845 PWs)   bands (ev):

   -35.1335  -3.2588  -1.0050   4.5017   9.7469  13.0288  17.9045  20.0194
    22.5143  22.9750

          k = 0.0000 0.2893 0.1174 (  5839 PWs)   bands (ev):

   -35.1335  -3.2603  -1.0121   4.6399   9.0748  14.1865  17.8685  19.9516
    20.4989  23.0172

          k = 0.0000 0.2893-0.2349 (  5848 PWs)   bands (ev):

   -35.1335  -3.2618  -1.0190   4.7970   8.5467  15.6366  17.6049  18.9016
    19.9879  24.4690

          k = 0.0000 0.4340 0.0000 (  5831 PWs)   bands (ev):

   -35.0770  -1.8184   0.4254   5.7641  10.9993  12.9951  14.1472  15.8427
    20.8770  21.5873

          k = 0.0000 0.4340 0.1174 (  5839 PWs)   bands (ev):

   -35.0770  -1.8153   0.4032   5.9576  10.1878  13.1568  14.8837  16.2462
    20.2097  21.6341

          k = 0.0000 0.4340-0.2349 (  5824 PWs)   bands (ev):

   -35.0770  -1.8122   0.3812   6.1870   9.5593  13.1934  15.2479  17.9137
    18.3264  21.6868

          k = 0.0000 0.5786 0.0000 (  5843 PWs)   bands (ev):

   -35.0249   0.1694   2.3857   7.4337   9.5157  11.1513  13.6597  13.9580
    17.9946  20.6603

          k = 0.0000 0.5786 0.1174 (  5829 PWs)   bands (ev):

   -35.0249   0.1794   2.3403   7.7058   9.4878  11.1414  12.0265  15.9738
    17.9235  20.7102

          k = 0.0000 0.5786-0.2349 (  5830 PWs)   bands (ev):

   -35.0249   0.1897   2.2960   8.0508   9.4618  10.8564  11.4975  17.5981
    17.9571  18.6871

          k = 0.0000 0.7233 0.0000 (  5831 PWs)   bands (ev):

   -34.9937   2.6372   4.7501   5.8563   8.1815   9.8232  12.3780  15.5033
    17.2913  19.7257

          k = 0.0000 0.7233 0.1174 (  5826 PWs)   bands (ev):

   -34.9937   2.6614   4.6545   5.8752   8.1969  10.1466  12.2383  14.9694
    16.7259  19.3452

          k = 0.0000 0.7233-0.2349 (  5826 PWs)   bands (ev):

   -34.9937   2.6870   4.5649   5.8850   8.2327  10.4864  12.1664  14.2157
    16.7839  19.1881

          k = 0.1253 0.2170 0.0000 (  5851 PWs)   bands (ev):

   -35.1470  -3.5487  -1.2937   4.2474   9.4821  12.9182  20.1917  20.3346
    21.7807  22.9479

          k = 0.1253 0.2170 0.1174 (  5846 PWs)   bands (ev):

   -35.1470  -3.5511  -1.2977   4.3744   8.8446  14.0859  19.3202  20.2251
    21.7051  22.4299

          k = 0.1253 0.2170-0.2349 (  5838 PWs)   bands (ev):

   -35.1470  -3.5536  -1.3017   4.5176   8.3400  15.7043  17.6342  20.2613
    21.6281  22.1544

          k = 0.1253 0.3616 0.0000 (  5837 PWs)   bands (ev):

   -35.0973  -2.3926  -0.1440   5.2627  10.5255  13.3310  15.8868  17.8542
    18.7168  21.3470

          k = 0.1253 0.3616 0.1174 (  5843 PWs)   bands (ev):

   -35.0973  -2.3914  -0.1601   5.4337   9.7561  14.3496  16.0869  17.7783
    18.5952  21.3647

          k = 0.1253 0.3616-0.2349 (  5842 PWs)   bands (ev):

   -35.0973  -2.3902  -0.1759   5.6330   9.1630  15.0619  17.1551  17.1807
    18.3055  20.6582

          k = 0.1253 0.5063 0.0000 (  5839 PWs)   bands (ev):

   -35.0429  -0.6777   1.5531   6.7591  11.5064  11.7787  14.0935  14.1959
    17.5278  19.4515

          k = 0.1253 0.5063 0.1174 (  5828 PWs)   bands (ev):

   -35.0429  -0.6709   1.5185   6.9948  11.0156  11.4962  13.5322  15.7649
    17.6150  19.4745

          k = 0.1253 0.5063-0.2349 (  5814 PWs)   bands (ev):

   -35.0429  -0.6639   1.4846   7.2842  10.3492  11.4840  13.4704  16.6568
    17.9638  19.5825

          k = 0.1253 0.6510 0.0000 (  5828 PWs)   bands (ev):

   -35.0013   1.5640   3.7444   7.5757   9.0101   9.8676  13.5469  14.4840
    16.6611  17.5657

          k = 0.1253 0.6510 0.1174 (  5826 PWs)   bands (ev):

   -35.0013   1.5797   3.6800   7.6549   9.1939   9.9238  12.4957  15.3777
    16.5736  17.2541

          k = 0.1253 0.6510-0.2349 (  5822 PWs)   bands (ev):

   -35.0013   1.5959   3.6175   7.7140   9.5381   9.9082  11.7702  15.8886
    16.4254  17.1512

          k = 0.1253 0.7956 0.0000 (  5824 PWs)   bands (ev):

   -34.9857   3.8362   4.9574   5.7588   7.4568  10.9402  11.5980  15.8943
    16.3645  17.5668

          k = 0.1253 0.7956 0.1174 (  5817 PWs)   bands (ev):

   -34.9857   3.8867   4.9394   5.6157   7.5176  11.4946  11.5086  15.3173
    16.0028  16.3879

          k = 0.1253 0.7956-0.2349 (  5824 PWs)   bands (ev):

   -34.9857   3.9437   4.9219   5.4735   7.5796  11.3921  12.6346  13.5658
    16.1713  16.3417

          k = 0.2506 0.4340 0.0000 (  5829 PWs)   bands (ev):

   -35.0497  -0.9616   1.2732   6.5209  11.7307  13.5518  13.6926  15.4149
    15.5155  18.3091

          k = 0.2506 0.4340 0.1174 (  5828 PWs)   bands (ev):

   -35.0497  -0.9558   1.2421   6.7438  10.8498  13.7319  14.0013  15.3191
    16.0935  18.7039

          k = 0.2506 0.4340-0.2349 (  5838 PWs)   bands (ev):

   -35.0497  -0.9499   1.2116   7.0146  10.1743  13.7751  14.1542  15.2221
    16.7297  20.3316

          k = 0.2506 0.5786 0.0000 (  5825 PWs)   bands (ev):

   -35.0058   1.0126   3.2133   8.2020  10.1932  11.8761  13.0723  13.5072
    15.0629  17.0908

          k = 0.2506 0.5786 0.1174 (  5826 PWs)   bands (ev):

   -35.0058   1.0251   3.1602   8.4896  10.1948  11.8204  12.4560  13.2052
    15.3822  17.7586

          k = 0.2506 0.5786-0.2349 (  5818 PWs)   bands (ev):

   -35.0058   1.0381   3.1083   8.8578  10.1983  11.5059  12.0069  13.1632
    15.5210  18.2587

          k = 0.2506 0.7233 0.0000 (  5806 PWs)   bands (ev):

   -34.9796   3.4617   5.5518   6.6488   8.8944  10.5252  12.3821  13.7236
    14.1902  17.8410

          k = 0.2506 0.7233 0.1174 (  5816 PWs)   bands (ev):

   -34.9796   3.4876   5.4549   6.6702   8.8806  10.8199  12.5240  13.2958
    14.6207  15.9882

          k = 0.2506 0.7233-0.2349 (  5808 PWs)   bands (ev):

   -34.9796   3.5150   5.3631   6.6848   8.8777  11.1437  12.7816  12.9697
    14.8606  15.0850

          k = 0.3758 0.6510 0.0000 (  5827 PWs)   bands (ev):

   -34.9774   3.2168   5.3462   8.7585   9.5058  10.5771  10.9691  12.3401
    15.0560  16.3388

          k = 0.3758 0.6510 0.1174 (  5805 PWs)   bands (ev):

   -34.9774   3.2381   5.2666   8.8029   9.6568  10.4613  11.0668  12.5546
    14.1594  16.8704

          k = 0.3758 0.6510-0.2349 (  5810 PWs)   bands (ev):

   -34.9774   3.2604   5.1893   8.8522   9.7739  10.3449  11.3300  12.7582
    13.3569  16.9448

          k = 0.3758 0.7956 0.0000 (  5800 PWs)   bands (ev):

   -34.9668   5.4740   6.4200   7.3608   8.5969   9.2593  11.8199  12.7454
    13.2640  15.6364

          k = 0.3758 0.7956 0.1174 (  5797 PWs)   bands (ev):

   -34.9668   5.5223   6.4295   7.2278   8.5302   9.2799  11.9555  13.1781
    13.3007  15.8178

          k = 0.3758 0.7956-0.2349 (  5820 PWs)   bands (ev):

   -34.9668   5.5766   6.4391   7.0951   8.4749   9.2824  12.2346  12.8893
    14.3983  15.3544

     the Fermi energy is    11.4596 ev

!    total energy              =     -31.12558013 Ry
     estimated scf accuracy    <          5.0E-10 Ry
     smearing contrib. (-TS)   =      -0.00028164 Ry
     internal energy E=F+TS    =     -31.12529849 Ry

     The total energy is F=E-TS. E is the sum of the following terms:
     one-electron contribution =       3.68438589 Ry
     hartree contribution      =       3.12351101 Ry
     xc contribution           =     -10.12951718 Ry
     ewald contribution        =     -27.80367822 Ry

     convergence has been achieved in   7 iterations

     Forces acting on atoms (cartesian axes, Ry/au):

[...]
        k(   12) = (   0.0000000   0.4335650  -0.2363073), wk =   0.0247934
        k(   13) = (   0.0000000   0.5780867   0.0000000), wk =   0.0247934
        k(   14) = (   0.0000000   0.5780867   0.1181537), wk =   0.0495868
        k(   15) = (   0.0000000   0.5780867  -0.2363073), wk =   0.0247934
        k(   16) = (   0.0000000   0.7226083   0.0000000), wk =   0.0247934
        k(   17) = (   0.0000000   0.7226083   0.1181537), wk =   0.0495868
        k(   18) = (   0.0000000   0.7226083  -0.2363073), wk =   0.0247934
        k(   19) = (   0.1251594   0.2167825   0.0000000), wk =   0.0247934
        k(   20) = (   0.1251594   0.2167825   0.1181537), wk =   0.0495868
        k(   21) = (   0.1251594   0.2167825  -0.2363073), wk =   0.0247934
        k(   22) = (   0.1251594   0.3613042   0.0000000), wk =   0.0495868
        k(   23) = (   0.1251594   0.3613042   0.1181537), wk =   0.0991736
        k(   24) = (   0.1251594   0.3613042  -0.2363073), wk =   0.0495868
        k(   25) = (   0.1251594   0.5058258   0.0000000), wk =   0.0495868
        k(   26) = (   0.1251594   0.5058258   0.1181537), wk =   0.0991736
        k(   27) = (   0.1251594   0.5058258  -0.2363073), wk =   0.0495868
        k(   28) = (   0.1251594   0.6503475   0.0000000), wk =   0.0495868
        k(   29) = (   0.1251594   0.6503475   0.1181537), wk =   0.0991736
        k(   30) = (   0.1251594   0.6503475  -0.2363073), wk =   0.0495868
        k(   31) = (   0.1251594   0.7948692   0.0000000), wk =   0.0247934
        k(   32) = (   0.1251594   0.7948692   0.1181537), wk =   0.0495868
        k(   33) = (   0.1251594   0.7948692  -0.2363073), wk =   0.0247934
        k(   34) = (   0.2503189   0.4335650   0.0000000), wk =   0.0247934
        k(   35) = (   0.2503189   0.4335650   0.1181537), wk =   0.0495868
        k(   36) = (   0.2503189   0.4335650  -0.2363073), wk =   0.0247934
        k(   37) = (   0.2503189   0.5780867   0.0000000), wk =   0.0495868
        k(   38) = (   0.2503189   0.5780867   0.1181537), wk =   0.0991736
        k(   39) = (   0.2503189   0.5780867  -0.2363073), wk =   0.0495868
        k(   40) = (   0.2503189   0.7226083   0.0000000), wk =   0.0495868
        k(   41) = (   0.2503189   0.7226083   0.1181537), wk =   0.0991736
        k(   42) = (   0.2503189   0.7226083  -0.2363073), wk =   0.0495868
        k(   43) = (   0.3754783   0.6503475   0.0000000), wk =   0.0247934
        k(   44) = (   0.3754783   0.6503475   0.1181537), wk =   0.0495868
        k(   45) = (   0.3754783   0.6503475  -0.2363073), wk =   0.0247934
        k(   46) = (   0.3754783   0.7948692   0.0000000), wk =   0.0247934
        k(   47) = (   0.3754783   0.7948692   0.1181537), wk =   0.0495868
        k(   48) = (   0.3754783   0.7948692  -0.2363073), wk =   0.0247934

     Dense  grid:    20833 G-vectors     FFT dimensions: (  25,  25,  75)

     Estimated max dynamical RAM per process >      16.04 MB

     Estimated total dynamical RAM >     128.33 MB

     Initial potential from superposition of free atoms

     starting charge      10.9942, renormalised to      11.0000
     Starting wfcs are   10 randomized atomic wfcs

     total cpu time spent up to now is       58.9 secs

     Self-consistent Calculation

     iteration #  1     ecut=    80.00 Ry     beta= 0.70
     Davidson diagonalization with overlap
     c_bands:  2 eigenvalues not converged
     c_bands:  3 eigenvalues not converged
     c_bands:  3 eigenvalues not converged
     c_bands:  3 eigenvalues not converged
     c_bands:  2 eigenvalues not converged
     c_bands:  1 eigenvalues not converged
     c_bands:  2 eigenvalues not converged
     c_bands:  2 eigenvalues not converged
     c_bands:  1 eigenvalues not converged
     c_bands:  1 eigenvalues not converged
     c_bands:  1 eigenvalues not converged
     c_bands:  1 eigenvalues not converged
     c_bands:  1 eigenvalues not converged
     c_bands:  1 eigenvalues not converged
     c_bands:  1 eigenvalues not converged
     c_bands:  1 eigenvalues not converged
     c_bands:  1 eigenvalues not converged
     c_bands:  1 eigenvalues not converged
     c_bands:  1 eigenvalues not converged
     c_bands:  1 eigenvalues not converged
     c_bands:  1 eigenvalues not converged
     c_bands:  1 eigenvalues not converged
     c_bands:  1 eigenvalues not converged
     c_bands:  1 eigenvalues not converged
     ethr =  1.00E-06,  avg # of iterations = 18.5

     total cpu time spent up to now is       60.0 secs

     total energy              =     -31.06712841 Ry
     estimated scf accuracy    <       0.09047039 Ry

     iteration #  2     ecut=    80.00 Ry     beta= 0.70
     Davidson diagonalization with overlap
     ethr =  8.22E-04,  avg # of iterations =  2.8

     total cpu time spent up to now is       60.3 secs

     total energy              =     -31.03264326 Ry
     estimated scf accuracy    <       0.74162395 Ry

     iteration #  3     ecut=    80.00 Ry     beta= 0.70
     Davidson diagonalization with overlap
     ethr =  8.22E-04,  avg # of iterations =  2.1

     total cpu time spent up to now is       60.6 secs

     total energy              =     -31.12208283 Ry
     estimated scf accuracy    <       0.00125792 Ry

     iteration #  4     ecut=    80.00 Ry     beta= 0.70
     Davidson diagonalization with overlap
     ethr =  1.14E-05,  avg # of iterations =  4.9

     total cpu time spent up to now is       61.0 secs

     total energy              =     -31.12262347 Ry
     estimated scf accuracy    <       0.00068020 Ry

     iteration #  5     ecut=    80.00 Ry     beta= 0.70
     Davidson diagonalization with overlap
     ethr =  6.18E-06,  avg # of iterations =  1.2

     total cpu time spent up to now is       61.3 secs

     total energy              =     -31.12272069 Ry
     estimated scf accuracy    <       0.00000527 Ry

     iteration #  6     ecut=    80.00 Ry     beta= 0.70
     Davidson diagonalization with overlap
     c_bands:  1 eigenvalues not converged
     ethr =  4.79E-08,  avg # of iterations =  2.8

     total cpu time spent up to now is       61.6 secs

     total energy              =     -31.12272267 Ry
     estimated scf accuracy    <       0.00000007 Ry

     iteration #  7     ecut=    80.00 Ry     beta= 0.70
     Davidson diagonalization with overlap
     ethr =  6.78E-10,  avg # of iterations =  3.4

     total cpu time spent up to now is       61.9 secs

     total energy              =     -31.12272268 Ry
     estimated scf accuracy    <       0.00000019 Ry

     iteration #  8     ecut=    80.00 Ry     beta= 0.70
     Davidson diagonalization with overlap
     ethr =  6.78E-10,  avg # of iterations =  1.7

     total cpu time spent up to now is       62.2 secs

     total energy              =     -31.12272272 Ry
     estimated scf accuracy    <       0.00000001 Ry

     iteration #  9     ecut=    80.00 Ry     beta= 0.70
     Davidson diagonalization with overlap
     ethr =  1.19E-10,  avg # of iterations =  1.1

     total cpu time spent up to now is       62.5 secs

     End of self-consistent calculation

          k = 0.0000 0.0000 0.0000 (  2605 PWs)   bands (ev):

   -35.1297  -4.4309  -2.0459   3.5303   8.8642  12.6651  23.1780  23.3196
    26.5286  26.5292

          k = 0.0000 0.0000 0.1182 (  2623 PWs)   bands (ev):

   -35.1297  -4.4361  -2.0413   3.6251   8.3118  13.8013  19.8964  26.5436
    26.5441  26.8411

          k = 0.0000 0.0000-0.2363 (  2616 PWs)   bands (ev):

   -35.1297  -4.4412  -2.0367   3.7295   7.8683  15.4357  17.6969  26.5591
    26.5591  27.7502

          k = 0.0000 0.1445 0.0000 (  2607 PWs)   bands (ev):

   -35.1139  -4.1396  -1.7554   3.7849   9.1347  12.7917  22.0296  23.4776
    23.8433  24.7599

          k = 0.0000 0.1445 0.1182 (  2616 PWs)   bands (ev):

   -35.1139  -4.1439  -1.7538   3.8911   8.5455  13.9526  19.8634  23.0611
    24.5102  24.7946

          k = 0.0000 0.1445-0.2363 (  2594 PWs)   bands (ev):

   -35.1139  -4.1482  -1.7522   4.0089   8.0767  15.6071  17.7552  23.0674
    24.4555  24.8324

          k = 0.0000 0.2890 0.0000 (  2593 PWs)   bands (ev):

   -35.0713  -3.2695  -0.8885   4.5461   9.9334  13.1410  17.8785  20.1165
    22.5874  22.9273

          k = 0.0000 0.2890 0.1182 (  2593 PWs)   bands (ev):

   -35.0713  -3.2711  -0.8962   4.6864   9.2365  14.3186  17.8726  20.0343
    20.6812  22.9684

          k = 0.0000 0.2890-0.2363 (  2586 PWs)   bands (ev):

   -35.0713  -3.2726  -0.9037   4.8455   8.6956  15.7391  17.7946  18.9191
    20.1044  23.0141

          k = 0.0000 0.4336 0.0000 (  2601 PWs)   bands (ev):

   -35.0152  -1.8314   0.5393   5.8028  11.1728  13.0036  14.2097  15.9503
    20.9164  21.5379

          k = 0.0000 0.4336 0.1182 (  2605 PWs)   bands (ev):

   -35.0152  -1.8285   0.5160   5.9988  10.3377  13.1399  14.9680  16.3817
    20.3272  21.5834

          k = 0.0000 0.4336-0.2363 (  2600 PWs)   bands (ev):

   -35.0152  -1.8255   0.4931   6.2303   9.6984  13.1693  15.3251  18.0326
    18.5406  21.6343

          k = 0.0000 0.5781 0.0000 (  2605 PWs)   bands (ev):

   -34.9634   0.1540   2.4964   7.4575   9.4927  11.2458  13.8431  14.0236
    18.0525  20.6101

          k = 0.0000 0.5781 0.1182 (  2608 PWs)   bands (ev):

   -34.9634   0.1636   2.4493   7.7318   9.4657  11.2446  12.1366  16.0936
    17.9838  19.9930

          k = 0.0000 0.5781-0.2363 (  2600 PWs)   bands (ev):

   -34.9634   0.1734   2.4033   8.0767   9.4410  10.9803  11.5837  17.6135
    18.1267  18.7602

          k = 0.0000 0.7226 0.0000 (  2608 PWs)   bands (ev):

   -34.9325   2.6229   4.8588   5.8193   8.2742   9.8535  12.4031  15.6743
    17.3921  19.0908

          k = 0.0000 0.7226 0.1182 (  2600 PWs)   bands (ev):

   -34.9325   2.6462   4.7594   5.8393   8.2884  10.1817  12.2890  15.0695
    16.8654  19.3797

          k = 0.0000 0.7226-0.2363 (  2610 PWs)   bands (ev):

   -34.9325   2.6707   4.6675   5.8491   8.3253  10.5142  12.2701  14.2489
    16.9409  19.2107

          k = 0.1252 0.2168 0.0000 (  2599 PWs)   bands (ev):

   -35.0846  -3.5589  -1.1766   4.2929   9.6701  13.0346  20.1692  20.3232
    21.8640  23.1920

          k = 0.1252 0.2168 0.1182 (  2599 PWs)   bands (ev):

   -35.0846  -3.5614  -1.1812   4.4218   9.0084  14.2267  19.4442  20.2021
    21.7853  22.5092

          k = 0.1252 0.2168-0.2363 (  2600 PWs)   bands (ev):

   -35.0846  -3.5639  -1.1857   4.5670   8.4908  15.8419  17.8462  20.2378
    21.7057  22.1178

          k = 0.1252 0.3613 0.0000 (  2601 PWs)   bands (ev):

   -35.0353  -2.4048  -0.0291   5.3038  10.7065  13.4263  15.8687  17.9500
    18.6874  21.4622

          k = 0.1252 0.3613 0.1182 (  2595 PWs)   bands (ev):

   -35.0353  -2.4036  -0.0461   5.4771   9.9112  14.4345  16.1015  17.8613
    18.6191  21.4666

          k = 0.1252 0.3613-0.2363 (  2596 PWs)   bands (ev):

   -35.0353  -2.4025  -0.0627   5.6785   9.3062  15.0746  17.2201  17.2531
    18.4740  20.6772

          k = 0.1252 0.5058 0.0000 (  2600 PWs)   bands (ev):

   -34.9814  -0.6923   1.6651   6.7925  11.4776  11.9239  14.1760  14.3251
    17.4992  19.4800

          k = 0.1252 0.5058 0.1182 (  2595 PWs)   bands (ev):

   -34.9814  -0.6857   1.6291   7.0309  11.1528  11.4681  13.6159  15.8663
    17.6299  19.5006

          k = 0.1252 0.5058-0.2363 (  2602 PWs)   bands (ev):

   -34.9814  -0.6790   1.5938   7.3222  10.4807  11.4552  13.5525  16.6597
    18.1015  19.6022

          k = 0.1252 0.6503 0.0000 (  2599 PWs)   bands (ev):

   -34.9400   1.5477   3.8533   7.5430   9.0402   9.9589  13.5788  14.6529
    16.6376  17.6439

          k = 0.1252 0.6503 0.1182 (  2599 PWs)   bands (ev):

   -34.9400   1.5628   3.7865   7.6203   9.2297  10.0142  12.5911  15.4439
    16.5716  17.3319

          k = 0.1252 0.6503-0.2363 (  2612 PWs)   bands (ev):

   -34.9400   1.5784   3.7220   7.6781   9.5735   9.9981  11.8837  15.8874
    16.4259  17.2729

          k = 0.1252 0.7949 0.0000 (  2604 PWs)   bands (ev):

   -34.9245   3.8363   4.9062   5.8699   7.5472  10.9701  11.6153  16.0226
    16.3327  17.6706

          k = 0.1252 0.7949 0.1182 (  2600 PWs)   bands (ev):

   -34.9245   3.8860   4.8888   5.7212   7.6094  11.5113  11.5557  15.4136
    16.0677  16.4243

          k = 0.1252 0.7949-0.2363 (  2608 PWs)   bands (ev):

   -34.9245   3.9416   4.8719   5.5749   7.6731  11.4077  12.7320  13.6083
    16.1412  16.4793

          k = 0.2503 0.4336 0.0000 (  2610 PWs)   bands (ev):

   -34.9880  -0.9758   1.3857   6.5561  11.8961  13.5829  13.6796  15.5102
    15.5262  18.4301

          k = 0.2503 0.4336 0.1182 (  2609 PWs)   bands (ev):

   -34.9880  -0.9703   1.3532   6.7817  10.9923  13.7184  13.9927  15.4106
    16.1528  18.8555

          k = 0.2503 0.4336-0.2363 (  2590 PWs)   bands (ev):

   -34.9880  -0.9646   1.3214   7.0544  10.3082  13.7607  14.1209  15.3104
    16.7994  20.0838

          k = 0.2503 0.5781 0.0000 (  2598 PWs)   bands (ev):

   -34.9445   0.9962   3.3227   8.2225  10.1746  11.9702  13.0362  13.6393
    15.1235  17.2448

          k = 0.2503 0.5781 0.1182 (  2603 PWs)   bands (ev):

   -34.9445   1.0083   3.2675   8.5121  10.1764  11.9198  12.5522  13.1835
    15.4484  17.8428

          k = 0.2503 0.5781-0.2363 (  2594 PWs)   bands (ev):

   -34.9445   1.0208   3.2139   8.8790  10.1811  11.6254  12.0970  13.1241
    15.5860  18.2766

          k = 0.2503 0.7226 0.0000 (  2592 PWs)   bands (ev):

   -34.9185   3.4469   5.6594   6.6136   8.9883  10.5446  12.3547  13.7416
    14.2748  17.9217

          k = 0.2503 0.7226 0.1182 (  2599 PWs)   bands (ev):

   -34.9185   3.4718   5.5586   6.6357   8.9732  10.8390  12.5092  13.3373
    14.6928  16.0740

          k = 0.2503 0.7226-0.2363 (  2608 PWs)   bands (ev):

   -34.9185   3.4981   5.4645   6.6500   8.9703  11.1522  12.7559  13.0717
    14.9335  15.1184

          k = 0.3755 0.6503 0.0000 (  2588 PWs)   bands (ev):

   -34.9163   3.1998   5.4530   8.7523   9.4521  10.6807  10.9761  12.4070
    15.0960  16.3577

          k = 0.3755 0.6503 0.1182 (  2586 PWs)   bands (ev):

   -34.9163   3.2204   5.3705   8.7960   9.5934  10.5603  11.0890  12.6273
    14.2361  16.9054

          k = 0.3755 0.6503-0.2363 (  2584 PWs)   bands (ev):

   -34.9163   3.2418   5.2909   8.8443   9.7016  10.4403  11.3614  12.8452
    13.4429  16.9656

          k = 0.3755 0.7949 0.0000 (  2586 PWs)   bands (ev):

   -34.9058   5.4721   6.3845   7.4695   8.6958   9.1943  11.8872  12.7718
    13.2905  15.6586

          k = 0.3755 0.7949 0.1182 (  2594 PWs)   bands (ev):

   -34.9058   5.5196   6.3930   7.3313   8.6252   9.2190  12.0189  13.2080
    13.3438  15.8620

          k = 0.3755 0.7949-0.2363 (  2580 PWs)   bands (ev):

   -34.9058   5.5726   6.4015   7.1946   8.5705   9.2211  12.3055  12.9092
    14.4909  15.3924

     the Fermi energy is    11.4777 ev

!    total energy              =     -31.12272272 Ry
     estimated scf accuracy    <          3.8E-11 Ry
     smearing contrib. (-TS)   =      -0.00016060 Ry
     internal energy E=F+TS    =     -31.12256212 Ry

     The total energy is F=E-TS. E is the sum of the following terms:
     one-electron contribution =       3.72689181 Ry
     hartree contribution      =       3.12780552 Ry
     xc contribution           =     -10.13794997 Ry
     ewald contribution        =     -27.83930949 Ry

     convergence has been achieved in   9 iterations

     Forces acting on atoms (cartesian axes, Ry/au):

     atom    1 type  1   force =     0.00000000    0.00000000    0.00004392
     atom    2 type  1   force =    -0.00000000   -0.00000000   -0.00004392
     atom    3 type  2   force =     0.00000000   -0.00000000    0.00000000
     The non-local contrib.  to forces
     atom    1 type  1   force =     0.00000000    0.00000000    0.02909421
     atom    2 type  1   force =     0.00000000    0.00000000   -0.02909421
     atom    3 type  2   force =     0.00000000    0.00000000    0.00000000
     The ionic contribution  to forces
     atom    1 type  1   force =    -0.00000000   -0.00000000    0.41178758
     atom    2 type  1   force =     0.00000000    0.00000000   -0.41178758
     atom    3 type  2   force =     0.00000000    0.00000000    0.00000000
     The local contribution  to forces
     atom    1 type  1   force =     0.00000000    0.00000000   -0.43840291
     atom    2 type  1   force =     0.00000000   -0.00000000    0.43840291
     atom    3 type  2   force =    -0.00000000   -0.00000000    0.00000000
     The core correction contribution to forces
     atom    1 type  1   force =     0.00000000    0.00000000   -0.00243555
     atom    2 type  1   force =     0.00000000    0.00000000    0.00243555
     atom    3 type  2   force =     0.00000000    0.00000000    0.00000000
     The Hubbard contrib.    to forces
     atom    1 type  1   force =     0.00000000    0.00000000    0.00000000
     atom    2 type  1   force =     0.00000000    0.00000000    0.00000000
     atom    3 type  2   force =     0.00000000    0.00000000    0.00000000
     The SCF correction term to forces
     atom    1 type  1   force =     0.00000000   -0.00000000    0.00000059
     atom    2 type  1   force =    -0.00000000   -0.00000000   -0.00000059
     atom    3 type  2   force =     0.00000000    0.00000000   -0.00000000

     Total force =     0.000062     Total SCF correction =     0.000001


     Computing stress (Cartesian axis) and pressure

          total   stress  (Ry/bohr**3)                   (kbar)     P=      499.74
   0.00339531  -0.00000000  -0.00000000          499.47       -0.00       -0.00
  -0.00000000   0.00339531  -0.00000000           -0.00      499.47       -0.00
   0.00000000   0.00000000   0.00340078            0.00        0.00      500.27


     Writing all to output data dir ./output/SiLi.save/

     init_run     :      1.08s CPU      1.27s WALL (       2 calls)
     electrons    :     41.45s CPU     45.14s WALL (      10 calls)
     update_pot   :      3.61s CPU      3.65s WALL (       8 calls)
     forces       :      2.62s CPU      2.70s WALL (      10 calls)
     stress       :      9.31s CPU      9.80s WALL (      10 calls)

     Called by init_run:
     wfcinit      :      0.26s CPU      0.27s WALL (       2 calls)
     potinit      :      0.31s CPU      0.39s WALL (       2 calls)
     hinit0       :      0.48s CPU      0.53s WALL (       2 calls)

     Called by electrons:
     c_bands      :     35.34s CPU     38.06s WALL (      79 calls)
     sum_band     :      5.21s CPU      5.54s WALL (      79 calls)
     v_of_rho     :      0.86s CPU      1.44s WALL (      87 calls)
     mix_rho      :      0.11s CPU      0.15s WALL (      79 calls)

     Called by c_bands:
     init_us_2    :      1.29s CPU      1.41s WALL (    8640 calls)
     init_us_2:cp :      1.28s CPU      1.40s WALL (    8640 calls)
     cegterg      :     32.49s CPU     33.52s WALL (    3792 calls)

     Called by *egterg:
     cdiaghg      :      1.71s CPU      1.77s WALL (   15180 calls)
     h_psi        :     27.77s CPU     28.61s WALL (   15756 calls)
     g_psi        :      0.16s CPU      0.17s WALL (   11868 calls)

     Called by h_psi:
     h_psi:calbec :      1.63s CPU      1.67s WALL (   15756 calls)
     vloc_psi     :     24.77s CPU     25.51s WALL (   15756 calls)
     add_vuspsi   :      1.25s CPU      1.30s WALL (   15756 calls)

     General routines
     calbec       :      2.08s CPU      2.14s WALL (   18156 calls)
     fft          :      0.96s CPU      1.75s WALL (    1120 calls)
     ffts         :      0.05s CPU      0.09s WALL (      79 calls)
     fftw         :     25.18s CPU     25.85s WALL (  258036 calls)

     Parallel routines

     PWSCF        :     58.36s CPU   1m 3.26s WALL


   This run was terminated on:  12:11:41  27Dec2024            

=------------------------------------------------------------------------------=
   JOB DONE.
=------------------------------------------------------------------------------=
