
     Program PWSCF v.7.2 starts on 27Dec2024 at 12:10:38 

     This program is part of the open-source Quantum ESPRESSO suite
     for quantum simulation of materials; please cite
         "P. Giannozzi et al., J. Phys.:Condens. Matter 21 395502 (2009);
         "P. Giannozzi et al., J. Phys.:Condens. Matter 29 465901 (2017);
         "P. Giannozzi et al., J. Chem. Phys. 152 154105 (2020);
          URL http://www.quantum-espresso.org", 
     in publications or presentations arising from this work. More details at
     http://www.quantum-espresso.org/quote

     Parallel version (MPI & OpenMP), running on       8 processor cores
     Number of MPI processes:                 8
     Threads/MPI process:                     1

     MPI processes distributed on     1 nodes
     481814 MiB available memory on the printing compute node when the environment starts

     Waiting for input...
     Reading input from standard input

     Current dimensions of program PWSCF are:
     Max number of different atomic species (ntypx) = 10
     Max number of k-points (npk) =  40000
     Max angular momentum in pseudopotentials (lmaxx) =  4

     R & G space division:  proc/nbgrp/npool/nimage =       8
     Subspace diagonalization in iterative solution of the eigenvalue problem:
     a serial algorithm will be used


     Parallelization info
     --------------------
     sticks:   dense  smooth     PW     G-vecs:    dense   smooth      PW
     Min         136     136     40                 4971     4971     780
     Max         138     138     42                 4976     4976     781
     Sum        1093    1093    325                39787    39787    6241

     Using Slab Decomposition



     bravais-lattice index     =            6
     lattice parameter (alat)  =       6.5348  a.u.
     unit-cell volume          =     411.5785 (a.u.)^3
     number of atoms/cell      =            3
     number of atomic types    =            2
     number of electrons       =        11.00
     number of Kohn-Sham states=           10
     kinetic-energy cutoff     =      80.0000  Ry
     charge density cutoff     =     320.0000  Ry
     scf convergence threshold =      1.0E-08
     mixing beta               =       0.7000
     number of iterations used =            8  plain     mixing
     energy convergence thresh.=      1.0E-04
     force convergence thresh. =      1.0E-03
     press convergence thresh. =      1.0E+00
     Exchange-correlation= PBE
                           (   1   4   3   4   0   0   0)
     nstep                     =           50


     celldm(1)=   6.534782  celldm(2)=   0.000000  celldm(3)=   1.474889
     celldm(4)=   0.000000  celldm(5)=   0.000000  celldm(6)=   0.000000

     crystal axes: (cart. coord. in units of alat)
               a(1) = (   1.000000   0.000000   0.000000 )  
               a(2) = (   0.000000   1.000000   0.000000 )  
               a(3) = (   0.000000   0.000000   1.474889 )  

     reciprocal axes: (cart. coord. in units 2 pi/alat)
               b(1) = (  1.000000  0.000000  0.000000 )  
               b(2) = (  0.000000  1.000000  0.000000 )  
               b(3) = (  0.000000  0.000000  0.678017 )  


     PseudoPot. # 1 for Si read from file:
     ../pseudo/Si_ONCV_PBE_sr.upf
     MD5 check sum: e543d271109d17c80368dfa7c482276d
     Pseudo is Norm-conserving + core correction, Zval =  4.0
     Generated using ONCVPSP code by D. R. Hamann
     Using radial grid of 1510 points,  6 beta functions with: 
                l(1) =   0
                l(2) =   0
                l(3) =   1
                l(4) =   1
                l(5) =   2
                l(6) =   2

     PseudoPot. # 2 for Li read from file:
     ../pseudo/Li_ONCV_PBE_sr.upf
     MD5 check sum: 50ff420e78310ffa21704f3361e624a4
     Pseudo is Norm-conserving, Zval =  3.0
     Generated using ONCVPSP code by D. R. Hamann
     Using radial grid of 1944 points,  4 beta functions with: 
                l(1) =   0
                l(2) =   0
                l(3) =   1
                l(4) =   1

     atomic species   valence    mass     pseudopotential
        Si             4.00    28.08550     Si( 1.00)
        Li             3.00     6.94100     Li( 1.00)

      8 Sym. Ops. (no inversion) found



   Cartesian axes

     site n.     atom                  positions (alat units)
         1           Si  tau(   1) = (   0.0000000   0.5000000   0.3964620  )
         2           Si  tau(   2) = (   0.5000000   0.0000000   1.0784272  )
         3           Li  tau(   3) = (   0.5000000   0.5000000   0.0000000  )

     number of k points=    84  Marzari-Vanderbilt smearing, width (Ry)=  0.0200
                       cart. coord. in units 2pi/alat
        k(    1) = (   0.0000000   0.0000000   0.0000000), wk =   0.0028571
        k(    2) = (   0.0000000   0.0000000   0.0968596), wk =   0.0057143
        k(    3) = (   0.0000000   0.0000000   0.1937192), wk =   0.0057143
        k(    4) = (   0.0000000   0.0000000   0.2905787), wk =   0.0057143
        k(    5) = (   0.0000000   0.1000000   0.0000000), wk =   0.0114286
        k(    6) = (   0.0000000   0.1000000   0.0968596), wk =   0.0228571
        k(    7) = (   0.0000000   0.1000000   0.1937192), wk =   0.0228571
        k(    8) = (   0.0000000   0.1000000   0.2905787), wk =   0.0228571
        k(    9) = (   0.0000000   0.2000000   0.0000000), wk =   0.0114286
        k(   10) = (   0.0000000   0.2000000   0.0968596), wk =   0.0228571
        k(   11) = (   0.0000000   0.2000000   0.1937192), wk =   0.0228571
        k(   12) = (   0.0000000   0.2000000   0.2905787), wk =   0.0228571
        k(   13) = (   0.0000000   0.3000000   0.0000000), wk =   0.0114286
        k(   14) = (   0.0000000   0.3000000   0.0968596), wk =   0.0228571
        k(   15) = (   0.0000000   0.3000000   0.1937192), wk =   0.0228571
        k(   16) = (   0.0000000   0.3000000   0.2905787), wk =   0.0228571
        k(   17) = (   0.0000000   0.4000000   0.0000000), wk =   0.0114286
        k(   18) = (   0.0000000   0.4000000   0.0968596), wk =   0.0228571
        k(   19) = (   0.0000000   0.4000000   0.1937192), wk =   0.0228571
        k(   20) = (   0.0000000   0.4000000   0.2905787), wk =   0.0228571
        k(   21) = (   0.0000000  -0.5000000   0.0000000), wk =   0.0057143
        k(   22) = (   0.0000000  -0.5000000   0.0968596), wk =   0.0114286
        k(   23) = (   0.0000000  -0.5000000   0.1937192), wk =   0.0114286
        k(   24) = (   0.0000000  -0.5000000   0.2905787), wk =   0.0114286
        k(   25) = (   0.1000000   0.1000000   0.0000000), wk =   0.0114286
        k(   26) = (   0.1000000   0.1000000   0.0968596), wk =   0.0228571
        k(   27) = (   0.1000000   0.1000000   0.1937192), wk =   0.0228571
        k(   28) = (   0.1000000   0.1000000   0.2905787), wk =   0.0228571
        k(   29) = (   0.1000000   0.2000000   0.0000000), wk =   0.0228571
        k(   30) = (   0.1000000   0.2000000   0.0968596), wk =   0.0457143
        k(   31) = (   0.1000000   0.2000000   0.1937192), wk =   0.0457143
        k(   32) = (   0.1000000   0.2000000   0.2905787), wk =   0.0457143
        k(   33) = (   0.1000000   0.3000000   0.0000000), wk =   0.0228571
        k(   34) = (   0.1000000   0.3000000   0.0968596), wk =   0.0457143
        k(   35) = (   0.1000000   0.3000000   0.1937192), wk =   0.0457143
        k(   36) = (   0.1000000   0.3000000   0.2905787), wk =   0.0457143
        k(   37) = (   0.1000000   0.4000000   0.0000000), wk =   0.0228571
        k(   38) = (   0.1000000   0.4000000   0.0968596), wk =   0.0457143
        k(   39) = (   0.1000000   0.4000000   0.1937192), wk =   0.0457143
        k(   40) = (   0.1000000   0.4000000   0.2905787), wk =   0.0457143
        k(   41) = (   0.1000000  -0.5000000   0.0000000), wk =   0.0114286
        k(   42) = (   0.1000000  -0.5000000   0.0968596), wk =   0.0228571
        k(   43) = (   0.1000000  -0.5000000   0.1937192), wk =   0.0228571
        k(   44) = (   0.1000000  -0.5000000   0.2905787), wk =   0.0228571
        k(   45) = (   0.2000000   0.2000000   0.0000000), wk =   0.0114286
        k(   46) = (   0.2000000   0.2000000   0.0968596), wk =   0.0228571
        k(   47) = (   0.2000000   0.2000000   0.1937192), wk =   0.0228571
        k(   48) = (   0.2000000   0.2000000   0.2905787), wk =   0.0228571
        k(   49) = (   0.2000000   0.3000000   0.0000000), wk =   0.0228571
        k(   50) = (   0.2000000   0.3000000   0.0968596), wk =   0.0457143
        k(   51) = (   0.2000000   0.3000000   0.1937192), wk =   0.0457143
        k(   52) = (   0.2000000   0.3000000   0.2905787), wk =   0.0457143
        k(   53) = (   0.2000000   0.4000000   0.0000000), wk =   0.0228571
        k(   54) = (   0.2000000   0.4000000   0.0968596), wk =   0.0457143
        k(   55) = (   0.2000000   0.4000000   0.1937192), wk =   0.0457143
        k(   56) = (   0.2000000   0.4000000   0.2905787), wk =   0.0457143
        k(   57) = (   0.2000000  -0.5000000   0.0000000), wk =   0.0114286
        k(   58) = (   0.2000000  -0.5000000   0.0968596), wk =   0.0228571
        k(   59) = (   0.2000000  -0.5000000   0.1937192), wk =   0.0228571
        k(   60) = (   0.2000000  -0.5000000   0.2905787), wk =   0.0228571
        k(   61) = (   0.3000000   0.3000000   0.0000000), wk =   0.0114286
        k(   62) = (   0.3000000   0.3000000   0.0968596), wk =   0.0228571
        k(   63) = (   0.3000000   0.3000000   0.1937192), wk =   0.0228571
        k(   64) = (   0.3000000   0.3000000   0.2905787), wk =   0.0228571
        k(   65) = (   0.3000000   0.4000000   0.0000000), wk =   0.0228571
        k(   66) = (   0.3000000   0.4000000   0.0968596), wk =   0.0457143
        k(   67) = (   0.3000000   0.4000000   0.1937192), wk =   0.0457143
        k(   68) = (   0.3000000   0.4000000   0.2905787), wk =   0.0457143
        k(   69) = (   0.3000000  -0.5000000   0.0000000), wk =   0.0114286
        k(   70) = (   0.3000000  -0.5000000   0.0968596), wk =   0.0228571
        k(   71) = (   0.3000000  -0.5000000   0.1937192), wk =   0.0228571
        k(   72) = (   0.3000000  -0.5000000   0.2905787), wk =   0.0228571
        k(   73) = (   0.4000000   0.4000000   0.0000000), wk =   0.0114286
        k(   74) = (   0.4000000   0.4000000   0.0968596), wk =   0.0228571
        k(   75) = (   0.4000000   0.4000000   0.1937192), wk =   0.0228571
        k(   76) = (   0.4000000   0.4000000   0.2905787), wk =   0.0228571
        k(   77) = (   0.4000000  -0.5000000   0.0000000), wk =   0.0114286
        k(   78) = (   0.4000000  -0.5000000   0.0968596), wk =   0.0228571
        k(   79) = (   0.4000000  -0.5000000   0.1937192), wk =   0.0228571
        k(   80) = (   0.4000000  -0.5000000   0.2905787), wk =   0.0228571
        k(   81) = (  -0.5000000  -0.5000000   0.0000000), wk =   0.0028571
        k(   82) = (  -0.5000000  -0.5000000   0.0968596), wk =   0.0057143
        k(   83) = (  -0.5000000  -0.5000000   0.1937192), wk =   0.0057143
        k(   84) = (  -0.5000000  -0.5000000   0.2905787), wk =   0.0057143

     Dense  grid:    39787 G-vectors     FFT dimensions: (  40,  40,  60)

     Estimated max dynamical RAM per process >      23.46 MB

     Estimated total dynamical RAM >     187.71 MB

     Initial potential from superposition of free atoms

     starting charge      10.9942, renormalised to      11.0000
     Starting wfcs are   10 randomized atomic wfcs

     total cpu time spent up to now is        1.3 secs

     Self-consistent Calculation

     iteration #  1     ecut=    80.00 Ry     beta= 0.70
     Davidson diagonalization with overlap
     ethr =  1.00E-02,  avg # of iterations =  5.6

     Threshold (ethr) on eigenvalues was too large:
     Diagonalizing with lowered threshold

     Davidson diagonalization with overlap
     ethr =  9.43E-04,  avg # of iterations =  1.4

     total cpu time spent up to now is        3.3 secs

     total energy              =     -30.98983160 Ry
     estimated scf accuracy    <       0.11211468 Ry

     iteration #  2     ecut=    80.00 Ry     beta= 0.70
     Davidson diagonalization with overlap
     ethr =  1.02E-03,  avg # of iterations =  2.0

     total cpu time spent up to now is        4.2 secs

     total energy              =     -31.01535698 Ry
     estimated scf accuracy    <       0.09621159 Ry

     iteration #  3     ecut=    80.00 Ry     beta= 0.70
     Davidson diagonalization with overlap
     ethr =  8.75E-04,  avg # of iterations =  2.0

     total cpu time spent up to now is        5.1 secs

     total energy              =     -31.03427539 Ry
     estimated scf accuracy    <       0.00020600 Ry

     iteration #  4     ecut=    80.00 Ry     beta= 0.70
     Davidson diagonalization with overlap
     c_bands:  1 eigenvalues not converged
     ethr =  1.87E-06,  avg # of iterations =  9.6

     total cpu time spent up to now is        6.6 secs

     total energy              =     -31.03448795 Ry
     estimated scf accuracy    <       0.00007625 Ry

     iteration #  5     ecut=    80.00 Ry     beta= 0.70
     Davidson diagonalization with overlap
     ethr =  6.93E-07,  avg # of iterations =  2.0

     total cpu time spent up to now is        7.4 secs

     total energy              =     -31.03450527 Ry
     estimated scf accuracy    <       0.00000399 Ry

     iteration #  6     ecut=    80.00 Ry     beta= 0.70
     Davidson diagonalization with overlap
     ethr =  3.63E-08,  avg # of iterations =  2.0

     total cpu time spent up to now is        8.2 secs

     total energy              =     -31.03450627 Ry
     estimated scf accuracy    <       0.00000003 Ry

     iteration #  7     ecut=    80.00 Ry     beta= 0.70
     Davidson diagonalization with overlap
     ethr =  2.52E-10,  avg # of iterations =  3.6

     total cpu time spent up to now is        9.2 secs

     End of self-consistent calculation

          k = 0.0000 0.0000 0.0000 (  4967 PWs)   bands (ev):

   -41.5986  -5.3110  -1.9859   1.4085   5.0105   5.0105   8.1280   8.3694
     8.3694   8.4331

          k = 0.0000 0.0000 0.0969 (  4975 PWs)   bands (ev):

   -41.5986  -5.2228  -2.3386   1.8910   5.0997   5.0997   7.8210   8.0265
     8.0265   8.5076

          k = 0.0000 0.0000 0.1937 (  4996 PWs)   bands (ev):

   -41.5986  -4.9668  -3.0371   2.9597   5.3576   5.3576   6.9323   7.3364
     7.3364   8.9307

          k = 0.0000 0.0000 0.2906 (  4980 PWs)   bands (ev):

   -41.5986  -4.6050  -3.6728   4.1284   5.7141   5.7141   5.8717   6.7092
     6.7092   9.3485

          k = 0.0000 0.1000 0.0000 (  4973 PWs)   bands (ev):

   -41.5984  -5.2086  -1.9361   1.4921   4.2508   5.1013   7.6095   7.8530
     8.3754   8.7957

          k = 0.0000 0.1000 0.0969 (  4969 PWs)   bands (ev):

   -41.5984  -5.1207  -2.2764   1.9360   4.3761   5.1894   6.9062   8.0545
     8.0574   8.9407

          k = 0.0000 0.1000 0.1937 (  4972 PWs)   bands (ev):

   -41.5984  -4.8652  -2.9598   2.8896   4.7583   5.4432   5.9974   7.3946
     7.6045   9.3347

          k = 0.0000 0.1000 0.2906 (  4981 PWs)   bands (ev):

   -41.5984  -4.5032  -3.5891   3.8442   5.0733   5.4505   5.7909   6.7885
     6.8084   9.8089

          k = 0.0000 0.2000 0.0000 (  4987 PWs)   bands (ev):

   -41.5978  -4.9047  -1.8344   1.7226   3.0311   5.3669   6.2092   6.9505
     8.3580   9.2485

          k = 0.0000 0.2000 0.0969 (  4988 PWs)   bands (ev):

   -41.5978  -4.8178  -2.1264   1.9398   3.3271   5.4509   5.5217   7.4701
     8.1054   9.3505

          k = 0.0000 0.2000 0.1937 (  4971 PWs)   bands (ev):

   -41.5978  -4.5653  -2.7482   2.3754   4.0131   4.7738   5.6906   7.5474
     7.5867   9.7117

          k = 0.0000 0.2000 0.2906 (  4969 PWs)   bands (ev):

   -41.5978  -4.2045  -3.3492   2.8890   3.6564   5.3977   6.0083   6.9775
     7.0152  10.2430

          k = 0.0000 0.3000 0.0000 (  4975 PWs)   bands (ev):

   -41.5971  -4.4110  -1.8593   1.8274   2.4418   4.7943   5.7818   5.8812
     8.2242   9.7825

          k = 0.0000 0.3000 0.0969 (  4987 PWs)   bands (ev):

   -41.5971  -4.3272  -2.0382   1.5185   3.0523   4.2486   5.8566   6.5316
     8.0812   9.8559

          k = 0.0000 0.3000 0.1937 (  4986 PWs)   bands (ev):

   -41.5971  -4.0843  -2.4908   1.4427   2.9830   4.6055   6.0648   7.2087
     7.7208  10.1143

          k = 0.0000 0.3000 0.2906 (  4961 PWs)   bands (ev):

   -41.5971  -3.7358  -2.9995   1.7150   2.2982   5.7022   6.3190   7.1058
     7.3472  10.6314

          k = 0.0000 0.4000 0.0000 (  4964 PWs)   bands (ev):

   -41.5966  -3.7565  -2.2555   1.7466   2.8465   3.6087   4.8791   6.2729
     7.9182  10.4750

          k = 0.0000 0.4000 0.0969 (  4982 PWs)   bands (ev):

   -41.5966  -3.6814  -2.2894   1.3052   2.6155   3.9622   5.5409   6.3285
     7.8893  10.5318

          k = 0.0000 0.4000 0.1937 (  4979 PWs)   bands (ev):

   -41.5966  -3.4680  -2.4265   0.8512   1.8526   5.0872   6.4728   6.5447
     7.7976  10.6862

          k = 0.0000 0.4000 0.2906 (  4964 PWs)   bands (ev):

   -41.5966  -3.1738  -2.6810   0.7862   1.2299   6.1387   6.6200   7.0872
     7.6841  10.9484

          k = 0.0000-0.5000 0.0000 (  4966 PWs)   bands (ev):

   -41.5964  -3.1178  -2.8454   1.9759   2.8131   3.4055   4.2890   6.5692
     7.6778  11.2202

          k = 0.0000-0.5000 0.0969 (  4976 PWs)   bands (ev):

   -41.5964  -3.0598  -2.8107   1.6412   1.8902   4.4976   4.7663   6.6028
     7.7078  11.2104

          k = 0.0000-0.5000 0.1937 (  4976 PWs)   bands (ev):

   -41.5964  -2.9137  -2.7268   0.9845   1.0969   5.6869   5.8755   6.6827
     7.7788  11.1800

          k = 0.0000-0.5000 0.2906 (  4970 PWs)   bands (ev):

   -41.5964  -2.7751  -2.6522   0.4562   0.7498   6.4247   6.7519   6.9675
     7.8397  11.1305

          k = 0.1000 0.1000 0.0000 (  4955 PWs)   bands (ev):

   -41.5982  -5.1064  -1.8857   1.5760   4.2636   4.4301   7.5786   7.6384
     7.6612   9.5600

          k = 0.1000 0.1000 0.0969 (  4969 PWs)   bands (ev):

   -41.5982  -5.0187  -2.2140   1.9836   4.4194   4.5166   6.7245   7.3130
     8.1579   9.6888

          k = 0.1000 0.1000 0.1937 (  4974 PWs)   bands (ev):

   -41.5982  -4.7639  -2.8825   2.8432   4.7677   4.8912   5.7792   6.6671
     7.9729  10.0670

          k = 0.1000 0.1000 0.2906 (  4983 PWs)   bands (ev):

   -41.5982  -4.4016  -3.5055   3.6818   4.9430   5.1563   5.4258   6.2509
     7.2341  10.5441

          k = 0.1000 0.2000 0.0000 (  4980 PWs)   bands (ev):

   -41.5976  -4.8032  -1.7813   1.8079   3.1219   4.6189   6.2567   6.8707
     7.6649  10.0855

          k = 0.1000 0.2000 0.0969 (  4983 PWs)   bands (ev):

   -41.5976  -4.7166  -2.0633   2.0041   3.4079   4.7138   5.5825   7.0901
     7.7019  10.2434

          k = 0.1000 0.2000 0.1937 (  4975 PWs)   bands (ev):

   -41.5976  -4.4648  -2.6713   2.4151   4.0352   4.6863   5.1688   6.5991
     7.8661  10.6011

          k = 0.1000 0.2000 0.2906 (  4969 PWs)   bands (ev):

   -41.5976  -4.1039  -3.2657   2.9099   3.7123   5.0046   5.5034   6.3382
     7.3813  11.0465

          k = 0.1000 0.3000 0.0000 (  4982 PWs)   bands (ev):

   -41.5969  -4.3108  -1.7970   1.9173   2.5219   4.7806   5.0842   5.9398
     7.5607  10.5130

          k = 0.1000 0.3000 0.0969 (  4975 PWs)   bands (ev):

   -41.5969  -4.2274  -1.9709   1.6101   3.1122   4.2598   5.1993   6.4874
     7.4202  10.6015

          k = 0.1000 0.3000 0.1937 (  4981 PWs)   bands (ev):

   -41.5969  -3.9854  -2.4137   1.5295   3.0479   4.5135   5.5107   6.7591
     7.3964  10.8810

          k = 0.1000 0.3000 0.2906 (  4965 PWs)   bands (ev):

   -41.5969  -3.6373  -2.9164   1.7957   2.3720   5.3094   5.8085   6.6452
     7.3499  11.2014

          k = 0.1000 0.4000 0.0000 (  4986 PWs)   bands (ev):

   -41.5964  -3.6588  -2.1779   1.8228   2.9174   3.6612   4.8442   5.7060
     7.2298  11.1166

          k = 0.1000 0.4000 0.0969 (  4985 PWs)   bands (ev):

   -41.5964  -3.5841  -2.2112   1.3927   2.6874   3.9822   5.4296   5.8264
     7.2020  10.9939

          k = 0.1000 0.4000 0.1937 (  4973 PWs)   bands (ev):

   -41.5964  -3.3720  -2.3460   0.9468   1.9312   4.9952   5.9117   6.4749
     7.1119  10.8795

          k = 0.1000 0.4000 0.2906 (  4972 PWs)   bands (ev):

   -41.5964  -3.0789  -2.5977   0.8872   1.3090   5.8028   6.1306   6.9363
     7.1180  10.9001

          k = 0.1000-0.5000 0.0000 (  4972 PWs)   bands (ev):

   -41.5962  -3.0205  -2.7615   2.0448   2.8546   3.4994   4.2930   6.0278
     6.9276  11.6569

          k = 0.1000-0.5000 0.0969 (  4986 PWs)   bands (ev):

   -41.5962  -2.9633  -2.7267   1.7126   1.9755   4.5207   4.7473   6.0666
     6.9828  11.2525

          k = 0.1000-0.5000 0.1937 (  4976 PWs)   bands (ev):

   -41.5962  -2.8195  -2.6424   1.0868   1.1721   5.5906   5.7834   6.1651
     7.1102  10.7807

          k = 0.1000-0.5000 0.2906 (  4986 PWs)   bands (ev):

   -41.5962  -2.6835  -2.5676   0.5666   0.8269   6.1524   6.3184   6.7339
     7.1522  10.7046

          k = 0.2000 0.2000 0.0000 (  4993 PWs)   bands (ev):

   -41.5971  -4.5022  -1.6642   2.0431   3.3538   3.4329   6.1777   6.4666
     6.5280  10.4861

          k = 0.2000 0.2000 0.0969 (  4985 PWs)   bands (ev):

   -41.5971  -4.4167  -1.9081   2.1154   3.4725   3.7753   5.3859   6.2336
     7.1565  10.9349

          k = 0.2000 0.2000 0.1937 (  4975 PWs)   bands (ev):

   -41.5971  -4.1682  -2.4606   2.3651   3.6980   4.4559   4.5842   5.8474
     7.5620  11.7053

          k = 0.2000 0.2000 0.2906 (  4971 PWs)   bands (ev):

   -41.5971  -3.8096  -3.0266   2.7472   3.7447   4.0115   4.6891   6.3006
     7.3474  11.4469

          k = 0.2000 0.3000 0.0000 (  4980 PWs)   bands (ev):

   -41.5964  -4.0145  -1.6430   2.1562   2.7535   3.7931   4.9375   5.8561
     6.3573  10.3998

          k = 0.2000 0.3000 0.0969 (  4977 PWs)   bands (ev):

   -41.5964  -3.9324  -1.7973   1.8691   3.1503   3.9497   4.5288   6.0827
     6.4132  10.5553

          k = 0.2000 0.3000 0.1937 (  4958 PWs)   bands (ev):

   -41.5964  -3.6943  -2.2015   1.7647   3.1536   3.8979   4.8361   5.8893
     6.8799  11.0898

          k = 0.2000 0.3000 0.2906 (  4969 PWs)   bands (ev):

   -41.5964  -3.3497  -2.6787   1.9866   2.5831   4.2029   4.7167   6.4362
     7.0054  10.6232

          k = 0.2000 0.4000 0.0000 (  4977 PWs)   bands (ev):

   -41.5958  -3.3716  -1.9638   2.0102   3.0933   3.7289   4.3502   5.1685
     6.0603  10.4723

          k = 0.2000 0.4000 0.0969 (  4969 PWs)   bands (ev):

   -41.5958  -3.2986  -1.9946   1.6366   2.8530   3.8784   4.6605   5.5198
     6.0652  10.1456

          k = 0.2000 0.4000 0.1937 (  4969 PWs)   bands (ev):

   -41.5958  -3.0913  -2.1201   1.2244   2.1456   4.3219   5.1657   5.9897
     6.2021  10.3241

          k = 0.2000 0.4000 0.2906 (  4971 PWs)   bands (ev):

   -41.5958  -2.8039  -2.3598   1.1757   1.5423   4.7219   5.1159   6.3386
     6.5156  10.1838

          k = 0.2000-0.5000 0.0000 (  4968 PWs)   bands (ev):

   -41.5956  -2.7378  -2.5198   2.2116   2.8895   3.7703   4.2172   5.0992
     5.7292  10.7530

          k = 0.2000-0.5000 0.0969 (  4968 PWs)   bands (ev):

   -41.5956  -2.6833  -2.4848   1.9001   2.1981   4.4340   4.5169   5.2071
     5.9093  10.2795

          k = 0.2000-0.5000 0.1937 (  4964 PWs)   bands (ev):

   -41.5956  -2.5473  -2.4002   1.3837   1.3841   4.8967   5.1224   5.5320
     6.3017  10.0018

          k = 0.2000-0.5000 0.2906 (  4980 PWs)   bands (ev):

   -41.5956  -2.4201  -2.3251   0.8951   1.0506   5.0801   5.5458   5.7801
     6.4049  10.2460

          k = 0.3000 0.3000 0.0000 (  4951 PWs)   bands (ev):

   -41.5957  -3.5374  -1.5252   2.2670   3.0733   3.1285   4.5514   5.5609
     5.6119   9.5881

          k = 0.3000 0.3000 0.0969 (  4958 PWs)   bands (ev):

   -41.5957  -3.4588  -1.6305   2.1220   2.7004   3.8387   4.2101   5.4617
     5.8101  10.0187

          k = 0.3000 0.3000 0.1937 (  4961 PWs)   bands (ev):

   -41.5957  -3.2321  -1.9328   1.9322   2.8024   3.4304   4.2654   5.6775
     6.1167  10.1113

          k = 0.3000 0.3000 0.2906 (  4970 PWs)   bands (ev):

   -41.5957  -2.9041  -2.3335   1.9894   2.8714   3.0360   3.9922   6.2406
     6.3350   9.9536

          k = 0.3000 0.4000 0.0000 (  4958 PWs)   bands (ev):

   -41.5952  -2.9167  -1.6899   2.0753   3.0835   3.4769   4.0176   5.1154
     5.3198   9.1494

          k = 0.3000 0.4000 0.0969 (  4954 PWs)   bands (ev):

   -41.5952  -2.8477  -1.7128   1.9205   2.7800   3.4316   4.2459   5.0990
     5.5083   9.3210

          k = 0.3000 0.4000 0.1937 (  4963 PWs)   bands (ev):

   -41.5952  -2.6532  -1.8113   1.6329   2.3712   3.3374   4.3224   5.2700
     5.7608   9.4635

          k = 0.3000 0.4000 0.2906 (  4984 PWs)   bands (ev):

   -41.5952  -2.3848  -2.0140   1.5571   1.9375   3.5195   4.0552   5.5101
     5.7991   9.9166

          k = 0.3000-0.5000 0.0000 (  4964 PWs)   bands (ev):

   -41.5950  -2.3068  -2.1586   2.2729   2.5882   3.8072   4.1746   4.7589
     5.0948   9.3513

          k = 0.3000-0.5000 0.0969 (  4958 PWs)   bands (ev):

   -41.5950  -2.2580  -2.1241   2.0666   2.3475   3.8199   3.9747   4.9010
     5.5307   9.1138

          k = 0.3000-0.5000 0.1937 (  4960 PWs)   bands (ev):

   -41.5950  -2.1380  -2.0408   1.6666   1.8186   3.9022   4.0090   5.0295
     5.7265   9.4180

          k = 0.3000-0.5000 0.2906 (  4976 PWs)   bands (ev):

   -41.5950  -2.0283  -1.9673   1.3840   1.4294   4.0073   4.2210   4.9947
     5.4612  10.2891

          k = 0.4000 0.4000 0.0000 (  4949 PWs)   bands (ev):

   -41.5946  -2.3496  -1.5549   1.8184   2.5257   3.5450   4.2697   4.9942
     5.2270   8.3375

          k = 0.4000 0.4000 0.0969 (  4965 PWs)   bands (ev):

   -41.5946  -2.2905  -1.5548   1.8599   2.4175   3.3056   4.1953   4.7629
     5.3412   8.8203

          k = 0.4000 0.4000 0.1937 (  4962 PWs)   bands (ev):

   -41.5946  -2.1283  -1.5816   1.8611   2.2973   2.9481   3.8811   4.5116
     5.2833   9.2250

          k = 0.4000 0.4000 0.2906 (  4977 PWs)   bands (ev):

   -41.5946  -1.9165  -1.6836   1.7290   2.4503   2.6559   3.5416   4.6029
     4.9363  10.2065

          k = 0.4000-0.5000 0.0000 (  4960 PWs)   bands (ev):

   -41.5944  -1.8355  -1.7793   1.9270   1.9352   3.7151   4.5957   4.7736
     5.2221   8.3188

          k = 0.4000-0.5000 0.0969 (  4964 PWs)   bands (ev):

   -41.5944  -1.7967  -1.7465   1.9028   1.9817   3.5964   4.0426   4.6481
     5.3233   8.5122

          k = 0.4000-0.5000 0.1937 (  4974 PWs)   bands (ev):

   -41.5944  -1.7033  -1.6682   1.8024   2.0895   3.4153   3.4418   4.3744
     4.8785   9.5324

          k = 0.4000-0.5000 0.2906 (  4982 PWs)   bands (ev):

   -41.5944  -1.6212  -1.6001   1.6932   2.1114   3.2666   3.3491   4.1503
     4.3626  10.7320

          k =-0.5000-0.5000 0.0000 (  4996 PWs)   bands (ev):

   -41.5942  -1.5977  -1.5977   1.5747   1.6882   3.8020   4.7961   4.7961
     5.4358   7.9174

          k =-0.5000-0.5000 0.0969 (  4948 PWs)   bands (ev):

   -41.5942  -1.5664  -1.5664   1.6778   1.7036   3.7372   4.4380   4.4380
     4.9651   8.5249

          k =-0.5000-0.5000 0.1937 (  4948 PWs)   bands (ev):

   -41.5942  -1.4924  -1.4924   1.7404   1.9836   3.5956   3.8456   3.8456
     4.0882   9.8514

          k =-0.5000-0.5000 0.2906 (  4956 PWs)   bands (ev):

   -41.5942  -1.4290  -1.4290   1.7728   2.4655   3.2674   3.4705   3.4705
     3.4845  11.2589

     the Fermi energy is     4.1401 ev

!    total energy              =     -31.03450629 Ry
     estimated scf accuracy    <          2.1E-09 Ry
     smearing contrib. (-TS)   =      -0.00034270 Ry
     internal energy E=F+TS    =     -31.03416360 Ry

     The total energy is F=E-TS. E is the sum of the following terms:
     one-electron contribution =      -5.18690583 Ry
     hartree contribution      =       4.75047027 Ry
     xc contribution           =      -9.20023259 Ry
     ewald contribution        =     -21.39749545 Ry

     convergence has been achieved in   7 iterations

     Forces acting on atoms (cartesian axes, Ry/au):

     atom    1 type  1   force =     0.00000000    0.00000000    0.11374698
     atom    2 type  1   force =     0.00000000    0.00000000   -0.11374698
     atom    3 type  2   force =     0.00000000    0.00000000    0.00000000
     The non-local contrib.  to forces
     atom    1 type  1   force =     0.00000000    0.00000000    0.19365184
     atom    2 type  1   force =     0.00000000    0.00000000   -0.19365184
     atom    3 type  2   force =     0.00000000    0.00000000    0.00000000
     The ionic contribution  to forces
     atom    1 type  1   force =     0.00000000   -0.00000000    1.06371316
     atom    2 type  1   force =     0.00000000    0.00000000   -1.06371316
     atom    3 type  2   force =    -0.00000000   -0.00000000    0.00000000
     The local contribution  to forces
     atom    1 type  1   force =    -0.00000000    0.00000000   -1.13125971
     atom    2 type  1   force =    -0.00000000   -0.00000000    1.13125971
     atom    3 type  2   force =     0.00000000    0.00000000   -0.00000000
     The core correction contribution to forces
     atom    1 type  1   force =     0.00000000    0.00000000   -0.01239582
     atom    2 type  1   force =    -0.00000000    0.00000000    0.01239582
     atom    3 type  2   force =     0.00000000    0.00000000    0.00000000
     The Hubbard contrib.    to forces
     atom    1 type  1   force =     0.00000000    0.00000000    0.00000000
     atom    2 type  1   force =     0.00000000    0.00000000    0.00000000
     atom    3 type  2   force =     0.00000000    0.00000000    0.00000000
     The SCF correction term to forces
     atom    1 type  1   force =     0.00000000   -0.00000000    0.00003751
     atom    2 type  1   force =    -0.00000000   -0.00000000   -0.00003751
     atom    3 type  2   force =    -0.00000000   -0.00000000    0.00000000

     Total force =     0.160863     Total SCF correction =     0.000053


     Computing stress (Cartesian axis) and pressure

          total   stress  (Ry/bohr**3)                   (kbar)     P=       -1.21
  -0.00014128   0.00000000   0.00000000          -20.78        0.00        0.00
   0.00000000  -0.00014128   0.00000000            0.00      -20.78        0.00
   0.00000000   0.00000000   0.00025783            0.00        0.00       37.93


     BFGS Geometry Optimization
     Energy error            =      0.0E+00 Ry
     Gradient error          =      1.1E-01 Ry/Bohr
     Cell gradient error     =      5.2E+02 kbar

     number of scf cycles    =   1
     number of bfgs steps    =   0

     enthalpy           new  =     -29.6355792806 Ry

     new trust radius        =       0.3591080895 bohr
ibrav =      6
 celldm(1) =      5.95641983
 celldm(3) =      1.49103388
Input lattice vectors:
     0.91149479     0.00000000     0.00000000
     0.00000000     0.91149479     0.00000000
     0.00000000     0.00000000     1.35906962
New lattice vectors in INITIAL alat:
     0.91149479     0.00000000     0.00000000
     0.00000000     0.91149479     0.00000000
     0.00000000     0.00000000     1.35906962
New lattice vectors in NEW alat (for information only):
     1.00000000     0.00000000     0.00000000
     0.00000000     1.00000000     0.00000000
     0.00000000     0.00000000     1.49103388
Discrepancy in bohr =     0.000000    0.000000    0.000000
     new conv_thr            =       0.0000000100 Ry

     new unit-cell volume =    315.09638 a.u.^3 (    46.69247 Ang^3 )
     density =      2.24447 g/cm^3

CELL_PARAMETERS (alat=  6.53478208)
   0.911494791   0.000000000   0.000000000
   0.000000000   0.911494791   0.000000000
   0.000000000   0.000000000   1.359069618

ATOMIC_POSITIONS (crystal)
Si            0.0000000000        0.5000000000        0.2806098303
Si            0.5000000000        0.0000000000        0.7193901697
Li            0.5000000000        0.5000000000        0.0000000000



     Writing config-only to output data dir ./output/SiLi.save/
     NEW-OLD atomic charge density approx. for the potential

     negative rho (up, down):  1.128E-06 0.000E+00
     extrapolated charge    7.63358, renormalised to   11.00000

     total cpu time spent up to now is       11.3 secs

     Self-consistent Calculation

     iteration #  1     ecut=    80.00 Ry     beta= 0.70
     Davidson diagonalization with overlap
     c_bands:  1 eigenvalues not converged
     c_bands:  1 eigenvalues not converged
     c_bands:  1 eigenvalues not converged
     c_bands:  1 eigenvalues not converged
     c_bands:  1 eigenvalues not converged
     ethr =  1.00E-06,  avg # of iterations = 13.0

     total cpu time spent up to now is       14.0 secs

     total energy              =     -30.50925649 Ry
     estimated scf accuracy    <       0.45401178 Ry

     iteration #  2     ecut=    80.00 Ry     beta= 0.70
     Davidson diagonalization with overlap
     ethr =  4.13E-03,  avg # of iterations =  2.9

     total cpu time spent up to now is       15.1 secs

     total energy              =     -30.95895801 Ry
     estimated scf accuracy    <       1.27681581 Ry

     iteration #  3     ecut=    80.00 Ry     beta= 0.70
     Davidson diagonalization with overlap
     ethr =  4.13E-03,  avg # of iterations =  2.0

     total cpu time spent up to now is       16.0 secs

     total energy              =     -31.03858445 Ry
     estimated scf accuracy    <       0.13596345 Ry

     iteration #  4     ecut=    80.00 Ry     beta= 0.70
     Davidson diagonalization with overlap
     ethr =  1.24E-03,  avg # of iterations =  1.3

     total cpu time spent up to now is       16.8 secs

     total energy              =     -31.03210722 Ry
     estimated scf accuracy    <       0.03236969 Ry

     iteration #  5     ecut=    80.00 Ry     beta= 0.70
     Davidson diagonalization with overlap
     ethr =  2.94E-04,  avg # of iterations =  2.3

     total cpu time spent up to now is       17.7 secs

     total energy              =     -31.03874049 Ry
     estimated scf accuracy    <       0.00019910 Ry

     iteration #  6     ecut=    80.00 Ry     beta= 0.70
     Davidson diagonalization with overlap
     ethr =  1.81E-06,  avg # of iterations =  8.0

     total cpu time spent up to now is       19.3 secs

     total energy              =     -31.03916376 Ry
     estimated scf accuracy    <       0.00002210 Ry

     iteration #  7     ecut=    80.00 Ry     beta= 0.70
     Davidson diagonalization with overlap
     ethr =  2.01E-07,  avg # of iterations =  2.0

     total cpu time spent up to now is       20.1 secs

     total energy              =     -31.03916930 Ry
     estimated scf accuracy    <       0.00000205 Ry

     iteration #  8     ecut=    80.00 Ry     beta= 0.70
     Davidson diagonalization with overlap
     ethr =  1.86E-08,  avg # of iterations =  2.1

     total cpu time spent up to now is       20.9 secs

     total energy              =     -31.03916984 Ry
     estimated scf accuracy    <       0.00000014 Ry

     iteration #  9     ecut=    80.00 Ry     beta= 0.70
     Davidson diagonalization with overlap
     ethr =  1.28E-09,  avg # of iterations =  2.0

     total cpu time spent up to now is       21.7 secs

     total energy              =     -31.03916989 Ry
     estimated scf accuracy    <       0.00000001 Ry

     iteration # 10     ecut=    80.00 Ry     beta= 0.70
     Davidson diagonalization with overlap
     ethr =  1.05E-10,  avg # of iterations =  1.7

     total cpu time spent up to now is       22.4 secs

     End of self-consistent calculation

          k = 0.0000 0.0000 0.0000 (  4967 PWs)   bands (ev):

   -39.4121  -4.3361   0.3477   3.1296   7.8762   7.8762  11.2365  11.9148
    12.4840  12.4840

          k = 0.0000 0.0000 0.1051 (  4975 PWs)   bands (ev):

   -39.4121  -4.2437  -0.2198   3.8887   7.9913   7.9913  11.3585  11.7425
    11.8320  11.8320

          k = 0.0000 0.0000 0.2102 (  4996 PWs)   bands (ev):

   -39.4120  -3.9880  -1.1497   5.3692   8.3319   8.3319  10.7658  10.7658
    10.8166  11.9030

          k = 0.0000 0.0000 0.3153 (  4980 PWs)   bands (ev):

   -39.4120  -3.6869  -1.8351   6.8225   8.8568   8.8568   9.6810   9.8351
     9.8351  11.9235

          k = 0.0000 0.1097 0.0000 (  4973 PWs)   bands (ev):

   -39.4114  -4.2050   0.4419   3.2187   6.7366   7.9947  11.2817  11.6508
    11.7448  12.5058

          k = 0.0000 0.1097 0.1051 (  4969 PWs)   bands (ev):

   -39.4114  -4.1121  -0.1179   3.9494   6.8701   8.1090  10.3641  11.7416
    11.8929  12.1630

          k = 0.0000 0.1097 0.2102 (  4972 PWs)   bands (ev):

   -39.4114  -3.8548  -1.0420   5.3354   7.2794   8.4466   9.2872  10.8590
    11.3404  12.2878

          k = 0.0000 0.1097 0.3153 (  4981 PWs)   bands (ev):

   -39.4114  -3.5502  -1.7277   6.5806   7.7725   8.5955   8.9632   9.9475
    10.3161  12.5297

          k = 0.0000 0.2194 0.0000 (  4987 PWs)   bands (ev):

   -39.4097  -3.8138   0.6670   3.4428   5.0494   8.3446   9.5266  10.2111
    12.1270  12.5116

          k = 0.0000 0.2194 0.1051 (  4988 PWs)   bands (ev):

   -39.4097  -3.7198   0.1528   3.9418   5.3394   8.4559   8.6005  11.0753
    12.0283  12.1784

          k = 0.0000 0.2194 0.2102 (  4971 PWs)   bands (ev):

   -39.4096  -3.4581  -0.7351   4.6650   6.1434   7.7325   8.7826  11.1152
    11.3535  12.5522

          k = 0.0000 0.2194 0.3153 (  4969 PWs)   bands (ev):

   -39.4096  -3.1437  -1.4148   5.3118   6.0663   8.2260   9.2698  10.2758
    10.5986  12.9865

          k = 0.0000 0.3291 0.0000 (  4975 PWs)   bands (ev):

   -39.4075  -3.1706   0.7073   3.3834   4.3381   7.7662   8.7750   8.9032
    12.3214  12.7370

          k = 0.0000 0.3291 0.1051 (  4987 PWs)   bands (ev):

   -39.4075  -3.0755   0.3891   3.1560   5.0114   7.0591   9.0073   9.7198
    12.0643  12.7858

          k = 0.0000 0.3291 0.2102 (  4986 PWs)   bands (ev):

   -39.4075  -2.8091  -0.3161   3.2183   5.1710   7.3048   9.3078  10.7658
    11.4397  12.9965

          k = 0.0000 0.3291 0.3153 (  4961 PWs)   bands (ev):

   -39.4075  -2.4820  -0.9398   3.5782   4.5022   8.5844   9.7263  10.7721
    10.7841  13.4777

          k = 0.0000 0.4388 0.0000 (  4964 PWs)   bands (ev):

   -39.4058  -2.2981  -0.0128   3.4705   4.7462   6.2804   7.5608   9.5986
    11.8013  13.5608

          k = 0.0000 0.4388 0.1051 (  4982 PWs)   bands (ev):

   -39.4058  -2.2036  -0.0351   2.8983   4.6411   6.5474   8.4212   9.6855
    11.7637  13.6055

          k = 0.0000 0.4388 0.2102 (  4979 PWs)   bands (ev):

   -39.4058  -1.9392  -0.1841   2.2972   3.8489   7.8594   9.7840   9.9234
    11.6090  13.7281

          k = 0.0000 0.4388 0.3153 (  4964 PWs)   bands (ev):

   -39.4057  -1.6110  -0.4914   2.1717   3.1930   9.1837  10.2000  10.6693
    11.3633  13.9091

          k = 0.0000-0.5485 0.0000 (  4966 PWs)   bands (ev):

   -39.4051  -1.4413  -0.9316   3.9240   4.8695   5.6806   6.9514  10.0664
    11.3607  14.6032

          k = 0.0000-0.5485 0.1051 (  4976 PWs)   bands (ev):

   -39.4051  -1.3412  -0.8875   3.5627   3.6941   7.0610   7.5031  10.1278
    11.4164  14.5434

          k = 0.0000-0.5485 0.2102 (  4976 PWs)   bands (ev):

   -39.4051  -1.0688  -0.7787   2.4724   2.9498   8.6340   8.8656  10.2806
    11.5532  14.3703

          k = 0.0000-0.5485 0.3153 (  4970 PWs)   bands (ev):

   -39.4051  -0.7636  -0.6788   1.6823   2.5467   9.6145  10.4114  10.4226
    11.6779  14.1182

          k = 0.1097 0.1097 0.0000 (  4955 PWs)   bands (ev):

   -39.4107  -4.0739   0.5360   3.3098   6.7361   6.9793  11.2023  11.2971
    11.6287  12.9353

          k = 0.1097 0.1097 0.1051 (  4969 PWs)   bands (ev):

   -39.4107  -3.9806  -0.0159   4.0127   6.9030   7.0721  10.2884  10.6606
    12.2648  13.0677

          k = 0.1097 0.1097 0.2102 (  4974 PWs)   bands (ev):

   -39.4107  -3.7217  -0.9340   5.3163   7.3350   7.4334   9.1326   9.7938
    11.9453  13.4477

          k = 0.1097 0.1097 0.3153 (  4983 PWs)   bands (ev):

   -39.4107  -3.4136  -1.6199   6.4402   7.6819   8.0109   8.3818   9.2244
    10.8185  13.7907

          k = 0.1097 0.2194 0.0000 (  4980 PWs)   bands (ev):

   -39.4090  -3.6828   0.7617   3.5423   5.1573   7.2061   9.6050  10.1832
    11.5294  13.2149

          k = 0.1097 0.2194 0.1051 (  4983 PWs)   bands (ev):

   -39.4090  -3.5885   0.2555   4.0227   5.4444   7.3064   8.7356  10.4804
    11.5652  13.4725

          k = 0.1097 0.2194 0.2102 (  4975 PWs)   bands (ev):

   -39.4090  -3.3254  -0.6261   4.7353   6.1911   7.5343   7.9897   9.8305
    11.7901  13.8495

          k = 0.1097 0.2194 0.3153 (  4969 PWs)   bands (ev):

   -39.4090  -3.0077  -1.3058   5.3900   6.1088   7.8567   8.3545   9.3620
    11.0304  14.2326

          k = 0.1097 0.3291 0.0000 (  4982 PWs)   bands (ev):

   -39.4069  -3.0400   0.8092   3.5009   4.4302   7.6000   7.9560   8.9424
    11.3504  13.7641

          k = 0.1097 0.3291 0.1051 (  4975 PWs)   bands (ev):

   -39.4069  -2.9447   0.4953   3.2691   5.0965   7.0462   8.0153   9.6786
    11.1473  13.8666

          k = 0.1097 0.3291 0.2102 (  4981 PWs)   bands (ev):

   -39.4068  -2.6771  -0.2048   3.3306   5.2479   7.2577   8.3499  10.0622
    11.1027  14.2110

          k = 0.1097 0.3291 0.3153 (  4965 PWs)   bands (ev):

   -39.4068  -2.3470  -0.8285   3.7009   4.5732   8.2434   8.8105   9.8137
    11.0045  14.4156

          k = 0.1097 0.4388 0.0000 (  4986 PWs)   bands (ev):

   -39.4051  -2.1679   0.1035   3.5741   4.8403   6.3686   7.4683   8.7664
    10.7384  14.5213

          k = 0.1097 0.4388 0.1051 (  4985 PWs)   bands (ev):

   -39.4051  -2.0733   0.0820   3.0068   4.7391   6.5855   8.2621   8.9162
    10.7207  14.2319

          k = 0.1097 0.4388 0.2102 (  4973 PWs)   bands (ev):

   -39.4051  -1.8084  -0.0662   2.4145   3.9412   7.8071   8.9854   9.7056
    10.6206  13.9577

          k = 0.1097 0.4388 0.3153 (  4972 PWs)   bands (ev):

   -39.4051  -1.4781  -0.3748   2.3029   3.2740   8.8994   9.3342  10.3186
    10.6318  13.9644

          k = 0.1097-0.5485 0.0000 (  4972 PWs)   bands (ev):

   -39.4045  -1.3068  -0.8152   4.0207   4.9551   5.8010   6.9175   9.3110
    10.1261  15.0725

          k = 0.1097-0.5485 0.1051 (  4986 PWs)   bands (ev):

   -39.4045  -1.2072  -0.7699   3.6522   3.8107   7.1257   7.4591   9.3650
    10.2165  14.5459

          k = 0.1097-0.5485 0.2102 (  4976 PWs)   bands (ev):

   -39.4045  -0.9364  -0.6577   2.6012   3.0318   8.5361   8.8116   9.5001
    10.4511  13.8418

          k = 0.1097-0.5485 0.3153 (  4986 PWs)   bands (ev):

   -39.4044  -0.6336  -0.5543   1.8175   2.6244   9.4120   9.6274  10.1199
    10.6234  13.5414

          k = 0.2194 0.2194 0.0000 (  4993 PWs)   bands (ev):

   -39.4073  -3.2924   0.9933   3.8036   5.3640   5.6340   9.5625   9.7233
     9.9871  13.3782

          k = 0.2194 0.2194 0.1051 (  4985 PWs)   bands (ev):

   -39.4073  -3.1972   0.5297   4.1400   5.6123   5.8607   8.6237   9.2697
    10.8831  13.9613

          k = 0.2194 0.2194 0.2102 (  4975 PWs)   bands (ev):

   -39.4073  -2.9303  -0.3152   4.7036   5.8261   6.7749   7.5239   8.8158
    11.3720  15.2715

          k = 0.2194 0.2194 0.3153 (  4971 PWs)   bands (ev):

   -39.4073  -2.6034  -0.9880   5.3113   6.0223   6.4114   7.4704   9.2132
    10.9939  14.8586

          k = 0.2194 0.3291 0.0000 (  4980 PWs)   bands (ev):

   -39.4052  -2.6509   1.0776   3.8213   4.6925   6.0164   8.0829   8.8251
     9.7070  13.3749

          k = 0.2194 0.3291 0.1051 (  4977 PWs)   bands (ev):

   -39.4052  -2.5549   0.7851   3.5874   5.2156   6.2052   7.4488   9.1092
     9.8576  13.4428

          k = 0.2194 0.3291 0.2102 (  4958 PWs)   bands (ev):

   -39.4052  -2.2846   0.1132   3.6430   5.3145   6.5077   7.4175   8.8925
    10.3792  14.2031

          k = 0.2194 0.3291 0.3153 (  4969 PWs)   bands (ev):

   -39.4051  -1.9463  -0.5040   4.0424   4.7322   6.6853   7.5255   9.4676
    10.5203  13.6063

          k = 0.2194 0.4388 0.0000 (  4977 PWs)   bands (ev):

   -39.4035  -1.7810   0.4382   3.8397   5.0925   6.3756   6.8802   7.9941
     9.1004  13.5477

          k = 0.2194 0.4388 0.1051 (  4969 PWs)   bands (ev):

   -39.4035  -1.6863   0.4189   3.3106   4.9756   6.4565   7.2429   8.4909
     9.1135  12.9904

          k = 0.2194 0.4388 0.2102 (  4969 PWs)   bands (ev):

   -39.4034  -1.4203   0.2750   2.7560   4.1880   7.0143   7.9180   9.1167
     9.2815  13.1036

          k = 0.2194 0.4388 0.3153 (  4971 PWs)   bands (ev):

   -39.4034  -1.0846  -0.0348   2.6901   3.4983   7.4510   8.0410   9.4808
     9.7600  12.9007

          k = 0.2194-0.5485 0.0000 (  4968 PWs)   bands (ev):

   -39.4028  -0.9081  -0.4728   4.2698   5.1270   6.1405   6.6866   8.1107
     8.3482  14.0275

          k = 0.2194-0.5485 0.1051 (  4968 PWs)   bands (ev):

   -39.4028  -0.8102  -0.4239   3.8886   4.1322   7.1055   7.1356   8.1809
     8.6113  13.4040

          k = 0.2194-0.5485 0.2102 (  4964 PWs)   bands (ev):

   -39.4028  -0.5451  -0.3020   2.9778   3.2586   7.8185   7.9831   8.4302
     9.3293  12.7704

          k = 0.2194-0.5485 0.3153 (  4980 PWs)   bands (ev):

   -39.4028  -0.2513  -0.1884   2.2196   2.8445   8.1153   8.5067   8.7481
     9.5359  12.9619

          k = 0.3291 0.3291 0.0000 (  4951 PWs)   bands (ev):

   -39.4031  -2.0129   1.3076   4.0044   4.9714   5.1538   7.9036   8.3434
     8.5164  12.2612

          k = 0.3291 0.3291 0.1051 (  4958 PWs)   bands (ev):

   -39.4031  -1.9166   1.1028   3.8603   4.6344   5.9909   7.1958   8.3171
     8.8483  12.8098

          k = 0.3291 0.3291 0.2102 (  4961 PWs)   bands (ev):

   -39.4031  -1.6442   0.5582   3.8625   4.6634   6.0118   6.7720   8.5773
     9.2164  13.0646

          k = 0.3291 0.3291 0.3153 (  4970 PWs)   bands (ev):

   -39.4031  -1.2965  -0.0085   4.2083   4.7638   5.1910   6.6756   9.2757
     9.5467  12.6210

          k = 0.3291 0.4388 0.0000 (  4958 PWs)   bands (ev):

   -39.4014  -1.1504   0.9178   3.9348   5.2977   5.5216   6.8399   7.7959
     8.0435  11.8662

          k = 0.3291 0.4388 0.1051 (  4954 PWs)   bands (ev):

   -39.4014  -1.0562   0.9046   3.6588   4.8557   5.8387   6.7890   7.8612
     8.3049  11.9756

          k = 0.3291 0.4388 0.2102 (  4963 PWs)   bands (ev):

   -39.4014  -0.7910   0.7799   3.2616   4.3841   5.6877   6.9586   8.0109
     8.6677  12.1934

          k = 0.3291 0.4388 0.3153 (  4984 PWs)   bands (ev):

   -39.4014  -0.4508   0.4869   3.2845   3.7869   5.7539   6.7782   8.3081
     8.7275  12.6049

          k = 0.3291-0.5485 0.0000 (  4964 PWs)   bands (ev):

   -39.4008  -0.2651   0.0678   4.4126   4.8635   6.0693   6.5933   7.4392
     7.5813  12.3392

          k = 0.3291-0.5485 0.1051 (  4958 PWs)   bands (ev):

   -39.4008  -0.1713   0.1223   4.0932   4.4349   6.2566   6.2742   7.6485
     8.2463  11.7608

          k = 0.3291-0.5485 0.2102 (  4960 PWs)   bands (ev):

   -39.4007   0.0801   0.2591   3.5340   3.5439   6.3856   6.5085   7.7371
     8.5964  12.0641

          k = 0.3291-0.5485 0.3153 (  4976 PWs)   bands (ev):

   -39.4007   0.3525   0.3886   2.8726   3.1473   6.6456   6.7202   7.7407
     8.1455  13.1077

          k = 0.4388 0.4388 0.0000 (  4949 PWs)   bands (ev):

   -39.3997  -0.3112   1.2002   3.4799   4.7626   5.6982   6.8368   7.6509
     7.9220  10.8858

          k = 0.4388 0.4388 0.1051 (  4965 PWs)   bands (ev):

   -39.3997  -0.2207   1.2181   3.5011   4.5061   5.6082   6.6218   7.2853
     8.1196  11.3689

          k = 0.4388 0.4388 0.2102 (  4962 PWs)   bands (ev):

   -39.3997   0.0329   1.2009   3.5150   4.1676   5.1622   6.3599   6.9107
     8.0109  11.9892

          k = 0.4388 0.4388 0.3153 (  4977 PWs)   bands (ev):

   -39.3997   0.3574   1.0375   3.5349   4.0968   4.6449   6.1174   6.9964
     7.6048  13.0774

          k = 0.4388-0.5485 0.0000 (  4960 PWs)   bands (ev):

   -39.3991   0.5466   0.7122   3.7934   3.8691   6.0180   7.0981   7.4631
     7.8140  11.0550

          k = 0.4388-0.5485 0.1051 (  4964 PWs)   bands (ev):

   -39.3991   0.6300   0.7737   3.7721   3.8440   5.9730   6.2480   7.2202
     8.0584  11.0656

          k = 0.4388-0.5485 0.2102 (  4974 PWs)   bands (ev):

   -39.3991   0.8473   0.9286   3.5392   3.8746   5.4527   5.8076   6.9023
     7.3859  12.4354

          k = 0.4388-0.5485 0.3153 (  4982 PWs)   bands (ev):

   -39.3991   1.0689   1.0762   3.3289   3.6867   5.3518   5.6288   6.6478
     6.7836  13.7415

          k =-0.5485-0.5485 0.0000 (  4996 PWs)   bands (ev):

   -39.3985   1.0900   1.0900   3.0822   3.4035   6.2016   7.4206   7.4206
     8.1998  10.5467

          k =-0.5485-0.5485 0.1051 (  4948 PWs)   bands (ev):

   -39.3984   1.1570   1.1570   3.2005   3.3704   6.2255   6.8525   6.8525
     7.4733  11.3871

          k =-0.5485-0.5485 0.2102 (  4948 PWs)   bands (ev):

   -39.3984   1.3246   1.3246   3.2989   3.5446   5.9627   5.9627   6.2761
     6.3196  13.0960

          k =-0.5485-0.5485 0.3153 (  4956 PWs)   bands (ev):

   -39.3984   1.4823   1.4823   3.2442   4.0284   5.3865   5.3905   5.3905
     6.3138  14.5113

     the Fermi energy is     6.6962 ev

!    total energy              =     -31.03916989 Ry
     estimated scf accuracy    <          4.4E-10 Ry
     smearing contrib. (-TS)   =      -0.00044749 Ry
     internal energy E=F+TS    =     -31.03872240 Ry

     The total energy is F=E-TS. E is the sum of the following terms:
     one-electron contribution =      -2.16151053 Ry
     hartree contribution      =       4.24518781 Ry
     xc contribution           =      -9.48674272 Ry
     ewald contribution        =     -23.63565697 Ry

     convergence has been achieved in  10 iterations

     Forces acting on atoms (cartesian axes, Ry/au):

     atom    1 type  1   force =     0.00000000    0.00000000    0.17825499
     atom    2 type  1   force =     0.00000000    0.00000000   -0.17825499
     atom    3 type  2   force =     0.00000000    0.00000000    0.00000000
     The non-local contrib.  to forces
     atom    1 type  1   force =     0.00000000    0.00000000    0.26498564
     atom    2 type  1   force =     0.00000000    0.00000000   -0.26498564
     atom    3 type  2   force =     0.00000000    0.00000000    0.00000000
     The ionic contribution  to forces
     atom    1 type  1   force =    -0.00000000    0.00000000    1.04794562
     atom    2 type  1   force =     0.00000000    0.00000000   -1.04794562
     atom    3 type  2   force =     0.00000000    0.00000000    0.00000000
     The local contribution  to forces
     atom    1 type  1   force =    -0.00000000    0.00000000   -1.11814459
     atom    2 type  1   force =     0.00000000   -0.00000000    1.11814459
     atom    3 type  2   force =    -0.00000000    0.00000000    0.00000000
     The core correction contribution to forces
     atom    1 type  1   force =    -0.00000000   -0.00000000   -0.01651106
     atom    2 type  1   force =    -0.00000000    0.00000000    0.01651106
     atom    3 type  2   force =     0.00000000    0.00000000    0.00000000
     The Hubbard contrib.    to forces
     atom    1 type  1   force =     0.00000000    0.00000000    0.00000000
     atom    2 type  1   force =     0.00000000    0.00000000    0.00000000
     atom    3 type  2   force =     0.00000000    0.00000000    0.00000000
     The SCF correction term to forces
     atom    1 type  1   force =    -0.00000000    0.00000000   -0.00002062
     atom    2 type  1   force =     0.00000000    0.00000000    0.00002062
     atom    3 type  2   force =     0.00000000    0.00000000    0.00000000

     Total force =     0.252091     Total SCF correction =     0.000029


     Computing stress (Cartesian axis) and pressure

          total   stress  (Ry/bohr**3)                   (kbar)     P=      113.48
   0.00045125  -0.00000000   0.00000000           66.38       -0.00        0.00
  -0.00000000   0.00045125   0.00000000           -0.00       66.38        0.00
   0.00000000   0.00000000   0.00141179            0.00        0.00      207.68

     Energy error            =      3.3E-01 Ry
     Gradient error          =      1.8E-01 Ry/Bohr
     Cell gradient error     =      4.3E+02 kbar

     number of scf cycles    =   2
     number of bfgs steps    =   1

     enthalpy           old  =     -29.6355792806 Ry
     enthalpy           new  =     -29.9681790549 Ry

     CASE: enthalpy          _new < enthalpy          _old

     new trust radius        =       0.5170798392 bohr
ibrav =      6
 celldm(1) =      5.08887644
 celldm(3) =      1.56763772
Input lattice vectors:
     0.77873698    -0.00000000     0.00000000
    -0.00000000     0.77873698     0.00000000
     0.00000000     0.00000000     1.22077746
New lattice vectors in INITIAL alat:
     0.77873698     0.00000000     0.00000000
     0.00000000     0.77873698     0.00000000
     0.00000000     0.00000000     1.22077746
New lattice vectors in NEW alat (for information only):
     1.00000000     0.00000000     0.00000000
     0.00000000     1.00000000     0.00000000
     0.00000000     0.00000000     1.56763772
Discrepancy in bohr =     0.000000    0.000000    0.000000
     new conv_thr            =       0.0000000100 Ry

     new unit-cell volume =    206.59101 a.u.^3 (    30.61363 Ang^3 )
     density =      3.42331 g/cm^3

CELL_PARAMETERS (alat=  6.53478208)
   0.778736977   0.000000000   0.000000000
   0.000000000   0.778736977   0.000000000
   0.000000000   0.000000000   1.220777455

ATOMIC_POSITIONS (crystal)
Si            0.0000000000        0.5000000000        0.3137905648
Si            0.5000000000        0.0000000000        0.6862094352
Li            0.5000000000        0.5000000000        0.0000000000



     Writing config-only to output data dir ./output/SiLi.save/
     NEW-OLD atomic charge density approx. for the potential

     negative rho (up, down):  5.199E-02 0.000E+00
     extrapolated charge    5.22564, renormalised to   11.00000

     total cpu time spent up to now is       24.4 secs

     Self-consistent Calculation

     iteration #  1     ecut=    80.00 Ry     beta= 0.70
     Davidson diagonalization with overlap
     c_bands:  1 eigenvalues not converged
     c_bands:  1 eigenvalues not converged
     c_bands:  1 eigenvalues not converged
     c_bands:  1 eigenvalues not converged
     c_bands:  1 eigenvalues not converged
     c_bands:  1 eigenvalues not converged
     c_bands:  1 eigenvalues not converged
     ethr =  1.00E-06,  avg # of iterations = 14.2

     negative rho (up, down):  1.733E-03 0.000E+00

     total cpu time spent up to now is       27.2 secs

     total energy              =     -29.90797413 Ry
     estimated scf accuracy    <       1.47829914 Ry

     iteration #  2     ecut=    80.00 Ry     beta= 0.70
     Davidson diagonalization with overlap
     ethr =  1.00E-02,  avg # of iterations =  2.8

     negative rho (up, down):  4.223E-05 0.000E+00

     total cpu time spent up to now is       28.1 secs

     total energy              =     -30.67986536 Ry
     estimated scf accuracy    <       1.75044051 Ry

     iteration #  3     ecut=    80.00 Ry     beta= 0.70
     Davidson diagonalization with overlap
     ethr =  1.00E-02,  avg # of iterations =  1.9

     total cpu time spent up to now is       28.8 secs

     total energy              =     -30.93243232 Ry
     estimated scf accuracy    <       0.07293098 Ry

     iteration #  4     ecut=    80.00 Ry     beta= 0.70
     Davidson diagonalization with overlap
     ethr =  6.63E-04,  avg # of iterations =  2.1

     total cpu time spent up to now is       29.6 secs

     total energy              =     -30.93643507 Ry
     estimated scf accuracy    <       0.00672345 Ry

     iteration #  5     ecut=    80.00 Ry     beta= 0.70
     Davidson diagonalization with overlap
     ethr =  6.11E-05,  avg # of iterations =  3.6

     total cpu time spent up to now is       30.5 secs

     total energy              =     -30.93809037 Ry
     estimated scf accuracy    <       0.00021034 Ry

     iteration #  6     ecut=    80.00 Ry     beta= 0.70
     Davidson diagonalization with overlap
     ethr =  1.91E-06,  avg # of iterations =  4.7

     total cpu time spent up to now is       31.4 secs

     total energy              =     -30.93814971 Ry
     estimated scf accuracy    <       0.00000782 Ry

     iteration #  7     ecut=    80.00 Ry     beta= 0.70
     Davidson diagonalization with overlap
     ethr =  7.11E-08,  avg # of iterations =  2.6

     total cpu time spent up to now is       32.2 secs

     total energy              =     -30.93815227 Ry
     estimated scf accuracy    <       0.00000023 Ry

     iteration #  8     ecut=    80.00 Ry     beta= 0.70
     Davidson diagonalization with overlap
     ethr =  2.09E-09,  avg # of iterations =  2.6

     total cpu time spent up to now is       33.0 secs

     End of self-consistent calculation

          k = 0.0000 0.0000 0.0000 (  4967 PWs)   bands (ev):

   -34.8969  -2.8270   4.2913   7.1568  14.2022  14.2022  16.2986  18.2203
    21.1640  21.1640

          k = 0.0000 0.0000 0.1170 (  4975 PWs)   bands (ev):

   -34.8968  -2.7758   3.6436   8.1199  14.3334  14.3334  16.1970  18.2792
    19.6925  19.6925

          k = 0.0000 0.0000 0.2340 (  4996 PWs)   bands (ev):

   -34.8965  -2.6507   2.7090   9.9601  14.7086  14.7086  16.0090  18.1217
    18.1945  18.1945

          k = 0.0000 0.0000 0.3511 (  4980 PWs)   bands (ev):

   -34.8963  -2.5378   2.1427  11.6925  15.1991  15.1991  16.0058  16.8639
    17.1349  17.1349

          k = 0.0000 0.1284 0.0000 (  4973 PWs)   bands (ev):

   -34.8933  -2.6392   4.4775   7.2411  12.0436  14.3741  17.0285  18.8273
    19.7053  20.2149

          k = 0.0000 0.1284 0.1170 (  4969 PWs)   bands (ev):

   -34.8932  -2.5865   3.8112   8.2188  12.1222  14.5051  16.7458  18.2945
    19.7187  19.8451

          k = 0.0000 0.1284 0.2340 (  4972 PWs)   bands (ev):

   -34.8930  -2.4575   2.8623  10.0568  12.3393  14.8800  16.1025  17.6090
    18.3577  19.2931

          k = 0.0000 0.1284 0.3511 (  4981 PWs)   bands (ev):

   -34.8928  -2.3408   2.2889  11.6761  12.7259  15.3697  15.3989  17.0215
    17.3023  18.1847

          k = 0.0000 0.2568 0.0000 (  4987 PWs)   bands (ev):

   -34.8841  -2.0774   5.0246   7.3609   9.3759  14.8876  16.2108  16.5024
    18.8569  21.5245

          k = 0.0000 0.2568 0.1170 (  4988 PWs)   bands (ev):

   -34.8840  -2.0203   4.2980   8.3212   9.4796  15.0148  15.0183  17.7686
    18.9070  20.2727

          k = 0.0000 0.2568 0.2340 (  4971 PWs)   bands (ev):

   -34.8838  -1.8798   3.3117   9.3919  10.2962  14.0712  15.3918  18.1553
    18.8339  19.5330

          k = 0.0000 0.2568 0.3511 (  4969 PWs)   bands (ev):

   -34.8836  -1.7514   2.7204   9.6211  11.5273  13.8535  15.8794  17.5231
    17.7957  19.1075

          k = 0.0000 0.3852 0.0000 (  4975 PWs)   bands (ev):

   -34.8727  -1.1469   5.6681   6.3578   8.4860  13.7711  14.8772  15.7340
    19.3620  21.4227

          k = 0.0000 0.3852 0.1170 (  4987 PWs)   bands (ev):

   -34.8726  -1.0827   4.9412   6.6026   9.1296  13.0215  15.8638  16.0889
    19.3225  20.7592

          k = 0.0000 0.3852 0.2340 (  4986 PWs)   bands (ev):

   -34.8724  -0.9231   3.9886   6.7989   9.9484  12.9125  16.2347  17.8042
    19.2310  19.5495

          k = 0.0000 0.3852 0.3511 (  4961 PWs)   bands (ev):

   -34.8723  -0.7750   3.4031   6.9256  10.0033  13.9647  16.7187  18.1172
    18.5739  19.5117

          k = 0.0000 0.5137 0.0000 (  4964 PWs)   bands (ev):

   -34.8634   0.1375   3.8170   7.2207   8.8424  11.6817  13.4896  16.8780
    20.2211  20.4234

          k = 0.0000 0.5137 0.1170 (  4982 PWs)   bands (ev):

   -34.8634   0.2130   3.8347   6.5295   8.9598  12.0133  14.3557  17.0061
    20.2242  20.4022

          k = 0.0000 0.5137 0.2340 (  4979 PWs)   bands (ev):

   -34.8632   0.4013   3.8915   5.5023   8.6512  13.3599  16.1181  17.3712
    20.0227  20.2738

          k = 0.0000 0.5137 0.3511 (  4964 PWs)   bands (ev):

   -34.8631   0.5770   3.9898   4.7938   8.3506  14.8775  17.8467  17.8512
    19.4533  19.7059

          k = 0.0000-0.6421 0.0000 (  4966 PWs)   bands (ev):

   -34.8599   1.4842   2.1525   8.2085   8.8147  10.6702  12.9014  17.8895
    19.0432  21.9678

          k = 0.0000-0.6421 0.1170 (  4976 PWs)   bands (ev):

   -34.8598   1.6206   2.1474   7.5694   8.0373  12.2036  13.3780  18.0173
    19.1332  21.7960

          k = 0.0000-0.6421 0.2340 (  4976 PWs)   bands (ev):

   -34.8597   2.0021   2.1357   6.0352   7.7202  14.5286  14.5943  18.3767
    19.3652  21.2774

          k = 0.0000-0.6421 0.3511 (  4970 PWs)   bands (ev):

   -34.8596   2.1261   2.4652   4.9720   7.5106  15.6936  16.9959  18.8196
    19.5952  20.5185

          k = 0.1284 0.1284 0.0000 (  4955 PWs)   bands (ev):

   -34.8898  -2.4514   4.6633   7.3335  12.0277  12.4051  18.2682  18.8998
    18.9266  20.8469

          k = 0.1284 0.1284 0.1170 (  4969 PWs)   bands (ev):

   -34.8897  -2.3973   3.9791   8.3253  12.0558  12.5471  17.5265  17.8644
    19.5082  20.3822

          k = 0.1284 0.1284 0.2340 (  4974 PWs)   bands (ev):

   -34.8895  -2.2645   3.0167  10.1593  12.1482  12.9559  16.3357  16.8151
    19.1294  20.0753

          k = 0.1284 0.1284 0.3511 (  4983 PWs)   bands (ev):

   -34.8893  -2.1440   2.4365  11.6358  12.5241  13.5107  15.3490  15.9306
    17.8991  19.8606

          k = 0.1284 0.2568 0.0000 (  4980 PWs)   bands (ev):

   -34.8807  -1.8896   5.2090   7.4877   9.5173  12.6822  16.2385  17.1387
    19.8707  20.6424

          k = 0.1284 0.2568 0.1170 (  4983 PWs)   bands (ev):

   -34.8806  -1.8313   4.4670   8.4664   9.6135  12.7543  15.3918  17.5814
    19.5641  20.8599

          k = 0.1284 0.2568 0.2340 (  4975 PWs)   bands (ev):

   -34.8804  -1.6873   3.4697   9.5448  10.4078  13.0174  14.4467  17.0264
    19.5455  20.8802

          k = 0.1284 0.2568 0.3511 (  4969 PWs)   bands (ev):

   -34.8802  -1.5552   2.8723   9.7500  11.5995  13.6250  13.9692  16.1916
    18.2685  21.1468

          k = 0.1284 0.3852 0.0000 (  4982 PWs)   bands (ev):

   -34.8694  -0.9592   5.8531   6.5370   8.6006  13.2819  13.9044  15.5048
    19.8524  21.3744

          k = 0.1284 0.3852 0.1170 (  4975 PWs)   bands (ev):

   -34.8693  -0.8939   5.1173   6.7743   9.2639  12.8200  14.0457  16.2287
    19.4967  21.2056

          k = 0.1284 0.3852 0.2340 (  4981 PWs)   bands (ev):

   -34.8691  -0.7313   4.1549   6.9686  10.0779  12.8793  14.2427  17.1384
    18.9496  21.0851

          k = 0.1284 0.3852 0.3511 (  4965 PWs)   bands (ev):

   -34.8690  -0.5800   3.5633   7.0976  10.1118  13.9813  14.5247  16.9151
    18.4118  21.1155

          k = 0.1284 0.5137 0.0000 (  4986 PWs)   bands (ev):

   -34.8602   0.3256   4.0016   7.3940   8.9862  11.8482  13.1745  15.3380
    18.3338  22.1567

          k = 0.1284 0.5137 0.1170 (  4985 PWs)   bands (ev):

   -34.8601   0.4018   4.0212   6.6926   9.1145  12.0848  14.0677  15.4444
    18.3864  21.2706

          k = 0.1284 0.5137 0.2340 (  4973 PWs)   bands (ev):

   -34.8600   0.5921   4.0798   5.6669   8.7794  13.3968  15.2809  16.1247
    18.4190  20.2658

          k = 0.1284 0.5137 0.3511 (  4972 PWs)   bands (ev):

   -34.8598   0.7703   4.1721   4.9697   8.4603  14.8608  15.7160  17.4627
    18.0326  20.0093

          k = 0.1284-0.6421 0.0000 (  4972 PWs)   bands (ev):

   -34.8567   1.6790   2.3303   8.3685   8.9812  10.8558  12.7419  16.4662
    16.7736  22.6343

          k = 0.1284-0.6421 0.1170 (  4986 PWs)   bands (ev):

   -34.8566   1.8152   2.3274   7.7491   8.1774  12.3659  13.2432  16.5076
    16.8805  21.9909

          k = 0.1284-0.6421 0.2340 (  4976 PWs)   bands (ev):

   -34.8565   2.1962   2.3206   6.2215   7.8313  14.4424  14.7028  16.6282
    17.1636  20.7691

          k = 0.1284-0.6421 0.3511 (  4986 PWs)   bands (ev):

   -34.8564   2.3150   2.6584   5.1613   7.6063  15.6266  16.8803  16.9099
    17.4653  19.5042

          k = 0.2568 0.2568 0.0000 (  4993 PWs)   bands (ev):

   -34.8717  -1.3279   5.7504   7.7718   9.8727  10.0325  15.7820  16.6383
    18.5645  19.9396

          k = 0.2568 0.2568 0.1170 (  4985 PWs)   bands (ev):

   -34.8717  -1.2657   4.9594   8.7706   9.8611  10.2288  15.3075  15.9193
    19.3278  20.4806

          k = 0.2568 0.2568 0.2340 (  4975 PWs)   bands (ev):

   -34.8715  -1.1114   3.9339   9.6740  10.3162  10.9875  14.1209  15.4010
    19.3774  21.8474

          k = 0.2568 0.2568 0.3511 (  4971 PWs)   bands (ev):

   -34.8713  -0.9685   3.3216   9.6800  11.1189  11.7795  13.6601  15.0474
    18.3542  21.7762

          k = 0.2568 0.3852 0.0000 (  4980 PWs)   bands (ev):

   -34.8606  -0.3975   6.4006   7.0555   8.9050  10.6484  14.1732  15.2959
    17.6023  19.4075

          k = 0.2568 0.3852 0.1170 (  4977 PWs)   bands (ev):

   -34.8606  -0.3290   5.6331   7.2786   9.6046  10.7333  13.6502  15.5308
    17.7100  19.3095

          k = 0.2568 0.3852 0.2340 (  4958 PWs)   bands (ev):

   -34.8604  -0.1578   4.6445   7.4611  10.2325  11.4095  13.1537  15.4790
    17.9060  19.9474

          k = 0.2568 0.3852 0.3511 (  4969 PWs)   bands (ev):

   -34.8603   0.0032   4.0376   7.5807  10.3279  11.6903  13.6374  15.4965
    17.8671  19.4783

          k = 0.2568 0.5137 0.0000 (  4977 PWs)   bands (ev):

   -34.8516   0.8883   4.5529   7.8957   9.3897  11.5265  12.3283  14.1080
    15.7830  20.0508

          k = 0.2568 0.5137 0.1170 (  4969 PWs)   bands (ev):

   -34.8516   0.9665   4.5773   7.1672   9.5313  11.6758  12.7607  14.5925
    15.8180  19.2622

          k = 0.2568 0.5137 0.2340 (  4969 PWs)   bands (ev):

   -34.8515   1.1625   4.6400   6.1509   9.1167  12.5017  13.4756  15.5089
    16.0275  18.7847

          k = 0.2568 0.5137 0.3511 (  4971 PWs)   bands (ev):

   -34.8514   1.3477   4.7124   5.4894   8.7667  12.8122  14.4420  15.8766
    16.6052  18.2118

          k = 0.2568-0.6421 0.0000 (  4968 PWs)   bands (ev):

   -34.8482   2.2617   2.8614   8.8262   9.4510  11.4018  12.0228  13.8592
    14.6017  21.0212

          k = 0.2568-0.6421 0.1170 (  4968 PWs)   bands (ev):

   -34.8482   2.3973   2.8647   8.2753   8.5670  12.5613  12.7574  14.0392
    14.5528  20.3877

          k = 0.2568-0.6421 0.2340 (  4964 PWs)   bands (ev):

   -34.8480   2.7763   2.8720   6.7749   8.1396  13.6946  14.0813  14.5184
    15.1122  19.3322

          k = 0.2568-0.6421 0.3511 (  4980 PWs)   bands (ev):

   -34.8479   2.8775   3.2357   5.7263   7.8785  14.1380  14.5602  15.2240
    16.1132  18.3033

          k = 0.3852 0.3852 0.0000 (  4951 PWs)   bands (ev):

   -34.8498   0.5330   7.2410   7.4411   8.4821   9.5529  13.9869  14.8957
    15.2703  17.5800

          k = 0.3852 0.3852 0.1170 (  4958 PWs)   bands (ev):

   -34.8498   0.6065   6.3805   7.8391   8.4321  10.2715  13.4736  14.5090
    15.5086  18.4534

          k = 0.3852 0.3852 0.2340 (  4961 PWs)   bands (ev):

   -34.8497   0.7919   5.4051   7.9268   8.7239  11.1080  12.5676  14.7059
    15.7265  19.1428

          k = 0.3852 0.3852 0.3511 (  4970 PWs)   bands (ev):

   -34.8496   0.9684   4.7977   7.8699   9.3827  10.5207  12.6332  15.4041
    16.2128  17.8891

          k = 0.3852 0.5137 0.0000 (  4958 PWs)   bands (ev):

   -34.8411   1.8200   5.4606   8.4376   9.3995   9.9558  12.9002  13.1202
    14.1020  17.7011

          k = 0.3852 0.5137 0.1170 (  4954 PWs)   bands (ev):

   -34.8410   1.9011   5.4891   7.8345   9.1817  10.5454  12.4375  13.6229
    14.2537  17.6947

          k = 0.3852 0.5137 0.2340 (  4963 PWs)   bands (ev):

   -34.8409   2.1059   5.5483   6.9052   9.0811  10.6250  12.7009  13.6035
    14.7988  17.9961

          k = 0.3852 0.5137 0.3511 (  4984 PWs)   bands (ev):

   -34.8409   2.3017   5.5844   6.3067   9.1043  10.3101  12.8875  13.8184
    15.2358  17.7608

          k = 0.3852-0.6421 0.0000 (  4964 PWs)   bands (ev):

   -34.8377   3.2272   3.7385   9.3713   9.8470  10.5803  11.5419  12.3209
    13.6176  19.1146

          k = 0.3852-0.6421 0.1170 (  4958 PWs)   bands (ev):

   -34.8377   3.3614   3.7508   8.9795   9.0314  11.0838  11.2473  13.5083
    13.6418  17.6895

          k = 0.3852-0.6421 0.2340 (  4960 PWs)   bands (ev):

   -34.8376   3.7361   3.7775   7.6613   8.5064  11.4932  11.6151  13.5838
    14.5314  17.7749

          k = 0.3852-0.6421 0.3511 (  4976 PWs)   bands (ev):

   -34.8375   3.7980   4.1888   6.6513   8.2612  11.6566  11.8911  14.0510
    14.0652  18.4359

          k = 0.5137 0.5137 0.0000 (  4949 PWs)   bands (ev):

   -34.8325   3.1086   6.5872   6.8394   9.7254   9.9594  12.0253  12.9091
    13.9039  16.3149

          k = 0.5137 0.5137 0.1170 (  4965 PWs)   bands (ev):

   -34.8325   3.1936   6.5396   6.9851   8.9446  10.5592  11.6397  12.4909
    14.0345  16.7641

          k = 0.5137 0.5137 0.2340 (  4962 PWs)   bands (ev):

   -34.8324   3.4079   6.4818   7.2871   8.1499  10.4418  11.2619  12.1365
    13.8607  17.8523

          k = 0.5137 0.5137 0.3511 (  4977 PWs)   bands (ev):

   -34.8323   3.6117   6.5769   6.9780   8.3626   9.4817  11.4064  11.9467
    13.8047  18.4768

          k = 0.5137-0.6421 0.0000 (  4960 PWs)   bands (ev):

   -34.8293   4.5636   4.9477   8.2043   8.2799  10.7249  11.8250  12.9933
    13.3409  16.5037

          k = 0.5137-0.6421 0.1170 (  4964 PWs)   bands (ev):

   -34.8292   4.6944   4.9666   8.1545   8.3576  10.7740  10.8036  12.6575
    13.6432  16.5944

          k = 0.5137-0.6421 0.2340 (  4974 PWs)   bands (ev):

   -34.8291   5.0003   5.0576   8.1756   8.3650   9.6823  10.4498  12.6109
    12.7629  18.4540

          k = 0.5137-0.6421 0.3511 (  4982 PWs)   bands (ev):

   -34.8291   5.0174   5.4903   7.8289   8.3929   9.6337   9.7653  11.8764
    12.9656  19.1950

          k =-0.6421-0.6421 0.0000 (  4996 PWs)   bands (ev):

   -34.8260   6.0597   6.4336   6.4904   6.4904  11.2872  12.5585  12.5585
    13.7663  17.1121

          k =-0.6421-0.6421 0.1170 (  4948 PWs)   bands (ev):

   -34.8260   6.1661   6.3349   6.6378   6.6378  11.5240  11.8295  11.8295
    12.6125  18.1191

          k =-0.6421-0.6421 0.2340 (  4948 PWs)   bands (ev):

   -34.8259   6.1350   6.4467   7.0623   7.0623  10.5294  10.5294  11.2104
    12.0609  20.0574

          k =-0.6421-0.6421 0.3511 (  4956 PWs)   bands (ev):

   -34.8259   5.9919   6.7390   7.6389   7.6389   9.4411   9.4411  10.3313
    12.5079  19.7419

     the Fermi energy is    11.9417 ev

!    total energy              =     -30.93815235 Ry
     estimated scf accuracy    <          6.8E-09 Ry
     smearing contrib. (-TS)   =       0.00028053 Ry
     internal energy E=F+TS    =     -30.93843287 Ry

     The total energy is F=E-TS. E is the sum of the following terms:
     one-electron contribution =       3.45924349 Ry
     hartree contribution      =       3.48204184 Ry
     xc contribution           =     -10.12301076 Ry
     ewald contribution        =     -27.75670744 Ry

     convergence has been achieved in   8 iterations

     Forces acting on atoms (cartesian axes, Ry/au):

     atom    1 type  1   force =     0.00000000    0.00000000    0.20460312
     atom    2 type  1   force =     0.00000000    0.00000000   -0.20460312
     atom    3 type  2   force =     0.00000000    0.00000000    0.00000000
     The non-local contrib.  to forces
     atom    1 type  1   force =     0.00000000    0.00000000    0.26428998
     atom    2 type  1   force =     0.00000000    0.00000000   -0.26428998
     atom    3 type  2   force =     0.00000000    0.00000000    0.00000000
     The ionic contribution  to forces
     atom    1 type  1   force =    -0.00000000    0.00000000    0.49995113
     atom    2 type  1   force =     0.00000000   -0.00000000   -0.49995113
     atom    3 type  2   force =     0.00000000    0.00000000    0.00000000
     The local contribution  to forces
     atom    1 type  1   force =    -0.00000000    0.00000000   -0.54663649
     atom    2 type  1   force =     0.00000000   -0.00000000    0.54663649
     atom    3 type  2   force =     0.00000000    0.00000000    0.00000000
     The core correction contribution to forces
     atom    1 type  1   force =     0.00000000   -0.00000000   -0.01308553
     atom    2 type  1   force =    -0.00000000   -0.00000000    0.01308553
     atom    3 type  2   force =     0.00000000    0.00000000    0.00000000
     The Hubbard contrib.    to forces
     atom    1 type  1   force =     0.00000000    0.00000000    0.00000000
     atom    2 type  1   force =     0.00000000    0.00000000    0.00000000
     atom    3 type  2   force =     0.00000000    0.00000000    0.00000000
     The SCF correction term to forces
     atom    1 type  1   force =     0.00000000    0.00000000    0.00008403
     atom    2 type  1   force =    -0.00000000    0.00000000   -0.00008403
     atom    3 type  2   force =     0.00000000   -0.00000000    0.00000000

     Total force =     0.289353     Total SCF correction =     0.000119


     Computing stress (Cartesian axis) and pressure

          total   stress  (Ry/bohr**3)                   (kbar)     P=      686.19
   0.00362478   0.00000000   0.00000000          533.22        0.00        0.00
   0.00000000   0.00362478   0.00000000            0.00      533.22        0.00
   0.00000000   0.00000000   0.00674426            0.00        0.00      992.11

     Energy error            =      2.7E-01 Ry
     Gradient error          =      2.0E-01 Ry/Bohr
     Cell gradient error     =      4.9E+02 kbar

     number of scf cycles    =   3
     number of bfgs steps    =   2

     enthalpy           old  =     -29.9681790549 Ry
     enthalpy           new  =     -30.2359637692 Ry

     CASE: enthalpy          _new < enthalpy          _old

     new trust radius        =       0.1734867315 bohr
ibrav =      6
 celldm(1) =      4.92130550
 celldm(3) =      1.67155101
Input lattice vectors:
     0.75309405     0.00000000     0.00000000
     0.00000000     0.75309405     0.00000000
     0.00000000     0.00000000     1.25883512
New lattice vectors in INITIAL alat:
     0.75309405     0.00000000     0.00000000
     0.00000000     0.75309405     0.00000000
     0.00000000     0.00000000     1.25883512
New lattice vectors in NEW alat (for information only):
     1.00000000     0.00000000     0.00000000
     0.00000000     1.00000000     0.00000000
     0.00000000     0.00000000     1.67155101
Discrepancy in bohr =     0.000000    0.000000    0.000000
     new conv_thr            =       0.0000000100 Ry

     new unit-cell volume =    199.23270 a.u.^3 (    29.52324 Ang^3 )
     density =      3.54974 g/cm^3

CELL_PARAMETERS (alat=  6.53478208)
   0.753094049   0.000000000   0.000000000
   0.000000000   0.753094049   0.000000000
   0.000000000   0.000000000   1.258835117

ATOMIC_POSITIONS (crystal)
Si            0.0000000000        0.5000000000        0.3355375297
Si            0.5000000000        0.0000000000        0.6644624703
Li            0.5000000000        0.5000000000        0.0000000000



     Writing config-only to output data dir ./output/SiLi.save/
     NEW-OLD atomic charge density approx. for the potential
     extrapolated charge   10.59395, renormalised to   11.00000

     total cpu time spent up to now is       34.8 secs

     Self-consistent Calculation

     iteration #  1     ecut=    80.00 Ry     beta= 0.70
     Davidson diagonalization with overlap
     c_bands:  1 eigenvalues not converged
     c_bands:  1 eigenvalues not converged
     c_bands:  1 eigenvalues not converged
     c_bands:  1 eigenvalues not converged
     ethr =  1.00E-06,  avg # of iterations = 11.2

     total cpu time spent up to now is       37.1 secs

     total energy              =     -30.98010215 Ry
     estimated scf accuracy    <       0.00709335 Ry

     iteration #  2     ecut=    80.00 Ry     beta= 0.70
     Davidson diagonalization with overlap
     ethr =  6.45E-05,  avg # of iterations =  2.2

     total cpu time spent up to now is       37.9 secs

     total energy              =     -30.98283489 Ry
     estimated scf accuracy    <       0.00588472 Ry

     iteration #  3     ecut=    80.00 Ry     beta= 0.70
     Davidson diagonalization with overlap
     ethr =  5.35E-05,  avg # of iterations =  1.7

     total cpu time spent up to now is       38.6 secs

     total energy              =     -30.98393807 Ry
     estimated scf accuracy    <       0.00011632 Ry

     iteration #  4     ecut=    80.00 Ry     beta= 0.70
     Davidson diagonalization with overlap
     ethr =  1.06E-06,  avg # of iterations =  2.5

     total cpu time spent up to now is       39.4 secs

     total energy              =     -30.98395565 Ry
     estimated scf accuracy    <       0.00000382 Ry

     iteration #  5     ecut=    80.00 Ry     beta= 0.70
     Davidson diagonalization with overlap
     ethr =  3.47E-08,  avg # of iterations =  2.5

     total cpu time spent up to now is       40.1 secs

     total energy              =     -30.98395650 Ry
     estimated scf accuracy    <       0.00000015 Ry

     iteration #  6     ecut=    80.00 Ry     beta= 0.70
     Davidson diagonalization with overlap
     ethr =  1.39E-09,  avg # of iterations =  3.3

     total cpu time spent up to now is       40.9 secs

     End of self-consistent calculation

          k = 0.0000 0.0000 0.0000 (  4967 PWs)   bands (ev):

   -34.0011  -3.3300   4.0200   7.5786  15.2340  15.2340  16.3230  19.1986
    22.5503  22.5503

          k = 0.0000 0.0000 0.1135 (  4975 PWs)   bands (ev):

   -34.0010  -3.3063   3.6245   8.2743  15.3223  15.3223  16.2441  19.0335
    21.2182  21.2182

          k = 0.0000 0.0000 0.2270 (  4996 PWs)   bands (ev):

   -34.0008  -3.2509   2.9796   9.7635  15.5524  15.5524  16.0857  18.1325
    19.9522  19.9522

          k = 0.0000 0.0000 0.3405 (  4980 PWs)   bands (ev):

   -34.0006  -3.2041   2.5785  11.1927  15.7860  15.7860  16.0211  16.6596
    19.1931  19.1931

          k = 0.0000 0.1328 0.0000 (  4973 PWs)   bands (ev):

   -33.9965  -3.1254   4.2234   7.6813  12.5850  15.4163  17.6350  19.6949
    20.5328  21.7585

          k = 0.0000 0.1328 0.1135 (  4969 PWs)   bands (ev):

   -33.9964  -3.1006   3.8139   8.3903  12.6190  15.5044  17.5034  19.2035
    20.3073  21.3895

          k = 0.0000 0.1328 0.2270 (  4972 PWs)   bands (ev):

   -33.9962  -3.0425   3.1537   9.8907  12.7155  15.7342  17.1388  18.2085
    19.5159  20.1308

          k = 0.0000 0.1328 0.3405 (  4981 PWs)   bands (ev):

   -33.9961  -2.9933   2.7451  11.2876  12.8996  15.9671  16.1733  17.6798
    18.7379  19.3745

          k = 0.0000 0.2656 0.0000 (  4987 PWs)   bands (ev):

   -33.9846  -2.5133   4.8287   7.8736   9.6182  15.9627  16.8764  17.5053
    19.7052  23.0597

          k = 0.0000 0.2656 0.1135 (  4988 PWs)   bands (ev):

   -33.9845  -2.4852   4.3729   8.6019   9.6513  16.0097  16.0505  18.3504
    19.7841  21.8820

          k = 0.0000 0.2656 0.2270 (  4971 PWs)   bands (ev):

   -33.9843  -2.4192   3.6683   9.5908  10.2183  15.1402  16.2790  18.3697
    20.3277  20.6550

          k = 0.0000 0.2656 0.3405 (  4969 PWs)   bands (ev):

   -33.9842  -2.3629   3.2397   9.6727  11.6003  14.5392  16.5104  17.5253
    19.9103  20.0284

          k = 0.0000 0.3984 0.0000 (  4975 PWs)   bands (ev):

   -33.9697  -1.4985   5.8014   6.3615   8.8107  14.1905  15.8944  16.8705
    20.1869  23.1719

          k = 0.0000 0.3984 0.1135 (  4987 PWs)   bands (ev):

   -33.9697  -1.4651   5.2116   6.6171   9.3310  13.7123  16.7647  16.9578
    20.0921  22.5164

          k = 0.0000 0.3984 0.2270 (  4986 PWs)   bands (ev):

   -33.9695  -1.3861   4.4724   6.7618  10.3017  13.3986  17.1849  18.1492
    19.8562  21.4581

          k = 0.0000 0.3984 0.3405 (  4961 PWs)   bands (ev):

   -33.9694  -1.3184   4.0369   6.8103  10.8169  13.8059  17.4147  18.1029
    20.3848  20.7577

          k = 0.0000 0.5311 0.0000 (  4964 PWs)   bands (ev):

   -33.9577  -0.0908   3.8836   7.1527   9.2215  11.9503  14.3787  18.1269
    21.3883  21.6862

          k = 0.0000 0.5311 0.1135 (  4982 PWs)   bands (ev):

   -33.9577  -0.0497   3.9065   6.6624   9.3110  12.3383  14.9715  18.2144
    21.2944  21.7192

          k = 0.0000 0.5311 0.2270 (  4979 PWs)   bands (ev):

[...]

     total energy              =     -31.15685642 Ry
     estimated scf accuracy    <       0.00001107 Ry

     iteration #  5     ecut=    80.00 Ry     beta= 0.70
     Davidson diagonalization with overlap
     ethr =  1.01E-07,  avg # of iterations =  3.2

     total cpu time spent up to now is      137.7 secs

     total energy              =     -31.15686212 Ry
     estimated scf accuracy    <       0.00000053 Ry

     iteration #  6     ecut=    80.00 Ry     beta= 0.70
     Davidson diagonalization with overlap
     ethr =  4.80E-09,  avg # of iterations =  2.2

     total cpu time spent up to now is      138.1 secs

     total energy              =     -31.15686226 Ry
     estimated scf accuracy    <       0.00000004 Ry

     iteration #  7     ecut=    80.00 Ry     beta= 0.70
     Davidson diagonalization with overlap
     ethr =  3.47E-10,  avg # of iterations =  2.2

     total cpu time spent up to now is      138.5 secs

     total energy              =     -31.15686227 Ry
     estimated scf accuracy    <          6.7E-10 Ry

     iteration #  8     ecut=    80.00 Ry     beta= 0.70
     Davidson diagonalization with overlap
     ethr =  6.13E-12,  avg # of iterations =  3.5

     total cpu time spent up to now is      139.0 secs

     End of self-consistent calculation

          k = 0.0000 0.0000 0.0000 (  2605 PWs)   bands (ev):

   -34.7319  -4.6159   0.7141   5.0752  14.6247  17.1127  17.9921  18.5291
    18.5291  21.7953

          k = 0.0000 0.0000 0.0892 (  2602 PWs)   bands (ev):

   -34.7319  -4.6143   0.6613   5.2598  13.6991  17.4563  18.5527  18.5527
    18.7403  21.8819

          k = 0.0000 0.0000 0.1784 (  2586 PWs)   bands (ev):

   -34.7319  -4.6107   0.5510   5.7095  12.3527  17.4940  18.6083  18.6083
    20.5165  22.1580

          k = 0.0000 0.0000 0.2676 (  2570 PWs)   bands (ev):

   -34.7318  -4.6078   0.4694   6.1276  11.4624  17.4695  18.6561  18.6561
    21.6584  22.4794

          k = 0.0000 0.1448 0.0000 (  2587 PWs)   bands (ev):

   -34.7235  -4.3659   0.9633   5.2648  14.0906  15.1361  17.6422  18.7414
    19.3256  20.4305

          k = 0.0000 0.1448 0.0892 (  2586 PWs)   bands (ev):

   -34.7235  -4.3639   0.9067   5.4561  13.6159  14.7072  18.4219  18.7648
    19.5543  20.5098

          k = 0.0000 0.1448 0.1784 (  2585 PWs)   bands (ev):

   -34.7235  -4.3594   0.7890   5.9221  12.4297  14.5472  18.7587  18.8201
    20.2827  21.3269

          k = 0.0000 0.1448 0.2676 (  2585 PWs)   bands (ev):

   -34.7234  -4.3557   0.7022   6.3569  11.5585  14.5159  18.7538  18.8676
    20.3560  22.6927

          k = 0.0000 0.2897 0.0000 (  2585 PWs)   bands (ev):

   -34.7014  -3.6183   1.7075   5.8249  10.6259  15.3315  16.0938  17.3770
    19.3783  20.4865

          k = 0.0000 0.2897 0.0892 (  2589 PWs)   bands (ev):

   -34.7014  -3.6151   1.6392   6.0362  10.6210  14.5198  15.6326  18.6455
    19.4014  20.7836

          k = 0.0000 0.2897 0.1784 (  2588 PWs)   bands (ev):

   -34.7014  -3.6079   1.4990   6.5507  10.6063  13.0866  15.4975  19.4560
    20.1122  21.2127

          k = 0.0000 0.2897 0.2676 (  2586 PWs)   bands (ev):

   -34.7014  -3.6020   1.3970   7.0359  10.5843  12.1389  15.4286  19.5027
    20.9058  21.7269

          k = 0.0000 0.4345 0.0000 (  2579 PWs)   bands (ev):

   -34.6741  -2.3796   2.9350   6.6332   7.3272  12.5528  14.9965  17.2945
    19.9139  20.4407

          k = 0.0000 0.4345 0.0892 (  2570 PWs)   bands (ev):

   -34.6741  -2.3746   2.8459   6.8708   7.3295  12.4239  14.6423  17.2118
    20.4633  20.6523

          k = 0.0000 0.4345 0.1784 (  2580 PWs)   bands (ev):

   -34.6741  -2.3630   2.6678   7.2387   7.5535  11.9950  13.9487  17.5002
    20.5167  21.2610

          k = 0.0000 0.4345 0.2676 (  2581 PWs)   bands (ev):

   -34.6741  -2.3536   2.5415   7.2553   8.1325  11.4172  13.5660  17.9787
    20.5623  20.8646

          k = 0.0000 0.5793 0.0000 (  2589 PWs)   bands (ev):

   -34.6519  -0.6612   4.1303   4.6394   7.8087   9.7648  12.9091  18.7612
    20.2611  21.9275

          k = 0.0000 0.5793 0.0892 (  2571 PWs)   bands (ev):

   -34.6519  -0.6536   4.1112   4.5644   7.9186   9.8651  13.0111  17.7253
    20.6379  21.9497

          k = 0.0000 0.5793 0.1784 (  2571 PWs)   bands (ev):

   -34.6519  -0.6364   4.0749   4.4024   8.1563  10.1047  13.3048  16.3539
    19.9778  22.0019

          k = 0.0000 0.5793 0.2676 (  2587 PWs)   bands (ev):

   -34.6519  -0.6224   4.0578   4.2715   8.3392  10.3174  13.6873  15.3767
    19.3418  22.0466

          k = 0.0000-0.7241 0.0000 (  2600 PWs)   bands (ev):

   -34.6434   1.4789   1.5645   6.4796   6.9539   9.1684  11.7169  20.2725
    20.4854  21.5024

          k = 0.0000-0.7241 0.0892 (  2576 PWs)   bands (ev):

   -34.6434   1.5073   1.5555   6.5097   6.5823   9.7661  11.7277  18.7390
    19.8226  23.2151

          k = 0.0000-0.7241 0.1784 (  2568 PWs)   bands (ev):

   -34.6434   1.5355   1.5746   6.0160   6.5778  11.0122  11.7533  16.6859
    19.0883  23.8447

          k = 0.0000-0.7241 0.2676 (  2572 PWs)   bands (ev):

   -34.6434   1.5198   1.6328   5.6702   6.6327  11.7755  12.4017  14.9158
    18.6292  23.9097

          k = 0.1448 0.1448 0.0000 (  2585 PWs)   bands (ev):

   -34.7152  -4.1163   1.2120   5.4561  13.7952  14.6117  16.9054  17.7116
    18.6488  21.8752

          k = 0.1448 0.1448 0.0892 (  2585 PWs)   bands (ev):

   -34.7151  -4.1139   1.1517   5.6537  13.6004  14.1015  16.5866  18.2078
    19.3558  21.2584

          k = 0.1448 0.1448 0.1784 (  2586 PWs)   bands (ev):

   -34.7151  -4.1085   1.0267   6.1353  12.5415  13.8971  16.5258  18.3347
    20.1167  21.8046

          k = 0.1448 0.1448 0.2676 (  2575 PWs)   bands (ev):

   -34.7151  -4.1041   0.9350   6.5862  11.6770  13.8613  16.5623  18.3766
    19.8674  23.0237

          k = 0.1448 0.2897 0.0000 (  2582 PWs)   bands (ev):

   -34.6933  -3.3696   1.9546   6.0213  10.7739  15.0111  15.9331  17.0021
    17.6530  20.2754

          k = 0.1448 0.2897 0.0892 (  2583 PWs)   bands (ev):

   -34.6933  -3.3661   1.8829   6.2381  10.7689  14.4239  15.7095  16.5001
    18.8852  20.4688

          k = 0.1448 0.2897 0.1784 (  2577 PWs)   bands (ev):

   -34.6933  -3.3580   1.7360   6.7659  10.7569  13.1422  15.5526  16.4595
    19.5178  21.3589

          k = 0.1448 0.2897 0.2676 (  2588 PWs)   bands (ev):

   -34.6933  -3.3515   1.6295   7.2649  10.7457  12.2062  15.5054  16.4723
    19.5903  21.7062

          k = 0.1448 0.4345 0.0000 (  2581 PWs)   bands (ev):

   -34.6663  -2.1328   3.1794   6.8449   7.5337  12.7341  15.1084  16.6873
    18.2533  19.8515

          k = 0.1448 0.4345 0.0892 (  2586 PWs)   bands (ev):

   -34.6663  -2.1274   3.0872   7.0868   7.5361  12.6093  14.7644  16.7816
    17.9058  20.8372

          k = 0.1448 0.4345 0.1784 (  2584 PWs)   bands (ev):

   -34.6663  -2.1151   2.9036   7.4526   7.7717  12.1977  14.0611  17.1269
    17.8047  20.8626

          k = 0.1448 0.4345 0.2676 (  2585 PWs)   bands (ev):

   -34.6663  -2.1052   2.7737   7.4666   8.3625  11.6309  13.6629  17.2876
    18.2998  19.8620

          k = 0.1448 0.5793 0.0000 (  2572 PWs)   bands (ev):

   -34.6443  -0.4170   4.3624   4.8804   8.0276   9.9830  13.0793  18.0643
    19.5839  20.3789

          k = 0.1448 0.5793 0.0892 (  2574 PWs)   bands (ev):

   -34.6443  -0.4092   4.3443   4.8018   8.1431  10.0762  13.1959  17.5678
    18.8975  21.0391

          k = 0.1448 0.5793 0.1784 (  2583 PWs)   bands (ev):

   -34.6443  -0.3914   4.3086   4.6354   8.3858  10.3126  13.5092  16.4201
    18.6628  20.1255

          k = 0.1448 0.5793 0.2676 (  2585 PWs)   bands (ev):

   -34.6443  -0.3770   4.2891   4.5050   8.5650  10.5413  13.8606  15.5568
    18.5794  19.3902

          k = 0.1448-0.7241 0.0000 (  2566 PWs)   bands (ev):

   -34.6359   1.7208   1.8027   6.7111   7.1894   9.4093  11.8684  19.6686
    19.8161  21.2874

          k = 0.1448-0.7241 0.0892 (  2574 PWs)   bands (ev):

   -34.6359   1.7490   1.7941   6.7379   6.8208  10.0028  11.8916  18.7315
    19.3473  20.9432

          k = 0.1448-0.7241 0.1784 (  2582 PWs)   bands (ev):

   -34.6359   1.7751   1.8159   6.2576   6.7982  11.2419  11.9474  16.8353
    18.7213  20.8953

          k = 0.1448-0.7241 0.2676 (  2586 PWs)   bands (ev):

   -34.6359   1.7600   1.8737   5.9135   6.8468  11.9960  12.6230  15.1076
    18.2889  20.9074

          k = 0.2897 0.2897 0.0000 (  2569 PWs)   bands (ev):

   -34.6721  -2.6261   2.6925   6.6025  10.6042  12.8458  15.3632  16.9592
    17.8935  19.1008

          k = 0.2897 0.2897 0.0892 (  2573 PWs)   bands (ev):

   -34.6721  -2.6215   2.6099   6.8360  10.5964  12.8156  15.3772  15.7050
    17.8891  19.6694

          k = 0.2897 0.2897 0.1784 (  2581 PWs)   bands (ev):

   -34.6721  -2.6110   2.4430   7.4029  10.5912  12.5853  14.4016  15.5245
    17.2103  21.1221

          k = 0.2897 0.2897 0.2676 (  2580 PWs)   bands (ev):

   -34.6721  -2.6025   2.3234   7.9416  10.6246  12.0536  13.9392  15.6016
    16.8068  22.0895

          k = 0.2897 0.4345 0.0000 (  2569 PWs)   bands (ev):

   -34.6458  -1.3946   3.9085   7.4646   8.1105  13.0881  13.2568  15.9115
    18.3342  18.9025

          k = 0.2897 0.4345 0.0892 (  2580 PWs)   bands (ev):

   -34.6458  -1.3883   3.8070   7.7175   8.1131  12.9757  13.2907  15.6485
    17.5042  18.9685

          k = 0.2897 0.4345 0.1784 (  2579 PWs)   bands (ev):

   -34.6458  -1.3740   3.6071   8.0400   8.4162  12.6674  13.2539  15.0366
    16.9608  19.0760

          k = 0.2897 0.4345 0.2676 (  2575 PWs)   bands (ev):

   -34.6458  -1.3624   3.4668   8.0430   9.0450  12.1585  13.2247  14.6406
    16.8801  19.0712

          k = 0.2897 0.5793 0.0000 (  2572 PWs)   bands (ev):

   -34.6245   0.3127   5.0492   5.5964   8.6783  10.6107  13.4748  14.8791
    18.6980  19.8555

          k = 0.2897 0.5793 0.0892 (  2577 PWs)   bands (ev):

   -34.6245   0.3212   5.0339   5.5074   8.8097  10.6847  13.6350  14.8714
    18.0901  19.4729

          k = 0.2897 0.5793 0.1784 (  2573 PWs)   bands (ev):

   -34.6245   0.3404   5.0015   5.3263   9.0671  10.9154  13.9772  14.9194
    16.9909  18.5630

          k = 0.2897 0.5793 0.2676 (  2573 PWs)   bands (ev):

   -34.6245   0.3561   4.9786   5.1934   9.2358  11.1947  14.1146  15.1410
    16.4136  17.5887

          k = 0.2897-0.7241 0.0000 (  2574 PWs)   bands (ev):

   -34.6163   2.4422   2.5126   7.3968   7.8904  10.1206  12.2918  16.6334
    16.7759  20.9541

          k = 0.2897-0.7241 0.0892 (  2572 PWs)   bands (ev):

   -34.6163   2.4698   2.5052   7.4140   7.5312  10.6998  12.3529  16.6163
    16.7524  19.6447

          k = 0.2897-0.7241 0.1784 (  2580 PWs)   bands (ev):

   -34.6163   2.4886   2.5353   6.9784   7.4524  11.9118  12.5024  16.5208
    16.5893  18.0065

          k = 0.2897-0.7241 0.2676 (  2584 PWs)   bands (ev):

   -34.6163   2.4756   2.5917   6.6398   7.4830  12.6370  13.2571  15.5038
    16.5892  17.3697

          k = 0.4345 0.4345 0.0000 (  2561 PWs)   bands (ev):

   -34.6204  -0.1729   5.1083   8.1786   8.6635  10.6793  13.1752  16.0725
    16.8598  17.7441

          k = 0.4345 0.4345 0.0892 (  2565 PWs)   bands (ev):

   -34.6204  -0.1653   4.9912   8.2680   8.8355  10.7151  13.1876  15.4448
    16.8323  17.7992

          k = 0.4345 0.4345 0.1784 (  2571 PWs)   bands (ev):

   -34.6204  -0.1478   4.7651   8.3048   9.4361  10.7966  13.1132  14.8015
    15.6798  18.7412

          k = 0.4345 0.4345 0.2676 (  2574 PWs)   bands (ev):

   -34.6204  -0.1335   4.6092   8.2910  10.1166  10.8422  12.8159  14.5550
    14.9137  18.9865

          k = 0.4345 0.5793 0.0000 (  2566 PWs)   bands (ev):

   -34.5998   1.5181   6.1306   6.7621   9.7367  11.3638  11.5182  14.4118
    15.8319  17.2716

          k = 0.4345 0.5793 0.0892 (  2559 PWs)   bands (ev):

   -34.5998   1.5273   6.1201   6.6560   9.8886  11.3324  11.6703  14.4472
    15.8311  17.1107

          k = 0.4345 0.5793 0.1784 (  2565 PWs)   bands (ev):

   -34.5998   1.5486   6.1012   6.4409  10.1633  11.4560  11.8880  14.6149
    15.7551  16.5849

          k = 0.4345 0.5793 0.2676 (  2563 PWs)   bands (ev):

   -34.5998   1.5660   6.0983   6.2762  10.3207  11.5880  12.1481  14.9203
    15.3382  16.2068

          k = 0.4345-0.7241 0.0000 (  2568 PWs)   bands (ev):

   -34.5919   3.6253   3.6761   8.5029   9.0352  11.2232  12.6663  13.5340
    13.6458  18.8088

          k = 0.4345-0.7241 0.0892 (  2560 PWs)   bands (ev):

   -34.5919   3.6517   3.6699   8.5062   8.6936  11.7583  12.8119  13.5610
    13.6002  18.2727

          k = 0.4345-0.7241 0.1784 (  2560 PWs)   bands (ev):

   -34.5919   3.6561   3.7141   8.1624   8.5143  12.8291  13.2009  13.5040
    13.6539  17.2335

          k = 0.4345-0.7241 0.2676 (  2564 PWs)   bands (ev):

   -34.5919   3.6452   3.7678   7.8355   8.5212  13.4113  13.4965  13.6550
    14.1696  16.4002

          k = 0.5793 0.5793 0.0000 (  2559 PWs)   bands (ev):

   -34.5798   3.1763   6.9222   8.3107   9.2861  11.0772  11.8469  12.9867
    14.5473  15.6272

          k = 0.5793 0.5793 0.0892 (  2554 PWs)   bands (ev):

   -34.5798   3.1862   6.9158   8.1894   9.3246  11.1769  11.9773  12.9899
    14.1635  16.0973

          k = 0.5793 0.5793 0.1784 (  2560 PWs)   bands (ev):

   -34.5798   3.2087   6.9100   7.9341   9.4236  11.4054  12.1196  13.0242
    13.9287  16.1458

          k = 0.5793 0.5793 0.2676 (  2548 PWs)   bands (ev):

   -34.5798   3.2272   6.9176   7.7370   9.5164  11.6472  11.9659  13.0976
    14.3489  15.2650

          k = 0.5793-0.7241 0.0000 (  2544 PWs)   bands (ev):

   -34.5722   5.2017   5.2231   9.9109  10.4407  10.4472  10.5621  12.7536
    13.3849  16.3516

          k = 0.5793-0.7241 0.0892 (  2546 PWs)   bands (ev):

   -34.5722   5.2156   5.2251   9.8848  10.1901  10.5292  10.5865  13.0549
    13.3280  16.2231

          k = 0.5793-0.7241 0.1784 (  2542 PWs)   bands (ev):

   -34.5722   5.1987   5.2801   9.7469   9.8753  10.6538  10.6548  13.2948
    13.4765  16.3379

          k = 0.5793-0.7241 0.2676 (  2540 PWs)   bands (ev):

   -34.5722   5.1852   5.3270   9.4616   9.9018  10.6903  10.7127  13.3860
    13.6018  15.9837

          k =-0.7241-0.7241 0.0000 (  2548 PWs)   bands (ev):

   -34.5646   6.4631   6.4756   8.7795   8.7795  10.9292  11.8029  12.9519
    12.9519  16.0894

          k =-0.7241-0.7241 0.0892 (  2548 PWs)   bands (ev):

   -34.5646   6.4427   6.4909   8.8233   8.8233  11.0223  11.6542  12.6928
    12.6928  16.4553

          k =-0.7241-0.7241 0.1784 (  2544 PWs)   bands (ev):

   -34.5646   6.3983   6.5265   8.9319   8.9319  11.2430  11.3635  12.2080
    12.2080  17.3106

          k =-0.7241-0.7241 0.2676 (  2560 PWs)   bands (ev):

   -34.5646   6.3641   6.5560   9.0320   9.0320  11.1601  11.4350  11.8684
    11.8684  16.8968

     the Fermi energy is    11.6855 ev

!    total energy              =     -31.15686228 Ry
     estimated scf accuracy    <          7.3E-11 Ry
     smearing contrib. (-TS)   =      -0.00035657 Ry
     internal energy E=F+TS    =     -31.15650570 Ry

     The total energy is F=E-TS. E is the sum of the following terms:
     one-electron contribution =       3.50277679 Ry
     hartree contribution      =       3.28120428 Ry
     xc contribution           =     -10.14630757 Ry
     ewald contribution        =     -27.79417920 Ry

     convergence has been achieved in   8 iterations

     Forces acting on atoms (cartesian axes, Ry/au):

     atom    1 type  1   force =     0.00000000    0.00000000   -0.00009419
     atom    2 type  1   force =     0.00000000    0.00000000    0.00009419
     atom    3 type  2   force =     0.00000000    0.00000000    0.00000000
     The non-local contrib.  to forces
     atom    1 type  1   force =     0.00000000    0.00000000    0.08639442
     atom    2 type  1   force =     0.00000000    0.00000000   -0.08639442
     atom    3 type  2   force =     0.00000000    0.00000000    0.00000000
     The ionic contribution  to forces
     atom    1 type  1   force =     0.00000000   -0.00000000   -1.02468407
     atom    2 type  1   force =     0.00000000    0.00000000    1.02468407
     atom    3 type  2   force =    -0.00000000   -0.00000000    0.00000000
     The local contribution  to forces
     atom    1 type  1   force =     0.00000000    0.00000000    0.93948015
     atom    2 type  1   force =     0.00000000   -0.00000000   -0.93948015
     atom    3 type  2   force =    -0.00000000   -0.00000000    0.00000000
     The core correction contribution to forces
     atom    1 type  1   force =     0.00000000    0.00000000   -0.00129617
     atom    2 type  1   force =     0.00000000   -0.00000000    0.00129617
     atom    3 type  2   force =     0.00000000    0.00000000    0.00000000
     The Hubbard contrib.    to forces
     atom    1 type  1   force =     0.00000000    0.00000000    0.00000000
     atom    2 type  1   force =     0.00000000    0.00000000    0.00000000
     atom    3 type  2   force =     0.00000000    0.00000000    0.00000000
     The SCF correction term to forces
     atom    1 type  1   force =    -0.00000000   -0.00000000    0.00001149
     atom    2 type  1   force =     0.00000000    0.00000000   -0.00001149
     atom    3 type  2   force =     0.00000000   -0.00000000   -0.00000000

     Total force =     0.000133     Total SCF correction =     0.000016
     SCF correction compared to forces is large: reduce conv_thr to get better values


     Computing stress (Cartesian axis) and pressure

          total   stress  (Ry/bohr**3)                   (kbar)     P=      500.23
   0.00339923   0.00000000   0.00000000          500.04        0.00        0.00
   0.00000000   0.00339923   0.00000000            0.00      500.04        0.00
   0.00000000   0.00000000   0.00340297            0.00        0.00      500.59


     Writing all to output data dir ./output/SiLi.save/

     init_run     :      1.19s CPU      1.42s WALL (       2 calls)
     electrons    :    100.49s CPU    107.80s WALL (      17 calls)
     update_pot   :      5.80s CPU      5.86s WALL (      15 calls)
     forces       :      4.49s CPU      4.62s WALL (      17 calls)
     stress       :     18.76s CPU     19.57s WALL (      17 calls)

     Called by init_run:
     wfcinit      :      0.40s CPU      0.41s WALL (       2 calls)
     potinit      :      0.29s CPU      0.43s WALL (       2 calls)
     hinit0       :      0.46s CPU      0.51s WALL (       2 calls)

     Called by electrons:
     c_bands      :     87.63s CPU     93.80s WALL (     124 calls)
     sum_band     :     11.91s CPU     12.40s WALL (     124 calls)
     v_of_rho     :      0.94s CPU      1.48s WALL (     137 calls)
     mix_rho      :      0.07s CPU      0.12s WALL (     124 calls)

     Called by c_bands:
     init_us_2    :      3.29s CPU      3.51s WALL (   23856 calls)
     init_us_2:cp :      3.26s CPU      3.49s WALL (   23856 calls)
     cegterg      :     80.78s CPU     83.29s WALL (   10416 calls)

     Called by *egterg:
     cdiaghg      :      5.00s CPU      5.27s WALL (   43633 calls)
     h_psi        :     67.78s CPU     69.77s WALL (   45397 calls)
     g_psi        :      0.43s CPU      0.44s WALL (   34813 calls)

     Called by h_psi:
     h_psi:calbec :      4.22s CPU      4.37s WALL (   45397 calls)
     vloc_psi     :     60.24s CPU     61.93s WALL (   45397 calls)
     add_vuspsi   :      2.99s CPU      3.09s WALL (   45397 calls)

     General routines
     calbec       :      5.26s CPU      5.44s WALL (   52537 calls)
     fft          :      0.89s CPU      1.59s WALL (    1797 calls)
     ffts         :      0.04s CPU      0.08s WALL (     124 calls)
     fftw         :     60.72s CPU     62.39s WALL (  728466 calls)

     Parallel routines

     PWSCF        :   2m11.08s CPU   2m20.14s WALL


   This run was terminated on:  12:12:58  27Dec2024            

=------------------------------------------------------------------------------=
   JOB DONE.
=------------------------------------------------------------------------------=
