
     Program PWSCF v.7.2 starts on 28Dec2024 at 17:49:42 

     This program is part of the open-source Quantum ESPRESSO suite
     for quantum simulation of materials; please cite
         "P. Giannozzi et al., J. Phys.:Condens. Matter 21 395502 (2009);
         "P. Giannozzi et al., J. Phys.:Condens. Matter 29 465901 (2017);
         "P. Giannozzi et al., J. Chem. Phys. 152 154105 (2020);
          URL http://www.quantum-espresso.org", 
     in publications or presentations arising from this work. More details at
     http://www.quantum-espresso.org/quote

     Parallel version (MPI & OpenMP), running on       8 processor cores
     Number of MPI processes:                 8
     Threads/MPI process:                     1

     MPI processes distributed on     1 nodes
     481767 MiB available memory on the printing compute node when the environment starts

     Waiting for input...
     Reading input from standard input

     Current dimensions of program PWSCF are:
     Max number of different atomic species (ntypx) = 10
     Max number of k-points (npk) =  40000
     Max angular momentum in pseudopotentials (lmaxx) =  4

     R & G space division:  proc/nbgrp/npool/nimage =       8
     Subspace diagonalization in iterative solution of the eigenvalue problem:
     a serial algorithm will be used


     Parallelization info
     --------------------
     sticks:   dense  smooth     PW     G-vecs:    dense   smooth      PW
     Min         165     165     46                12413    12413    1858
     Max         166     166     47                12420    12420    1867
     Sum        1321    1321    373                99319    99319   14911

     Using Slab Decomposition



     bravais-lattice index     =            6
     lattice parameter (alat)  =       7.2307  a.u.
     unit-cell volume          =    1027.8947 (a.u.)^3
     number of atoms/cell      =            6
     number of atomic types    =            2
     number of electrons       =        20.00
     number of Kohn-Sham states=           14
     kinetic-energy cutoff     =      80.0000  Ry
     charge density cutoff     =     320.0000  Ry
     scf convergence threshold =      1.0E-08
     mixing beta               =       0.7000
     number of iterations used =            8  plain     mixing
     energy convergence thresh.=      1.0E-04
     force convergence thresh. =      1.0E-03
     press convergence thresh. =      1.0E+00
     Exchange-correlation= PBE
                           (   1   4   3   4   0   0   0)
     nstep                     =           50


     celldm(1)=   7.230686  celldm(2)=   0.000000  celldm(3)=   2.719005
     celldm(4)=   0.000000  celldm(5)=   0.000000  celldm(6)=   0.000000

     crystal axes: (cart. coord. in units of alat)
               a(1) = (   1.000000   0.000000   0.000000 )  
               a(2) = (   0.000000   1.000000   0.000000 )  
               a(3) = (   0.000000   0.000000   2.719005 )  

     reciprocal axes: (cart. coord. in units 2 pi/alat)
               b(1) = (  1.000000  0.000000  0.000000 )  
               b(2) = (  0.000000  1.000000  0.000000 )  
               b(3) = (  0.000000  0.000000  0.367782 )  


     PseudoPot. # 1 for Si read from file:
     ../pseudo/Si_ONCV_PBE_sr.upf
     MD5 check sum: e543d271109d17c80368dfa7c482276d
     Pseudo is Norm-conserving + core correction, Zval =  4.0
     Generated using ONCVPSP code by D. R. Hamann
     Using radial grid of 1510 points,  6 beta functions with: 
                l(1) =   0
                l(2) =   0
                l(3) =   1
                l(4) =   1
                l(5) =   2
                l(6) =   2

     PseudoPot. # 2 for Li read from file:
     ../pseudo/Li_ONCV_PBE_sr.upf
     MD5 check sum: 50ff420e78310ffa21704f3361e624a4
     Pseudo is Norm-conserving, Zval =  3.0
     Generated using ONCVPSP code by D. R. Hamann
     Using radial grid of 1944 points,  4 beta functions with: 
                l(1) =   0
                l(2) =   0
                l(3) =   1
                l(4) =   1

     atomic species   valence    mass     pseudopotential
        Si             4.00    28.08550     Si( 1.00)
        Li             3.00     6.94100     Li( 1.00)

     16 Sym. Ops., with inversion, found ( 8 have fractional translation)



   Cartesian axes

     site n.     atom                  positions (alat units)
         1           Si  tau(   1) = (   0.0000000   0.5000000   0.1718384  )
         2           Si  tau(   2) = (   0.5000000   0.0000000   2.5471669  )
         3           Li  tau(   3) = (   0.0000000   0.5000000   1.5423612  )
         4           Li  tau(   4) = (   0.5000000   0.0000000   1.1766441  )
         5           Li  tau(   5) = (   0.0000000   0.5000000   1.9396541  )
         6           Li  tau(   6) = (   0.5000000   0.0000000   0.7793512  )

     number of k points=    30  Marzari-Vanderbilt smearing, width (Ry)=  0.0200
                       cart. coord. in units 2pi/alat
        k(    1) = (   0.0000000   0.0000000   0.0000000), wk =   0.0082305
        k(    2) = (   0.0000000   0.0000000   0.1225939), wk =   0.0164609
        k(    3) = (   0.0000000   0.1111111   0.0000000), wk =   0.0329218
        k(    4) = (   0.0000000   0.1111111   0.1225939), wk =   0.0658436
        k(    5) = (   0.0000000   0.2222222   0.0000000), wk =   0.0329218
        k(    6) = (   0.0000000   0.2222222   0.1225939), wk =   0.0658436
        k(    7) = (   0.0000000   0.3333333   0.0000000), wk =   0.0329218
        k(    8) = (   0.0000000   0.3333333   0.1225939), wk =   0.0658436
        k(    9) = (   0.0000000   0.4444444   0.0000000), wk =   0.0329218
        k(   10) = (   0.0000000   0.4444444   0.1225939), wk =   0.0658436
        k(   11) = (   0.1111111   0.1111111   0.0000000), wk =   0.0329218
        k(   12) = (   0.1111111   0.1111111   0.1225939), wk =   0.0658436
        k(   13) = (   0.1111111   0.2222222   0.0000000), wk =   0.0658436
        k(   14) = (   0.1111111   0.2222222   0.1225939), wk =   0.1316872
        k(   15) = (   0.1111111   0.3333333   0.0000000), wk =   0.0658436
        k(   16) = (   0.1111111   0.3333333   0.1225939), wk =   0.1316872
        k(   17) = (   0.1111111   0.4444444   0.0000000), wk =   0.0658436
        k(   18) = (   0.1111111   0.4444444   0.1225939), wk =   0.1316872
        k(   19) = (   0.2222222   0.2222222   0.0000000), wk =   0.0329218
        k(   20) = (   0.2222222   0.2222222   0.1225939), wk =   0.0658436
        k(   21) = (   0.2222222   0.3333333   0.0000000), wk =   0.0658436
        k(   22) = (   0.2222222   0.3333333   0.1225939), wk =   0.1316872
        k(   23) = (   0.2222222   0.4444444   0.0000000), wk =   0.0658436
        k(   24) = (   0.2222222   0.4444444   0.1225939), wk =   0.1316872
        k(   25) = (   0.3333333   0.3333333   0.0000000), wk =   0.0329218
        k(   26) = (   0.3333333   0.3333333   0.1225939), wk =   0.0658436
        k(   27) = (   0.3333333   0.4444444   0.0000000), wk =   0.0658436
        k(   28) = (   0.3333333   0.4444444   0.1225939), wk =   0.1316872
        k(   29) = (   0.4444444   0.4444444   0.0000000), wk =   0.0329218
        k(   30) = (   0.4444444   0.4444444   0.1225939), wk =   0.0658436

     Dense  grid:    99319 G-vectors     FFT dimensions: (  48,  48, 120)

     Estimated max dynamical RAM per process >      32.67 MB

     Estimated total dynamical RAM >     261.34 MB

     Initial potential from superposition of free atoms

     starting charge      19.9805, renormalised to      20.0000
     Starting wfcs are   16 randomized atomic wfcs

     total cpu time spent up to now is        3.3 secs

     Self-consistent Calculation

     iteration #  1     ecut=    80.00 Ry     beta= 0.70
     Davidson diagonalization with overlap
     ethr =  1.00E-02,  avg # of iterations =  6.4

     Threshold (ethr) on eigenvalues was too large:
     Diagonalizing with lowered threshold

     Davidson diagonalization with overlap
     ethr =  6.51E-04,  avg # of iterations =  2.3

     total cpu time spent up to now is        6.1 secs

     total energy              =     -73.93846098 Ry
     estimated scf accuracy    <       0.14482646 Ry

     iteration #  2     ecut=    80.00 Ry     beta= 0.70
     Davidson diagonalization with overlap
     ethr =  7.24E-04,  avg # of iterations =  5.4

     total cpu time spent up to now is        7.7 secs

     total energy              =     -73.67462168 Ry
     estimated scf accuracy    <       4.58072620 Ry

     iteration #  3     ecut=    80.00 Ry     beta= 0.70
     Davidson diagonalization with overlap
     ethr =  7.24E-04,  avg # of iterations =  4.6

     total cpu time spent up to now is        9.1 secs

     total energy              =     -74.03119713 Ry
     estimated scf accuracy    <       0.01104160 Ry

     iteration #  4     ecut=    80.00 Ry     beta= 0.70
     Davidson diagonalization with overlap
     ethr =  5.52E-05,  avg # of iterations =  4.7

     total cpu time spent up to now is       10.4 secs

     total energy              =     -74.03354505 Ry
     estimated scf accuracy    <       0.00084238 Ry

     iteration #  5     ecut=    80.00 Ry     beta= 0.70
     Davidson diagonalization with overlap
     ethr =  4.21E-06,  avg # of iterations =  4.7

     total cpu time spent up to now is       11.6 secs

     total energy              =     -74.03363887 Ry
     estimated scf accuracy    <       0.00003910 Ry

     iteration #  6     ecut=    80.00 Ry     beta= 0.70
     Davidson diagonalization with overlap
     ethr =  1.95E-07,  avg # of iterations =  3.3

     total cpu time spent up to now is       12.8 secs

     total energy              =     -74.03364601 Ry
     estimated scf accuracy    <       0.00000303 Ry

     iteration #  7     ecut=    80.00 Ry     beta= 0.70
     Davidson diagonalization with overlap
     ethr =  1.52E-08,  avg # of iterations =  3.2

     total cpu time spent up to now is       14.0 secs

     total energy              =     -74.03364689 Ry
     estimated scf accuracy    <       0.00000011 Ry

     iteration #  8     ecut=    80.00 Ry     beta= 0.70
     Davidson diagonalization with overlap
     ethr =  5.72E-10,  avg # of iterations =  3.3

     total cpu time spent up to now is       15.3 secs

     total energy              =     -74.03364691 Ry
     estimated scf accuracy    <       0.00000003 Ry

     iteration #  9     ecut=    80.00 Ry     beta= 0.70
     Davidson diagonalization with overlap
     ethr =  1.50E-10,  avg # of iterations =  2.1

     total cpu time spent up to now is       16.3 secs

     End of self-consistent calculation

          k = 0.0000 0.0000 0.0000 ( 12419 PWs)   bands (ev):

   -48.0308 -48.0284 -46.8189 -46.8108  -7.5509  -3.4282  -1.2696   0.7669
     1.4466   1.6197   1.6197   2.2337   5.1267   5.1275

          k = 0.0000 0.0000 0.1226 ( 12424 PWs)   bands (ev):

   -48.0308 -48.0284 -46.8189 -46.8108  -7.5507  -3.4454  -1.0773   0.1696
     1.6210   1.6210   1.7037   2.6800   4.9120   4.9126

          k = 0.0000 0.1111 0.0000 ( 12439 PWs)   bands (ev):

   -48.0307 -48.0284 -46.8187 -46.8110  -7.4382  -3.4144  -1.1834   0.1783
     1.3393   1.5109   1.7250   2.9479   4.4128   4.4897

          k = 0.0000 0.1111 0.1226 ( 12441 PWs)   bands (ev):

   -48.0307 -48.0284 -46.8187 -46.8110  -7.4380  -3.4296  -1.0173   0.1275
     0.5612   1.7262   2.4539   2.9168   4.1925   4.9987

          k = 0.0000 0.2222 0.0000 ( 12437 PWs)   bands (ev):

   -48.0304 -48.0285 -46.8179 -46.8116  -7.1025  -3.5039  -0.9277  -0.7844
     1.4781   1.5959   2.0382   3.3201   3.3348   3.7267

          k = 0.0000 0.2222 0.1226 ( 12445 PWs)   bands (ev):

   -48.0304 -48.0285 -46.8179 -46.8116  -7.1023  -3.5120  -1.0394  -0.4241
     0.5453   2.0394   2.4270   3.0841   3.5445   4.0855

          k = 0.0000 0.3333 0.0000 ( 12422 PWs)   bands (ev):

   -48.0299 -48.0287 -46.8167 -46.8127  -6.5521  -4.0340  -1.0799  -0.5202
     1.1716   1.5419   2.5506   2.6500   2.9981   4.2495

          k = 0.0000 0.3333 0.1226 ( 12445 PWs)   bands (ev):

   -48.0299 -48.0287 -46.8167 -46.8127  -6.5519  -4.0354  -1.1854  -0.1724
     0.6386   1.8015   2.3555   2.5516   3.6896   3.9231

          k = 0.0000 0.4444 0.0000 ( 12402 PWs)   bands (ev):

   -48.0295 -48.0291 -46.8154 -46.8139  -5.8071  -4.9180  -0.6869  -0.1731
     0.5164   0.9651   2.9008   3.2411   3.3911   3.7707

          k = 0.0000 0.4444 0.1226 ( 12402 PWs)   bands (ev):

   -48.0295 -48.0291 -46.8154 -46.8139  -5.8069  -4.9180  -0.7746  -0.1008
     0.5609   1.2431   2.2321   2.9117   3.2418   4.0607

          k = 0.1111 0.1111 0.0000 ( 12427 PWs)   bands (ev):

   -48.0306 -48.0285 -46.8184 -46.8112  -7.3259  -3.3996  -1.0970   0.0323
     0.9705   1.5134   1.5738   3.7536   4.2025   4.2278

          k = 0.1111 0.1111 0.1226 ( 12435 PWs)   bands (ev):

   -48.0306 -48.0285 -46.8184 -46.8112  -7.3257  -3.4131  -0.9581   0.0897
     0.5802   0.9725   2.6133   3.6159   4.0165   4.3720

          k = 0.1111 0.2222 0.0000 ( 12429 PWs)   bands (ev):

   -48.0303 -48.0286 -46.8177 -46.8118  -6.9915  -3.4776  -0.8406  -0.6826
     0.9314   1.6516   1.7502   3.3086   3.3275   4.5123

          k = 0.1111 0.2222 0.1226 ( 12432 PWs)   bands (ev):

   -48.0303 -48.0286 -46.8177 -46.8118  -6.9913  -3.4850  -0.9551  -0.3236
     0.6083   1.0677   2.4563   3.1179   3.9497   4.4140

          k = 0.1111 0.3333 0.0000 ( 12405 PWs)   bands (ev):

   -48.0299 -48.0287 -46.8166 -46.8128  -6.4440  -3.9721  -0.9824  -0.4309
     1.2119   1.2724   1.9622   2.6440   3.0246   3.9151

          k = 0.1111 0.3333 0.1226 ( 12415 PWs)   bands (ev):

   -48.0299 -48.0287 -46.8166 -46.8128  -6.4438  -3.9735  -1.0879  -0.0944
     0.7079   1.5118   1.8705   2.3565   3.8406   3.9196

          k = 0.1111 0.4444 0.0000 ( 12403 PWs)   bands (ev):

   -48.0294 -48.0290 -46.8153 -46.8140  -5.7048  -4.8283  -0.6064  -0.0771
     0.5468   0.9933   2.2482   3.0102   3.0255   3.4225

          k = 0.1111 0.4444 0.1226 ( 12415 PWs)   bands (ev):

   -48.0294 -48.0290 -46.8153 -46.8140  -5.7046  -4.8282  -0.6922  -0.0140
     0.6000   1.2620   2.1688   2.3186   3.0095   3.3024

          k = 0.2222 0.2222 0.0000 ( 12421 PWs)   bands (ev):

   -48.0300 -48.0286 -46.8171 -46.8123  -6.6618  -3.4926  -0.5824  -0.4596
    -0.0877   1.6935   1.9921   2.9362   3.1022   3.6889

          k = 0.2222 0.2222 0.1226 ( 12401 PWs)   bands (ev):

   -48.0300 -48.0286 -46.8171 -46.8123  -6.6616  -3.4972  -0.7638  -0.0849
    -0.0106   0.9129   2.2716   2.7582   3.6936   4.2291

          k = 0.2222 0.3333 0.0000 ( 12402 PWs)   bands (ev):

   -48.0297 -48.0287 -46.8162 -46.8130  -6.1242  -3.8363  -0.7441  -0.1688
     0.2001   1.1915   2.0709   2.5983   2.7466   3.2442

          k = 0.2222 0.3333 0.1226 ( 12415 PWs)   bands (ev):

   -48.0297 -48.0287 -46.8162 -46.8130  -6.1240  -3.8375  -0.8264  -0.0760
     0.4469   1.0013   1.7422   2.2008   3.2518   3.8292

          k = 0.2222 0.4444 0.0000 ( 12405 PWs)   bands (ev):

   -48.0293 -48.0290 -46.8151 -46.8140  -5.4060  -4.5781  -0.4738   0.1558
     0.5291   0.7439   1.5007   1.9727   3.1179   3.4211

          k = 0.2222 0.4444 0.1226 ( 12411 PWs)   bands (ev):

   -48.0293 -48.0290 -46.8151 -46.8140  -5.4058  -4.5781  -0.5305   0.1583
     0.4958   1.0307   1.4502   2.0516   2.6087   3.2212

          k = 0.3333 0.3333 0.0000 ( 12416 PWs)   bands (ev):

   -48.0294 -48.0288 -46.8156 -46.8135  -5.6093  -3.8337  -0.9054   0.0536
     0.2459   0.6126   2.0182   2.4449   2.8015   2.8332

          k = 0.3333 0.3333 0.1226 ( 12395 PWs)   bands (ev):

   -48.0294 -48.0288 -46.8156 -46.8135  -5.6090  -3.8343  -0.9021  -0.1755
     0.5935   0.7595   1.7336   1.8423   3.1372   3.3864

          k = 0.3333 0.4444 0.0000 ( 12422 PWs)   bands (ev):

   -48.0291 -48.0289 -46.8148 -46.8141  -4.9435  -4.2531  -0.8824  -0.2607
     0.6630   0.7438   1.5628   1.7440   3.0326   3.2199

          k = 0.3333 0.4444 0.1226 ( 12409 PWs)   bands (ev):

   -48.0291 -48.0289 -46.8148 -46.8141  -4.9433  -4.2531  -0.8816  -0.2600
     0.4218   1.0563   1.4671   1.9564   2.8130   3.2692

          k = 0.4444 0.4444 0.0000 ( 12448 PWs)   bands (ev):

   -48.0290 -48.0289 -46.8146 -46.8143  -4.4188  -4.1091  -1.3326  -1.0426
     1.2141   1.2597   1.5483   1.9605   2.3874   2.8719

          k = 0.4444 0.4444 0.1226 ( 12450 PWs)   bands (ev):

   -48.0290 -48.0289 -46.8146 -46.8143  -4.4187  -4.1091  -1.3291  -1.0388
     0.9273   1.3731   1.6536   1.8964   2.9449   3.0615

     the Fermi energy is     1.5811 ev

!    total energy              =     -74.03364692 Ry
     estimated scf accuracy    <          4.5E-10 Ry
     smearing contrib. (-TS)   =      -0.00078307 Ry
     internal energy E=F+TS    =     -74.03286385 Ry

     The total energy is F=E-TS. E is the sum of the following terms:
     one-electron contribution =     -40.82109752 Ry
     hartree contribution      =      17.20348838 Ry
     xc contribution           =     -18.93346041 Ry
     ewald contribution        =     -31.48179430 Ry

     convergence has been achieved in   9 iterations

     Forces acting on atoms (cartesian axes, Ry/au):

     atom    1 type  1   force =     0.00000000    0.00000000   -0.03105527
     atom    2 type  1   force =     0.00000000    0.00000000    0.03105527
     atom    3 type  2   force =     0.00000000    0.00000000   -0.17037089
     atom    4 type  2   force =     0.00000000    0.00000000    0.17037089
     atom    5 type  2   force =     0.00000000    0.00000000    0.17382099
     atom    6 type  2   force =     0.00000000    0.00000000   -0.17382099
     The non-local contrib.  to forces
     atom    1 type  1   force =     0.00000000    0.00000000   -0.08739761
     atom    2 type  1   force =     0.00000000    0.00000000    0.08739761
     atom    3 type  2   force =     0.00000000    0.00000000    0.24687193
     atom    4 type  2   force =     0.00000000    0.00000000   -0.24687193
     atom    5 type  2   force =     0.00000000    0.00000000   -0.20046063
     atom    6 type  2   force =     0.00000000    0.00000000    0.20046063
     The ionic contribution  to forces
     atom    1 type  1   force =     0.00000000   -0.00000000    0.60866377
     atom    2 type  1   force =    -0.00000000    0.00000000   -0.60866377
     atom    3 type  2   force =    -0.00000000   -0.00000000   -1.46760358
     atom    4 type  2   force =     0.00000000   -0.00000000    1.46760358
     atom    5 type  2   force =    -0.00000000    0.00000000    1.55017030
     atom    6 type  2   force =    -0.00000000   -0.00000000   -1.55017030
     The local contribution  to forces
     atom    1 type  1   force =    -0.00000000    0.00000000   -0.55734691
     atom    2 type  1   force =    -0.00000000    0.00000000    0.55734691
     atom    3 type  2   force =    -0.00000000    0.00000000    1.05035677
     atom    4 type  2   force =     0.00000000    0.00000000   -1.05035677
     atom    5 type  2   force =    -0.00000000    0.00000000   -1.17590002
     atom    6 type  2   force =     0.00000000    0.00000000    1.17590002
     The core correction contribution to forces
     atom    1 type  1   force =     0.00000000    0.00000000    0.00502106
     atom    2 type  1   force =     0.00000000   -0.00000000   -0.00502106
     atom    3 type  2   force =     0.00000000    0.00000000    0.00000000
     atom    4 type  2   force =     0.00000000    0.00000000    0.00000000
     atom    5 type  2   force =     0.00000000    0.00000000    0.00000000
     atom    6 type  2   force =     0.00000000    0.00000000    0.00000000
     The Hubbard contrib.    to forces
     atom    1 type  1   force =     0.00000000    0.00000000    0.00000000
     atom    2 type  1   force =     0.00000000    0.00000000    0.00000000
     atom    3 type  2   force =     0.00000000    0.00000000    0.00000000
     atom    4 type  2   force =     0.00000000    0.00000000    0.00000000
     atom    5 type  2   force =     0.00000000    0.00000000    0.00000000
     atom    6 type  2   force =     0.00000000    0.00000000    0.00000000
     The SCF correction term to forces
     atom    1 type  1   force =    -0.00000000    0.00000000    0.00000442
     atom    2 type  1   force =    -0.00000000   -0.00000000   -0.00000442
     atom    3 type  2   force =     0.00000000   -0.00000000    0.00000399
     atom    4 type  2   force =    -0.00000000    0.00000000   -0.00000399
     atom    5 type  2   force =    -0.00000000   -0.00000000    0.00001134
     atom    6 type  2   force =    -0.00000000   -0.00000000   -0.00001134

     Total force =     0.347000     Total SCF correction =     0.000018


     Computing stress (Cartesian axis) and pressure

          total   stress  (Ry/bohr**3)                   (kbar)     P=      -45.06
  -0.00065099   0.00000000   0.00000000          -95.76        0.00        0.00
   0.00000000  -0.00065099   0.00000000            0.00      -95.76        0.00
   0.00000000   0.00000000   0.00038312            0.00        0.00       56.36


     BFGS Geometry Optimization
     Energy error            =      0.0E+00 Ry
     Gradient error          =      1.7E-01 Ry/Bohr
     Cell gradient error     =      6.0E+02 kbar

     number of scf cycles    =   1
     number of bfgs steps    =   0

     enthalpy           new  =     -70.5399038099 Ry

     new trust radius        =       0.5000000000 bohr
ibrav =      6
 celldm(1) =      6.66686022
 celldm(3) =      2.77772083
Input lattice vectors:
     0.92202315     0.00000000     0.00000000
     0.00000000     0.92202315     0.00000000
     0.00000000     0.00000000     2.56112290
New lattice vectors in INITIAL alat:
     0.92202315     0.00000000     0.00000000
     0.00000000     0.92202315     0.00000000
     0.00000000     0.00000000     2.56112290
New lattice vectors in NEW alat (for information only):
     1.00000000     0.00000000     0.00000000
     0.00000000     1.00000000     0.00000000
     0.00000000     0.00000000     2.77772083
Discrepancy in bohr =     0.000000    0.000000    0.000000
     new conv_thr            =       0.0000000100 Ry

     new unit-cell volume =    823.10008 a.u.^3 (   121.97085 Ang^3 )
     density =      1.14271 g/cm^3

CELL_PARAMETERS (alat=  7.23068638)
   0.922023149   0.000000000   0.000000000
   0.000000000   0.922023149   0.000000000
   0.000000000   0.000000000   2.561122903

ATOMIC_POSITIONS (crystal)
Si            0.0000000000        0.5000000000        0.0619824629
Si            0.5000000000        0.0000000000        0.9380175371
Li            0.0000000000        0.5000000000        0.5605780129
Li            0.5000000000        0.0000000000        0.4394219871
Li            0.0000000000        0.5000000000        0.7201781388
Li            0.5000000000        0.0000000000        0.2798218612



     Writing config-only to output data dir ./output/SiLi.save/
     NEW-OLD atomic charge density approx. for the potential
     extrapolated charge   15.02867, renormalised to   20.00000

     total cpu time spent up to now is       20.9 secs

     Self-consistent Calculation

     iteration #  1     ecut=    80.00 Ry     beta= 0.70
     Davidson diagonalization with overlap
     c_bands:  1 eigenvalues not converged
     c_bands:  2 eigenvalues not converged
     c_bands:  2 eigenvalues not converged
     c_bands:  1 eigenvalues not converged
     ethr =  1.00E-06,  avg # of iterations = 15.5

     total cpu time spent up to now is       24.9 secs

     total energy              =     -73.74226197 Ry
     estimated scf accuracy    <       0.39046830 Ry

     iteration #  2     ecut=    80.00 Ry     beta= 0.70
     Davidson diagonalization with overlap
     ethr =  1.95E-03,  avg # of iterations =  4.5

     total cpu time spent up to now is       26.5 secs

     total energy              =     -73.64938701 Ry
     estimated scf accuracy    <       5.71582112 Ry

     iteration #  3     ecut=    80.00 Ry     beta= 0.70
     Davidson diagonalization with overlap
     ethr =  1.95E-03,  avg # of iterations =  3.4

     total cpu time spent up to now is       27.7 secs

     total energy              =     -74.15306324 Ry
     estimated scf accuracy    <       0.24109759 Ry

     iteration #  4     ecut=    80.00 Ry     beta= 0.70
     Davidson diagonalization with overlap
     ethr =  1.21E-03,  avg # of iterations =  1.8

     total cpu time spent up to now is       28.7 secs

     total energy              =     -74.18516197 Ry
     estimated scf accuracy    <       0.07265131 Ry

     iteration #  5     ecut=    80.00 Ry     beta= 0.70
     Davidson diagonalization with overlap
     ethr =  3.63E-04,  avg # of iterations =  1.6

     total cpu time spent up to now is       29.6 secs

     total energy              =     -74.18639221 Ry
     estimated scf accuracy    <       0.00757742 Ry

     iteration #  6     ecut=    80.00 Ry     beta= 0.70
     Davidson diagonalization with overlap
     ethr =  3.79E-05,  avg # of iterations =  4.4

     total cpu time spent up to now is       30.9 secs

     total energy              =     -74.18767268 Ry
     estimated scf accuracy    <       0.00157979 Ry

     iteration #  7     ecut=    80.00 Ry     beta= 0.70
     Davidson diagonalization with overlap
     ethr =  7.90E-06,  avg # of iterations =  2.3

     total cpu time spent up to now is       31.9 secs

     total energy              =     -74.18788671 Ry
     estimated scf accuracy    <       0.00032929 Ry

     iteration #  8     ecut=    80.00 Ry     beta= 0.70
     Davidson diagonalization with overlap
     ethr =  1.65E-06,  avg # of iterations =  2.3

     total cpu time spent up to now is       33.0 secs

     total energy              =     -74.18791049 Ry
     estimated scf accuracy    <       0.00000288 Ry

     iteration #  9     ecut=    80.00 Ry     beta= 0.70
     Davidson diagonalization with overlap
     ethr =  1.44E-08,  avg # of iterations =  4.1

     total cpu time spent up to now is       34.2 secs

     total energy              =     -74.18791230 Ry
     estimated scf accuracy    <       0.00000064 Ry

     iteration # 10     ecut=    80.00 Ry     beta= 0.70
     Davidson diagonalization with overlap
     ethr =  3.21E-09,  avg # of iterations =  1.4

     total cpu time spent up to now is       35.1 secs

     total energy              =     -74.18791234 Ry
     estimated scf accuracy    <       0.00000003 Ry

     iteration # 11     ecut=    80.00 Ry     beta= 0.70
     Davidson diagonalization with overlap
     ethr =  1.52E-10,  avg # of iterations =  3.2

     total cpu time spent up to now is       36.3 secs

     End of self-consistent calculation

          k = 0.0000 0.0000 0.0000 ( 12419 PWs)   bands (ev):

   -46.1353 -46.1289 -45.0505 -45.0242  -7.5993  -2.5821  -0.4285   2.1475
     2.4650   2.7987   2.7987   3.9469   7.1777   7.1777

          k = 0.0000 0.0000 0.1302 ( 12424 PWs)   bands (ev):

   -46.1353 -46.1289 -45.0505 -45.0242  -7.5991  -2.6104  -0.1327   1.0776
     2.7999   2.7999   3.6219   3.9772   6.5758   6.8912

          k = 0.0000 0.1205 0.0000 ( 12439 PWs)   bands (ev):

   -46.1349 -46.1289 -45.0497 -45.0249  -7.4606  -2.5047  -0.3345   1.3515
     2.3429   2.5456   2.9261   4.7970   6.3124   6.3534

          k = 0.0000 0.1205 0.1302 ( 12441 PWs)   bands (ev):

   -46.1349 -46.1289 -45.0497 -45.0249  -7.4604  -2.5322  -0.0476   1.1224
     1.4691   2.9273   3.7912   4.7599   5.9665   6.6230

          k = 0.0000 0.2410 0.0000 ( 12437 PWs)   bands (ev):

   -46.1340 -46.1292 -45.0471 -45.0269  -7.0459  -2.4134  -0.1934  -0.0574
     2.5755   2.6863   3.3064   4.8852   4.9660   5.5890

          k = 0.0000 0.2410 0.1302 ( 12445 PWs)   bands (ev):

   -46.1340 -46.1292 -45.0471 -45.0269  -7.0457  -2.4329  -0.2830   0.3387
     1.4325   3.3075   3.8040   4.6248   5.4454   5.7049

          k = 0.0000 0.3615 0.0000 ( 12422 PWs)   bands (ev):

   -46.1328 -46.1296 -45.0434 -45.0302  -6.3610  -3.0273  -0.6587   0.3700
     2.3080   2.7104   3.9328   4.1229   4.3405   6.4161

          k = 0.0000 0.3615 0.1302 ( 12445 PWs)   bands (ev):

   -46.1328 -46.1296 -45.0434 -45.0302  -6.3608  -3.0299  -0.7258   0.7309
     1.5795   3.1341   3.7685   3.9337   5.3336   5.5411

          k = 0.0000 0.4820 0.0000 ( 12402 PWs)   bands (ev):

   -46.1315 -46.1304 -45.0389 -45.0343  -5.4191  -4.2567  -0.0784   0.6117
     1.6523   2.1369   4.3824   4.7885   4.8318   5.3740

          k = 0.0000 0.4820 0.1302 ( 12402 PWs)   bands (ev):

   -46.1315 -46.1304 -45.0389 -45.0343  -5.4188  -4.2566  -0.1486   0.6794
     1.6669   2.4404   3.6063   4.3992   4.7893   6.0592

          k = 0.1205 0.1205 0.0000 ( 12427 PWs)   bands (ev):

   -46.1346 -46.1290 -45.0488 -45.0255  -7.3220  -2.4274  -0.2398   1.2360
     1.8629   2.4824   2.6267   5.8874   5.9577   6.2496

          k = 0.1205 0.1205 0.1302 ( 12435 PWs)   bands (ev):

   -46.1346 -46.1290 -45.0488 -45.0255  -7.3218  -2.4541   0.0361   1.1378
     1.4651   1.8646   3.8734   5.7054   5.8059   6.2716

          k = 0.1205 0.2410 0.0000 ( 12429 PWs)   bands (ev):

   -46.1338 -46.1292 -45.0464 -45.0275  -6.9081  -2.3325  -0.0661   0.0396
     1.9774   2.7662   2.7689   4.8903   4.9372   6.3744

          k = 0.1205 0.2410 0.1302 ( 12432 PWs)   bands (ev):

   -46.1338 -46.1292 -45.0464 -45.0275  -6.9079  -2.3515  -0.1668   0.4429
     1.5223   2.0506   3.8718   4.5908   5.6207   6.4267

          k = 0.1205 0.3615 0.0000 ( 12405 PWs)   bands (ev):

   -46.1326 -46.1296 -45.0429 -45.0305  -6.2246  -2.9174  -0.5423   0.4725
     2.3845   2.4794   3.0491   4.0795   4.3934   5.7072

          k = 0.1205 0.3615 0.1302 ( 12415 PWs)   bands (ev):

   -46.1326 -46.1296 -45.0429 -45.0305  -6.2243  -2.9200  -0.6106   0.8299
     1.6783   2.6613   3.2091   3.7513   5.3886   5.6050

          k = 0.1205 0.4820 0.0000 ( 12403 PWs)   bands (ev):

   -46.1313 -46.1303 -45.0387 -45.0344  -5.2853  -4.1290   0.0305   0.7309
     1.7055   2.1841   3.5803   4.4376   4.5779   4.8865

          k = 0.1205 0.4820 0.1302 ( 12415 PWs)   bands (ev):

   -46.1313 -46.1303 -45.0387 -45.0344  -5.2851  -4.1289  -0.0414   0.7953
     1.7318   2.4951   3.5276   3.6319   4.4806   4.7658

          k = 0.2410 0.2410 0.0000 ( 12421 PWs)   bands (ev):

   -46.1330 -46.1293 -45.0445 -45.0290  -6.4964  -2.2029   0.2305   0.3252
     0.4923   2.9167   3.0799   4.3956   4.8447   5.0773

          k = 0.2410 0.2410 0.1302 ( 12401 PWs)   bands (ev):

   -46.1330 -46.1293 -45.0445 -45.0290  -6.4962  -2.2173   0.0740   0.4945
     0.7941   1.8453   3.8557   4.1546   5.2640   5.7350

          k = 0.2410 0.3615 0.0000 ( 12402 PWs)   bands (ev):

   -46.1320 -46.1295 -45.0415 -45.0314  -5.8176  -2.6306  -0.2567   0.7721
     0.9706   2.5010   3.2709   3.9293   4.1719   4.5483

          k = 0.2410 0.3615 0.1302 ( 12415 PWs)   bands (ev):

   -46.1320 -46.1295 -45.0415 -45.0314  -5.8174  -2.6333  -0.3141   0.8185
     1.2800   2.0437   3.1795   3.5299   4.6101   5.3451

          k = 0.2410 0.4820 0.0000 ( 12405 PWs)   bands (ev):

   -46.1309 -46.1301 -45.0381 -45.0346  -4.8882  -3.7564   0.2611   1.0506
     1.7297   1.7361   2.6277   3.1205   4.5369   4.8815

          k = 0.2410 0.4820 0.1302 ( 12411 PWs)   bands (ev):

   -46.1309 -46.1301 -45.0381 -45.0346  -4.8879  -3.7563   0.1996   1.0835
     1.5788   2.1424   2.5678   3.2454   3.8463   4.6626

          k = 0.3615 0.3615 0.0000 ( 12416 PWs)   bands (ev):

   -46.1312 -46.1296 -45.0395 -45.0329  -5.1494  -2.4802  -0.5200   0.6858
     1.2366   1.9035   3.2857   3.6412   4.0213   4.0938

          k = 0.3615 0.3615 0.1302 ( 12395 PWs)   bands (ev):

   -46.1312 -46.1296 -45.0395 -45.0329  -5.1491  -2.4820  -0.5175   0.5362
     1.6567   1.9160   2.8391   3.0494   4.5138   4.6881

          k = 0.3615 0.4820 0.0000 ( 12422 PWs)   bands (ev):

   -46.1304 -46.1299 -45.0372 -45.0349  -4.2453  -3.1987  -0.2796   0.7023
     1.4317   1.7665   2.7433   2.7800   4.3611   4.6759

          k = 0.3615 0.4820 0.1302 ( 12409 PWs)   bands (ev):

   -46.1304 -46.1299 -45.0372 -45.0349  -4.2449  -3.1986  -0.2805   0.6997
     1.2554   2.0322   2.5536   3.1185   4.0711   4.7161

          k = 0.4820 0.4820 0.0000 ( 12448 PWs)   bands (ev):

   -46.1300 -46.1298 -45.0363 -45.0355  -3.4250  -2.8329  -1.0409  -0.4655
     2.1726   2.3176   2.7211   3.1083   3.4786   4.1778

          k = 0.4820 0.4820 0.1302 ( 12450 PWs)   bands (ev):

   -46.1300 -46.1298 -45.0363 -45.0355  -3.4247  -2.8329  -1.0383  -0.4630
     1.8934   2.4867   2.7296   3.0315   4.1486   4.4110

     the Fermi energy is     2.7176 ev

!    total energy              =     -74.18791234 Ry
     estimated scf accuracy    <          3.8E-09 Ry
     smearing contrib. (-TS)   =      -0.00122365 Ry
     internal energy E=F+TS    =     -74.18668870 Ry

     The total energy is F=E-TS. E is the sum of the following terms:
     one-electron contribution =     -36.31228250 Ry
     hartree contribution      =      16.04718137 Ry
     xc contribution           =     -19.23144724 Ry
     ewald contribution        =     -34.69014032 Ry

     convergence has been achieved in  11 iterations

     Forces acting on atoms (cartesian axes, Ry/au):

     atom    1 type  1   force =     0.00000000    0.00000000   -0.02346905
     atom    2 type  1   force =     0.00000000    0.00000000    0.02346905
     atom    3 type  2   force =     0.00000000    0.00000000   -0.14096431
     atom    4 type  2   force =     0.00000000    0.00000000    0.14096431
     atom    5 type  2   force =     0.00000000    0.00000000    0.15406184
     atom    6 type  2   force =     0.00000000    0.00000000   -0.15406184
     The non-local contrib.  to forces
     atom    1 type  1   force =     0.00000000    0.00000000   -0.07365950
     atom    2 type  1   force =     0.00000000    0.00000000    0.07365950
     atom    3 type  2   force =     0.00000000    0.00000000    0.22820044
     atom    4 type  2   force =     0.00000000    0.00000000   -0.22820044
     atom    5 type  2   force =     0.00000000    0.00000000   -0.18137621
     atom    6 type  2   force =     0.00000000    0.00000000    0.18137621
     The ionic contribution  to forces
     atom    1 type  1   force =     0.00000000    0.00000000    0.77283185
     atom    2 type  1   force =     0.00000000    0.00000000   -0.77283185
     atom    3 type  2   force =     0.00000000    0.00000000   -1.19864599
     atom    4 type  2   force =    -0.00000000    0.00000000    1.19864599
     atom    5 type  2   force =    -0.00000000    0.00000000    1.21077628
     atom    6 type  2   force =    -0.00000000   -0.00000000   -1.21077628
     The local contribution  to forces
     atom    1 type  1   force =    -0.00000000   -0.00000000   -0.72638053
     atom    2 type  1   force =    -0.00000000    0.00000000    0.72638053
     atom    3 type  2   force =    -0.00000000    0.00000000    0.82951805
     atom    4 type  2   force =     0.00000000    0.00000000   -0.82951805
     atom    5 type  2   force =    -0.00000000    0.00000000   -0.87529799
     atom    6 type  2   force =     0.00000000    0.00000000    0.87529799
     The core correction contribution to forces
     atom    1 type  1   force =    -0.00000000   -0.00000000    0.00370734
     atom    2 type  1   force =    -0.00000000   -0.00000000   -0.00370734
     atom    3 type  2   force =     0.00000000    0.00000000    0.00000000
     atom    4 type  2   force =     0.00000000    0.00000000    0.00000000
     atom    5 type  2   force =     0.00000000    0.00000000    0.00000000
     atom    6 type  2   force =     0.00000000    0.00000000    0.00000000
     The Hubbard contrib.    to forces
     atom    1 type  1   force =     0.00000000    0.00000000    0.00000000
     atom    2 type  1   force =     0.00000000    0.00000000    0.00000000
     atom    3 type  2   force =     0.00000000    0.00000000    0.00000000
     atom    4 type  2   force =     0.00000000    0.00000000    0.00000000
     atom    5 type  2   force =     0.00000000    0.00000000    0.00000000
     atom    6 type  2   force =     0.00000000    0.00000000    0.00000000
     The SCF correction term to forces
     atom    1 type  1   force =     0.00000000    0.00000000    0.00003180
     atom    2 type  1   force =    -0.00000000   -0.00000000   -0.00003180
     atom    3 type  2   force =     0.00000000   -0.00000000   -0.00003680
     atom    4 type  2   force =     0.00000000   -0.00000000    0.00003680
     atom    5 type  2   force =     0.00000000    0.00000000   -0.00004025
     atom    6 type  2   force =     0.00000000    0.00000000    0.00004025

     Total force =     0.297176     Total SCF correction =     0.000089


     Computing stress (Cartesian axis) and pressure

          total   stress  (Ry/bohr**3)                   (kbar)     P=      -30.95
  -0.00058308   0.00000000   0.00000000          -85.77        0.00        0.00
   0.00000000  -0.00058308   0.00000000            0.00      -85.77        0.00
   0.00000000   0.00000000   0.00053492            0.00        0.00       78.69

     Energy error            =      8.5E-01 Ry
     Gradient error          =      1.5E-01 Ry/Bohr
     Cell gradient error     =      5.9E+02 kbar

     number of scf cycles    =   2
     number of bfgs steps    =   1

     enthalpy           old  =     -70.5399038099 Ry
     enthalpy           new  =     -71.3902520261 Ry

     CASE: enthalpy          _new < enthalpy          _old

     new trust radius        =       0.7278995414 bohr
ibrav =      6
 celldm(1) =      5.82112099
 celldm(3) =      2.90775032
Input lattice vectors:
     0.80505787     0.00000000     0.00000000
     0.00000000     0.80505787     0.00000000
     0.00000000     0.00000000     2.34090728
New lattice vectors in INITIAL alat:
     0.80505787     0.00000000     0.00000000
     0.00000000     0.80505787     0.00000000
     0.00000000     0.00000000     2.34090728
New lattice vectors in NEW alat (for information only):
     1.00000000     0.00000000     0.00000000
     0.00000000     1.00000000     0.00000000
     0.00000000     0.00000000     2.90775032
Discrepancy in bohr =     0.000000    0.000000    0.000000
     new conv_thr            =       0.0000000100 Ry

     new unit-cell volume =    573.55754 a.u.^3 (    84.99246 Ang^3 )
     density =      1.63988 g/cm^3

CELL_PARAMETERS (alat=  7.23068638)
   0.805057872   0.000000000   0.000000000
   0.000000000   0.805057872   0.000000000
   0.000000000   0.000000000   2.340907283

ATOMIC_POSITIONS (crystal)
Si            0.0000000000        0.5000000000        0.0605479640
Si            0.5000000000        0.0000000000        0.9394520360
Li            0.0000000000        0.5000000000        0.5516908020
Li            0.5000000000        0.0000000000        0.4483091980
Li            0.0000000000        0.5000000000        0.7300987453
Li            0.5000000000        0.0000000000        0.2699012547



     Writing config-only to output data dir ./output/SiLi.save/
     NEW-OLD atomic charge density approx. for the potential

     negative rho (up, down):  1.336E-03 0.000E+00
     extrapolated charge   11.30690, renormalised to   20.00000

     total cpu time spent up to now is       40.8 secs

     Self-consistent Calculation

     iteration #  1     ecut=    80.00 Ry     beta= 0.70
     Davidson diagonalization with overlap
     c_bands:  1 eigenvalues not converged
     c_bands:  2 eigenvalues not converged
     c_bands:  1 eigenvalues not converged
     ethr =  1.00E-06,  avg # of iterations = 15.5

     total cpu time spent up to now is       45.1 secs

     total energy              =     -72.69830747 Ry
     estimated scf accuracy    <       2.17792065 Ry

     iteration #  2     ecut=    80.00 Ry     beta= 0.70
     Davidson diagonalization with overlap
     ethr =  1.00E-02,  avg # of iterations =  6.1

     total cpu time spent up to now is       46.8 secs

     total energy              =     -71.49081134 Ry
     estimated scf accuracy    <      33.82156761 Ry

     iteration #  3     ecut=    80.00 Ry     beta= 0.70
     Davidson diagonalization with overlap
     ethr =  1.00E-02,  avg # of iterations =  4.1

     total cpu time spent up to now is       48.2 secs

     total energy              =     -74.17982103 Ry
     estimated scf accuracy    <       0.46593044 Ry

     iteration #  4     ecut=    80.00 Ry     beta= 0.70
     Davidson diagonalization with overlap
     ethr =  2.33E-03,  avg # of iterations =  2.8

     total cpu time spent up to now is       49.3 secs

     total energy              =     -74.25504519 Ry
     estimated scf accuracy    <       0.18584426 Ry

     iteration #  5     ecut=    80.00 Ry     beta= 0.70
     Davidson diagonalization with overlap
     ethr =  9.29E-04,  avg # of iterations =  2.2

     total cpu time spent up to now is       50.3 secs

     total energy              =     -74.27391846 Ry
     estimated scf accuracy    <       0.00253200 Ry

     iteration #  6     ecut=    80.00 Ry     beta= 0.70
     Davidson diagonalization with overlap
     ethr =  1.27E-05,  avg # of iterations =  7.5

     total cpu time spent up to now is       51.9 secs

     total energy              =     -74.27504212 Ry
     estimated scf accuracy    <       0.00031607 Ry

     iteration #  7     ecut=    80.00 Ry     beta= 0.70
     Davidson diagonalization with overlap
     ethr =  1.58E-06,  avg # of iterations =  2.5

     total cpu time spent up to now is       53.0 secs

     total energy              =     -74.27508781 Ry
     estimated scf accuracy    <       0.00001107 Ry

     iteration #  8     ecut=    80.00 Ry     beta= 0.70
     Davidson diagonalization with overlap
     ethr =  5.53E-08,  avg # of iterations =  2.4

     total cpu time spent up to now is       54.0 secs

     total energy              =     -74.27508961 Ry
     estimated scf accuracy    <       0.00000050 Ry

     iteration #  9     ecut=    80.00 Ry     beta= 0.70
     Davidson diagonalization with overlap
     ethr =  2.49E-09,  avg # of iterations =  2.6

     total cpu time spent up to now is       55.1 secs

     total energy              =     -74.27508971 Ry
     estimated scf accuracy    <       0.00000001 Ry

     iteration # 10     ecut=    80.00 Ry     beta= 0.70
     Davidson diagonalization with overlap
     ethr =  5.70E-11,  avg # of iterations =  3.9

     total cpu time spent up to now is       56.4 secs

     total energy              =     -74.27508972 Ry
     estimated scf accuracy    <       0.00000002 Ry

     iteration # 11     ecut=    80.00 Ry     beta= 0.70
     Davidson diagonalization with overlap
     ethr =  5.70E-11,  avg # of iterations =  2.0

     total cpu time spent up to now is       57.4 secs

     End of self-consistent calculation

          k = 0.0000 0.0000 0.0000 ( 12419 PWs)   bands (ev):

   -42.7609 -42.7268 -41.8728 -41.7500  -7.8265  -1.4561   1.4754   4.1698
     4.5457   5.3988   5.3988   8.3610   8.8273  11.0675

          k = 0.0000 0.0000 0.1424 ( 12424 PWs)   bands (ev):

   -42.7609 -42.7268 -41.8728 -41.7500  -7.8264  -1.4773   1.8493   2.9072
     5.3997   5.3997   5.8952   8.3621   8.6580   9.9451

          k = 0.0000 0.1380 0.0000 ( 12439 PWs)   bands (ev):

   -42.7590 -42.7269 -41.8687 -41.7533  -7.6404  -1.2974   1.5775   3.6080
     4.3207   4.6545   5.5656   8.7633   9.9461  10.1560

          k = 0.0000 0.1380 0.1424 ( 12441 PWs)   bands (ev):

   -42.7590 -42.7269 -41.8687 -41.7533  -7.6403  -1.3200   1.9558   3.0169
     3.6262   5.5665   6.0239   8.6996   9.5421   9.8235

          k = 0.0000 0.2760 0.0000 ( 12437 PWs)   bands (ev):

   -42.7538 -42.7276 -41.8570 -41.7629  -7.0836  -0.8658   1.1914   1.8719
     4.6589   4.8929   6.0653   7.8852   8.3542   9.3693

          k = 0.0000 0.2760 0.1424 ( 12445 PWs)   bands (ev):

   -42.7538 -42.7276 -41.8570 -41.7629  -7.0834  -0.8916   1.1909   2.2624
     3.3214   6.2784   7.6451   8.9116   9.2961  10.1782

          k = 0.0000 0.4140 0.0000 ( 12422 PWs)   bands (ev):

   -42.7466 -42.7296 -41.8395 -41.7780  -6.1603  -1.3860   0.2442   2.2781
     4.6392   4.9645   6.9018   7.1781   9.9827  10.2121

          k = 0.0000 0.4140 0.1424 ( 12445 PWs)   bands (ev):

   -42.7466 -42.7296 -41.8395 -41.7780  -6.1601  -1.3883   0.2105   2.6481
     3.6135   5.7136   6.6427   8.1047   8.8609  10.0600

          k = 0.0000 0.5521 0.0000 ( 12402 PWs)   bands (ev):

   -42.7394 -42.7335 -41.8187 -41.7973  -4.8790  -3.2575   1.2165   2.2369
     4.0424   4.5451   7.3446   7.5155   8.4863   8.7966

          k = 0.0000 0.5521 0.1424 ( 12402 PWs)   bands (ev):

   -42.7394 -42.7335 -41.8187 -41.7973  -4.8787  -3.2573   1.1729   2.2885
     3.9998   4.8601   6.4117   7.3561   8.8435   9.9560

          k = 0.1380 0.1380 0.0000 ( 12427 PWs)   bands (ev):

   -42.7572 -42.7270 -41.8648 -41.7563  -7.4545  -1.1379   1.6821   3.6845
     3.8790   4.4824   4.7654   9.5450  10.3657  11.3438

          k = 0.1380 0.1380 0.1424 ( 12435 PWs)   bands (ev):

   -42.7572 -42.7270 -41.8648 -41.7563  -7.4544  -1.1619   2.0649   3.1339
     3.6856   3.9158   6.1560   9.0991   9.7775  10.3393

          k = 0.1380 0.2760 0.0000 ( 12429 PWs)   bands (ev):

   -42.7521 -42.7276 -41.8537 -41.7652  -6.8981  -0.7018   1.3614   1.9843
     4.3121   4.8316   5.0130   7.9473   8.1483  10.3810

          k = 0.1380 0.2760 0.1424 ( 12432 PWs)   bands (ev):

   -42.7521 -42.7276 -41.8537 -41.7652  -6.8979  -0.7294   1.3608   2.3796
     3.4533   4.3241   6.4212   7.5639   8.8661  10.1178

          k = 0.1380 0.4140 0.0000 ( 12405 PWs)   bands (ev):

   -42.7453 -42.7293 -41.8372 -41.7793  -5.9756  -1.2045   0.4041   2.4092
     4.7637   5.1370   5.1782   6.9715   7.0817   9.5908

          k = 0.1380 0.4140 0.1424 ( 12415 PWs)   bands (ev):

   -42.7453 -42.7293 -41.8372 -41.7793  -5.9754  -1.2069   0.3678   2.7903
     3.7546   5.1767   5.8439   6.5879   8.1565   8.9152

          k = 0.1380 0.5521 0.0000 ( 12403 PWs)   bands (ev):

   -42.7385 -42.7329 -41.8175 -41.7974  -4.6953  -3.0750   1.3838   2.4075
     4.1287   4.6523   6.3759   7.3629   7.5933   7.8917

          k = 0.1380 0.5521 0.1424 ( 12415 PWs)   bands (ev):

   -42.7385 -42.7329 -41.8175 -41.7974  -4.6950  -3.0748   1.3360   2.4605
     4.1080   4.9899   6.3375   6.4189   7.4070   7.8859

          k = 0.2760 0.2760 0.0000 ( 12421 PWs)   bands (ev):

   -42.7477 -42.7278 -41.8444 -41.7722  -6.3431  -0.2451   1.6808   2.0980
     2.3098   5.2704   5.3060   7.3966   7.7124   8.7484

          k = 0.2760 0.2760 0.1424 ( 12401 PWs)   bands (ev):

   -42.7477 -42.7278 -41.8444 -41.7722  -6.3429  -0.2774   1.6822   2.0943
     2.7192   3.8211   6.7478   6.9681   8.5917   8.8659

          k = 0.2760 0.4140 0.0000 ( 12402 PWs)   bands (ev):

   -42.7419 -42.7289 -41.8305 -41.7833  -5.4229  -0.6617   0.8396   2.7821
     2.7860   5.1114   5.6597   6.7030   6.9921   7.3497

          k = 0.2760 0.4140 0.1424 ( 12415 PWs)   bands (ev):

   -42.7419 -42.7289 -41.8305 -41.7833  -5.4226  -0.6646   0.7972   2.7760
     3.1998   4.1763   6.0262   6.4072   7.4310   8.1874

          k = 0.2760 0.5521 0.0000 ( 12405 PWs)   bands (ev):

   -42.7361 -42.7315 -41.8142 -41.7978  -4.1456  -2.5289   1.8542   2.9048
     3.9502   4.3207   4.9822   5.5810   7.4156   7.6651

          k = 0.2760 0.5521 0.1424 ( 12411 PWs)   bands (ev):

   -42.7361 -42.7315 -41.8142 -41.7978  -4.1453  -2.5286   1.7940   2.9587
     3.9434   4.4279   5.2161   5.6531   6.3630   7.5216

          k = 0.4140 0.4140 0.0000 ( 12416 PWs)   bands (ev):

   -42.7374 -42.7289 -41.8208 -41.7900  -4.5063   0.1939   0.2918   1.9390
     3.3446   4.8304   5.9021   6.0411   6.2648   6.6807

          k = 0.4140 0.4140 0.1424 ( 12395 PWs)   bands (ev):

   -42.7374 -42.7289 -41.8208 -41.7900  -4.5060   0.1870   0.2933   1.8728
     3.7834   4.6395   5.2206   5.4851   7.1419   7.3113

          k = 0.4140 0.5521 0.0000 ( 12422 PWs)   bands (ev):

   -42.7331 -42.7302 -41.8098 -41.7990  -3.2342  -1.6237   1.4835   2.9541
     3.0406   3.8320   4.9217   5.1953   6.9817   7.6371

          k = 0.4140 0.5521 0.1424 ( 12409 PWs)   bands (ev):

   -42.7331 -42.7302 -41.8098 -41.7990  -3.2338  -1.6232   1.4790   2.8545
     3.0338   3.9843   4.8605   5.5773   6.4996   7.5989

          k = 0.5521 0.5521 0.0000 ( 12448 PWs)   bands (ev):

   -42.7308 -42.7297 -41.8052 -41.8015  -1.9694  -0.4095  -0.3247   1.2232
     4.0246   4.6107   5.1466   5.5313   5.5578   6.7887

          k = 0.5521 0.5521 0.1424 ( 12450 PWs)   bands (ev):

   -42.7308 -42.7297 -41.8052 -41.8015  -1.9688  -0.4079  -0.3247   1.2244
     3.8171   4.7351   5.0104   5.4531   6.4070   7.0150

     the Fermi energy is     5.1157 ev

!    total energy              =     -74.27508972 Ry
     estimated scf accuracy    <          1.7E-09 Ry
     smearing contrib. (-TS)   =      -0.00068514 Ry
     internal energy E=F+TS    =     -74.27440458 Ry

     The total energy is F=E-TS. E is the sum of the following terms:
     one-electron contribution =     -28.99199032 Ry
     hartree contribution      =      14.47282949 Ry
     xc contribution           =     -19.84805811 Ry
     ewald contribution        =     -39.90718563 Ry

     convergence has been achieved in  11 iterations

     Forces acting on atoms (cartesian axes, Ry/au):

     atom    1 type  1   force =     0.00000000    0.00000000    0.03595583
     atom    2 type  1   force =     0.00000000    0.00000000   -0.03595583
     atom    3 type  2   force =     0.00000000    0.00000000   -0.09149876
     atom    4 type  2   force =     0.00000000    0.00000000    0.09149876
     atom    5 type  2   force =     0.00000000    0.00000000    0.12283283
     atom    6 type  2   force =     0.00000000    0.00000000   -0.12283283
     The non-local contrib.  to forces
     atom    1 type  1   force =     0.00000000    0.00000000    0.00314176
     atom    2 type  1   force =     0.00000000    0.00000000   -0.00314176
     atom    3 type  2   force =     0.00000000    0.00000000    0.20352365
     atom    4 type  2   force =     0.00000000    0.00000000   -0.20352365
     atom    5 type  2   force =     0.00000000    0.00000000   -0.15884689
     atom    6 type  2   force =     0.00000000    0.00000000    0.15884689
     The ionic contribution  to forces
     atom    1 type  1   force =    -0.00000000   -0.00000000    1.13896335
     atom    2 type  1   force =     0.00000000   -0.00000000   -1.13896335
     atom    3 type  2   force =     0.00000000   -0.00000000   -0.82426915
     atom    4 type  2   force =    -0.00000000   -0.00000000    0.82426915
     atom    5 type  2   force =     0.00000000    0.00000000    0.65039703
     atom    6 type  2   force =    -0.00000000   -0.00000000   -0.65039703
     The local contribution  to forces
     atom    1 type  1   force =     0.00000000    0.00000000   -1.10322153
     atom    2 type  1   force =     0.00000000   -0.00000000    1.10322153
     atom    3 type  2   force =    -0.00000000    0.00000000    0.52923146
     atom    4 type  2   force =     0.00000000    0.00000000   -0.52923146
     atom    5 type  2   force =    -0.00000000    0.00000000   -0.36875463
     atom    6 type  2   force =     0.00000000    0.00000000    0.36875463
     The core correction contribution to forces
     atom    1 type  1   force =     0.00000000    0.00000000   -0.00290185
     atom    2 type  1   force =     0.00000000    0.00000000    0.00290185
     atom    3 type  2   force =     0.00000000    0.00000000    0.00000000
     atom    4 type  2   force =     0.00000000    0.00000000    0.00000000
     atom    5 type  2   force =     0.00000000    0.00000000    0.00000000
     atom    6 type  2   force =     0.00000000    0.00000000    0.00000000
     The Hubbard contrib.    to forces
     atom    1 type  1   force =     0.00000000    0.00000000    0.00000000
     atom    2 type  1   force =     0.00000000    0.00000000    0.00000000
     atom    3 type  2   force =     0.00000000    0.00000000    0.00000000
     atom    4 type  2   force =     0.00000000    0.00000000    0.00000000
     atom    5 type  2   force =     0.00000000    0.00000000    0.00000000
     atom    6 type  2   force =     0.00000000    0.00000000    0.00000000
     The SCF correction term to forces
     atom    1 type  1   force =     0.00000000    0.00000000   -0.00002590
     atom    2 type  1   force =    -0.00000000   -0.00000000    0.00002590
     atom    3 type  2   force =    -0.00000000    0.00000000    0.00001529
     atom    4 type  2   force =     0.00000000    0.00000000   -0.00001529
     atom    5 type  2   force =    -0.00000000    0.00000000    0.00003732
     atom    6 type  2   force =     0.00000000    0.00000000   -0.00003732

     Total force =     0.222498     Total SCF correction =     0.000068


     Computing stress (Cartesian axis) and pressure

          total   stress  (Ry/bohr**3)                   (kbar)     P=       96.30
   0.00030494   0.00000000   0.00000000           44.86        0.00        0.00
   0.00000000   0.00030494   0.00000000            0.00       44.86        0.00
   0.00000000   0.00000000   0.00135403            0.00        0.00      199.18

     Energy error            =      9.4E-01 Ry
     Gradient error          =      1.2E-01 Ry/Bohr
     Cell gradient error     =      4.6E+02 kbar

     number of scf cycles    =   3
     number of bfgs steps    =   2

     enthalpy           old  =     -71.3902520261 Ry
     enthalpy           new  =     -72.3256072773 Ry

     CASE: enthalpy          _new < enthalpy          _old

     new trust radius        =       0.8000000000 bohr
ibrav =      6
 celldm(1) =      4.84887061
 celldm(3) =      3.14716655
Input lattice vectors:
     0.67059617     0.00000000     0.00000000
     0.00000000     0.67059617     0.00000000
     0.00000000     0.00000000     2.11047784
New lattice vectors in INITIAL alat:
     0.67059617     0.00000000     0.00000000
     0.00000000     0.67059617     0.00000000
     0.00000000     0.00000000     2.11047784
New lattice vectors in NEW alat (for information only):
     1.00000000     0.00000000     0.00000000
     0.00000000     1.00000000     0.00000000
     0.00000000     0.00000000     3.14716655
Discrepancy in bohr =     0.000000    0.000000    0.000000
     new conv_thr            =       0.0000000100 Ry

     new unit-cell volume =    358.79098 a.u.^3 (    53.16734 Ang^3 )
     density =      2.62148 g/cm^3

CELL_PARAMETERS (alat=  7.23068638)
   0.670596172   0.000000000   0.000000000
   0.000000000   0.670596172   0.000000000
   0.000000000   0.000000000   2.110477840

ATOMIC_POSITIONS (crystal)
Si            0.0000000000        0.5000000000        0.0630460646
Si            0.5000000000        0.0000000000        0.9369539354
Li            0.0000000000        0.5000000000        0.5417926498
Li            0.5000000000        0.0000000000        0.4582073502
Li            0.0000000000        0.5000000000        0.7429721120
Li            0.5000000000        0.0000000000        0.2570278880



     Writing config-only to output data dir ./output/SiLi.save/
     NEW-OLD atomic charge density approx. for the potential

     negative rho (up, down):  2.917E-01 0.000E+00
     extrapolated charge    8.03997, renormalised to   20.00000

     total cpu time spent up to now is       61.9 secs

     Self-consistent Calculation

     iteration #  1     ecut=    80.00 Ry     beta= 0.70
     Davidson diagonalization with overlap
     c_bands:  1 eigenvalues not converged
     c_bands:  1 eigenvalues not converged
     c_bands:  1 eigenvalues not converged
     c_bands:  1 eigenvalues not converged
     c_bands:  1 eigenvalues not converged
     ethr =  1.00E-06,  avg # of iterations = 16.3

     total cpu time spent up to now is       66.2 secs

     total energy              =     -66.87773345 Ry
     estimated scf accuracy    <      11.17887501 Ry

     iteration #  2     ecut=    80.00 Ry     beta= 0.70
     Davidson diagonalization with overlap
     ethr =  1.00E-02,  avg # of iterations =  7.6

     total cpu time spent up to now is       68.3 secs

     total energy              =     -67.40028434 Ry
     estimated scf accuracy    <     116.15905768 Ry

     iteration #  3     ecut=    80.00 Ry     beta= 0.70
     Davidson diagonalization with overlap
     ethr =  1.00E-02,  avg # of iterations =  5.4

     total cpu time spent up to now is       70.1 secs

     total energy              =     -73.14112306 Ry
     estimated scf accuracy    <       5.47905667 Ry

     iteration #  4     ecut=    80.00 Ry     beta= 0.70
     Davidson diagonalization with overlap
     ethr =  1.00E-02,  avg # of iterations =  2.8

     total cpu time spent up to now is       71.3 secs

     total energy              =     -73.79946422 Ry
     estimated scf accuracy    <       0.29833792 Ry

     iteration #  5     ecut=    80.00 Ry     beta= 0.70
     Davidson diagonalization with overlap
     ethr =  1.49E-03,  avg # of iterations =  4.4

     total cpu time spent up to now is       72.5 secs

     total energy              =     -73.68207058 Ry
     estimated scf accuracy    <       1.11515840 Ry

     iteration #  6     ecut=    80.00 Ry     beta= 0.70
     Davidson diagonalization with overlap
     ethr =  1.49E-03,  avg # of iterations =  2.6

     total cpu time spent up to now is       73.6 secs

     total energy              =     -73.85927822 Ry
     estimated scf accuracy    <       0.22359505 Ry

     iteration #  7     ecut=    80.00 Ry     beta= 0.70
     Davidson diagonalization with overlap
     ethr =  1.12E-03,  avg # of iterations =  1.0

     total cpu time spent up to now is       74.5 secs

     total energy              =     -73.85612101 Ry
     estimated scf accuracy    <       0.05245434 Ry

     iteration #  8     ecut=    80.00 Ry     beta= 0.70
     Davidson diagonalization with overlap
     ethr =  2.62E-04,  avg # of iterations =  1.2

     total cpu time spent up to now is       75.4 secs

     total energy              =     -73.85975875 Ry
     estimated scf accuracy    <       0.00038764 Ry

     iteration #  9     ecut=    80.00 Ry     beta= 0.70
     Davidson diagonalization with overlap
     ethr =  1.94E-06,  avg # of iterations =  6.2

     total cpu time spent up to now is       76.8 secs

     total energy              =     -73.85989928 Ry
     estimated scf accuracy    <       0.00008536 Ry

     iteration # 10     ecut=    80.00 Ry     beta= 0.70
     Davidson diagonalization with overlap
     ethr =  4.27E-07,  avg # of iterations =  1.2

     total cpu time spent up to now is       77.7 secs

     total energy              =     -73.85991008 Ry
     estimated scf accuracy    <       0.00001980 Ry

     iteration # 11     ecut=    80.00 Ry     beta= 0.70
     Davidson diagonalization with overlap
     ethr =  9.90E-08,  avg # of iterations =  1.0

     total cpu time spent up to now is       78.6 secs

     total energy              =     -73.85991245 Ry
     estimated scf accuracy    <       0.00000137 Ry

     iteration # 12     ecut=    80.00 Ry     beta= 0.70
     Davidson diagonalization with overlap
     ethr =  6.87E-09,  avg # of iterations =  1.3

     total cpu time spent up to now is       79.5 secs

     total energy              =     -73.85991250 Ry
     estimated scf accuracy    <       0.00000018 Ry

     iteration # 13     ecut=    80.00 Ry     beta= 0.70
     Davidson diagonalization with overlap
     ethr =  8.97E-10,  avg # of iterations =  1.9

     total cpu time spent up to now is       80.5 secs

     End of self-consistent calculation

          k = 0.0000 0.0000 0.0000 ( 12419 PWs)   bands (ev):

   -37.9775 -37.4899 -37.0952 -36.7374  -7.7891   0.1899   5.1322   7.2201
     8.4439  11.1904  11.1904  11.4862  15.2247  16.7795

          k = 0.0000 0.0000 0.1579 ( 12424 PWs)   bands (ev):

   -37.9774 -37.4900 -37.0950 -36.7375  -7.7890   0.1860   5.3491   6.5128
     9.2745  11.1914  11.1914  11.4865  13.8665  18.0186

          k = 0.0000 0.1657 0.0000 ( 12439 PWs)   bands (ev):

   -37.9519 -37.4920 -37.0859 -36.7511  -7.5262   0.4196   5.2339   7.2143
     8.0950   8.5878  13.7504  15.8210  16.3242  16.8857

          k = 0.0000 0.1657 0.1579 ( 12441 PWs)   bands (ev):

   -37.9519 -37.4921 -37.0857 -36.7511  -7.5261   0.4151   5.4634   6.5858
     7.9466   9.4832  11.4085  13.3868  15.0051  15.6424

          k = 0.0000 0.3314 0.0000 ( 12437 PWs)   bands (ev):

   -37.8811 -37.5022 -37.0594 -36.7896  -6.7410   1.1023   4.4016   5.5031
     8.0152   8.9674  12.7703  14.4455  14.8352  17.5929

          k = 0.0000 0.3314 0.1579 ( 12445 PWs)   bands (ev):

   -37.8811 -37.5024 -37.0593 -36.7896  -6.7409   1.0954   4.3965   5.7604
     7.1096  10.0295  12.0613  12.6779  13.9938  14.8215

          k = 0.0000 0.4971 0.0000 ( 12422 PWs)   bands (ev):

   -37.7815 -37.5309 -37.0191 -36.8456  -5.4437   1.3160   2.2165   5.7389
     8.6051   9.0038  11.0039  12.7351  14.8005  15.8913

          k = 0.0000 0.4971 0.1579 ( 12445 PWs)   bands (ev):

   -37.7814 -37.5309 -37.0190 -36.8457  -5.4435   1.3164   2.2044   5.9423
     7.6287  10.0014  11.1407  13.0465  13.1533  13.8210

          k = 0.0000 0.6628 0.0000 ( 12402 PWs)   bands (ev):

   -37.6762 -37.5884 -36.9679 -36.9084  -3.6507  -1.3857   3.6772   5.1722
     8.4042   8.6758  11.6535  12.5070  13.2148  13.9327

          k = 0.0000 0.6628 0.1579 ( 12402 PWs)   bands (ev):

   -37.6762 -37.5884 -36.9679 -36.9084  -3.6504  -1.3854   3.6593   5.1915
     8.2427   8.9997  11.2603  12.2238  13.3686  14.7041

          k = 0.1657 0.1657 0.0000 ( 12427 PWs)   bands (ev):

   -37.9277 -37.4940 -37.0767 -36.7632  -7.2639   0.6499   5.3448   7.3627
     7.4311   8.7310   9.7179  15.9507  16.5402  16.7630

          k = 0.1657 0.1657 0.1579 ( 12435 PWs)   bands (ev):

   -37.9277 -37.4941 -37.0766 -36.7633  -7.2638   0.6446   5.5896   6.7138
     7.3634   9.3876   9.8396  14.7568  14.8671  16.3170

          k = 0.1657 0.3314 0.0000 ( 12429 PWs)   bands (ev):

   -37.8607 -37.5037 -37.0507 -36.7977  -6.4805   1.3344   4.5538   5.6425
     8.0129   9.1114   9.8074  12.7390  13.9835  16.8093

          k = 0.1657 0.3314 0.1579 ( 12432 PWs)   bands (ev):

   -37.8607 -37.5038 -37.0506 -36.7978  -6.4804   1.3263   4.5495   5.9217
     7.1716   9.5207  10.3321  12.5618  14.4431  15.0928

          k = 0.1657 0.4971 0.0000 ( 12405 PWs)   bands (ev):

   -37.7667 -37.5309 -37.0113 -36.8485  -5.1864   1.5363   2.4534   5.9345
     8.7589   9.1296  10.7201  11.0578  12.5208  15.7658

          k = 0.1657 0.4971 0.1579 ( 12415 PWs)   bands (ev):

   -37.7667 -37.5309 -37.0112 -36.8485  -5.1862   1.5368   2.4391   6.1683
     7.7440  10.1162  10.6506  11.2010  12.8774  14.1233

          k = 0.1657 0.6628 0.0000 ( 12403 PWs)   bands (ev):

   -37.6677 -37.5851 -36.9621 -36.9062  -3.3988  -1.1434   3.9217   5.4236
     8.4976   8.8461  11.7302  11.8078  12.8808  13.4645

          k = 0.1657 0.6628 0.1579 ( 12415 PWs)   bands (ev):

   -37.6677 -37.5851 -36.9621 -36.9062  -3.3985  -1.1430   3.9004   5.4457
     8.3719   9.1803  11.1654  11.9746  12.4346  13.3953

          k = 0.3314 0.3314 0.0000 ( 12421 PWs)   bands (ev):

   -37.8046 -37.5115 -37.0261 -36.8214  -5.7027   2.0247   4.3991   6.0258
     6.6937   9.2771   9.5149  12.0940  12.7595  15.1887

          k = 0.3314 0.3314 0.1579 ( 12401 PWs)   bands (ev):

   -37.8045 -37.5116 -37.0260 -36.8214  -5.7026   2.0123   4.3999   6.3038
     6.6530   8.0476  10.9337  11.7183  13.5647  15.1929

          k = 0.3314 0.4971 0.0000 ( 12402 PWs)   bands (ev):

   -37.7265 -37.5335 -36.9899 -36.8575  -4.4189   2.1358   3.1559   6.4846
     7.1495   9.5236   9.9066  11.0163  11.7140  13.3480

          k = 0.3314 0.4971 0.1579 ( 12415 PWs)   bands (ev):

   -37.7265 -37.5335 -36.9899 -36.8575  -4.4187   2.1364   3.1342   6.7834
     7.1178   8.4700  10.3579  11.2998  12.5120  13.5053

          k = 0.3314 0.6628 0.0000 ( 12405 PWs)   bands (ev):

   -37.6451 -37.5776 -36.9468 -36.9011  -2.6495  -0.4313   4.6485   6.1712
     8.6646   8.7238   9.4196  10.8027  12.0700  12.5522

          k = 0.3314 0.6628 0.1579 ( 12411 PWs)   bands (ev):

   -37.6451 -37.5777 -36.9468 -36.9011  -2.6491  -0.4308   4.6148   6.2011
     8.4375   9.1062   9.6885  10.8420  10.9829  12.3710

          k = 0.4971 0.4971 0.0000 ( 12416 PWs)   bands (ev):

   -37.6717 -37.5452 -36.9599 -36.8737  -3.1556   2.4332   4.2642   5.1097
     7.2355   9.9906  10.4082  10.4299  10.5691  11.2372

          k = 0.4971 0.4971 0.1579 ( 12395 PWs)   bands (ev):

   -37.6717 -37.5452 -36.9599 -36.8737  -3.1553   2.4341   4.2328   5.0926
     7.7016   9.0829   9.5813  10.4100  11.4170  12.6197

          k = 0.4971 0.6628 0.0000 ( 12422 PWs)   bands (ev):

   -37.6163 -37.5722 -36.9273 -36.8974  -1.4280   0.6666   5.6574   6.0521
     7.3431   7.9218   8.9807   9.5981  11.6159  12.9670

          k = 0.4971 0.6628 0.1579 ( 12409 PWs)   bands (ev):

   -37.6163 -37.5722 -36.9273 -36.8974  -1.4276   0.6673   5.6365   5.9979
     7.3839   7.9142   9.1702  10.1487  10.6270  12.5169

          k = 0.6628 0.6628 0.0000 ( 12448 PWs)   bands (ev):

   -37.5907 -37.5754 -36.9100 -36.8996   0.1737   1.4538   4.1250   5.3820
     7.4550   8.8297   8.9355   9.4661  10.4459  11.6994

          k = 0.6628 0.6628 0.1579 ( 12450 PWs)   bands (ev):

   -37.5907 -37.5754 -36.9100 -36.8996   0.1744   1.4548   4.1257   5.3835
     7.2894   8.5071   9.3704  10.1633  10.3378  11.7535

     the Fermi energy is     9.5318 ev

!    total energy              =     -73.85991252 Ry
     estimated scf accuracy    <          4.8E-10 Ry
     smearing contrib. (-TS)   =       0.00033718 Ry
     internal energy E=F+TS    =     -73.86024970 Ry

     The total energy is F=E-TS. E is the sum of the following terms:
     one-electron contribution =     -18.64400419 Ry
     hartree contribution      =      12.77022077 Ry
     xc contribution           =     -20.89758276 Ry
     ewald contribution        =     -47.08888353 Ry

     convergence has been achieved in  13 iterations

     Forces acting on atoms (cartesian axes, Ry/au):

     atom    1 type  1   force =     0.00000000    0.00000000    0.28528759
     atom    2 type  1   force =     0.00000000    0.00000000   -0.28528759
     atom    3 type  2   force =     0.00000000    0.00000000   -0.00031920
     atom    4 type  2   force =     0.00000000    0.00000000    0.00031920
     atom    5 type  2   force =     0.00000000    0.00000000    0.04041218
     atom    6 type  2   force =     0.00000000    0.00000000   -0.04041218
     The non-local contrib.  to forces
     atom    1 type  1   force =     0.00000000    0.00000000    0.21399635
     atom    2 type  1   force =     0.00000000    0.00000000   -0.21399635
     atom    3 type  2   force =     0.00000000    0.00000000    0.14590771
     atom    4 type  2   force =     0.00000000    0.00000000   -0.14590771
     atom    5 type  2   force =     0.00000000    0.00000000   -0.11727256
     atom    6 type  2   force =     0.00000000    0.00000000    0.11727256
     The ionic contribution  to forces
     atom    1 type  1   force =    -0.00000000    0.00000000    1.83828994
     atom    2 type  1   force =     0.00000000   -0.00000000   -1.83828994
     atom    3 type  2   force =     0.00000000   -0.00000000   -0.27177257
     atom    4 type  2   force =    -0.00000000    0.00000000    0.27177257
     atom    5 type  2   force =    -0.00000000    0.00000000   -0.38455182
     atom    6 type  2   force =     0.00000000   -0.00000000    0.38455182
     The local contribution  to forces
     atom    1 type  1   force =     0.00000000   -0.00000000   -1.74682052
     atom    2 type  1   force =     0.00000000   -0.00000000    1.74682052
     atom    3 type  2   force =    -0.00000000    0.00000000    0.12554566
     atom    4 type  2   force =     0.00000000    0.00000000   -0.12554566
     atom    5 type  2   force =    -0.00000000    0.00000000    0.54221391
     atom    6 type  2   force =     0.00000000    0.00000000   -0.54221391
     The core correction contribution to forces
     atom    1 type  1   force =     0.00000000   -0.00000000   -0.02015965
     atom    2 type  1   force =     0.00000000   -0.00000000    0.02015965
     atom    3 type  2   force =     0.00000000    0.00000000    0.00000000
     atom    4 type  2   force =     0.00000000    0.00000000    0.00000000
     atom    5 type  2   force =     0.00000000    0.00000000    0.00000000
     atom    6 type  2   force =     0.00000000    0.00000000    0.00000000
     The Hubbard contrib.    to forces
     atom    1 type  1   force =     0.00000000    0.00000000    0.00000000
     atom    2 type  1   force =     0.00000000    0.00000000    0.00000000
     atom    3 type  2   force =     0.00000000    0.00000000    0.00000000
     atom    4 type  2   force =     0.00000000    0.00000000    0.00000000
     atom    5 type  2   force =     0.00000000    0.00000000    0.00000000
     atom    6 type  2   force =     0.00000000    0.00000000    0.00000000
     The SCF correction term to forces
     atom    1 type  1   force =    -0.00000000    0.00000000   -0.00001853
     atom    2 type  1   force =    -0.00000000   -0.00000000    0.00001853
     atom    3 type  2   force =     0.00000000   -0.00000000   -0.00000001
     atom    4 type  2   force =     0.00000000    0.00000000    0.00000001
     atom    5 type  2   force =    -0.00000000    0.00000000    0.00002264
     atom    6 type  2   force =     0.00000000   -0.00000000   -0.00002264

     Total force =     0.407486     Total SCF correction =     0.000041


     Computing stress (Cartesian axis) and pressure

          total   stress  (Ry/bohr**3)                   (kbar)     P=      778.17
   0.00534606   0.00000000   0.00000000          786.43        0.00        0.00
   0.00000000   0.00534606   0.00000000            0.00      786.43        0.00
   0.00000000   0.00000000   0.00517752            0.00        0.00      761.64

     Energy error            =      3.1E-01 Ry
     Gradient error          =      2.9E-01 Ry/Bohr
     Cell gradient error     =      2.9E+02 kbar

     number of scf cycles    =   4
     number of bfgs steps    =   3

     enthalpy           old  =     -72.3256072773 Ry
     enthalpy           new  =     -72.6404067746 Ry

     CASE: enthalpy          _new < enthalpy          _old

     new trust radius        =       0.1751490934 bohr
ibrav =      6
 celldm(1) =      5.07305106
 celldm(3) =      3.09463122
Input lattice vectors:
     0.70160021     0.00000000     0.00000000
     0.00000000     0.70160021     0.00000000
     0.00000000     0.00000000     2.17119391
New lattice vectors in INITIAL alat:
     0.70160021     0.00000000     0.00000000
     0.00000000     0.70160021     0.00000000
     0.00000000     0.00000000     2.17119391
New lattice vectors in NEW alat (for information only):
     1.00000000     0.00000000     0.00000000
     0.00000000     1.00000000     0.00000000
     0.00000000     0.00000000     3.09463122
Discrepancy in bohr =     0.000000    0.000000    0.000000
     new conv_thr            =       0.0000000100 Ry

     new unit-cell volume =    404.03278 a.u.^3 (    59.87148 Ang^3 )
     density =      2.32794 g/cm^3

CELL_PARAMETERS (alat=  7.23068638)
   0.701600207   0.000000000   0.000000000
   0.000000000   0.701600207   0.000000000
   0.000000000   0.000000000   2.171193907

ATOMIC_POSITIONS (crystal)
Si            0.0000000000        0.5000000000        0.0709404126
Si            0.5000000000        0.0000000000        0.9290595874
Li            0.0000000000        0.5000000000        0.5426907919
Li            0.5000000000        0.0000000000        0.4573092081
Li            0.0000000000        0.5000000000        0.7429224343
Li            0.5000000000        0.0000000000        0.2570775657



     Writing config-only to output data dir ./output/SiLi.save/
     NEW-OLD atomic charge density approx. for the potential
     extrapolated charge   22.23733, renormalised to   20.00000

     total cpu time spent up to now is       85.0 secs

     Self-consistent Calculation

     iteration #  1     ecut=    80.00 Ry     beta= 0.70
     Davidson diagonalization with overlap
     c_bands:  1 eigenvalues not converged
     c_bands:  1 eigenvalues not converged
     ethr =  1.00E-06,  avg # of iterations = 12.1

     total cpu time spent up to now is       88.1 secs

     total energy              =     -73.72086430 Ry
     estimated scf accuracy    <       0.37763849 Ry

     iteration #  2     ecut=    80.00 Ry     beta= 0.70
     Davidson diagonalization with overlap
     ethr =  1.89E-03,  avg # of iterations =  5.8

     total cpu time spent up to now is       89.6 secs

     total energy              =     -73.48724502 Ry
     estimated scf accuracy    <      10.56804991 Ry

     iteration #  3     ecut=    80.00 Ry     beta= 0.70
     Davidson diagonalization with overlap
     ethr =  1.89E-03,  avg # of iterations =  4.5

     total cpu time spent up to now is       91.0 secs

     total energy              =     -74.09446280 Ry
     estimated scf accuracy    <       0.15616379 Ry

     iteration #  4     ecut=    80.00 Ry     beta= 0.70
     Davidson diagonalization with overlap
     ethr =  7.81E-04,  avg # of iterations =  1.4

     total cpu time spent up to now is       91.9 secs

     total energy              =     -74.09828089 Ry
     estimated scf accuracy    <       0.04841692 Ry

     iteration #  5     ecut=    80.00 Ry     beta= 0.70
     Davidson diagonalization with overlap
     ethr =  2.42E-04,  avg # of iterations =  1.3

     total cpu time spent up to now is       92.8 secs

     total energy              =     -74.09790954 Ry
     estimated scf accuracy    <       0.04342989 Ry

     iteration #  6     ecut=    80.00 Ry     beta= 0.70
     Davidson diagonalization with overlap
     ethr =  2.17E-04,  avg # of iterations =  1.1

     total cpu time spent up to now is       93.7 secs

     total energy              =     -74.09533470 Ry
     estimated scf accuracy    <       0.03952076 Ry

     iteration #  7     ecut=    80.00 Ry     beta= 0.70
     Davidson diagonalization with overlap
     ethr =  1.98E-04,  avg # of iterations =  1.0

     total cpu time spent up to now is       94.7 secs

     total energy              =     -74.09308398 Ry
     estimated scf accuracy    <       0.01853106 Ry

     iteration #  8     ecut=    80.00 Ry     beta= 0.70
     Davidson diagonalization with overlap
     ethr =  9.27E-05,  avg # of iterations =  1.4

     total cpu time spent up to now is       95.6 secs

     total energy              =     -74.09394076 Ry
     estimated scf accuracy    <       0.00193427 Ry

     iteration #  9     ecut=    80.00 Ry     beta= 0.70
     Davidson diagonalization with overlap
     ethr =  9.67E-06,  avg # of iterations =  4.0

     total cpu time spent up to now is       96.6 secs

     total energy              =     -74.09399019 Ry
     estimated scf accuracy    <       0.00166451 Ry

     iteration # 10     ecut=    80.00 Ry     beta= 0.70
     Davidson diagonalization with overlap
     ethr =  8.32E-06,  avg # of iterations =  1.3

     total cpu time spent up to now is       97.5 secs

     total energy              =     -74.09371073 Ry
     estimated scf accuracy    <       0.00179367 Ry

     iteration # 11     ecut=    80.00 Ry     beta= 0.70
     Davidson diagonalization with overlap
     ethr =  8.32E-06,  avg # of iterations =  1.3

     total cpu time spent up to now is       98.4 secs

     total energy              =     -74.09384547 Ry
     estimated scf accuracy    <       0.00001940 Ry

     iteration # 12     ecut=    80.00 Ry     beta= 0.70
     Davidson diagonalization with overlap
     ethr =  9.70E-08,  avg # of iterations =  3.2

     total cpu time spent up to now is       99.5 secs

     total energy              =     -74.09385154 Ry
     estimated scf accuracy    <       0.00001511 Ry

     iteration # 13     ecut=    80.00 Ry     beta= 0.70
     Davidson diagonalization with overlap
     ethr =  7.55E-08,  avg # of iterations =  1.0

     total cpu time spent up to now is      100.4 secs

     total energy              =     -74.09384578 Ry
     estimated scf accuracy    <       0.00002596 Ry

     iteration # 14     ecut=    80.00 Ry     beta= 0.70
     Davidson diagonalization with overlap
     ethr =  7.55E-08,  avg # of iterations =  2.0

     total cpu time spent up to now is      101.4 secs

     total energy              =     -74.09384896 Ry
     estimated scf accuracy    <       0.00000278 Ry

     iteration # 15     ecut=    80.00 Ry     beta= 0.70
     Davidson diagonalization with overlap
     ethr =  1.39E-08,  avg # of iterations =  1.1

     total cpu time spent up to now is      102.3 secs

     total energy              =     -74.09384950 Ry
     estimated scf accuracy    <       0.00000469 Ry

     iteration # 16     ecut=    80.00 Ry     beta= 0.70
     Davidson diagonalization with overlap
     ethr =  1.39E-08,  avg # of iterations =  1.0

     total cpu time spent up to now is      103.2 secs

     total energy              =     -74.09384819 Ry
     estimated scf accuracy    <       0.00000687 Ry

     iteration # 17     ecut=    80.00 Ry     beta= 0.70
     Davidson diagonalization with overlap
     ethr =  1.39E-08,  avg # of iterations =  1.6

     total cpu time spent up to now is      104.1 secs

     total energy              =     -74.09384812 Ry
     estimated scf accuracy    <       0.00000105 Ry

     iteration # 18     ecut=    80.00 Ry     beta= 0.70
     Davidson diagonalization with overlap
     ethr =  5.27E-09,  avg # of iterations =  2.0

     total cpu time spent up to now is      105.1 secs

     total energy              =     -74.09384832 Ry
     estimated scf accuracy    <       0.00000003 Ry

     iteration # 19     ecut=    80.00 Ry     beta= 0.70
     Davidson diagonalization with overlap
     ethr =  1.67E-10,  avg # of iterations =  2.2

     total cpu time spent up to now is      106.1 secs

     End of self-consistent calculation

          k = 0.0000 0.0000 0.0000 ( 12419 PWs)   bands (ev):

   -39.0134 -38.7299 -38.3600 -38.0468  -7.4924  -0.4354   3.8890   6.2667
     7.0944   9.9786   9.9786  11.1515  13.9464  15.0660

          k = 0.0000 0.0000 0.1535 ( 12424 PWs)   bands (ev):

   -39.0134 -38.7300 -38.3599 -38.0468  -7.4923  -0.4416   4.1517   5.3377
     8.1430   9.9800   9.9800  11.1521  12.5068  15.8361

          k = 0.0000 0.1584 0.0000 ( 12439 PWs)   bands (ev):

   -38.9975 -38.7309 -38.3519 -38.0575  -7.2503  -0.2252   3.9962   6.3260
     7.2290   7.3166  10.1889  12.8085  13.9218  15.1201

          k = 0.0000 0.1584 0.1535 ( 12441 PWs)   bands (ev):

   -38.9974 -38.7310 -38.3518 -38.0575  -7.2502  -0.2323   4.2678   5.4428
     7.1974   8.3433  10.1903  12.3457  13.6788  13.7367

          k = 0.0000 0.3167 0.0000 ( 12437 PWs)   bands (ev):

   -38.9537 -38.7362 -38.3284 -38.0882  -6.5264   0.3966   3.8876   4.2859
     7.0367   7.5782  11.1729  12.6830  13.7686  15.2276

          k = 0.0000 0.3167 0.1535 ( 12445 PWs)   bands (ev):

   -38.9537 -38.7363 -38.3283 -38.0882  -6.5263   0.3864   3.8791   4.5774
     5.9248   8.8378  10.8219  11.0610  12.8518  13.1053

          k = 0.0000 0.4751 0.0000 ( 12422 PWs)   bands (ev):

   -38.8937 -38.7516 -38.2913 -38.1344  -5.3279   0.9035   1.4997   4.5737
     7.6047   7.6108   9.6193  11.0430  11.8750  13.4443

          k = 0.0000 0.4751 0.1535 ( 12445 PWs)   bands (ev):

   -38.8936 -38.7516 -38.2913 -38.1344  -5.3277   0.9007   1.4876   4.7978
     6.4433   8.6991   9.7802  11.4555  11.8761  12.3737

          k = 0.0000 0.6335 0.0000 ( 12402 PWs)   bands (ev):

   -38.8323 -38.7829 -38.2435 -38.1890  -3.6668  -1.5621   2.7731   4.1206
[...]
     c_bands:  1 eigenvalues not converged
     c_bands:  1 eigenvalues not converged
     c_bands:  1 eigenvalues not converged
     c_bands:  1 eigenvalues not converged
     c_bands:  1 eigenvalues not converged
     c_bands:  1 eigenvalues not converged
     c_bands:  2 eigenvalues not converged
     c_bands:  1 eigenvalues not converged
     c_bands:  1 eigenvalues not converged
     c_bands:  1 eigenvalues not converged
     c_bands:  1 eigenvalues not converged
     c_bands:  2 eigenvalues not converged
     c_bands:  1 eigenvalues not converged
     ethr =  1.00E-06,  avg # of iterations = 18.7

     total cpu time spent up to now is      430.0 secs

     total energy              =     -72.76829802 Ry
     estimated scf accuracy    <       1.74894443 Ry

     iteration #  2     ecut=    80.00 Ry     beta= 0.70
     Davidson diagonalization with overlap
     ethr =  8.74E-03,  avg # of iterations =  5.9

     total cpu time spent up to now is      430.6 secs

     total energy              =     -73.11921800 Ry
     estimated scf accuracy    <      30.74820512 Ry

     iteration #  3     ecut=    80.00 Ry     beta= 0.70
     Davidson diagonalization with overlap
     ethr =  8.74E-03,  avg # of iterations =  4.5

     total cpu time spent up to now is      431.1 secs

     total energy              =     -74.25604180 Ry
     estimated scf accuracy    <       4.30884527 Ry

     iteration #  4     ecut=    80.00 Ry     beta= 0.70
     Davidson diagonalization with overlap
     ethr =  8.74E-03,  avg # of iterations =  1.3

     total cpu time spent up to now is      431.5 secs

     total energy              =     -74.05026074 Ry
     estimated scf accuracy    <       1.98029400 Ry

     iteration #  5     ecut=    80.00 Ry     beta= 0.70
     Davidson diagonalization with overlap
     ethr =  8.74E-03,  avg # of iterations =  1.6

     total cpu time spent up to now is      431.9 secs

     total energy              =     -74.21221527 Ry
     estimated scf accuracy    <       0.10357407 Ry

     iteration #  6     ecut=    80.00 Ry     beta= 0.70
     Davidson diagonalization with overlap
     ethr =  5.18E-04,  avg # of iterations =  4.4

     total cpu time spent up to now is      432.3 secs

     total energy              =     -74.17156913 Ry
     estimated scf accuracy    <       0.86129382 Ry

     iteration #  7     ecut=    80.00 Ry     beta= 0.70
     Davidson diagonalization with overlap
     ethr =  5.18E-04,  avg # of iterations =  1.4

     total cpu time spent up to now is      432.7 secs

     total energy              =     -74.17999055 Ry
     estimated scf accuracy    <       0.06605723 Ry

     iteration #  8     ecut=    80.00 Ry     beta= 0.70
     Davidson diagonalization with overlap
     ethr =  3.30E-04,  avg # of iterations =  2.3

     total cpu time spent up to now is      433.0 secs

     total energy              =     -74.18870096 Ry
     estimated scf accuracy    <       0.07662987 Ry

     iteration #  9     ecut=    80.00 Ry     beta= 0.70
     Davidson diagonalization with overlap
     ethr =  3.30E-04,  avg # of iterations =  1.0

     total cpu time spent up to now is      433.4 secs

     total energy              =     -74.18891490 Ry
     estimated scf accuracy    <       0.01273412 Ry

     iteration # 10     ecut=    80.00 Ry     beta= 0.70
     Davidson diagonalization with overlap
     ethr =  6.37E-05,  avg # of iterations =  1.4

     total cpu time spent up to now is      433.7 secs

     total energy              =     -74.18942940 Ry
     estimated scf accuracy    <       0.00014484 Ry

     iteration # 11     ecut=    80.00 Ry     beta= 0.70
     Davidson diagonalization with overlap
     ethr =  7.24E-07,  avg # of iterations =  5.3

     total cpu time spent up to now is      434.2 secs

     total energy              =     -74.18943559 Ry
     estimated scf accuracy    <       0.00005503 Ry

     iteration # 12     ecut=    80.00 Ry     beta= 0.70
     Davidson diagonalization with overlap
     ethr =  2.75E-07,  avg # of iterations =  1.4

     total cpu time spent up to now is      434.5 secs

     total energy              =     -74.18943450 Ry
     estimated scf accuracy    <       0.00005191 Ry

     iteration # 13     ecut=    80.00 Ry     beta= 0.70
     Davidson diagonalization with overlap
     ethr =  2.60E-07,  avg # of iterations =  1.0

     total cpu time spent up to now is      434.8 secs

     total energy              =     -74.18943367 Ry
     estimated scf accuracy    <       0.00001704 Ry

     iteration # 14     ecut=    80.00 Ry     beta= 0.70
     Davidson diagonalization with overlap
     ethr =  8.52E-08,  avg # of iterations =  1.0

     total cpu time spent up to now is      435.2 secs

     total energy              =     -74.18943408 Ry
     estimated scf accuracy    <       0.00000122 Ry

     iteration # 15     ecut=    80.00 Ry     beta= 0.70
     Davidson diagonalization with overlap
     ethr =  6.11E-09,  avg # of iterations =  2.1

     total cpu time spent up to now is      435.5 secs

     total energy              =     -74.18943421 Ry
     estimated scf accuracy    <          4.9E-09 Ry

     iteration # 16     ecut=    80.00 Ry     beta= 0.70
     Davidson diagonalization with overlap
     ethr =  2.43E-11,  avg # of iterations =  4.4

     total cpu time spent up to now is      436.0 secs

     total energy              =     -74.18943422 Ry
     estimated scf accuracy    <          9.9E-09 Ry

     iteration # 17     ecut=    80.00 Ry     beta= 0.70
     Davidson diagonalization with overlap
     ethr =  2.43E-11,  avg # of iterations =  1.0

     total cpu time spent up to now is      436.4 secs

     total energy              =     -74.18943422 Ry
     estimated scf accuracy    <          7.4E-09 Ry

     iteration # 18     ecut=    80.00 Ry     beta= 0.70
     Davidson diagonalization with overlap
     ethr =  2.43E-11,  avg # of iterations =  1.0

     total cpu time spent up to now is      436.7 secs

     total energy              =     -74.18943422 Ry
     estimated scf accuracy    <       0.00000001 Ry

     iteration # 19     ecut=    80.00 Ry     beta= 0.70
     Davidson diagonalization with overlap
     ethr =  2.43E-11,  avg # of iterations =  1.5

     total cpu time spent up to now is      437.0 secs

     total energy              =     -74.18943422 Ry
     estimated scf accuracy    <       0.00000002 Ry

     iteration # 20     ecut=    80.00 Ry     beta= 0.70
     Davidson diagonalization with overlap
     ethr =  2.43E-11,  avg # of iterations =  1.4

     total cpu time spent up to now is      437.4 secs

     total energy              =     -74.18943421 Ry
     estimated scf accuracy    <       0.00000001 Ry

     iteration # 21     ecut=    80.00 Ry     beta= 0.70
     Davidson diagonalization with overlap
     ethr =  2.43E-11,  avg # of iterations =  2.2

     total cpu time spent up to now is      437.8 secs

     total energy              =     -74.18943421 Ry
     estimated scf accuracy    <          2.0E-10 Ry

     iteration # 22     ecut=    80.00 Ry     beta= 0.70
     Davidson diagonalization with overlap
     ethr =  1.01E-12,  avg # of iterations =  1.9

     total cpu time spent up to now is      438.1 secs

     End of self-consistent calculation

          k = 0.0000 0.0000 0.0000 (  4577 PWs)   bands (ev):

   -37.5932 -37.5109 -37.2860 -37.1784  -7.4940  -3.2971   2.0266   5.1031
     5.7797   8.1706   9.8633  15.9021  16.7331  18.4472

          k = 0.0000 0.0000 0.1184 (  4594 PWs)   bands (ev):

   -37.5932 -37.5109 -37.2860 -37.1784  -7.4940  -3.2972   2.0295   4.9434
     6.1570   7.6553  10.3194  15.7956  15.9022  18.0909

          k = 0.0000 0.1860 0.0000 (  4587 PWs)   bands (ev):

   -37.5740 -37.4966 -37.2700 -37.1689  -7.1572  -2.9789   2.2842   5.2766
     5.9484   8.4467  10.0384  12.7229  15.5242  17.2080

          k = 0.0000 0.1860 0.1184 (  4583 PWs)   bands (ev):

   -37.5740 -37.4966 -37.2700 -37.1689  -7.1572  -2.9790   2.2880   5.1013
     6.3570   7.8738  10.5599  12.7245  15.1930  16.4812

          k = 0.0000 0.3719 0.0000 (  4584 PWs)   bands (ev):

   -37.5243 -37.4609 -37.2284 -37.1460  -6.1514  -2.0321   3.0319   5.7990
     6.3188   8.3278   9.1863  10.8818  11.8722  16.6444

          k = 0.0000 0.3719 0.1184 (  4587 PWs)   bands (ev):

   -37.5243 -37.4609 -37.2284 -37.1460  -6.1514  -2.0321   3.0395   5.5458
     6.8665   7.9538   8.9643  11.4259  11.8231  15.8201

          k = 0.0000 0.5579 0.0000 (  4580 PWs)   bands (ev):

   -37.4644 -37.4228 -37.1773 -37.1236  -4.4896  -0.4822   4.1097   4.1140
     6.6719   7.2476   8.0005  10.9773  11.1535  14.0271

          k = 0.0000 0.5579 0.1184 (  4579 PWs)   bands (ev):

   -37.4644 -37.4228 -37.1773 -37.1236  -4.4896  -0.4824   4.1057   4.1327
     6.4086   7.5175   8.3579   9.6455  12.4594  14.0571

          k = 0.0000 0.7439 0.0000 (  4586 PWs)   bands (ev):

   -37.4187 -37.4042 -37.1358 -37.1172  -2.1942   0.6928   1.6239   3.9567
     6.5228   7.2895   7.9811   9.7199  12.6398  12.9762

          k = 0.0000 0.7439 0.1184 (  4588 PWs)   bands (ev):

   -37.4187 -37.4042 -37.1358 -37.1172  -2.1942   0.6929   1.6234   3.9596
     6.5627   7.0628   8.4469   9.3114  12.6962  13.1492

          k = 0.1860 0.1860 0.0000 (  4575 PWs)   bands (ev):

   -37.5553 -37.4824 -37.2543 -37.1593  -6.8211  -2.6613   2.5438   5.4607
     6.1336   8.7282  10.2542  11.9360  15.0016  15.3721

          k = 0.1860 0.1860 0.1184 (  4572 PWs)   bands (ev):

   -37.5553 -37.4824 -37.2543 -37.1593  -6.8211  -2.6613   2.5486   5.2711
     6.5706   8.1032  10.8393  11.9361  15.0002  15.3721

          k = 0.1860 0.3719 0.0000 (  4575 PWs)   bands (ev):

   -37.5068 -37.4471 -37.2135 -37.1361  -5.8171  -1.7160   3.2991   6.0126
     6.5648   8.5123   9.4914  11.0191  11.9501  15.0541

          k = 0.1860 0.3719 0.1184 (  4568 PWs)   bands (ev):

   -37.5068 -37.4471 -37.2135 -37.1361  -5.8171  -1.7161   3.3080   5.7532
     7.1258   8.2117   9.1158  11.6301  11.9516  15.0569

          k = 0.1860 0.5579 0.0000 (  4589 PWs)   bands (ev):

   -37.4485 -37.4094 -37.1636 -37.1131  -4.1587  -0.1687   4.4028   4.4101
     6.9293   7.5292   8.2496  11.2379  11.4519  13.8794

          k = 0.1860 0.5579 0.1184 (  4593 PWs)   bands (ev):

   -37.4485 -37.4094 -37.1636 -37.1131  -4.1587  -0.1689   4.4055   4.4240
     6.6546   7.8197   8.5995   9.9127  12.7429  13.9829

          k = 0.1860 0.7439 0.0000 (  4590 PWs)   bands (ev):

   -37.4042 -37.3905 -37.1233 -37.1058  -1.8686   1.0080   1.9376   4.2749
     6.7951   7.6245   8.2740  10.0308  12.9491  12.9623

          k = 0.1860 0.7439 0.1184 (  4592 PWs)   bands (ev):

   -37.4042 -37.3905 -37.1233 -37.1058  -1.8686   1.0081   1.9370   4.2780
     6.8370   7.3791   8.7628   9.6166  12.8356  13.2647

          k = 0.3719 0.3719 0.0000 (  4595 PWs)   bands (ev):

   -37.4616 -37.4128 -37.1749 -37.1119  -4.8190  -0.7756   4.0808   6.6468
     7.2345   8.2720  10.3737  10.8172  11.4053  12.6858

          k = 0.3719 0.3719 0.1184 (  4582 PWs)   bands (ev):

   -37.4616 -37.4128 -37.1749 -37.1119  -4.8190  -0.7758   4.0953   6.3509
     7.8614   8.2721   9.3186  11.4029  11.5750  13.0239

          k = 0.3719 0.5579 0.0000 (  4588 PWs)   bands (ev):

   -37.4077 -37.3756 -37.1280 -37.0870  -3.1710   0.7636   5.2545   5.2550
     7.6843   8.2842   8.8798  11.5447  11.9256  12.5977

          k = 0.3719 0.5579 0.1184 (  4597 PWs)   bands (ev):

   -37.4077 -37.3756 -37.1280 -37.0870  -3.1710   0.7633   5.2505   5.2831
     7.3538   8.6573   9.2087  10.5141  11.9882  13.4984

          k = 0.3719 0.7439 0.0000 (  4596 PWs)   bands (ev):

   -37.3673 -37.3561 -37.0912 -37.0769  -0.8985   1.9399   2.8668   5.2143
     7.5743   8.6180   9.1326  10.9326  12.5877  13.7949

          k = 0.3719 0.7439 0.1184 (  4600 PWs)   bands (ev):

   -37.3673 -37.3561 -37.0912 -37.0769  -0.8985   1.9399   2.8660   5.2179
     7.6249   8.3089   9.6865  10.5065  12.6486  13.4834

          k = 0.5579 0.5579 0.0000 (  4619 PWs)   bands (ev):

   -37.3594 -37.3384 -37.0857 -37.0589  -1.5429   2.2867   5.8188   6.5920
     8.3169   8.8875   8.9757  10.1184  12.4650  13.1305

          k = 0.5579 0.5579 0.1184 (  4604 PWs)   bands (ev):

   -37.3594 -37.3384 -37.0857 -37.0589  -1.5429   2.2861   5.8189   6.6357
     8.0987   8.9725   8.9733  10.4759  12.0607  13.3541

          k = 0.5579 0.7439 0.0000 (  4599 PWs)   bands (ev):

   -37.3246 -37.3172 -37.0539 -37.0446   0.6899   3.4119   4.3587   6.6822
     8.6783   9.6788  10.3112  10.4657  12.3872  12.9286

          k = 0.5579 0.7439 0.1184 (  4608 PWs)   bands (ev):

   -37.3246 -37.3172 -37.0539 -37.0446   0.6900   3.4120   4.3574   6.6846
     8.7501   9.5454  10.0155  11.0669  11.8514  12.4947

          k = 0.7439 0.7439 0.0000 (  4626 PWs)   bands (ev):

   -37.2954 -37.2929 -37.0281 -37.0249   2.8045   4.5937   6.2195   7.4850
     7.7573   9.0220  10.0430  11.7328  11.7950  12.2832

          k = 0.7439 0.7439 0.1184 (  4624 PWs)   bands (ev):

   -37.2954 -37.2929 -37.0281 -37.0249   2.8046   4.5939   6.2174   7.4839
     7.7535   9.0284  10.1299  11.4628  11.9981  12.2808

     the Fermi energy is     8.7567 ev

!    total energy              =     -74.18943421 Ry
     estimated scf accuracy    <          2.5E-11 Ry
     smearing contrib. (-TS)   =      -0.00000724 Ry
     internal energy E=F+TS    =     -74.18942698 Ry

     The total energy is F=E-TS. E is the sum of the following terms:
     one-electron contribution =     -19.39962637 Ry
     hartree contribution      =      12.90266515 Ry
     xc contribution           =     -20.67891039 Ry
     ewald contribution        =     -47.01355537 Ry

     convergence has been achieved in  22 iterations

     Forces acting on atoms (cartesian axes, Ry/au):

     atom    1 type  1   force =     0.00000000    0.00000000    0.00042216
     atom    2 type  1   force =     0.00000000    0.00000000   -0.00042216
     atom    3 type  2   force =     0.00000000    0.00000000   -0.00016581
     atom    4 type  2   force =     0.00000000    0.00000000    0.00016581
     atom    5 type  2   force =     0.00000000    0.00000000    0.00017272
     atom    6 type  2   force =     0.00000000    0.00000000   -0.00017272
     The non-local contrib.  to forces
     atom    1 type  1   force =     0.00000000    0.00000000   -0.10767010
     atom    2 type  1   force =     0.00000000    0.00000000    0.10767010
     atom    3 type  2   force =     0.00000000    0.00000000    0.06444399
     atom    4 type  2   force =     0.00000000    0.00000000   -0.06444399
     atom    5 type  2   force =     0.00000000    0.00000000   -0.06880428
     atom    6 type  2   force =     0.00000000    0.00000000    0.06880428
     The ionic contribution  to forces
     atom    1 type  1   force =     0.00000000    0.00000000    1.00233654
     atom    2 type  1   force =    -0.00000000   -0.00000000   -1.00233654
     atom    3 type  2   force =    -0.00000000   -0.00000000   -0.66705728
     atom    4 type  2   force =     0.00000000   -0.00000000    0.66705728
     atom    5 type  2   force =    -0.00000000   -0.00000000   -1.70396085
     atom    6 type  2   force =     0.00000000   -0.00000000    1.70396085
     The local contribution  to forces
     atom    1 type  1   force =     0.00000000   -0.00000000   -0.89909664
     atom    2 type  1   force =     0.00000000   -0.00000000    0.89909664
     atom    3 type  2   force =     0.00000000    0.00000000    0.60244661
     atom    4 type  2   force =     0.00000000    0.00000000   -0.60244661
     atom    5 type  2   force =     0.00000000    0.00000000    1.77293954
     atom    6 type  2   force =     0.00000000    0.00000000   -1.77293954
     The core correction contribution to forces
     atom    1 type  1   force =    -0.00000000   -0.00000000    0.00484480
     atom    2 type  1   force =     0.00000000   -0.00000000   -0.00484480
     atom    3 type  2   force =     0.00000000    0.00000000    0.00000000
     atom    4 type  2   force =     0.00000000    0.00000000    0.00000000
     atom    5 type  2   force =     0.00000000    0.00000000    0.00000000
     atom    6 type  2   force =     0.00000000    0.00000000    0.00000000
     The Hubbard contrib.    to forces
     atom    1 type  1   force =     0.00000000    0.00000000    0.00000000
     atom    2 type  1   force =     0.00000000    0.00000000    0.00000000
     atom    3 type  2   force =     0.00000000    0.00000000    0.00000000
     atom    4 type  2   force =     0.00000000    0.00000000    0.00000000
     atom    5 type  2   force =     0.00000000    0.00000000    0.00000000
     atom    6 type  2   force =     0.00000000    0.00000000    0.00000000
     The SCF correction term to forces
     atom    1 type  1   force =     0.00000000    0.00000000    0.00000756
     atom    2 type  1   force =    -0.00000000   -0.00000000   -0.00000756
     atom    3 type  2   force =    -0.00000000    0.00000000    0.00000087
     atom    4 type  2   force =     0.00000000    0.00000000   -0.00000087
     atom    5 type  2   force =     0.00000000   -0.00000000   -0.00000168
     atom    6 type  2   force =    -0.00000000    0.00000000    0.00000168

     Total force =     0.000686     Total SCF correction =     0.000011


     Computing stress (Cartesian axis) and pressure

          total   stress  (Ry/bohr**3)                   (kbar)     P=      500.22
   0.00340096   0.00000000   0.00000000          500.30        0.00        0.00
   0.00000000   0.00340096   0.00000000            0.00      500.30        0.00
   0.00000000   0.00000000   0.00339929            0.00        0.00      500.05


     Writing all to output data dir ./output/SiLi.save/

     init_run     :      2.26s CPU      3.59s WALL (       2 calls)
     electrons    :    292.00s CPU    326.22s WALL (      28 calls)
     update_pot   :     25.22s CPU     25.47s WALL (      26 calls)
     forces       :     16.14s CPU     16.48s WALL (      28 calls)
     stress       :     63.28s CPU     66.25s WALL (      28 calls)

     Called by init_run:
     wfcinit      :      0.72s CPU      1.56s WALL (       2 calls)
     potinit      :      0.65s CPU      0.79s WALL (       2 calls)
     hinit0       :      0.78s CPU      1.00s WALL (       2 calls)

     Called by electrons:
     c_bands      :    250.72s CPU    278.89s WALL (     300 calls)
     sum_band     :     35.75s CPU     40.20s WALL (     300 calls)
     v_of_rho     :      5.36s CPU      6.34s WALL (     327 calls)
     mix_rho      :      0.46s CPU      0.60s WALL (     300 calls)

     Called by c_bands:
     init_us_2    :      7.47s CPU      8.29s WALL (   19740 calls)
     init_us_2:cp :      7.45s CPU      8.26s WALL (   19740 calls)
     cegterg      :    232.64s CPU    257.33s WALL (    9000 calls)

     Called by *egterg:
     cdiaghg      :      7.79s CPU      8.22s WALL (   39189 calls)
     h_psi        :    200.32s CPU    224.76s WALL (   40059 calls)
     g_psi        :      1.14s CPU      1.17s WALL (   30999 calls)

     Called by h_psi:
     h_psi:calbec :     14.41s CPU     15.78s WALL (   40059 calls)
     vloc_psi     :    172.78s CPU    195.22s WALL (   40059 calls)
     add_vuspsi   :     12.43s CPU     13.00s WALL (   40059 calls)

     General routines
     calbec       :     16.73s CPU     18.16s WALL (   44259 calls)
     fft          :      2.71s CPU      3.99s WALL (    3969 calls)
     ffts         :      0.14s CPU      0.18s WALL (     300 calls)
     fftw         :    177.75s CPU    200.74s WALL (  833514 calls)

     Parallel routines

     PWSCF        :   6m39.41s CPU   7m19.46s WALL


   This run was terminated on:  17:57: 1  28Dec2024            

=------------------------------------------------------------------------------=
   JOB DONE.
=------------------------------------------------------------------------------=
