
     Program PWSCF v.7.2 starts on 27Dec2024 at 13:51:24 

     This program is part of the open-source Quantum ESPRESSO suite
     for quantum simulation of materials; please cite
         "P. Giannozzi et al., J. Phys.:Condens. Matter 21 395502 (2009);
         "P. Giannozzi et al., J. Phys.:Condens. Matter 29 465901 (2017);
         "P. Giannozzi et al., J. Chem. Phys. 152 154105 (2020);
          URL http://www.quantum-espresso.org", 
     in publications or presentations arising from this work. More details at
     http://www.quantum-espresso.org/quote

     Parallel version (MPI & OpenMP), running on       8 processor cores
     Number of MPI processes:                 8
     Threads/MPI process:                     1

     MPI processes distributed on     1 nodes
     482729 MiB available memory on the printing compute node when the environment starts

     Waiting for input...
     Reading input from standard input

     Current dimensions of program PWSCF are:
     Max number of different atomic species (ntypx) = 10
     Max number of k-points (npk) =  40000
     Max angular momentum in pseudopotentials (lmaxx) =  4

     R & G space division:  proc/nbgrp/npool/nimage =       8
     Subspace diagonalization in iterative solution of the eigenvalue problem:
     a serial algorithm will be used


     Parallelization info
     --------------------
     sticks:   dense  smooth     PW     G-vecs:    dense   smooth      PW
     Min         323     323     94                10118    10118    1629
     Max         324     324     96                10119    10119    1630
     Sum        2585    2585    755                80947    80947   13033

     Using Slab Decomposition



     bravais-lattice index     =            7
     lattice parameter (alat)  =      12.2227  a.u.
     unit-cell volume          =     838.4410 (a.u.)^3
     number of atoms/cell      =            6
     number of atomic types    =            2
     number of electrons       =        20.00
     number of Kohn-Sham states=           14
     kinetic-energy cutoff     =      80.0000  Ry
     charge density cutoff     =     320.0000  Ry
     scf convergence threshold =      1.0E-08
     mixing beta               =       0.7000
     number of iterations used =            8  plain     mixing
     energy convergence thresh.=      1.0E-04
     force convergence thresh. =      1.0E-03
     press convergence thresh. =      1.0E+00
     Exchange-correlation= PBE
                           (   1   4   3   4   0   0   0)
     nstep                     =           50


     celldm(1)=  12.222660  celldm(2)=   0.000000  celldm(3)=   0.918344
     celldm(4)=   0.000000  celldm(5)=   0.000000  celldm(6)=   0.000000

     crystal axes: (cart. coord. in units of alat)
               a(1) = (   0.500000  -0.500000   0.459172 )  
               a(2) = (   0.500000   0.500000   0.459172 )  
               a(3) = (  -0.500000  -0.500000   0.459172 )  

     reciprocal axes: (cart. coord. in units 2 pi/alat)
               b(1) = (  1.000000 -1.000000  0.000000 )  
               b(2) = (  0.000000  1.000000  1.088917 )  
               b(3) = ( -1.000000  0.000000  1.088917 )  


     PseudoPot. # 1 for Si read from file:
     ../pseudo/Si_ONCV_PBE_sr.upf
     MD5 check sum: e543d271109d17c80368dfa7c482276d
     Pseudo is Norm-conserving + core correction, Zval =  4.0
     Generated using ONCVPSP code by D. R. Hamann
     Using radial grid of 1510 points,  6 beta functions with: 
                l(1) =   0
                l(2) =   0
                l(3) =   1
                l(4) =   1
                l(5) =   2
                l(6) =   2

     PseudoPot. # 2 for Li read from file:
     ../pseudo/Li_ONCV_PBE_sr.upf
     MD5 check sum: 50ff420e78310ffa21704f3361e624a4
     Pseudo is Norm-conserving, Zval =  3.0
     Generated using ONCVPSP code by D. R. Hamann
     Using radial grid of 1944 points,  4 beta functions with: 
                l(1) =   0
                l(2) =   0
                l(3) =   1
                l(4) =   1

     atomic species   valence    mass     pseudopotential
        Si             4.00    28.08550     Si( 1.00)
        Li             3.00     6.94100     Li( 1.00)

     16 Sym. Ops., with inversion, found ( 8 have fractional translation)



   Cartesian axes

     site n.     atom                  positions (alat units)
         1           Si  tau(   1) = (   0.0000000   0.0000000   0.0000000  )
         2           Si  tau(   2) = (   0.0000000   0.0000000   0.4591719  )
         3           Li  tau(   3) = (   0.1656415   0.3343585   0.4591719  )
         4           Li  tau(   4) = (   0.8343585   0.6656415   0.4591719  )
         5           Li  tau(   5) = (   0.6656415   0.1656415   0.4591719  )
         6           Li  tau(   6) = (   0.3343585   0.8343585   0.4591719  )

     number of k points=    72  Marzari-Vanderbilt smearing, width (Ry)=  0.0200
                       cart. coord. in units 2pi/alat
        k(    1) = (   0.0000000   0.0000000   0.0000000), wk =   0.0133333
        k(    2) = (  -0.1666667   0.0000000   0.1814861), wk =   0.0266667
        k(    3) = (  -0.3333333   0.0000000   0.3629722), wk =   0.0266667
        k(    4) = (   0.5000000   0.0000000  -0.5444584), wk =   0.0133333
        k(    5) = (   0.0000000   0.2000000   0.2177833), wk =   0.0533333
        k(    6) = (  -0.1666667   0.2000000   0.3992695), wk =   0.0266667
        k(    7) = (  -0.3333333   0.2000000   0.5807556), wk =   0.0266667
        k(    8) = (   0.5000000   0.2000000  -0.3266750), wk =   0.0266667
        k(    9) = (   0.3333333   0.2000000  -0.1451889), wk =   0.0266667
        k(   10) = (   0.1666667   0.2000000   0.0362972), wk =   0.0266667
        k(   11) = (   0.0000000   0.4000000   0.4355667), wk =   0.0533333
        k(   12) = (  -0.1666667   0.4000000   0.6170528), wk =   0.0266667
        k(   13) = (  -0.3333333   0.4000000   0.7985389), wk =   0.0266667
        k(   14) = (   0.5000000   0.4000000  -0.1088917), wk =   0.0266667
        k(   15) = (   0.3333333   0.4000000   0.0725944), wk =   0.0266667
        k(   16) = (   0.1666667   0.4000000   0.2540806), wk =   0.0266667
        k(   17) = (   0.2000000  -0.2000000   0.0000000), wk =   0.0266667
        k(   18) = (   0.0333333  -0.2000000   0.1814861), wk =   0.0266667
        k(   19) = (  -0.1333333  -0.2000000   0.3629722), wk =   0.0266667
        k(   20) = (   0.7000000  -0.2000000  -0.5444584), wk =   0.0266667
        k(   21) = (   0.5333333  -0.2000000  -0.3629722), wk =   0.0266667
        k(   22) = (   0.3666667  -0.2000000  -0.1814861), wk =   0.0266667
        k(   23) = (   0.0333333   0.0000000   0.3992695), wk =   0.0266667
        k(   24) = (  -0.1333333   0.0000000   0.5807556), wk =   0.0266667
        k(   25) = (   0.7000000   0.0000000  -0.3266750), wk =   0.0266667
        k(   26) = (   0.5333333   0.0000000  -0.1451889), wk =   0.0266667
        k(   27) = (   0.3666667   0.0000000   0.0362972), wk =   0.0266667
        k(   28) = (   0.2000000   0.2000000   0.4355667), wk =   0.0266667
        k(   29) = (   0.0333333   0.2000000   0.6170528), wk =   0.0266667
        k(   30) = (  -0.1333333   0.2000000   0.7985389), wk =   0.0266667
        k(   31) = (   0.7000000   0.2000000  -0.1088917), wk =   0.0266667
        k(   32) = (   0.5333333   0.2000000   0.0725944), wk =   0.0266667
        k(   33) = (   0.3666667   0.2000000   0.2540806), wk =   0.0266667
        k(   34) = (   0.2000000  -0.6000000  -0.4355667), wk =   0.0533333
        k(   35) = (   0.0333333  -0.6000000  -0.2540806), wk =   0.0266667
        k(   36) = (  -0.1333333  -0.6000000  -0.0725944), wk =   0.0266667
        k(   37) = (   0.7000000  -0.6000000  -0.9800251), wk =   0.0266667
        k(   38) = (   0.5333333  -0.6000000  -0.7985389), wk =   0.0266667
        k(   39) = (   0.3666667  -0.6000000  -0.6170528), wk =   0.0266667
        k(   40) = (   0.2000000  -0.4000000  -0.2177833), wk =   0.0533333
        k(   41) = (   0.0333333  -0.4000000  -0.0362972), wk =   0.0266667
        k(   42) = (  -0.1333333  -0.4000000   0.1451889), wk =   0.0266667
        k(   43) = (   0.7000000  -0.4000000  -0.7622417), wk =   0.0266667
        k(   44) = (   0.5333333  -0.4000000  -0.5807556), wk =   0.0266667
        k(   45) = (   0.3666667  -0.4000000  -0.3992695), wk =   0.0266667
        k(   46) = (   0.4000000  -0.4000000   0.0000000), wk =   0.0266667
        k(   47) = (   0.2333333  -0.4000000   0.1814861), wk =   0.0266667
        k(   48) = (   0.0666667  -0.4000000   0.3629722), wk =   0.0266667
        k(   49) = (   0.9000000  -0.4000000  -0.5444584), wk =   0.0266667
        k(   50) = (   0.7333333  -0.4000000  -0.3629722), wk =   0.0266667
        k(   51) = (   0.5666667  -0.4000000  -0.1814861), wk =   0.0266667
        k(   52) = (   0.2333333  -0.2000000   0.3992695), wk =   0.0266667
        k(   53) = (   0.0666667  -0.2000000   0.5807556), wk =   0.0266667
        k(   54) = (   0.9000000  -0.2000000  -0.3266750), wk =   0.0266667
        k(   55) = (   0.7333333  -0.2000000  -0.1451889), wk =   0.0266667
        k(   56) = (   0.5666667  -0.2000000   0.0362972), wk =   0.0266667
        k(   57) = (   0.2333333   0.0000000   0.6170528), wk =   0.0266667
        k(   58) = (   0.0666667   0.0000000   0.7985389), wk =   0.0266667
        k(   59) = (   0.9000000   0.0000000  -0.1088917), wk =   0.0266667
        k(   60) = (   0.7333333   0.0000000   0.0725944), wk =   0.0266667
        k(   61) = (   0.5666667   0.0000000   0.2540806), wk =   0.0266667
        k(   62) = (   0.2333333  -0.8000000  -0.2540806), wk =   0.0266667
        k(   63) = (   0.0666667  -0.8000000  -0.0725944), wk =   0.0266667
        k(   64) = (   0.9000000  -0.8000000  -0.9800251), wk =   0.0266667
        k(   65) = (   0.7333333  -0.8000000  -0.7985389), wk =   0.0266667
        k(   66) = (   0.5666667  -0.8000000  -0.6170528), wk =   0.0266667
        k(   67) = (   0.4000000  -0.6000000  -0.2177833), wk =   0.0266667
        k(   68) = (   0.2333333  -0.6000000  -0.0362972), wk =   0.0266667
        k(   69) = (   0.0666667  -0.6000000   0.1451889), wk =   0.0266667
        k(   70) = (   0.9000000  -0.6000000  -0.7622417), wk =   0.0266667
        k(   71) = (   0.7333333  -0.6000000  -0.5807556), wk =   0.0266667
        k(   72) = (   0.5666667  -0.6000000  -0.3992695), wk =   0.0266667

     Dense  grid:    80947 G-vectors     FFT dimensions: (  60,  60,  60)

     Estimated max dynamical RAM per process >      40.17 MB

     Estimated total dynamical RAM >     321.37 MB

     Initial potential from superposition of free atoms

     starting charge      19.9805, renormalised to      20.0000
     Starting wfcs are   16 randomized atomic wfcs

     total cpu time spent up to now is        5.1 secs

     Self-consistent Calculation

     iteration #  1     ecut=    80.00 Ry     beta= 0.70
     Davidson diagonalization with overlap
     ethr =  1.00E-02,  avg # of iterations =  5.3

     Threshold (ethr) on eigenvalues was too large:
     Diagonalizing with lowered threshold

     Davidson diagonalization with overlap
     ethr =  6.36E-04,  avg # of iterations =  2.5

     total cpu time spent up to now is       10.4 secs

     total energy              =     -74.41954365 Ry
     estimated scf accuracy    <       0.11633519 Ry

     iteration #  2     ecut=    80.00 Ry     beta= 0.70
     Davidson diagonalization with overlap
     ethr =  5.82E-04,  avg # of iterations =  2.7

     total cpu time spent up to now is       12.9 secs

     total energy              =     -74.43989335 Ry
     estimated scf accuracy    <       0.03875310 Ry

     iteration #  3     ecut=    80.00 Ry     beta= 0.70
     Davidson diagonalization with overlap
     ethr =  1.94E-04,  avg # of iterations =  2.2

     total cpu time spent up to now is       15.3 secs

     total energy              =     -74.44798900 Ry
     estimated scf accuracy    <       0.00103527 Ry

     iteration #  4     ecut=    80.00 Ry     beta= 0.70
     Davidson diagonalization with overlap
     ethr =  5.18E-06,  avg # of iterations =  6.4

     total cpu time spent up to now is       18.2 secs

     total energy              =     -74.44807963 Ry
     estimated scf accuracy    <       0.00005556 Ry

     iteration #  5     ecut=    80.00 Ry     beta= 0.70
     Davidson diagonalization with overlap
     ethr =  2.78E-07,  avg # of iterations =  2.4

     total cpu time spent up to now is       20.5 secs

     total energy              =     -74.44809508 Ry
     estimated scf accuracy    <       0.00000111 Ry

     iteration #  6     ecut=    80.00 Ry     beta= 0.70
     Davidson diagonalization with overlap
     ethr =  5.55E-09,  avg # of iterations =  3.5

     total cpu time spent up to now is       23.0 secs

     total energy              =     -74.44809556 Ry
     estimated scf accuracy    <       0.00000004 Ry

     iteration #  7     ecut=    80.00 Ry     beta= 0.70
     Davidson diagonalization with overlap
     ethr =  2.08E-10,  avg # of iterations =  3.1

     total cpu time spent up to now is       25.5 secs

     End of self-consistent calculation

          k = 0.0000 0.0000 0.0000 ( 10183 PWs)   bands (ev):

   -43.9227 -43.9175 -43.9147 -43.9147  -5.9224  -2.8610   0.1836   0.7999
     0.7999   2.6621   2.6621   2.8385   3.9586   4.4598

          k =-0.1667 0.0000 0.1815 ( 10150 PWs)   bands (ev):

   -43.9222 -43.9176 -43.9150 -43.9148  -5.7931  -3.2654   0.6485   0.6981
     0.7864   2.0970   2.1873   3.3061   4.0722   4.9509

          k =-0.3333 0.0000 0.3630 ( 10126 PWs)   bands (ev):

   -43.9209 -43.9181 -43.9154 -43.9152  -5.4135  -4.0484   0.5144   0.8336
     1.1841   1.5398   1.9570   4.1520   4.3317   5.1386

          k = 0.5000 0.0000-0.5445 ( 10110 PWs)   bands (ev):

   -43.9193 -43.9193 -43.9155 -43.9155  -4.8117  -4.8117   0.6748   0.6748
     1.0798   1.0798   3.3943   3.3943   4.5629   4.5629

          k = 0.0000 0.2000 0.2178 ( 10155 PWs)   bands (ev):

   -43.9220 -43.9177 -43.9151 -43.9149  -5.7366  -3.4104   0.6067   0.7859
     0.8885   1.9305   2.0501   3.4721   4.1159   5.1368

          k =-0.1667 0.2000 0.3993 ( 10146 PWs)   bands (ev):

   -43.9211 -43.9178 -43.9154 -43.9153  -5.3621  -4.1572   0.4806   1.0238
     1.0878   1.7462   2.3221   3.5607   4.1168   4.7696

          k =-0.3333 0.2000 0.5808 ( 10133 PWs)   bands (ev):

   -43.9198 -43.9185 -43.9158 -43.9154  -4.8502  -4.7567   0.1467   0.6858
     1.0787   1.8762   2.8835   3.8935   3.9046   4.9401

          k = 0.5000 0.2000-0.3267 ( 10137 PWs)   bands (ev):

   -43.9199 -43.9186 -43.9159 -43.9152  -5.3945  -3.9769  -0.2041   0.9093
     1.1117   1.4716   2.1944   4.2924   5.0306   5.6362

          k = 0.3333 0.2000-0.1452 ( 10129 PWs)   bands (ev):

   -43.9212 -43.9180 -43.9155 -43.9148  -5.7424  -3.1916  -0.1982   0.2904
     0.9721   1.8877   2.5867   3.9673   4.2009   5.3925

          k = 0.1667 0.2000 0.0363 ( 10135 PWs)   bands (ev):

   -43.9220 -43.9178 -43.9151 -43.9147  -5.8625  -2.9056   0.0549   0.1415
     0.9186   2.3458   2.7103   3.4670   3.9591   4.8370

          k = 0.0000 0.4000 0.4356 ( 10135 PWs)   bands (ev):

   -43.9203 -43.9185 -43.9155 -43.9153  -5.1970  -4.3670   0.5371   0.8795
     0.9755   1.3283   2.4915   4.2646   4.4470   4.5737

          k =-0.1667 0.4000 0.6171 ( 10140 PWs)   bands (ev):

   -43.9195 -43.9189 -43.9158 -43.9154  -4.9852  -4.6018   0.1204   0.7247
     1.0657   1.7747   2.6140   4.1002   4.2128   4.9986

          k =-0.3333 0.4000 0.7985 ( 10131 PWs)   bands (ev):

   -43.9196 -43.9185 -43.9164 -43.9151  -5.4307  -3.8442  -0.5132   0.9152
     1.0748   1.2884   2.6090   4.2020   5.0484   5.9518

          k = 0.5000 0.4000-0.1089 ( 10120 PWs)   bands (ev):

   -43.9202 -43.9180 -43.9166 -43.9148  -5.6861  -3.1157  -0.7729  -0.0281
     1.1297   1.8404   3.0324   3.6809   4.7515   5.4279

          k = 0.3333 0.4000 0.0726 ( 10109 PWs)   bands (ev):

   -43.9206 -43.9180 -43.9161 -43.9148  -5.7398  -3.0092  -0.6295  -0.0995
     1.0986   2.0188   2.9518   3.5860   4.3930   5.6626

          k = 0.1667 0.4000 0.2541 ( 10124 PWs)   bands (ev):

   -43.9207 -43.9182 -43.9157 -43.9150  -5.5794  -3.6324  -0.1162   0.8449
     0.9581   1.5041   2.2463   4.1995   4.7531   5.5679

          k = 0.2000-0.2000 0.0000 ( 10149 PWs)   bands (ev):

   -43.9219 -43.9178 -43.9151 -43.9147  -5.8577  -2.8901   0.0061   0.0515
     0.9415   2.3470   2.7472   3.5341   3.8588   4.9710

          k = 0.0333-0.2000 0.1815 ( 10154 PWs)   bands (ev):

   -43.9221 -43.9177 -43.9150 -43.9148  -5.7818  -3.2733   0.5442   0.6654
     0.7860   2.0420   2.2032   3.4365   4.2291   4.9021

          k =-0.1333-0.2000 0.3630 ( 10153 PWs)   bands (ev):

   -43.9213 -43.9177 -43.9153 -43.9152  -5.4564  -4.0074   0.5116   1.0497
     1.1931   1.7212   2.0620   3.5545   4.0545   5.0929

          k = 0.7000-0.2000-0.5445 ( 10140 PWs)   bands (ev):

   -43.9201 -43.9183 -43.9157 -43.9155  -4.8944  -4.7215   0.2447   0.6729
     1.0905   1.8428   3.1866   3.5624   3.8268   4.8130

          k = 0.5333-0.2000-0.3630 ( 10138 PWs)   bands (ev):

   -43.9196 -43.9188 -43.9159 -43.9152  -5.3001  -4.1416  -0.1609   0.8779
     1.0837   1.6829   2.1373   4.2446   5.1072   5.2813

          k = 0.3667-0.2000-0.1815 ( 10123 PWs)   bands (ev):

   -43.9210 -43.9181 -43.9156 -43.9149  -5.6902  -3.3318  -0.2284   0.4543
     0.9716   1.7315   2.5080   4.0879   4.3875   5.4713

          k = 0.0333 0.0000 0.3993 ( 10141 PWs)   bands (ev):

   -43.9217 -43.9173 -43.9153 -43.9153  -5.4162  -4.1077   0.8025   0.8055
     1.7330   1.7386   2.3927   3.0119   3.2129   4.6814

          k =-0.1333 0.0000 0.5808 ( 10143 PWs)   bands (ev):

   -43.9207 -43.9174 -43.9158 -43.9157  -4.8497  -4.7603   0.4197   0.4407
     1.7599   1.7990   2.6251   2.8165   4.0577   4.1888

          k = 0.7000 0.0000-0.3267 ( 10128 PWs)   bands (ev):

   -43.9195 -43.9186 -43.9161 -43.9155  -5.2895  -4.0750   0.0379   0.2023
     1.0627   1.8736   2.0688   3.3094   5.0359   5.8152

          k = 0.5333 0.0000-0.1452 ( 10121 PWs)   bands (ev):

   -43.9202 -43.9186 -43.9158 -43.9150  -5.6511  -3.2506  -0.0900   0.0075
     0.2331   2.2844   2.3550   3.8669   4.7705   5.7598

          k = 0.3667 0.0000 0.0363 ( 10111 PWs)   bands (ev):

   -43.9214 -43.9180 -43.9153 -43.9148  -5.8094  -2.9301  -0.1146   0.1270
     0.4478   2.4729   2.5360   3.9398   4.2640   4.9495

          k = 0.2000 0.2000 0.4356 ( 10141 PWs)   bands (ev):

   -43.9209 -43.9179 -43.9154 -43.9154  -5.2584  -4.3044   0.4478   0.8770
     1.1035   1.7645   2.6141   3.5768   4.0992   4.5618

          k = 0.0333 0.2000 0.6171 ( 10132 PWs)   bands (ev):

   -43.9204 -43.9177 -43.9159 -43.9156  -4.8890  -4.6984   0.3065   0.4288
     1.5859   1.7899   2.4057   3.0418   4.3849   4.4603

          k =-0.1333 0.2000 0.7985 ( 10115 PWs)   bands (ev):

   -43.9196 -43.9181 -43.9164 -43.9156  -5.3304  -3.9402  -0.1960   0.2515
     0.7389   1.8489   2.5535   2.9435   5.0402   6.2419

          k = 0.7000 0.2000-0.1089 ( 10131 PWs)   bands (ev):

   -43.9193 -43.9185 -43.9166 -43.9151  -5.6067  -3.1642  -0.5377  -0.3071
     0.3639   2.0967   2.9674   3.4120   4.5881   6.7709

          k = 0.5333 0.2000 0.0726 ( 10111 PWs)   bands (ev):

   -43.9202 -43.9183 -43.9162 -43.9149  -5.6998  -3.0304  -0.5232  -0.2536
     0.6480   2.1587   2.8704   3.9348   4.1351   5.9758

          k = 0.3667 0.2000 0.2541 ( 10128 PWs)   bands (ev):

   -43.9208 -43.9181 -43.9156 -43.9150  -5.5899  -3.6226  -0.1401   0.9066
     1.0598   1.4323   2.2867   4.1544   4.7030   5.4922

          k = 0.2000-0.6000-0.4356 ( 10138 PWs)   bands (ev):

   -43.9194 -43.9190 -43.9159 -43.9154  -5.0889  -4.4603  -0.0315   0.7702
     1.0622   1.9402   2.3095   4.0846   4.5777   5.1151

          k = 0.0333-0.6000-0.2541 ( 10132 PWs)   bands (ev):

   -43.9195 -43.9189 -43.9160 -43.9152  -5.4749  -3.7186  -0.0580   0.2477
     0.6359   1.9553   2.1421   3.6833   5.0918   6.3951

          k =-0.1333-0.6000-0.0726 ( 10117 PWs)   bands (ev):

   -43.9197 -43.9186 -43.9162 -43.9150  -5.6655  -3.0473  -0.4308  -0.3614
     0.3476   2.2425   2.8147   3.7156   4.4185   6.1971

          k = 0.7000-0.6000-0.9800 ( 10122 PWs)   bands (ev):

   -43.9199 -43.9182 -43.9166 -43.9149  -5.6565  -3.1346  -0.6886  -0.1469
     0.8000   1.9610   3.0036   3.8574   4.2172   5.9817

          k = 0.5333-0.6000-0.7985 ( 10137 PWs)   bands (ev):

   -43.9198 -43.9183 -43.9164 -43.9151  -5.4505  -3.8228  -0.5691   0.9675
     1.1751   1.2955   2.6286   4.6122   5.0420   5.5548

          k = 0.3667-0.6000-0.6171 ( 10141 PWs)   bands (ev):

   -43.9196 -43.9186 -43.9158 -43.9156  -5.0502  -4.5244  -0.0546   0.3215
     1.6818   1.9213   2.7546   4.0588   4.7693   5.2758

          k = 0.2000-0.4000-0.2178 ( 10122 PWs)   bands (ev):

   -43.9207 -43.9182 -43.9157 -43.9149  -5.6291  -3.4849  -0.2444   0.6384
     0.9725   1.5842   2.4258   4.1934   4.5791   5.5527

          k = 0.0333-0.4000-0.0363 ( 10104 PWs)   bands (ev):

   -43.9212 -43.9181 -43.9154 -43.9148  -5.7908  -2.9381  -0.1661   0.0305
     0.4228   2.4540   2.5632   3.9972   4.2591   5.0757

          k =-0.1333-0.4000 0.1452 ( 10122 PWs)   bands (ev):

   -43.9210 -43.9181 -43.9156 -43.9149  -5.7212  -3.2062  -0.1537   0.2150
     0.7279   1.9932   2.5116   4.0714   4.3747   5.5309

          k = 0.7000-0.4000-0.7622 ( 10129 PWs)   bands (ev):

   -43.9202 -43.9183 -43.9159 -43.9152  -5.4249  -3.9445  -0.2828   0.9338
     1.3270   1.4669   2.2794   4.4762   4.9344   5.5959

          k = 0.5333-0.4000-0.5808 ( 10125 PWs)   bands (ev):

   -43.9192 -43.9189 -43.9158 -43.9157  -4.9213  -4.6692  -0.0433   0.1643
     1.7987   1.9438   3.0551   3.7385   5.1280   5.3389

          k = 0.3667-0.4000-0.3993 ( 10133 PWs)   bands (ev):

   -43.9198 -43.9185 -43.9159 -43.9154  -5.2467  -4.2471  -0.2344   0.5910
     1.5346   1.9908   2.2292   4.6565   4.8918   5.1905

          k = 0.4000-0.4000 0.0000 ( 10114 PWs)   bands (ev):

   -43.9205 -43.9180 -43.9164 -43.9148  -5.7434  -2.9332  -0.7346  -0.2314
     1.1279   2.1258   3.0578   3.3577   4.5577   5.6182

          k = 0.2333-0.4000 0.1815 ( 10126 PWs)   bands (ev):

   -43.9207 -43.9181 -43.9158 -43.9149  -5.6700  -3.3435  -0.3609   0.4169
     1.0088   1.6842   2.5910   4.1769   4.3686   5.5863

          k = 0.0667-0.4000 0.3630 ( 10134 PWs)   bands (ev):

   -43.9205 -43.9184 -43.9155 -43.9152  -5.3766  -4.0810   0.3120   0.8232
     1.1449   1.5929   1.9240   4.2858   4.6641   5.1794

          k = 0.9000-0.4000-0.5445 ( 10138 PWs)   bands (ev):

   -43.9198 -43.9187 -43.9156 -43.9155  -4.8636  -4.7570   0.4400   0.6750
     1.0837   1.4216   3.2825   3.4977   4.1916   4.7631

          k = 0.7333-0.4000-0.3630 ( 10131 PWs)   bands (ev):

   -43.9194 -43.9188 -43.9162 -43.9152  -5.2747  -4.1600  -0.3001   0.8885
     1.0680   1.6677   2.3274   4.1107   5.2520   5.3222

          k = 0.5667-0.4000-0.1815 ( 10132 PWs)   bands (ev):

   -43.9199 -43.9181 -43.9166 -43.9149  -5.6075  -3.3770  -0.7173   0.3156
     1.1119   1.5538   2.9154   4.0896   4.6929   5.5516

          k = 0.2333-0.2000 0.3993 ( 10152 PWs)   bands (ev):

   -43.9209 -43.9179 -43.9154 -43.9153  -5.3431  -4.1734   0.3562   0.9083
     1.1828   1.7583   2.2977   3.7223   4.3377   4.8090

          k = 0.0667-0.2000 0.5808 ( 10138 PWs)   bands (ev):

   -43.9205 -43.9177 -43.9158 -43.9156  -4.8281  -4.7826   0.3493   0.5654
     1.4106   1.8130   2.7053   3.1304   4.0192   4.3956

          k = 0.9000-0.2000-0.3267 ( 10121 PWs)   bands (ev):

   -43.9197 -43.9180 -43.9163 -43.9156  -5.2547  -4.1033  -0.0918   0.2503
     1.0075   1.8377   2.3987   2.9263   4.9246   5.8710

          k = 0.7333-0.2000-0.1452 ( 10127 PWs)   bands (ev):

   -43.9192 -43.9185 -43.9166 -43.9152  -5.5655  -3.2978  -0.4962  -0.1566
     0.3277   2.0288   2.9322   3.2776   4.8037   6.7449

          k = 0.5667-0.2000 0.0363 ( 10103 PWs)   bands (ev):

   -43.9200 -43.9184 -43.9163 -43.9149  -5.6968  -2.9742  -0.5556  -0.3826
     0.5781   2.2259   2.9348   3.9033   4.0371   6.1471

          k = 0.2333 0.0000 0.6171 ( 10127 PWs)   bands (ev):

   -43.9203 -43.9179 -43.9158 -43.9156  -4.9005  -4.6878   0.3431   0.4184
     1.6102   1.6205   2.4396   3.1895   4.3652   4.5442

          k = 0.0667 0.0000 0.7985 ( 10119 PWs)   bands (ev):

   -43.9199 -43.9171 -43.9164 -43.9162  -5.2863  -3.9769  -0.0245  -0.0131
     0.6664   2.0224   2.5735   2.6402   4.8104   6.3111

          k = 0.9000 0.0000-0.1089 ( 10120 PWs)   bands (ev):

   -43.9194 -43.9174 -43.9166 -43.9162  -5.5206  -3.2094  -0.5233  -0.2247
    -0.1943   1.8965   3.0030   3.0724   5.5211   7.2354

          k = 0.7333 0.0000 0.0726 ( 10139 PWs)   bands (ev):

   -43.9191 -43.9187 -43.9164 -43.9155  -5.5949  -3.0787  -0.5514  -0.2579
    -0.0902   2.1670   2.8600   3.3183   5.1191   6.3583

          k = 0.5667 0.0000 0.2541 ( 10145 PWs)   bands (ev):

   -43.9197 -43.9188 -43.9159 -43.9152  -5.4938  -3.7043  -0.0009   0.2666
     0.6729   1.9943   2.0295   3.8103   5.0692   6.3245

          k = 0.2333-0.8000-0.2541 ( 10126 PWs)   bands (ev):

   -43.9193 -43.9184 -43.9165 -43.9153  -5.4170  -3.7597  -0.3505   0.3826
     0.5189   1.7886   2.6983   3.1430   5.1095   6.5793

          k = 0.0667-0.8000-0.0726 ( 10129 PWs)   bands (ev):

   -43.9192 -43.9182 -43.9166 -43.9157  -5.5715  -3.0882  -0.6037  -0.3248
    -0.0761   2.0545   2.9725   3.1996   5.2492   6.7687

          k = 0.9000-0.8000-0.9800 ( 10123 PWs)   bands (ev):

   -43.9192 -43.9182 -43.9166 -43.9156  -5.5544  -3.1925  -0.4523  -0.3475
    -0.0012   2.0616   2.9380   3.1455   5.1794   6.8073

          k = 0.7333-0.8000-0.7985 ( 10122 PWs)   bands (ev):

   -43.9194 -43.9185 -43.9164 -43.9153  -5.3654  -3.9088  -0.3156   0.4959
     0.7972   1.6506   2.5736   3.2827   5.1309   6.1853

          k = 0.5667-0.8000-0.6171 ( 10136 PWs)   bands (ev):

   -43.9193 -43.9191 -43.9158 -43.9154  -5.0020  -4.5828   0.0756   0.6244
     1.1930   1.8004   2.6486   4.1732   4.3148   5.0316

          k = 0.4000-0.6000-0.2178 ( 10134 PWs)   bands (ev):

   -43.9198 -43.9182 -43.9166 -43.9150  -5.5563  -3.5277  -0.6652   0.5243
     1.0997   1.4249   2.8303   4.2280   4.7144   5.6771

          k = 0.2333-0.6000-0.0363 ( 10115 PWs)   bands (ev):

   -43.9198 -43.9183 -43.9165 -43.9149  -5.6840  -2.9787  -0.6260  -0.4078
     0.6063   2.1931   3.0107   3.8477   4.0041   6.2170

          k = 0.0667-0.6000 0.1452 ( 10129 PWs)   bands (ev):

   -43.9197 -43.9187 -43.9161 -43.9151  -5.6132  -3.2723  -0.2447  -0.0693
     0.2236   2.1887   2.5401   3.6627   4.8237   6.0748

          k = 0.9000-0.6000-0.7622 ( 10129 PWs)   bands (ev):

   -43.9193 -43.9190 -43.9160 -43.9153  -5.3434  -4.0272  -0.0695   0.5146
     1.1136   1.6246   2.0925   3.7847   5.1179   5.7270

          k = 0.7333-0.6000-0.5808 ( 10135 PWs)   bands (ev):

   -43.9194 -43.9188 -43.9158 -43.9155  -4.8830  -4.7181   0.0592   0.4331
     1.3684   1.8993   2.9623   3.8282   4.3615   5.1413

          k = 0.5667-0.6000-0.3993 ( 10127 PWs)   bands (ev):

   -43.9197 -43.9185 -43.9160 -43.9154  -5.2335  -4.2562  -0.3052   0.5627
     1.5569   2.0220   2.2643   4.7872   4.9921   5.2389

     the Fermi energy is     2.1709 ev

!    total energy              =     -74.44809558 Ry
     estimated scf accuracy    <          4.3E-09 Ry
     smearing contrib. (-TS)   =       0.00006700 Ry
     internal energy E=F+TS    =     -74.44816258 Ry

     The total energy is F=E-TS. E is the sum of the following terms:
     one-electron contribution =     -35.58656161 Ry
     hartree contribution      =      16.15061725 Ry
     xc contribution           =     -19.38251318 Ry
     ewald contribution        =     -35.62970504 Ry

     convergence has been achieved in   7 iterations

     Forces acting on atoms (cartesian axes, Ry/au):

     atom    1 type  1   force =     0.00000000    0.00000000   -0.00000000
     atom    2 type  1   force =     0.00000000    0.00000000    0.00000000
     atom    3 type  2   force =    -0.00175369    0.00175369    0.00000000
     atom    4 type  2   force =     0.00175369   -0.00175369    0.00000000
     atom    5 type  2   force =    -0.00175369   -0.00175369   -0.00000000
     atom    6 type  2   force =     0.00175369    0.00175369   -0.00000000
     The non-local contrib.  to forces
     atom    1 type  1   force =     0.00000000   -0.00000000   -0.00000000
     atom    2 type  1   force =     0.00000000   -0.00000000    0.00000000
     atom    3 type  2   force =    -0.04274918    0.04274918    0.00000000
     atom    4 type  2   force =     0.04274918   -0.04274918    0.00000000
     atom    5 type  2   force =    -0.04274918   -0.04274918   -0.00000000
     atom    6 type  2   force =     0.04274918    0.04274918    0.00000000
     The ionic contribution  to forces
     atom    1 type  1   force =    -0.00000000   -0.00000000   -0.00000000
     atom    2 type  1   force =     0.00000000    0.00000000    0.00000000
     atom    3 type  2   force =    -0.28246638    0.28246638   -0.00000000
     atom    4 type  2   force =     0.28246638   -0.28246638    0.00000000
     atom    5 type  2   force =    -0.28246638   -0.28246638   -0.00000000
     atom    6 type  2   force =     0.28246638    0.28246638   -0.00000000
     The local contribution  to forces
     atom    1 type  1   force =    -0.00000000    0.00000000   -0.00000000
     atom    2 type  1   force =    -0.00000000   -0.00000000    0.00000000
     atom    3 type  2   force =     0.32344862   -0.32344862    0.00000000
     atom    4 type  2   force =    -0.32344862    0.32344862    0.00000000
     atom    5 type  2   force =     0.32344862    0.32344862    0.00000000
     atom    6 type  2   force =    -0.32344862   -0.32344862    0.00000000
     The core correction contribution to forces
     atom    1 type  1   force =     0.00000000    0.00000000   -0.00000000
     atom    2 type  1   force =    -0.00000000    0.00000000   -0.00000000
     atom    3 type  2   force =     0.00000000    0.00000000    0.00000000
     atom    4 type  2   force =     0.00000000    0.00000000    0.00000000
     atom    5 type  2   force =     0.00000000    0.00000000    0.00000000
     atom    6 type  2   force =     0.00000000    0.00000000    0.00000000
     The Hubbard contrib.    to forces
     atom    1 type  1   force =     0.00000000    0.00000000    0.00000000
     atom    2 type  1   force =     0.00000000    0.00000000    0.00000000
     atom    3 type  2   force =     0.00000000    0.00000000    0.00000000
     atom    4 type  2   force =     0.00000000    0.00000000    0.00000000
     atom    5 type  2   force =     0.00000000    0.00000000    0.00000000
     atom    6 type  2   force =     0.00000000    0.00000000    0.00000000
     The SCF correction term to forces
     atom    1 type  1   force =     0.00000000    0.00000000    0.00000000
     atom    2 type  1   force =    -0.00000000    0.00000000    0.00000000
     atom    3 type  2   force =     0.00001324   -0.00001324    0.00000000
     atom    4 type  2   force =    -0.00001324    0.00001324   -0.00000000
     atom    5 type  2   force =     0.00001324    0.00001324    0.00000000
     atom    6 type  2   force =    -0.00001324   -0.00001324   -0.00000000

     Total force =     0.004960     Total SCF correction =     0.000037


     Computing stress (Cartesian axis) and pressure

          total   stress  (Ry/bohr**3)                   (kbar)     P=       -3.66
   0.00033583   0.00000000   0.00000000           49.40        0.00        0.00
   0.00000000   0.00033583  -0.00000000            0.00       49.40       -0.00
  -0.00000000   0.00000000  -0.00074633           -0.00        0.00     -109.79


     BFGS Geometry Optimization
     Energy error            =      0.0E+00 Ry
     Gradient error          =      1.8E-03 Ry/Bohr
     Cell gradient error     =      6.1E+02 kbar

     number of scf cycles    =   1
     number of bfgs steps    =   0

     enthalpy           new  =     -71.5982925684 Ry

     new trust radius        =       0.5000000000 bohr
ibrav =      7
 celldm(1) =     11.44286679
 celldm(3) =      0.89623439
Input lattice vectors:
     0.46810052    -0.46810052     0.41952778
     0.46810052     0.46810052     0.41952778
    -0.46810052    -0.46810052     0.41952778
New lattice vectors in INITIAL alat:
     0.46810052    -0.46810052     0.41952778
     0.46810052     0.46810052     0.41952778
    -0.46810052    -0.46810052     0.41952778
New lattice vectors in NEW alat (for information only):
     0.50000000    -0.50000000     0.44811719
     0.50000000     0.50000000     0.44811719
    -0.50000000    -0.50000000     0.44811719
Discrepancy in bohr =     0.000000    0.000000    0.000000
     new conv_thr            =       0.0000000100 Ry

     new unit-cell volume =    671.42288 a.u.^3 (    99.49461 Ang^3 )
     density =      1.40085 g/cm^3

CELL_PARAMETERS (alat= 12.22265979)
   0.468100519  -0.468100519   0.419527783
   0.468100519   0.468100519   0.419527783
  -0.468100519  -0.468100519   0.419527783

ATOMIC_POSITIONS (crystal)
Si            0.0000000000       -0.0000000000       -0.0000000000
Si           -0.0000000000        0.5000000000        0.5000000000
Li           -0.1689560727        0.8344780363        0.3344780363
Li            0.1689560727        1.1655219637       -0.3344780363
Li            0.5000000000        0.6655219637       -0.1655219637
Li           -0.5000000000        1.3344780363        0.1655219637



     Writing config-only to output data dir ./output/SiLi.save/
     NEW-OLD atomic charge density approx. for the potential
     extrapolated charge   15.02979, renormalised to   20.00000

     total cpu time spent up to now is       31.0 secs

     Self-consistent Calculation

     iteration #  1     ecut=    80.00 Ry     beta= 0.70
     Davidson diagonalization with overlap
     c_bands:  1 eigenvalues not converged
     c_bands:  1 eigenvalues not converged
     c_bands:  1 eigenvalues not converged
     c_bands:  1 eigenvalues not converged
     c_bands:  1 eigenvalues not converged
     c_bands:  1 eigenvalues not converged
     ethr =  1.00E-06,  avg # of iterations = 11.5

     total cpu time spent up to now is       37.3 secs

     total energy              =     -74.16622780 Ry
     estimated scf accuracy    <       0.16954183 Ry

     iteration #  2     ecut=    80.00 Ry     beta= 0.70
     Davidson diagonalization with overlap
     ethr =  8.48E-04,  avg # of iterations =  3.1

     total cpu time spent up to now is       40.1 secs

     total energy              =     -74.43184533 Ry
     estimated scf accuracy    <       0.20109755 Ry

     iteration #  3     ecut=    80.00 Ry     beta= 0.70
     Davidson diagonalization with overlap
     ethr =  8.48E-04,  avg # of iterations =  1.0

     total cpu time spent up to now is       41.9 secs

     total energy              =     -74.43438000 Ry
     estimated scf accuracy    <       0.02945331 Ry

     iteration #  4     ecut=    80.00 Ry     beta= 0.70
     Davidson diagonalization with overlap
     ethr =  1.47E-04,  avg # of iterations =  1.9

     total cpu time spent up to now is       43.9 secs

     total energy              =     -74.43500013 Ry
     estimated scf accuracy    <       0.00371499 Ry

     iteration #  5     ecut=    80.00 Ry     beta= 0.70
     Davidson diagonalization with overlap
     ethr =  1.86E-05,  avg # of iterations =  3.0

     total cpu time spent up to now is       46.1 secs

     total energy              =     -74.43575531 Ry
     estimated scf accuracy    <       0.00000944 Ry

     iteration #  6     ecut=    80.00 Ry     beta= 0.70
     Davidson diagonalization with overlap
     ethr =  4.72E-08,  avg # of iterations =  5.7

     total cpu time spent up to now is       49.4 secs

     total energy              =     -74.43577612 Ry
     estimated scf accuracy    <       0.00000942 Ry

     iteration #  7     ecut=    80.00 Ry     beta= 0.70
     Davidson diagonalization with overlap
     ethr =  4.71E-08,  avg # of iterations =  2.0

     total cpu time spent up to now is       51.5 secs

     total energy              =     -74.43577765 Ry
     estimated scf accuracy    <       0.00000004 Ry

     iteration #  8     ecut=    80.00 Ry     beta= 0.70
     Davidson diagonalization with overlap
     ethr =  2.23E-10,  avg # of iterations =  3.4

     total cpu time spent up to now is       54.0 secs

     End of self-consistent calculation

          k = 0.0000 0.0000 0.0000 ( 10183 PWs)   bands (ev):

   -42.3799 -42.3666 -42.3601 -42.3601  -5.4369  -1.1359   0.8467   1.6969
     1.6969   4.3024   4.3834   4.3834   5.1150   5.5525

          k =-0.1780-0.0000 0.1986 ( 10150 PWs)   bands (ev):

   -42.3786 -42.3667 -42.3608 -42.3605  -5.2795  -1.8998   1.5540   1.6718
     1.7536   3.4485   3.6019   4.8030   5.3524   6.3790

          k =-0.3560-0.0000 0.3973 ( 10126 PWs)   bands (ev):

   -42.3751 -42.3677 -42.3623 -42.3615  -4.8125  -3.0495   1.4372   1.7645
     2.3111   2.7274   3.4209   5.7471   5.7779   7.3338

          k = 0.5341 0.0000-0.5959 ( 10110 PWs)   bands (ev):

   -42.3708 -42.3708 -42.3624 -42.3624  -4.0551  -4.0551   1.6437   1.6437
     2.1290   2.1290   5.2543   5.2543   6.1073   6.1073

          k = 0.0000 0.2136 0.2384 ( 10155 PWs)   bands (ev):

   -42.3780 -42.3668 -42.3611 -42.3607  -5.2105  -2.1304   1.5145   1.6878
     2.0226   3.2223   3.4097   4.9851   5.4314   6.6202

          k =-0.1780 0.2136 0.4370 ( 10146 PWs)   bands (ev):

   -42.3756 -42.3670 -42.3621 -42.3619  -4.7478  -3.1936   1.3836   2.0769
     2.0910   2.9715   3.8799   4.9029   5.7464   6.8211

          k =-0.3560 0.2136 0.6356 ( 10133 PWs)   bands (ev):

   -42.3720 -42.3690 -42.3633 -42.3623  -4.1024  -3.9861   1.0266   1.6687
     2.1052   3.0877   4.6724   5.2468   5.8291   6.6366

          k = 0.5341 0.2136-0.3575 ( 10137 PWs)   bands (ev):

   -42.3727 -42.3687 -42.3637 -42.3614  -4.7909  -2.9569   0.6167   1.8876
     2.2357   2.8241   3.5077   5.7505   6.7155   7.6487

          k = 0.3560 0.2136-0.1589 ( 10129 PWs)   bands (ev):

   -42.3763 -42.3675 -42.3624 -42.3605  -5.2210  -1.7725   0.6096   1.2079
     1.9250   3.2009   4.1058   5.3806   5.6630   6.8844

          k = 0.1780 0.2136 0.0397 ( 10135 PWs)   bands (ev):

   -42.3783 -42.3670 -42.3611 -42.3602  -5.3663  -1.2158   0.7154   0.9822
     1.8462   3.9008   4.3744   4.9339   5.0806   6.2423

          k = 0.0000 0.4273 0.4767 ( 10135 PWs)   bands (ev):

   -42.3734 -42.3687 -42.3625 -42.3619  -4.5428  -3.4772   1.4743   1.8250
     2.0519   2.4509   4.1170   5.9435   6.0105   6.4796

          k =-0.1780 0.4273 0.6754 ( 10140 PWs)   bands (ev):

   -42.3711 -42.3700 -42.3633 -42.3622  -4.2751  -3.7868   0.9977   1.7074
     2.1022   2.9702   4.3120   5.5083   6.2179   6.6896

          k =-0.3560 0.4273 0.8740 ( 10131 PWs)   bands (ev):

   -42.3719 -42.3683 -42.3651 -42.3613  -4.8368  -2.7738   0.2621   2.0350
     2.1187   2.5106   4.0580   5.5594   6.8178   7.5567

          k = 0.5341 0.4273-0.1192 ( 10120 PWs)   bands (ev):

   -42.3735 -42.3671 -42.3655 -42.3604  -5.1548  -1.6224  -0.0379   0.7775
     2.0988   3.1627   4.6868   4.9172   6.3703   6.9936

          k = 0.3560 0.4273 0.0795 ( 10109 PWs)   bands (ev):

   -42.3748 -42.3675 -42.3640 -42.3603  -5.2201  -1.4109   0.1230   0.6052
     2.0622   3.4305   4.5988   4.7482   5.9693   7.2309

          k = 0.1780 0.4273 0.2781 ( 10124 PWs)   bands (ev):

   -42.3748 -42.3679 -42.3629 -42.3610  -5.0200  -2.4681   0.7104   1.8340
     2.1252   2.6923   3.6068   5.6931   6.3588   7.0877

          k = 0.2136-0.2136-0.0000 ( 10149 PWs)   bands (ev):

   -42.3781 -42.3671 -42.3613 -42.3602  -5.3609  -1.1744   0.6342   0.8823
     1.8733   3.9259   4.4243   4.9304   5.0160   6.3990

          k = 0.0356-0.2136 0.1986 ( 10154 PWs)   bands (ev):

   -42.3783 -42.3668 -42.3610 -42.3605  -5.2661  -1.9129   1.4393   1.6550
     1.7389   3.3804   3.6169   4.9341   5.5670   6.3133

          k =-0.1424-0.2136 0.3973 ( 10153 PWs)   bands (ev):

   -42.3762 -42.3669 -42.3619 -42.3616  -4.8648  -2.9901   1.4140   2.0264
     2.2927   2.9742   3.5300   4.9165   5.5964   7.2627

          k = 0.7477-0.2136-0.5959 ( 10140 PWs)   bands (ev):

   -42.3727 -42.3684 -42.3631 -42.3624  -4.1613  -3.9368   1.1375   1.6542
     2.1160   3.0457   5.0550   5.1527   5.4257   6.4814

          k = 0.5697-0.2136-0.3973 ( 10138 PWs)   bands (ev):

   -42.3719 -42.3692 -42.3637 -42.3617  -4.6728  -3.1811   0.6684   1.8675
     2.1573   3.1173   3.4404   5.6859   6.8066   7.5120

          k = 0.3917-0.2136-0.1986 ( 10123 PWs)   bands (ev):

   -42.3756 -42.3676 -42.3627 -42.3606  -5.1570  -2.0075   0.5782   1.4659
     1.9354   2.9879   3.9779   5.5314   5.9065   6.9762

          k = 0.0356-0.0000 0.4370 ( 10141 PWs)   bands (ev):

   -42.3769 -42.3660 -42.3618 -42.3618  -4.8139  -3.1229   1.7356   1.7399
     2.9488   2.9632   3.9586   4.0903   4.8167   6.7425

          k =-0.1424-0.0000 0.6356 ( 10143 PWs)   bands (ev):

   -42.3740 -42.3663 -42.3633 -42.3630  -4.1056  -3.9841   1.3238   1.3347
     2.8766   3.0620   4.0017   4.4201   5.7400   6.0022

          k = 0.7477 0.0000-0.3575 ( 10128 PWs)   bands (ev):

   -42.3707 -42.3695 -42.3641 -42.3622  -4.6602  -3.0969   0.8953   1.0492
     2.4489   2.9887   3.3973   4.6953   6.7418   8.0984

          k = 0.5697 0.0000-0.1589 ( 10121 PWs)   bands (ev):

   -42.3736 -42.3686 -42.3634 -42.3610  -5.1112  -1.8709   0.7469   0.8708
     1.1277   3.5910   3.8270   5.3668   6.2434   7.1640

          k = 0.3917 0.0000 0.0397 ( 10111 PWs)   bands (ev):

   -42.3768 -42.3676 -42.3619 -42.3604  -5.3035  -1.2482   0.5169   0.9868
     1.3132   4.0682   4.0871   5.4524   5.4646   6.1231

          k = 0.2136 0.2136 0.4767 ( 10141 PWs)   bands (ev):

   -42.3749 -42.3672 -42.3623 -42.3622  -4.6189  -3.3906   1.3517   1.9089
     2.1102   2.9750   4.2510   4.9200   5.8950   6.3994

          k = 0.0356 0.2136 0.6754 ( 10132 PWs)   bands (ev):

   -42.3731 -42.3672 -42.3635 -42.3628  -4.1504  -3.9132   1.1960   1.3265
     2.7092   3.0316   4.0914   4.3005   6.0692   6.4015

          k =-0.1424 0.2136 0.8740 ( 10115 PWs)   bands (ev):

   -42.3709 -42.3683 -42.3650 -42.3624  -4.7119  -2.9147   0.6098   1.1159
     2.0416   2.9673   3.9793   4.3026   6.7432   8.5860

          k = 0.7477 0.2136-0.1192 ( 10131 PWs)   bands (ev):

   -42.3713 -42.3684 -42.3656 -42.3613  -5.0582  -1.7046   0.2156   0.5003
     1.2354   3.3260   4.5685   4.9139   6.0043   8.4867

          k = 0.5697 0.2136 0.0795 ( 10111 PWs)   bands (ev):

   -42.3737 -42.3680 -42.3642 -42.3606  -5.1720  -1.4434   0.2400   0.4412
     1.5567   3.5568   4.4652   5.1586   5.6845   7.6224

          k = 0.3917 0.2136 0.2781 ( 10128 PWs)   bands (ev):

   -42.3751 -42.3677 -42.3628 -42.3610  -5.0327  -2.4529   0.6825   1.9623
     2.1791   2.6031   3.6636   5.6484   6.2932   7.0095

          k = 0.2136-0.6409-0.4767 ( 10138 PWs)   bands (ev):

   -42.3708 -42.3701 -42.3636 -42.3620  -4.4066  -3.6033   0.8205   1.7658
     2.0937   3.1963   3.9141   5.4809   6.6437   6.8516

          k = 0.0356-0.6409-0.2781 ( 10132 PWs)   bands (ev):

   -42.3718 -42.3694 -42.3638 -42.3615  -4.8925  -2.5995   0.7832   1.0961
     1.8585   3.1631   3.4770   5.1217   6.7637   8.0650

          k =-0.1424-0.6409-0.0795 ( 10117 PWs)   bands (ev):

   -42.3726 -42.3685 -42.3644 -42.3610  -5.1305  -1.4687   0.2908   0.3785
     1.2177   3.5549   4.4098   5.2546   5.7509   7.6142

          k = 0.7477-0.6409-1.0726 ( 10122 PWs)   bands (ev):

   -42.3727 -42.3676 -42.3656 -42.3607  -5.1189  -1.6547   0.0553   0.6553
     1.7286   3.2887   4.6348   5.0673   5.7933   7.6356

          k = 0.5697-0.6409-0.8740 ( 10137 PWs)   bands (ev):

   -42.3723 -42.3679 -42.3651 -42.3613  -4.8612  -2.7417   0.2002   2.0714
     2.3138   2.4465   4.0850   6.0495   6.8002   7.1248

          k = 0.3917-0.6409-0.6754 ( 10141 PWs)   bands (ev):

   -42.3716 -42.3691 -42.3633 -42.3626  -4.3578  -3.6833   0.8010   1.2497
     2.8045   3.1504   4.4503   6.0675   6.2675   6.9850

          k = 0.2136-0.4273-0.2384 ( 10122 PWs)   bands (ev):

   -42.3750 -42.3678 -42.3630 -42.3608  -5.0819  -2.2480   0.5628   1.7199
     1.9658   2.7941   3.8496   5.6556   6.1560   7.0745

          k = 0.0356-0.4273-0.0397 ( 10104 PWs)   bands (ev):

   -42.3763 -42.3677 -42.3622 -42.3604  -5.2814  -1.2583   0.4572   0.8768
     1.2900   4.0024   4.1374   5.4531   5.5279   6.2713

          k =-0.1424-0.4273 0.1589 ( 10122 PWs)   bands (ev):

   -42.3757 -42.3677 -42.3626 -42.3606  -5.1956  -1.7972   0.6613   1.1260
     1.6539   3.3360   3.9936   5.5025   5.8476   7.0561

          k = 0.7477-0.4273-0.8343 ( 10129 PWs)   bands (ev):

   -42.3735 -42.3681 -42.3636 -42.3614  -4.8282  -2.9095   0.5276   1.9854
     2.3549   2.8516   3.6258   5.9942   6.5664   7.4594

          k = 0.5697-0.4273-0.6356 ( 10125 PWs)   bands (ev):

   -42.3707 -42.3696 -42.3634 -42.3629  -4.1942  -3.8712   0.8180   1.0642
     2.9575   3.1581   4.8296   5.6671   6.6916   6.9913

          k = 0.3917-0.4273-0.4370 ( 10133 PWs)   bands (ev):

   -42.3724 -42.3685 -42.3637 -42.3620  -4.6054  -3.3188   0.5891   1.5720
     2.6114   3.3795   3.6791   6.2453   6.8192   7.0298

          k = 0.4273-0.4273-0.0000 ( 10114 PWs)   bands (ev):

   -42.3744 -42.3674 -42.3646 -42.3603  -5.2251  -1.2244   0.0041   0.3533
     2.0923   3.6633   4.3793   4.7490   6.1466   7.2177

          k = 0.2492-0.4273 0.1986 ( 10126 PWs)   bands (ev):

   -42.3750 -42.3677 -42.3632 -42.3607  -5.1327  -2.0259   0.4293   1.4291
     1.9775   2.9279   4.0791   5.5590   5.9532   7.1195

          k = 0.0712-0.4273 0.3973 ( 10134 PWs)   bands (ev):

   -42.3741 -42.3683 -42.3626 -42.3615  -4.7673  -3.0960   1.2095   1.7581
     2.2805   2.7958   3.3671   5.8368   6.2134   7.3903

          k = 0.9613-0.4273-0.5959 ( 10138 PWs)   bands (ev):

   -42.3720 -42.3695 -42.3627 -42.3624  -4.1220  -3.9836   1.3690   1.6478
     2.1215   2.5377   5.1476   5.3493   5.6369   6.3849

          k = 0.7833-0.4273-0.3973 ( 10131 PWs)   bands (ev):

   -42.3712 -42.3693 -42.3644 -42.3617  -4.6410  -3.2065   0.5084   1.9188
     2.0951   3.1242   3.6693   5.4878   7.0357   7.5196

          k = 0.6053-0.4273-0.1986 ( 10132 PWs)   bands (ev):

   -42.3729 -42.3672 -42.3657 -42.3607  -5.0573  -2.0782   0.0267   1.3325
     2.0869   2.7646   4.5040   5.4108   6.3361   7.1358

          k = 0.2492-0.2136 0.4370 ( 10152 PWs)   bands (ev):

   -42.3751 -42.3673 -42.3623 -42.3619  -4.7246  -3.2164   1.2479   1.9490
     2.1937   2.9904   3.8493   5.1036   6.0053   6.8497

          k = 0.0712-0.2136 0.6356 ( 10138 PWs)   bands (ev):

   -42.3736 -42.3671 -42.3632 -42.3626  -4.0781  -4.0138   1.2445   1.4889
     2.5104   3.0316   4.3492   4.5181   5.9620   5.9872

          k = 0.9613-0.2136-0.3575 ( 10121 PWs)   bands (ev):

   -42.3713 -42.3680 -42.3646 -42.3626  -4.6163  -3.1366   0.7301   1.1160
     2.3851   2.9588   3.7739   4.2693   6.6174   8.1619

          k = 0.7833-0.2136-0.1589 ( 10127 PWs)   bands (ev):

   -42.3708 -42.3685 -42.3657 -42.3615  -5.0070  -1.9477   0.2648   0.7643
     1.1959   3.2209   4.5080   4.7484   6.3011   8.5275

          k = 0.6053-0.2136 0.0397 ( 10103 PWs)   bands (ev):

   -42.3732 -42.3681 -42.3646 -42.3607  -5.1688  -1.3013   0.1887   0.2297
     1.4762   3.6285   4.5710   5.1309   5.5469   7.8247

          k = 0.2492-0.0000 0.6754 ( 10127 PWs)   bands (ev):

   -42.3729 -42.3676 -42.3634 -42.3626  -4.1655  -3.8995   1.2510   1.3060
     2.6930   2.8732   4.1275   4.4743   6.1674   6.3815

          k = 0.0712-0.0000 0.8740 ( 10119 PWs)   bands (ev):

   -42.3715 -42.3659 -42.3650 -42.3642  -4.6562  -2.9673   0.7978   0.8086
     1.9819   3.0093   4.0412   4.1089   6.4651   8.6818

          k = 0.9613 0.0000-0.1192 ( 10120 PWs)   bands (ev):

   -42.3701 -42.3670 -42.3657 -42.3638  -4.9522  -1.7809   0.2795   0.5652
     0.5993   2.8679   4.6840   4.7619   7.1504   8.7734

          k = 0.7833 0.0000 0.0795 ( 10139 PWs)   bands (ev):

   -42.3700 -42.3694 -42.3650 -42.3621  -5.0443  -1.5157   0.1194   0.5404
     0.7194   3.2408   4.5351   5.0124   6.5536   7.7316

          k = 0.6053 0.0000 0.2781 ( 10145 PWs)   bands (ev):

   -42.3724 -42.3692 -42.3636 -42.3614  -4.9157  -2.5780   0.8544   1.1109
     1.8953   3.2044   3.3611   5.2541   6.7378   7.9652

          k = 0.2492-0.8545-0.2781 ( 10126 PWs)   bands (ev):

   -42.3705 -42.3689 -42.3653 -42.3619  -4.8209  -2.6606   0.4356   1.2651
     1.7311   2.9438   4.1915   4.4689   6.8050   8.4041

          k = 0.0712-0.8545-0.0795 ( 10129 PWs)   bands (ev):

   -42.3698 -42.3687 -42.3655 -42.3626  -5.0156  -1.5300   0.0670   0.4601
     0.7337   3.0822   4.6638   4.9072   6.7063   8.2460

          k = 0.9613-0.8545-1.0726 ( 10123 PWs)   bands (ev):

   -42.3699 -42.3686 -42.3656 -42.3624  -4.9940  -1.7523   0.3266   0.4537
     0.8200   3.1075   4.5805   4.8071   6.6691   8.4270

          k = 0.7833-0.8545-0.8740 ( 10122 PWs)   bands (ev):

   -42.3706 -42.3691 -42.3650 -42.3618  -4.7558  -2.8691   0.4789   1.3982
     2.0759   2.8156   4.0104   4.5921   6.8639   8.4811

          k = 0.6053-0.8545-0.6754 ( 10136 PWs)   bands (ev):

   -42.3708 -42.3703 -42.3633 -42.3622  -4.2966  -3.7616   0.9480   1.5992
     2.2423   2.9995   4.3468   5.7501   6.1820   6.7097

          k = 0.4273-0.6409-0.2384 ( 10134 PWs)   bands (ev):

   -42.3725 -42.3675 -42.3656 -42.3609  -4.9936  -2.3135   0.0868   1.6357
     2.0784   2.5971   4.3772   5.5554   6.4020   7.2738

          k = 0.2492-0.6409-0.0397 ( 10115 PWs)   bands (ev):

   -42.3728 -42.3680 -42.3651 -42.3607  -5.1533  -1.3064   0.1213   0.1886
     1.5074   3.5789   4.6663   5.0811   5.4976   7.9112

          k = 0.0712-0.6409 0.1589 ( 10129 PWs)   bands (ev):

   -42.3724 -42.3689 -42.3640 -42.3613  -5.0653  -1.9064   0.5567   0.8242
     1.1017   3.4498   4.0284   5.1780   6.3095   7.5317

          k = 0.9613-0.6409-0.8343 ( 10129 PWs)   bands (ev):

   -42.3713 -42.3698 -42.3638 -42.3617  -4.7275  -3.0293   0.7689   1.4164
     2.4165   2.8522   3.3774   5.1883   6.8427   7.9980

          k = 0.7833-0.6409-0.6356 ( 10135 PWs)   bands (ev):

   -42.3710 -42.3697 -42.3633 -42.3625  -4.1449  -3.9357   0.9317   1.3770
     2.4479   3.1077   4.7459   5.7487   5.7877   6.8514

          k = 0.6053-0.6409-0.4370 ( 10127 PWs)   bands (ev):

   -42.3719 -42.3686 -42.3640 -42.3620  -4.5889  -3.3313   0.5086   1.5393
     2.6396   3.4835   3.6594   6.4741   6.8655   7.0637

     the Fermi energy is     3.5277 ev

!    total energy              =     -74.43577767 Ry
     estimated scf accuracy    <          1.6E-09 Ry
     smearing contrib. (-TS)   =       0.00062947 Ry
     internal energy E=F+TS    =     -74.43640714 Ry

     The total energy is F=E-TS. E is the sum of the following terms:
     one-electron contribution =     -31.46611865 Ry
     hartree contribution      =      15.17022145 Ry
     xc contribution           =     -19.68764966 Ry
     ewald contribution        =     -38.45286029 Ry

     convergence has been achieved in   8 iterations

     Forces acting on atoms (cartesian axes, Ry/au):

     atom    1 type  1   force =     0.00000000   -0.00000000   -0.00000000
     atom    2 type  1   force =    -0.00000000    0.00000000    0.00000000
     atom    3 type  2   force =    -0.01242108    0.01242108    0.00000000
     atom    4 type  2   force =     0.01242108   -0.01242108   -0.00000000
     atom    5 type  2   force =    -0.01242108   -0.01242108   -0.00000000
     atom    6 type  2   force =     0.01242108    0.01242108   -0.00000000
     The non-local contrib.  to forces
     atom    1 type  1   force =     0.00000000    0.00000000   -0.00000000
     atom    2 type  1   force =     0.00000000   -0.00000000   -0.00000000
     atom    3 type  2   force =    -0.04083709    0.04083709    0.00000000
     atom    4 type  2   force =     0.04083709   -0.04083709   -0.00000000
     atom    5 type  2   force =    -0.04083709   -0.04083709   -0.00000000
     atom    6 type  2   force =     0.04083709    0.04083709   -0.00000000
     The ionic contribution  to forces
     atom    1 type  1   force =    -0.00000000   -0.00000000   -0.00000000
     atom    2 type  1   force =     0.00000000    0.00000000   -0.00000000
     atom    3 type  2   force =    -0.32831694    0.32831694    0.00000000
     atom    4 type  2   force =     0.32831694   -0.32831694    0.00000000
     atom    5 type  2   force =    -0.32831694   -0.32831694   -0.00000000
     atom    6 type  2   force =     0.32831694    0.32831694   -0.00000000
     The local contribution  to forces
     atom    1 type  1   force =     0.00000000    0.00000000    0.00000000
     atom    2 type  1   force =     0.00000000   -0.00000000    0.00000000
     atom    3 type  2   force =     0.35674317   -0.35674317    0.00000000
     atom    4 type  2   force =    -0.35674317    0.35674317    0.00000000
     atom    5 type  2   force =     0.35674317    0.35674317    0.00000000
     atom    6 type  2   force =    -0.35674317   -0.35674317    0.00000000
     The core correction contribution to forces
     atom    1 type  1   force =     0.00000000    0.00000000   -0.00000000
     atom    2 type  1   force =     0.00000000    0.00000000   -0.00000000
     atom    3 type  2   force =     0.00000000    0.00000000    0.00000000
     atom    4 type  2   force =     0.00000000    0.00000000    0.00000000
     atom    5 type  2   force =     0.00000000    0.00000000    0.00000000
     atom    6 type  2   force =     0.00000000    0.00000000    0.00000000
     The Hubbard contrib.    to forces
     atom    1 type  1   force =     0.00000000    0.00000000    0.00000000
     atom    2 type  1   force =     0.00000000    0.00000000    0.00000000
     atom    3 type  2   force =     0.00000000    0.00000000    0.00000000
     atom    4 type  2   force =     0.00000000    0.00000000    0.00000000
     atom    5 type  2   force =     0.00000000    0.00000000    0.00000000
     atom    6 type  2   force =     0.00000000    0.00000000    0.00000000
     The SCF correction term to forces
     atom    1 type  1   force =     0.00000000    0.00000000   -0.00000000
     atom    2 type  1   force =    -0.00000000   -0.00000000    0.00000000
     atom    3 type  2   force =    -0.00001023    0.00001023    0.00000000
     atom    4 type  2   force =     0.00001023   -0.00001023   -0.00000000
     atom    5 type  2   force =    -0.00001023   -0.00001023    0.00000000
     atom    6 type  2   force =     0.00001023    0.00001023   -0.00000000

     Total force =     0.035132     Total SCF correction =     0.000029


     Computing stress (Cartesian axis) and pressure

          total   stress  (Ry/bohr**3)                   (kbar)     P=       68.40
   0.00108059  -0.00000000   0.00000000          158.96       -0.00        0.00
   0.00000000   0.00108059   0.00000000            0.00      158.96        0.00
   0.00000000  -0.00000000  -0.00076621            0.00       -0.00     -112.71

     Energy error            =      5.6E-01 Ry
     Gradient error          =      1.2E-02 Ry/Bohr
     Cell gradient error     =      6.1E+02 kbar

     number of scf cycles    =   2
     number of bfgs steps    =   1

     enthalpy           old  =     -71.5982925684 Ry
     enthalpy           new  =     -72.1536576957 Ry

     CASE: enthalpy          _new < enthalpy          _old

     new trust radius        =       0.7345776057 bohr
ibrav =      7
 celldm(1) =     10.60796529
 celldm(3) =      0.82973687
Input lattice vectors:
     0.43394668    -0.43394668     0.36006156
     0.43394668     0.43394668     0.36006156
    -0.43394668    -0.43394668     0.36006156
New lattice vectors in INITIAL alat:
     0.43394668    -0.43394668     0.36006156
     0.43394668     0.43394668     0.36006156
    -0.43394668    -0.43394668     0.36006156
New lattice vectors in NEW alat (for information only):
     0.50000000    -0.50000000     0.41486844
     0.50000000     0.50000000     0.41486844
    -0.50000000    -0.50000000     0.41486844
Discrepancy in bohr =     0.000000    0.000000    0.000000
     new conv_thr            =       0.0000000012 Ry

     new unit-cell volume =    495.22968 a.u.^3 (    73.38547 Ang^3 )
     density =      1.89925 g/cm^3

CELL_PARAMETERS (alat= 12.22265979)
   0.433946681  -0.433946681   0.360061561
   0.433946681   0.433946681   0.360061561
  -0.433946681  -0.433946681   0.360061561

ATOMIC_POSITIONS (crystal)
Si            0.0000000000       -0.0000000000       -0.0000000000
Si           -0.0000000000        0.5000000000        0.5000000000
Li           -0.1718447321        0.8359223660        0.3359223660
Li            0.1718447321        1.1640776340       -0.3359223660
Li            0.5000000000        0.6640776340       -0.1640776340
Li           -0.5000000000        1.3359223660        0.1640776340



     Writing config-only to output data dir ./output/SiLi.save/
     NEW-OLD atomic charge density approx. for the potential

     negative rho (up, down):  2.551E-06 0.000E+00
     extrapolated charge   12.89131, renormalised to   20.00000

     total cpu time spent up to now is       58.8 secs

     Self-consistent Calculation

     iteration #  1     ecut=    80.00 Ry     beta= 0.70
     Davidson diagonalization with overlap
     c_bands:  1 eigenvalues not converged
     c_bands:  1 eigenvalues not converged
     c_bands:  1 eigenvalues not converged
     c_bands:  1 eigenvalues not converged
     c_bands:  1 eigenvalues not converged
     ethr =  1.00E-06,  avg # of iterations = 13.7

     total cpu time spent up to now is       65.3 secs

     total energy              =     -73.85128190 Ry
     estimated scf accuracy    <       0.40460127 Ry

     iteration #  2     ecut=    80.00 Ry     beta= 0.70
     Davidson diagonalization with overlap
     ethr =  2.02E-03,  avg # of iterations =  2.5

     total cpu time spent up to now is       67.7 secs

     total energy              =     -74.30203561 Ry
     estimated scf accuracy    <       0.24890036 Ry

     iteration #  3     ecut=    80.00 Ry     beta= 0.70
     Davidson diagonalization with overlap
     ethr =  1.24E-03,  avg # of iterations =  1.0

     total cpu time spent up to now is       69.5 secs

     total energy              =     -74.31381535 Ry
     estimated scf accuracy    <       0.02282858 Ry

     iteration #  4     ecut=    80.00 Ry     beta= 0.70
     Davidson diagonalization with overlap
     ethr =  1.14E-04,  avg # of iterations =  2.5

     total cpu time spent up to now is       71.4 secs

     total energy              =     -74.31544931 Ry
     estimated scf accuracy    <       0.00140647 Ry

     iteration #  5     ecut=    80.00 Ry     beta= 0.70
     Davidson diagonalization with overlap
     c_bands:  1 eigenvalues not converged
     ethr =  7.03E-06,  avg # of iterations =  5.6

     total cpu time spent up to now is       73.9 secs

     total energy              =     -74.31575114 Ry
     estimated scf accuracy    <       0.00001452 Ry

     iteration #  6     ecut=    80.00 Ry     beta= 0.70
     Davidson diagonalization with overlap
     ethr =  7.26E-08,  avg # of iterations =  3.4

     total cpu time spent up to now is       76.1 secs

     total energy              =     -74.31575701 Ry
     estimated scf accuracy    <       0.00000108 Ry

     iteration #  7     ecut=    80.00 Ry     beta= 0.70
     Davidson diagonalization with overlap
     ethr =  5.42E-09,  avg # of iterations =  2.1

     total cpu time spent up to now is       78.0 secs

     total energy              =     -74.31575711 Ry
     estimated scf accuracy    <       0.00000004 Ry

     iteration #  8     ecut=    80.00 Ry     beta= 0.70
     Davidson diagonalization with overlap
     ethr =  2.24E-10,  avg # of iterations =  3.2

     total cpu time spent up to now is       80.2 secs

     total energy              =     -74.31575713 Ry
     estimated scf accuracy    <          1.5E-09 Ry

     iteration #  9     ecut=    80.00 Ry     beta= 0.70
     Davidson diagonalization with overlap
     ethr =  7.48E-12,  avg # of iterations =  2.9

     total cpu time spent up to now is       82.3 secs

     End of self-consistent calculation

          k = 0.0000 0.0000 0.0000 ( 10183 PWs)   bands (ev):

   -39.9997 -39.9570 -39.9348 -39.9348  -4.6186   2.0518   2.4151   3.1593
     3.1593   6.4996   7.0486   7.4928   7.7487   7.7487

          k =-0.1920-0.0000 0.2314 ( 10150 PWs)   bands (ev):

   -39.9948 -39.9570 -39.9377 -39.9368  -4.4194   0.2589   3.0484   3.1589
     4.3791   5.7252   5.9957   7.0361   7.4409   9.3575

          k =-0.3841-0.0000 0.4629 ( 10126 PWs)   bands (ev):

   -39.9821 -39.9578 -39.9446 -39.9416  -3.8209  -1.4494   3.0019   3.3092
     4.2879   4.7481   6.6972   8.1023   8.1128  11.0738

          k = 0.5761 0.0000-0.6943 ( 10110 PWs)   bands (ev):

   -39.9668 -39.9668 -39.9462 -39.9462  -2.8252  -2.8252   3.3049   3.3049
     3.9201   3.9201   8.5027   8.5027   9.2357   9.2357

          k = 0.0000 0.2304 0.2777 ( 10155 PWs)   bands (ev):

   -39.9928 -39.9570 -39.9389 -39.9376  -4.3317  -0.1057   3.0203   3.1731
     4.7912   5.4329   5.7167   7.2376   7.5620   9.6540

          k =-0.1920 0.2304 0.5092 ( 10146 PWs)   bands (ev):

   -39.9826 -39.9567 -39.9442 -39.9426  -3.7249  -1.6486   2.9327   3.7480
     3.9153   5.0410   6.9824   7.2832   8.1818  10.9212

          k =-0.3841 0.2304 0.7406 ( 10133 PWs)   bands (ev):

   -39.9688 -39.9626 -39.9489 -39.9457  -2.9044  -2.7222   2.5829   3.3662
     3.8334   5.1259   7.3847   8.5399   9.3529   9.7363

          k = 0.5761 0.2304-0.4166 ( 10137 PWs)   bands (ev):

   -39.9760 -39.9590 -39.9498 -39.9412  -3.8229  -1.3304   2.0576   3.4991
     4.1758   5.7274   6.0460   8.0233   9.4640  10.7555

          k = 0.3841 0.2304-0.1852 ( 10129 PWs)   bands (ev):

   -39.9886 -39.9585 -39.9426 -39.9365  -4.3747   0.4145   1.9973   3.3097
     3.8773   5.4476   6.8071   7.5536   8.6172   9.2112

          k = 0.1920 0.2304 0.0463 ( 10135 PWs)   bands (ev):

   -39.9951 -39.9579 -39.9382 -39.9351  -4.5464   1.6157   2.3865   2.5354
     3.4064   6.5271   7.0277   7.4964   7.5398   8.4399

          k = 0.0000 0.4609 0.5555 ( 10135 PWs)   bands (ev):

   -39.9759 -39.9599 -39.9465 -39.9437  -3.4698  -2.0432   3.0775   3.4120
     3.9277   4.3590   7.6351   8.3837   8.4122  10.6444

          k =-0.1920 0.4609 0.7869 ( 10140 PWs)   bands (ev):

   -39.9667 -39.9651 -39.9492 -39.9450  -3.1351  -2.4577   2.5409   3.4025
     3.8490   4.9913   7.6827   8.0928   9.3821  10.2155

          k =-0.3841 0.4609 1.0183 ( 10131 PWs)   bands (ev):

   -39.9737 -39.9574 -39.9546 -39.9404  -3.8978  -1.0816   1.6529   3.6485
     4.1460   5.4847   6.6317   7.7344   9.8942  10.3606

          k = 0.5761 0.4609-0.1389 ( 10120 PWs)   bands (ev):

   -39.9802 -39.9605 -39.9491 -39.9362  -4.3207   0.6176   1.2879   3.1707
     3.6343   5.4099   7.3334   7.8653   9.0526   9.4280

          k = 0.3841 0.4609 0.0926 ( 10109 PWs)   bands (ev):

   -39.9845 -39.9599 -39.9460 -39.9357  -4.3953   1.0236   1.4586   2.7807
     3.6228   5.7935   7.0905   7.7396   8.5803   9.6519

          k = 0.1920 0.4609 0.3240 ( 10124 PWs)   bands (ev):

   -39.9832 -39.9583 -39.9455 -39.9391  -4.1141  -0.6375   2.1367   3.3950
     4.6524   5.1633   5.9637   7.9311   9.1597   9.9008

          k = 0.2304-0.2304-0.0000 ( 10149 PWs)   bands (ev):

   -39.9944 -39.9581 -39.9387 -39.9350  -4.5429   1.8105   2.2789   2.2959
     3.4309   6.6874   6.8653   7.5268   7.6591   8.7425

          k = 0.0384-0.2304 0.2314 ( 10154 PWs)   bands (ev):

   -39.9940 -39.9571 -39.9382 -39.9369  -4.4058   0.2313   2.9193   3.1616
     4.3580   5.6489   6.0208   7.1648   7.7067   9.2820

          k =-0.1536-0.2304 0.4629 ( 10153 PWs)   bands (ev):

   -39.9851 -39.9565 -39.9431 -39.9414  -3.8779  -1.3610   2.9496   3.6575
     4.1818   5.1014   6.7800   7.0241   7.9690  10.7192

          k = 0.8066-0.2304-0.6943 ( 10140 PWs)   bands (ev):

   -39.9715 -39.9607 -39.9478 -39.9461  -2.9544  -2.6789   2.7154   3.3423
     3.8490   5.0623   7.2556   8.9305   9.2215   9.3214

          k = 0.6145-0.2304-0.4629 ( 10138 PWs)   bands (ev):

   -39.9732 -39.9599 -39.9506 -39.9423  -3.6679  -1.6388   2.1282   3.5149
     4.0137   5.5774   6.5035   7.9631   9.5497  10.9134

          k = 0.4225-0.2304-0.2314 ( 10123 PWs)   bands (ev):

   -39.9864 -39.9585 -39.9439 -39.9373  -4.2945   0.0410   1.9710   3.3814
     4.2356   5.1582   6.5669   7.7237   8.9484   9.3550

          k = 0.0384-0.0000 0.5092 ( 10141 PWs)   bands (ev):

   -39.9862 -39.9551 -39.9424 -39.9424  -3.7968  -1.5446   3.3343   3.3401
     4.9680   5.0021   5.8807   7.1866   7.3649  10.8204

          k =-0.1536-0.0000 0.7406 ( 10143 PWs)   bands (ev):

   -39.9739 -39.9556 -39.9487 -39.9477  -2.8666  -2.7549   2.8818   2.8900
     4.6920   5.1794   6.0233   8.1665   8.4399   9.9320

          k = 0.8066 0.0000-0.4166 ( 10128 PWs)   bands (ev):

   -39.9671 -39.9621 -39.9521 -39.9447  -3.6753  -1.5338   2.3737   2.5005
     4.8329   5.4712   5.9861   7.0375   9.6518  11.8302

          k = 0.6145 0.0000-0.1852 ( 10121 PWs)   bands (ev):

   -39.9810 -39.9596 -39.9458 -39.9397  -4.2596   0.1822   2.1700   2.3986
     3.6667   5.7572   6.4104   7.8339   9.1230   9.8790

          k = 0.4225-0.0000 0.0463 ( 10111 PWs)   bands (ev):

   -39.9908 -39.9587 -39.9401 -39.9367  -4.4826   1.4266   2.3154   2.4210
     2.9540   6.7886   6.9738   7.7101   7.8390   8.2843

          k = 0.2304 0.2304 0.5555 ( 10141 PWs)   bands (ev):

   -39.9799 -39.9571 -39.9452 -39.9439  -3.5561  -1.9246   2.9163   3.6804
     3.8110   5.0078   6.9991   7.7724   8.4073  10.7202

          k = 0.0384 0.2304 0.7869 ( 10132 PWs)   bands (ev):

   -39.9707 -39.9584 -39.9497 -39.9471  -2.9825  -2.6153   2.7371   2.8775
     4.5143   5.1596   6.4110   7.9036   8.6482  10.4087

          k =-0.1536 0.2304 1.0183 ( 10115 PWs)   bands (ev):

   -39.9651 -39.9597 -39.9558 -39.9453  -3.7557  -1.2961   2.0197   2.5777
     4.6857   5.3601   6.3986   6.7582   9.6298  11.7525

          k = 0.8066 0.2304-0.1389 ( 10131 PWs)   bands (ev):

   -39.9734 -39.9602 -39.9517 -39.9406  -4.2160   0.3639   1.5552   2.6500
     3.1174   5.3254   7.1398   7.8921   8.9915  11.4079

          k = 0.6145 0.2304 0.0926 ( 10111 PWs)   bands (ev):

   -39.9812 -39.9601 -39.9471 -39.9376  -4.3440   0.8731   1.5797   2.6775
     3.1349   5.9130   6.9913   7.7943   8.6539  10.1054

          k = 0.4225 0.2304 0.3240 ( 10128 PWs)   bands (ev):

   -39.9840 -39.9581 -39.9452 -39.9388  -4.1278  -0.6114   2.1047   3.5534
     4.5770   5.1578   6.0517   7.8731   9.0711   9.8303

          k = 0.2304-0.6913-0.5555 ( 10138 PWs)   bands (ev):

   -39.9679 -39.9633 -39.9505 -39.9442  -3.3144  -2.2111   2.3256   3.4780
     3.8341   5.3138   7.4085   7.8001   9.5851  10.5667

          k = 0.0384-0.6913-0.3240 ( 10132 PWs)   bands (ev):

   -39.9746 -39.9599 -39.9496 -39.9420  -3.9762  -0.8551   2.2272   2.5374
     4.8816   5.1839   5.8282   7.4938   9.8669  11.1435

          k =-0.1536-0.6913-0.0926 ( 10117 PWs)   bands (ev):

   -39.9782 -39.9602 -39.9481 -39.9394  -4.2998   0.7625   1.6851   2.4965
     2.9222   5.6731   7.1759   7.9900   8.6542  10.0386

          k = 0.8066-0.6913-1.2498 ( 10122 PWs)   bands (ev):

   -39.9778 -39.9604 -39.9501 -39.9377  -4.2818   0.5137   1.3853   3.0862
     3.2672   5.5569   7.0465   7.8433   8.8897  10.0841

          k = 0.6145-0.6913-1.0183 ( 10137 PWs)   bands (ev):

   -39.9751 -39.9573 -39.9538 -39.9399  -3.9254  -1.0310   1.5867   3.9314
     4.0155   5.4777   6.6829   8.3860   9.3415  10.2180

          k = 0.4225-0.6913-0.7869 ( 10141 PWs)   bands (ev):

   -39.9702 -39.9610 -39.9493 -39.9456  -3.2348  -2.3261   2.3245   2.9080
     4.6574   5.2253   8.0183   8.4456   9.6801  10.2749

          k = 0.2304-0.4609-0.2777 ( 10122 PWs)   bands (ev):

   -39.9840 -39.9585 -39.9454 -39.9382  -4.1991  -0.3213   1.9635   3.4204
     4.5980   4.9319   6.3394   7.8706   9.1655   9.6248

          k = 0.0384-0.4609-0.0463 ( 10104 PWs)   bands (ev):

   -39.9892 -39.9589 -39.9410 -39.9370  -4.4601   1.3685   2.2235   2.3673
     2.9363   6.6314   7.0472   7.6975   8.0231   8.4488

          k =-0.1536-0.4609 0.1852 ( 10122 PWs)   bands (ev):

   -39.9869 -39.9588 -39.9431 -39.9373  -4.3482   0.3540   2.0561   3.0373
     3.7987   5.6387   6.5936   7.7125   8.7919   9.4176

          k = 0.8066-0.4609-0.9721 ( 10129 PWs)   bands (ev):

   -39.9781 -39.9581 -39.9491 -39.9407  -3.8649  -1.2592   1.9587   3.8285
     4.0353   5.8925   6.0937   8.2425   9.2497  10.6802

          k = 0.6145-0.4609-0.7406 ( 10125 PWs)   bands (ev):

   -39.9670 -39.9630 -39.9492 -39.9469  -3.0182  -2.5814   2.3618   2.6772
     4.8787   5.1994   8.4053   8.7820   9.6510   9.9213

          k = 0.4225-0.4609-0.5092 ( 10133 PWs)   bands (ev):

   -39.9737 -39.9588 -39.9506 -39.9430  -3.5690  -1.8261   2.0557   3.3202
     4.3644   5.6462   7.0212   8.4837   9.5173  10.4117

          k = 0.4609-0.4609-0.0000 ( 10114 PWs)   bands (ev):

   -39.9833 -39.9605 -39.9469 -39.9354  -4.4078   1.3267   1.4908   2.2546
     3.6211   6.2634   6.5312   8.0521   8.6905   9.6677

          k = 0.2689-0.4609 0.2314 ( 10126 PWs)   bands (ev):

   -39.9845 -39.9588 -39.9454 -39.9374  -4.2697   0.0054   1.8083   3.4294
     4.2024   5.0815   6.7187   7.7901   8.9690   9.5582

          k = 0.0768-0.4609 0.4629 ( 10134 PWs)   bands (ev):

   -39.9795 -39.9587 -39.9461 -39.9418  -3.7715  -1.5173   2.7394   3.3203
     4.2561   4.8505   6.6415   8.1624   8.7089  10.8961

          k = 1.0370-0.4609-0.6943 ( 10138 PWs)   bands (ev):

   -39.9698 -39.9633 -39.9468 -39.9461  -2.9068  -2.7371   2.9869   3.3249
     3.8721   4.4267   7.8987   8.8067   9.2198   9.3185

          k = 0.8450-0.4609-0.4629 ( 10131 PWs)   bands (ev):

   -39.9708 -39.9596 -39.9532 -39.9424  -3.6330  -1.6746   1.9487   3.6201
     3.8864   5.9797   6.4509   7.7034   9.9187  10.6761

          k = 0.6529-0.4609-0.2314 ( 10132 PWs)   bands (ev):

   -39.9777 -39.9595 -39.9512 -39.9376  -4.1929  -0.0934   1.3691   3.6293
     4.0168   4.8831   7.4566   7.7296   9.4056   9.4808

          k = 0.2689-0.2304 0.5092 ( 10152 PWs)   bands (ev):

   -39.9812 -39.9572 -39.9450 -39.9427  -3.6995  -1.6815   2.7814   3.7540
     3.8834   5.0785   7.2063   7.2596   8.4830  10.9604

          k = 0.0768-0.2304 0.7406 ( 10138 PWs)   bands (ev):

   -39.9728 -39.9578 -39.9487 -39.9467  -2.8336  -2.7927   2.8027   3.0796
     4.3156   5.0971   6.4320   8.3801   8.6018   9.8928

          k = 1.0370-0.2304-0.4166 ( 10121 PWs)   bands (ev):

   -39.9641 -39.9612 -39.9545 -39.9461  -3.6253  -1.5900   2.1635   2.5888
     4.6852   5.7792   6.1648   6.6333   9.4195  11.8809

          k = 0.8450-0.2304-0.1852 ( 10127 PWs)   bands (ev):

   -39.9716 -39.9598 -39.9530 -39.9415  -4.1501   0.0136   1.6124   2.6242
     3.4920   5.1722   7.0223   7.6835   9.3436  11.3574

          k = 0.6529-0.2304 0.0463 ( 10103 PWs)   bands (ev):

   -39.9800 -39.9604 -39.9478 -39.9379  -4.3456   1.1153   1.5236   2.4032
     2.9929   5.9489   7.0745   7.8740   8.5823  10.2095

          k = 0.2689-0.0000 0.7869 ( 10127 PWs)   bands (ev):

   -39.9702 -39.9596 -39.9495 -39.9467  -3.0011  -2.5983   2.8243   2.8390
     4.4708   4.9963   6.6155   7.9175   8.7847  10.3907

          k = 0.0768-0.0000 1.0183 ( 10119 PWs)   bands (ev):

   -39.9619 -39.9575 -39.9560 -39.9504  -3.6920  -1.3737   2.2157   2.2247
     4.6340   5.2467   6.6367   6.7146   9.1004  12.1324

          k = 1.0370-0.0000-0.1389 ( 10120 PWs)   bands (ev):

   -39.9621 -39.9600 -39.9548 -39.9489  -4.1005   0.1510   1.9243   1.9459
     3.0467   4.4754   7.8755   7.9796   9.8203  11.3393

          k = 0.8450-0.0000 0.0926 ( 10139 PWs)   bands (ev):

   -39.9708 -39.9605 -39.9507 -39.9438  -4.2079   0.5670   1.9122   2.0060
     2.7872   4.9893   7.6896   8.2329   9.0996  10.1393

          k = 0.6529-0.0000 0.3240 ( 10145 PWs)   bands (ev):

   -39.9763 -39.9597 -39.9486 -39.9415  -4.0013  -0.8203   2.3169   2.5441
     4.9129   5.2364   5.7032   7.5916   9.8556  11.0126

          k = 0.2689-0.9218-0.3240 ( 10126 PWs)   bands (ev):

   -39.9683 -39.9579 -39.9565 -39.9432  -3.8984  -0.9521   1.8220   2.7363
     4.5745   5.0923   6.6284   6.9429   9.9024  11.4140

          k = 0.0768-0.9218-0.0926 ( 10129 PWs)   bands (ev):

   -39.9675 -39.9605 -39.9526 -39.9452  -4.1772   0.5098   1.7888   2.0837
     2.7418   4.7681   7.8722   8.1853   9.2608  10.7039

          k = 1.0370-0.9218-1.2498 ( 10123 PWs)   bands (ev):

   -39.9676 -39.9602 -39.9533 -39.9448  -4.1461   0.2288   1.7641   2.1947
     3.0803   4.8182   7.5745   7.9566   9.3980  11.0577

          k = 0.8450-0.9218-1.0183 ( 10122 PWs)   bands (ev):

   -39.9684 -39.9587 -39.9557 -39.9431  -3.8058  -1.2279   1.8823   2.9006
     4.5462   5.4573   6.4630   6.8465   9.9525  11.4702

          k = 0.6529-0.9218-0.7869 ( 10136 PWs)   bands (ev):

   -39.9675 -39.9643 -39.9492 -39.9450  -3.1612  -2.4259   2.4872   3.3003
     3.9959   5.0251   7.8399   8.2285   9.3173  10.2152

          k = 0.4609-0.6913-0.2777 ( 10134 PWs)   bands (ev):

   -39.9764 -39.9587 -39.9524 -39.9384  -4.1082  -0.4350   1.4421   3.6379
     4.3514   4.7532   7.2141   7.7716   9.6032   9.6914

          k = 0.2689-0.6913-0.0463 ( 10115 PWs)   bands (ev):

   -39.9784 -39.9606 -39.9490 -39.9380  -4.3299   1.0849   1.4383   2.4202
     2.9963   5.8722   7.0408   7.9819   8.5756  10.4484

          k = 0.0768-0.6913 0.1852 ( 10129 PWs)   bands (ev):

   -39.9773 -39.9599 -39.9482 -39.9406  -4.2114   0.1032   1.9449   2.4359
     3.6061   5.5007   6.6526   7.8002   9.2383  10.2531

          k = 1.0370-0.6913-0.9721 ( 10129 PWs)   bands (ev):

   -39.9721 -39.9606 -39.9507 -39.9427  -3.7515  -1.4367   2.2259   2.9346
     4.5818   5.4877   6.0067   7.4657   9.8555  11.2757

          k = 0.8450-0.6913-0.7406 ( 10135 PWs)   bands (ev):

   -39.9666 -39.9644 -39.9490 -39.9459  -2.9573  -2.6607   2.4845   3.0357
     4.2497   5.1390   7.9091   8.6688   9.3478   9.8214

          k = 0.6529-0.6913-0.5092 ( 10127 PWs)   bands (ev):

   -39.9725 -39.9587 -39.9518 -39.9430  -3.5510  -1.8435   1.9666   3.2827
     4.3993   5.7975   6.9868   8.7304   9.5282  10.1571

     the Fermi energy is     5.9715 ev

!    total energy              =     -74.31575713 Ry
     estimated scf accuracy    <          6.7E-10 Ry
     smearing contrib. (-TS)   =       0.00015492 Ry
     internal energy E=F+TS    =     -74.31591206 Ry

     The total energy is F=E-TS. E is the sum of the following terms:
     one-electron contribution =     -25.11002173 Ry
     hartree contribution      =      13.78517249 Ry
     xc contribution           =     -20.19958254 Ry
     ewald contribution        =     -42.79148028 Ry

     convergence has been achieved in   9 iterations

     Forces acting on atoms (cartesian axes, Ry/au):

     atom    1 type  1   force =     0.00000000   -0.00000000   -0.00000000
     atom    2 type  1   force =    -0.00000000   -0.00000000    0.00000000
     atom    3 type  2   force =    -0.02892889    0.02892889    0.00000000
     atom    4 type  2   force =     0.02892889   -0.02892889   -0.00000000
     atom    5 type  2   force =    -0.02892889   -0.02892889   -0.00000000
     atom    6 type  2   force =     0.02892889    0.02892889    0.00000000
     The non-local contrib.  to forces
     atom    1 type  1   force =    -0.00000000   -0.00000000   -0.00000000
     atom    2 type  1   force =    -0.00000000    0.00000000   -0.00000000
     atom    3 type  2   force =    -0.03603604    0.03603604    0.00000000
     atom    4 type  2   force =     0.03603604   -0.03603604   -0.00000000
     atom    5 type  2   force =    -0.03603604   -0.03603604   -0.00000000
     atom    6 type  2   force =     0.03603604    0.03603604    0.00000000
     The ionic contribution  to forces
     atom    1 type  1   force =    -0.00000000    0.00000000   -0.00000000
     atom    2 type  1   force =     0.00000000   -0.00000000    0.00000000
     atom    3 type  2   force =    -0.40176242    0.40176242   -0.00000000
     atom    4 type  2   force =     0.40176242   -0.40176242   -0.00000000
     atom    5 type  2   force =    -0.40176242   -0.40176242   -0.00000000
     atom    6 type  2   force =     0.40176242    0.40176242    0.00000000
     The local contribution  to forces
     atom    1 type  1   force =     0.00000000   -0.00000000   -0.00000000
     atom    2 type  1   force =    -0.00000000   -0.00000000   -0.00000000
     atom    3 type  2   force =     0.40887677   -0.40887677    0.00000000
     atom    4 type  2   force =    -0.40887677    0.40887677    0.00000000
     atom    5 type  2   force =     0.40887677    0.40887677    0.00000000
     atom    6 type  2   force =    -0.40887677   -0.40887677    0.00000000
     The core correction contribution to forces
     atom    1 type  1   force =    -0.00000000   -0.00000000   -0.00000000
     atom    2 type  1   force =    -0.00000000    0.00000000   -0.00000000
     atom    3 type  2   force =     0.00000000    0.00000000    0.00000000
     atom    4 type  2   force =     0.00000000    0.00000000    0.00000000
     atom    5 type  2   force =     0.00000000    0.00000000    0.00000000
     atom    6 type  2   force =     0.00000000    0.00000000    0.00000000
     The Hubbard contrib.    to forces
     atom    1 type  1   force =     0.00000000    0.00000000    0.00000000
     atom    2 type  1   force =     0.00000000    0.00000000    0.00000000
     atom    3 type  2   force =     0.00000000    0.00000000    0.00000000
     atom    4 type  2   force =     0.00000000    0.00000000    0.00000000
     atom    5 type  2   force =     0.00000000    0.00000000    0.00000000
     atom    6 type  2   force =     0.00000000    0.00000000    0.00000000
     The SCF correction term to forces
     atom    1 type  1   force =     0.00000000   -0.00000000    0.00000000
     atom    2 type  1   force =     0.00000000    0.00000000   -0.00000000
     atom    3 type  2   force =    -0.00000720    0.00000720    0.00000000
     atom    4 type  2   force =     0.00000720   -0.00000720    0.00000000
     atom    5 type  2   force =    -0.00000720   -0.00000720    0.00000000
     atom    6 type  2   force =     0.00000720    0.00000720    0.00000000

     Total force =     0.081823     Total SCF correction =     0.000020


     Computing stress (Cartesian axis) and pressure

          total   stress  (Ry/bohr**3)                   (kbar)     P=      286.53
   0.00269305   0.00000000   0.00000000          396.16        0.00        0.00
   0.00000000   0.00269305  -0.00000000            0.00      396.16       -0.00
   0.00000000  -0.00000000   0.00045732            0.00       -0.00       67.27

     Energy error            =      4.8E-01 Ry
     Gradient error          =      2.9E-02 Ry/Bohr
     Cell gradient error     =      4.3E+02 kbar

     number of scf cycles    =   3
     number of bfgs steps    =   2

     enthalpy           old  =     -72.1536576957 Ry
     enthalpy           new  =     -72.6325056647 Ry

     CASE: enthalpy          _new < enthalpy          _old

     new trust radius        =       0.8000000000 bohr
ibrav =      7
 celldm(1) =     10.05294001
 celldm(3) =      0.71817174
Input lattice vectors:
     0.41124191    -0.41124191     0.29534232
     0.41124191     0.41124191     0.29534232
    -0.41124191    -0.41124191     0.29534232
New lattice vectors in INITIAL alat:
     0.41124191    -0.41124191     0.29534232
     0.41124191     0.41124191     0.29534232
[...]
     6.9114   7.3476   7.9323   8.5700   8.8858  11.4518

          k =-0.1989 0.2386 0.5694 (  4990 PWs)   bands (ev):

   -38.4440 -38.3921 -38.3087 -38.3058  -2.9342  -0.3745   4.1560   5.0877
     5.2015   6.5601   8.2759   9.5479  10.5629  12.5241

          k =-0.3977 0.2386 0.8283 (  4991 PWs)   bands (ev):

   -38.4139 -38.4124 -38.3129 -38.3111  -1.9125  -1.7206   3.6951   4.6676
     5.0696   6.7562   8.7966  10.6662  11.8895  12.4114

          k = 0.5966 0.2386-0.4659 (  4981 PWs)   bands (ev):

   -38.4398 -38.3883 -38.3162 -38.3063  -3.0510  -0.0528   3.1273   4.7102
     5.6020   7.4619   9.0847   9.5116  10.9247  12.6360

          k = 0.3977 0.2386-0.2071 (  4997 PWs)   bands (ev):

   -38.4641 -38.3755 -38.3115 -38.2997  -3.7316   1.9308   3.0764   4.6169
     6.7626   7.0329   8.7723   8.8741  10.5130  10.9505

          k = 0.1989 0.2386 0.0518 (  4989 PWs)   bands (ev):

   -38.4754 -38.3736 -38.3045 -38.2976  -3.9388   2.9860   3.5237   4.4835
     5.9288   7.9994   8.5272   9.3664   9.7276  10.2494

          k =-0.0000 0.4773 0.6212 (  4998 PWs)   bands (ev):

   -38.4326 -38.3982 -38.3102 -38.3094  -2.6203  -0.8760   4.4005   4.5184
     5.3740   5.6732   9.8028   9.8126  10.9758  12.7746

          k =-0.1989 0.4773 0.8800 (  4984 PWs)   bands (ev):

   -38.4189 -38.4072 -38.3137 -38.3106  -2.1997  -1.3994   3.6544   4.6915
     5.1034   6.5735   9.1889  10.7282  11.3964  12.6002

          k =-0.3977 0.4773 1.1389 (  4987 PWs)   bands (ev):

   -38.4398 -38.3845 -38.3212 -38.3050  -3.1445   0.2272   2.6693   4.8458
     5.6046   8.2700   8.8063   9.2888  11.2127  12.3043

          k = 0.5966 0.4773-0.1553 (  4972 PWs)   bands (ev):

   -38.4555 -38.3715 -38.3248 -38.2990  -3.6724   2.0807   2.2815   4.8352
     6.0017   6.9887   8.9053  10.1798  10.7778  11.6466

          k = 0.3977 0.4773 0.1035 (  4983 PWs)   bands (ev):

   -38.4608 -38.3716 -38.3201 -38.2983  -3.7624   2.4500   2.4827   4.7253
     5.8195   7.3868   8.6513  10.0645  10.4974  11.3112

          k = 0.1989 0.4773 0.3624 (  4990 PWs)   bands (ev):

   -38.4527 -38.3817 -38.3129 -38.3034  -3.4102   0.7671   3.2295   4.6144
     6.1912   7.6562   8.2338   9.2477  10.5977  12.1998

          k = 0.2386-0.2386-0.0000 (  4977 PWs)   bands (ev):

   -38.4746 -38.3733 -38.3057 -38.2975  -3.9353   3.0458   3.3985   4.4805
     5.8335   8.0719   8.4918   9.4455  10.1373  10.2313

          k = 0.0398-0.2386 0.2588 (  4991 PWs)   bands (ev):

   -38.4709 -38.3776 -38.3019 -38.3005  -3.7640   1.7952   4.1628   4.3956
     7.1967   7.4343   7.7254   8.4930   9.0321  11.2455

          k =-0.1591-0.2386 0.5177 (  4999 PWs)   bands (ev):

   -38.4497 -38.3889 -38.3075 -38.3045  -3.1200  -0.0288   4.1803   4.9942
     5.5048   6.6197   8.3014   9.3334  10.0452  12.2749

          k = 0.8352-0.2386-0.7765 (  4990 PWs)   bands (ev):

   -38.4196 -38.4080 -38.3116 -38.3112  -2.0010  -1.6339   3.8486   4.6303
     5.1015   6.6720   8.6326  10.4646  12.1881  12.3986

          k = 0.6363-0.2386-0.5177 (  4985 PWs)   bands (ev):

   -38.4342 -38.3925 -38.3162 -38.3077  -2.8588  -0.4195   3.2013   4.7344
     5.3957   7.2803   9.2777   9.7917  11.0248  12.6021

          k = 0.4375-0.2386-0.2588 (  4992 PWs)   bands (ev):

   -38.4600 -38.3771 -38.3129 -38.3008  -3.6332   1.5282   3.0449   4.6364
     6.6966   7.1806   8.5068   9.0139  10.5877  11.4333

          k = 0.0398 0.0000 0.5694 (  4983 PWs)   bands (ev):

   -38.4490 -38.3904 -38.3056 -38.3056  -3.0183  -0.2152   4.5755   4.5811
     6.4271   6.4961   7.0878   8.5331  10.7247  12.1246

          k =-0.1591-0.0000 0.8283 (  4998 PWs)   bands (ev):

   -38.4193 -38.4059 -38.3126 -38.3125  -1.8947  -1.6849   3.8806   3.9218
     6.0822   6.8442   7.6260   9.5404  11.9298  13.1387

          k = 0.8352-0.0000-0.4659 (  4989 PWs)   bands (ev):

   -38.4277 -38.3912 -38.3163 -38.3153  -2.8376  -0.3125   3.3611   3.4200
     6.2303   7.3775   8.8352   9.0480  11.3488  14.1456

          k = 0.6363 0.0000-0.2071 (  4981 PWs)   bands (ev):

   -38.4521 -38.3757 -38.3122 -38.3106  -3.5774   1.6170   3.2700   3.3198
     6.6235   7.2365   8.2418   9.6457  11.6108  12.1855

          k = 0.4375-0.0000 0.0518 (  4979 PWs)   bands (ev):

   -38.4685 -38.3734 -38.3051 -38.3040  -3.8595   2.7671   3.5832   3.6656
     5.8019   8.3767   8.7644   9.6050   9.7232  10.3384

          k = 0.2386 0.2386 0.6212 (  4997 PWs)   bands (ev):

   -38.4381 -38.3955 -38.3098 -38.3071  -2.7294  -0.7091   4.1290   4.9408
     5.1410   6.5423   8.2993   9.7732  11.0601  12.7871

          k = 0.0398 0.2386 0.8800 (  4996 PWs)   bands (ev):

   -38.4125 -38.4107 -38.3138 -38.3133  -1.9733  -1.5934   3.7360   3.8988
     5.8963   6.8335   8.0486  10.0244  11.3793  13.5062

          k =-0.1591 0.2386 1.1389 (  4985 PWs)   bands (ev):

   -38.4270 -38.3874 -38.3207 -38.3153  -2.9267  -0.0426   2.9000   3.4595
     6.1671   8.1762   8.4628   8.8466  11.2707  14.3573

          k = 0.8352 0.2386-0.1553 (  4994 PWs)   bands (ev):

   -38.4437 -38.3726 -38.3244 -38.3099  -3.5134   1.7491   2.4526   3.5717
     5.9702   6.8628   8.7830  10.6055  11.7600  12.9131

          k = 0.6363 0.2386 0.1035 (  4988 PWs)   bands (ev):

   -38.4551 -38.3720 -38.3200 -38.3036  -3.6884   2.2615   2.5640   4.0281
     5.7762   7.4934   8.4983  10.2945  11.1560  11.6774

          k = 0.4375 0.2386 0.3624 (  4990 PWs)   bands (ev):

   -38.4540 -38.3815 -38.3129 -38.3023  -3.4288   0.8028   3.2013   4.8221
     6.0754   7.7614   8.2633   9.1327  10.4546  12.1322

          k = 0.2386-0.7159-0.6212 (  4980 PWs)   bands (ev):

   -38.4233 -38.4022 -38.3151 -38.3099  -2.4204  -1.1049   3.4120   4.7567
     5.1085   6.9784   9.1143  10.6796  11.1545  12.5104

          k = 0.0398-0.7159-0.3624 (  4988 PWs)   bands (ev):

   -38.4400 -38.3830 -38.3151 -38.3124  -3.2222   0.4785   3.2501   3.4994
     6.5932   7.5515   8.0376   9.2423  11.8773  13.1855

          k =-0.1591-0.7159-0.1035 (  4981 PWs)   bands (ev):

   -38.4501 -38.3722 -38.3199 -38.3085  -3.6238   2.1268   2.6334   3.5615
     5.7678   7.1604   8.8349  10.5362  11.3177  12.1137

          k = 0.8352-0.7159-1.3977 (  4989 PWs)   bands (ev):

   -38.4512 -38.3720 -38.3246 -38.3029  -3.6139   1.9394   2.3494   4.2813
     5.9723   7.1703   8.4954  10.4679  11.4743  11.6952

          k = 0.6363-0.7159-1.1389 (  4984 PWs)   bands (ev):

   -38.4423 -38.3838 -38.3213 -38.3031  -3.1857   0.2925   2.6224   5.2420
     5.4371   8.3010   8.8804   9.7681  10.5250  12.1919

          k = 0.4375-0.7159-0.8800 (  4999 PWs)   bands (ev):

   -38.4245 -38.4031 -38.3139 -38.3089  -2.3430  -1.2343   3.4819   4.1437
     6.1905   6.8569   9.6684  10.5781  10.9757  12.2314

          k = 0.2386-0.4773-0.3106 (  4991 PWs)   bands (ev):

   -38.4554 -38.3791 -38.3141 -38.3021  -3.5159   1.1224   3.0339   4.6524
     6.3882   7.5980   8.2567   9.1778  10.6587  11.9230

          k = 0.0398-0.4773-0.0518 (  4985 PWs)   bands (ev):

   -38.4661 -38.3732 -38.3072 -38.3044  -3.8315   2.7006   3.3874   3.6690
     5.7682   8.2036   8.7960   9.7384   9.9888  10.4874

          k =-0.1591-0.4773 0.2071 (  4989 PWs)   bands (ev):

   -38.4614 -38.3757 -38.3115 -38.3022  -3.6962   1.8466   3.1286   4.2231
     6.7193   7.2534   8.4122   9.1888  10.8674  11.1374

          k = 0.8352-0.4773-1.0871 (  4992 PWs)   bands (ev):

   -38.4432 -38.3873 -38.3162 -38.3038  -3.1103   0.0407   3.0481   5.1913
     5.4139   7.7130   9.1184   9.4534  10.5671  12.6535

          k = 0.6363-0.4773-0.8283 (  4986 PWs)   bands (ev):

   -38.4184 -38.4083 -38.3133 -38.3105  -2.0794  -1.5479   3.5281   3.8901
     6.4628   6.8568  10.0821  10.3467  11.2501  11.7763

          k = 0.4375-0.4773-0.5694 (  4999 PWs)   bands (ev):

   -38.4336 -38.3948 -38.3160 -38.3061  -2.7505  -0.6349   3.1694   4.6233
     5.8188   7.3948   9.6624   9.9315  10.7650  12.4649

          k = 0.4773-0.4773-0.0000 (  4992 PWs)   bands (ev):

   -38.4602 -38.3701 -38.3228 -38.2977  -3.7796   2.3255   2.7423   4.7353
     5.4371   7.7477   8.3374  10.0862  10.9170  11.3414

          k = 0.2784-0.4773 0.2588 (  4989 PWs)   bands (ev):

   -38.4576 -38.3768 -38.3155 -38.3008  -3.6040   1.4797   2.8600   4.6852
     6.6028   7.1181   8.7089   9.1312  10.6594  11.6531

          k = 0.0795-0.4773 0.5177 (  4996 PWs)   bands (ev):

   -38.4418 -38.3910 -38.3103 -38.3075  -2.9884  -0.2519   3.9357   4.5013
     5.7175   6.3122   9.5293   9.8426  10.1879  12.6837

          k = 1.0738-0.4773-0.7765 (  4994 PWs)   bands (ev):

   -38.4175 -38.4103 -38.3114 -38.3112  -1.9388  -1.7131   4.1670   4.6163
     5.1230   5.8681   9.3852  10.3430  12.1974  12.3792

          k = 0.8750-0.4773-0.5177 (  4983 PWs)   bands (ev):

   -38.4318 -38.3928 -38.3182 -38.3077  -2.8148  -0.4680   2.9930   4.8378
     5.2590   7.8265   8.9582   9.7869  11.3813  12.2411

          k = 0.6761-0.4773-0.2588 (  4977 PWs)   bands (ev):

   -38.4502 -38.3751 -38.3244 -38.3010  -3.5130   1.3466   2.3646   4.8430
     6.3223   6.9224   9.1438   9.9471  10.6721  12.1161

          k = 0.2784-0.2386 0.5694 (  4990 PWs)   bands (ev):

   -38.4423 -38.3926 -38.3099 -38.3058  -2.9044  -0.4237   3.9873   5.0328
     5.2592   6.6122   8.4948   9.8413  10.4914  12.6841

          k = 0.0795-0.2386 0.8283 (  4994 PWs)   bands (ev):

   -38.4180 -38.4076 -38.3127 -38.3121  -1.8551  -1.7436   3.8432   4.1502
     5.6903   6.7260   7.9894   9.8936  11.9389  13.1765

          k = 1.0738-0.2386-0.4659 (  4999 PWs)   bands (ev):

   -38.4236 -38.3918 -38.3193 -38.3157  -2.7636  -0.3828   3.0561   3.4836
     6.1291   7.9327   8.5791   9.0079  10.9974  14.3766

          k = 0.8750-0.2386-0.2071 (  4990 PWs)   bands (ev):

   -38.4406 -38.3744 -38.3243 -38.3113  -3.4279   1.4008   2.4975   3.5200
     6.2564   6.8102   8.7118  10.2820  11.9355  13.2312

          k = 0.6761-0.2386 0.0518 (  4996 PWs)   bands (ev):

   -38.4536 -38.3712 -38.3213 -38.3046  -3.6877   2.4070   2.4992   3.9042
     5.5189   7.4896   8.5663  10.6744  11.1207  11.9651

          k = 0.2784-0.0000 0.8800 (  5003 PWs)   bands (ev):

   -38.4119 -38.4117 -38.3135 -38.3132  -2.0014  -1.5727   3.8175   3.9066
     5.8307   6.6525   8.2431  10.1593  11.3926  13.5448

          k = 0.0795 0.0000 1.1389 (  4992 PWs)   bands (ev):

   -38.4212 -38.3882 -38.3205 -38.3204  -2.8256  -0.1379   3.0050   3.0091
     6.1071   8.3983   8.7312   8.8385  10.4944  14.3942

          k = 1.0738 0.0000-0.1553 (  5001 PWs)   bands (ev):

   -38.4301 -38.3725 -38.3240 -38.3238  -3.3321   1.4890   2.6495   2.6567
     6.0049   6.0138  10.3808  10.7017  11.5160  13.7365

          k = 0.8750 0.0000 0.1035 (  4995 PWs)   bands (ev):

   -38.4395 -38.3719 -38.3201 -38.3191  -3.4872   1.8937   2.7775   2.8192
     5.7378   6.4487   9.7729  10.8133  11.6023  12.5516

          k = 0.6761-0.0000 0.3624 (  4988 PWs)   bands (ev):

   -38.4423 -38.3829 -38.3135 -38.3119  -3.2568   0.5236   3.4223   3.4736
     6.6778   7.3866   8.0658   9.2685  11.8312  13.0848

          k = 0.2784-0.9545-0.3624 (  4993 PWs)   bands (ev):

   -38.4329 -38.3830 -38.3221 -38.3126  -3.1138   0.3540   2.7255   3.6558
     6.2176   7.9613   8.2909   9.1827  11.7368  13.5790

          k = 0.0795-0.9545-0.1035 (  5000 PWs)   bands (ev):

   -38.4358 -38.3714 -38.3237 -38.3195  -3.4408   1.8267   2.5830   2.8615
     5.6985   6.2664  10.0114  11.0088  11.6767  12.9596

          k = 1.0738-0.9545-1.3977 (  5000 PWs)   bands (ev):

   -38.4356 -38.3728 -38.3241 -38.3180  -3.4045   1.5830   2.5692   2.9822
     5.9894   6.3375   9.6011  10.6569  11.7649  13.4566

          k = 0.8750-0.9545-1.1389 (  4991 PWs)   bands (ev):

   -38.4316 -38.3865 -38.3209 -38.3115  -3.0045   0.0420   2.8188   3.8701
     6.0599   8.1223   8.5342   8.8635  11.6742  13.2995

          k = 0.6761-0.9545-0.8800 (  4985 PWs)   bands (ev):

   -38.4204 -38.4062 -38.3138 -38.3102  -2.2375  -1.3599   3.6143   4.5921
     5.2837   6.6118   9.4067  10.6761  11.3616  12.4053

          k = 0.4773-0.7159-0.3106 (  4980 PWs)   bands (ev):

   -38.4470 -38.3778 -38.3236 -38.3022  -3.4073   0.9677   2.4422   4.8434
     6.0703   7.3752   9.1847   9.6048  10.8211  12.3549

          k = 0.2784-0.7159-0.0518 (  4995 PWs)   bands (ev):

   -38.4519 -38.3706 -38.3235 -38.3046  -3.6679   2.3517   2.4201   3.9471
     5.4676   7.4194   8.5228  10.8550  11.2392  12.1046

          k = 0.0795-0.7159 0.2071 (  4983 PWs)   bands (ev):

   -38.4470 -38.3754 -38.3169 -38.3113  -3.5119   1.5147   2.9122   3.3900
     6.5268   6.9787   8.4916   9.8317  11.7838  12.5922

          k = 1.0738-0.7159-1.0871 (  4988 PWs)   bands (ev):

   -38.4339 -38.3898 -38.3160 -38.3107  -2.9488  -0.1897   3.2538   3.9908
     6.0362   7.2172   9.0214   9.1887  11.5314  13.1032

          k = 0.8750-0.7159-0.8283 (  4990 PWs)   bands (ev):

   -38.4155 -38.4111 -38.3131 -38.3107  -1.9907  -1.6456   3.6240   4.2967
     5.6024   6.7797   9.2978  10.7957  11.6987  11.9867

          k = 0.6761-0.7159-0.5694 (  4993 PWs)   bands (ev):

   -38.4325 -38.3950 -38.3169 -38.3062  -2.7290  -0.6598   3.0694   4.5890
     5.8551   7.6172   9.7811   9.9095  10.7728  12.3380

     the Fermi energy is     8.0282 ev

!    total energy              =     -74.17061946 Ry
     estimated scf accuracy    <          1.4E-11 Ry
     smearing contrib. (-TS)   =      -0.00011760 Ry
     internal energy E=F+TS    =     -74.17050185 Ry

     The total energy is F=E-TS. E is the sum of the following terms:
     one-electron contribution =     -19.93053033 Ry
     hartree contribution      =      12.46000290 Ry
     xc contribution           =     -20.51327000 Ry
     ewald contribution        =     -46.18670443 Ry

     convergence has been achieved in   8 iterations

     Forces acting on atoms (cartesian axes, Ry/au):

     atom    1 type  1   force =     0.00000000   -0.00000000    0.00000000
     atom    2 type  1   force =    -0.00000000    0.00000000   -0.00000000
     atom    3 type  2   force =     0.00001543   -0.00001543    0.00000000
     atom    4 type  2   force =    -0.00001543    0.00001543   -0.00000000
     atom    5 type  2   force =     0.00001543    0.00001543    0.00000000
     atom    6 type  2   force =    -0.00001543   -0.00001543    0.00000000
     The non-local contrib.  to forces
     atom    1 type  1   force =    -0.00000000    0.00000000    0.00000000
     atom    2 type  1   force =     0.00000000    0.00000000    0.00000000
     atom    3 type  2   force =    -0.03765348    0.03765348    0.00000000
     atom    4 type  2   force =     0.03765348   -0.03765348   -0.00000000
     atom    5 type  2   force =    -0.03765348   -0.03765348    0.00000000
     atom    6 type  2   force =     0.03765348    0.03765348    0.00000000
     The ionic contribution  to forces
     atom    1 type  1   force =    -0.00000000    0.00000000    0.00000000
     atom    2 type  1   force =    -0.00000000   -0.00000000   -0.00000000
     atom    3 type  2   force =    -0.16213924    0.16213924   -0.00000000
     atom    4 type  2   force =     0.16213924   -0.16213924   -0.00000000
     atom    5 type  2   force =    -0.16213924   -0.16213924    0.00000000
     atom    6 type  2   force =     0.16213924    0.16213924   -0.00000000
     The local contribution  to forces
     atom    1 type  1   force =    -0.00000000   -0.00000000   -0.00000000
     atom    2 type  1   force =    -0.00000000    0.00000000    0.00000000
     atom    3 type  2   force =     0.19980847   -0.19980847   -0.00000000
     atom    4 type  2   force =    -0.19980847    0.19980847   -0.00000000
     atom    5 type  2   force =     0.19980847    0.19980847   -0.00000000
     atom    6 type  2   force =    -0.19980847   -0.19980847   -0.00000000
     The core correction contribution to forces
     atom    1 type  1   force =    -0.00000000   -0.00000000   -0.00000000
     atom    2 type  1   force =    -0.00000000   -0.00000000    0.00000000
     atom    3 type  2   force =     0.00000000    0.00000000    0.00000000
     atom    4 type  2   force =     0.00000000    0.00000000    0.00000000
     atom    5 type  2   force =     0.00000000    0.00000000    0.00000000
     atom    6 type  2   force =     0.00000000    0.00000000    0.00000000
     The Hubbard contrib.    to forces
     atom    1 type  1   force =     0.00000000    0.00000000    0.00000000
     atom    2 type  1   force =     0.00000000    0.00000000    0.00000000
     atom    3 type  2   force =     0.00000000    0.00000000    0.00000000
     atom    4 type  2   force =     0.00000000    0.00000000    0.00000000
     atom    5 type  2   force =     0.00000000    0.00000000    0.00000000
     atom    6 type  2   force =     0.00000000    0.00000000    0.00000000
     The SCF correction term to forces
     atom    1 type  1   force =    -0.00000000   -0.00000000    0.00000000
     atom    2 type  1   force =    -0.00000000    0.00000000   -0.00000000
     atom    3 type  2   force =    -0.00000032    0.00000032   -0.00000000
     atom    4 type  2   force =     0.00000032   -0.00000032   -0.00000000
     atom    5 type  2   force =    -0.00000032   -0.00000032    0.00000000
     atom    6 type  2   force =     0.00000032    0.00000032   -0.00000000

     Total force =     0.000044     Total SCF correction =     0.000001


     Computing stress (Cartesian axis) and pressure

          total   stress  (Ry/bohr**3)                   (kbar)     P=      499.60
   0.00339742   0.00000000   0.00000000          499.78        0.00        0.00
   0.00000000   0.00339742  -0.00000000            0.00      499.78       -0.00
   0.00000000   0.00000000   0.00339377            0.00        0.00      499.24


     Writing all to output data dir ./output/SiLi.save/

     init_run     :      3.11s CPU      6.00s WALL (       2 calls)
     electrons    :    217.73s CPU    249.11s WALL (      14 calls)
     update_pot   :      9.39s CPU      9.51s WALL (      12 calls)
     forces       :      7.94s CPU      8.11s WALL (      14 calls)
     stress       :     42.91s CPU     44.46s WALL (      14 calls)

     Called by init_run:
     wfcinit      :      1.59s CPU      4.18s WALL (       2 calls)
     potinit      :      0.57s CPU      0.72s WALL (       2 calls)
     hinit0       :      0.84s CPU      0.91s WALL (       2 calls)

     Called by electrons:
     c_bands      :    190.29s CPU    216.95s WALL (     106 calls)
     sum_band     :     25.79s CPU     29.74s WALL (     106 calls)
     v_of_rho     :      1.69s CPU      2.28s WALL (     117 calls)
     mix_rho      :      0.11s CPU      0.16s WALL (     106 calls)

     Called by c_bands:
     init_us_2    :      5.55s CPU      6.22s WALL (   17424 calls)
     init_us_2:cp :      5.53s CPU      6.20s WALL (   17424 calls)
     cegterg      :    177.31s CPU    200.93s WALL (    7632 calls)

     Called by *egterg:
     cdiaghg      :      6.50s CPU      6.95s WALL (   32607 calls)
     h_psi        :    153.83s CPU    178.90s WALL (   33831 calls)
     g_psi        :      0.84s CPU      0.87s WALL (   26055 calls)

     Called by h_psi:
     h_psi:calbec :      9.73s CPU     10.87s WALL (   33831 calls)
     vloc_psi     :    134.52s CPU    157.79s WALL (   33831 calls)
     add_vuspsi   :      9.06s CPU      9.67s WALL (   33831 calls)

     General routines
     calbec       :     11.77s CPU     12.96s WALL (   38871 calls)
     fft          :      1.42s CPU      2.14s WALL (    1521 calls)
     ffts         :      0.06s CPU      0.09s WALL (     106 calls)
     fftw         :    138.09s CPU    161.94s WALL (  744230 calls)

     Parallel routines

     PWSCF        :   4m41.45s CPU   5m18.14s WALL


   This run was terminated on:  13:56:42  27Dec2024            

=------------------------------------------------------------------------------=
   JOB DONE.
=------------------------------------------------------------------------------=
