
     Program PWSCF v.7.2 starts on 10Jan2025 at 22: 9:19 

     This program is part of the open-source Quantum ESPRESSO suite
     for quantum simulation of materials; please cite
         "P. Giannozzi et al., J. Phys.:Condens. Matter 21 395502 (2009);
         "P. Giannozzi et al., J. Phys.:Condens. Matter 29 465901 (2017);
         "P. Giannozzi et al., J. Chem. Phys. 152 154105 (2020);
          URL http://www.quantum-espresso.org", 
     in publications or presentations arising from this work. More details at
     http://www.quantum-espresso.org/quote

     Parallel version (MPI & OpenMP), running on       8 processor cores
     Number of MPI processes:                 8
     Threads/MPI process:                     1

     MPI processes distributed on     1 nodes
     481335 MiB available memory on the printing compute node when the environment starts

     Waiting for input...
     Reading input from standard input

     Current dimensions of program PWSCF are:
     Max number of different atomic species (ntypx) = 10
     Max number of k-points (npk) =  40000
     Max angular momentum in pseudopotentials (lmaxx) =  4

     R & G space division:  proc/nbgrp/npool/nimage =       8
     Subspace diagonalization in iterative solution of the eigenvalue problem:
     a serial algorithm will be used


     Parallelization info
     --------------------
     sticks:   dense  smooth     PW     G-vecs:    dense   smooth      PW
     Min          96      96     27                 2764     2764     439
     Max          97      97     28                 2766     2766     444
     Sum         769     769    223                22123    22123    3545

     Using Slab Decomposition



     bravais-lattice index     =            4
     lattice parameter (alat)  =       5.2868  a.u.
     unit-cell volume          =     163.6667 (a.u.)^3
     number of atoms/cell      =            3
     number of atomic types    =            2
     number of electrons       =        10.00
     number of Kohn-Sham states=            9
     kinetic-energy cutoff     =     100.0000  Ry
     charge density cutoff     =     400.0000  Ry
     scf convergence threshold =      1.0E-08
     mixing beta               =       0.7000
     number of iterations used =            8  plain     mixing
     energy convergence thresh.=      1.0E-04
     force convergence thresh. =      1.0E-03
     press convergence thresh. =      1.0E+00
     Exchange-correlation= PBE
                           (   1   4   3   4   0   0   0)
     nstep                     =           50


     celldm(1)=   5.286804  celldm(2)=   0.000000  celldm(3)=   1.278940
     celldm(4)=   0.000000  celldm(5)=   0.000000  celldm(6)=   0.000000

     crystal axes: (cart. coord. in units of alat)
               a(1) = (   1.000000   0.000000   0.000000 )  
               a(2) = (  -0.500000   0.866025   0.000000 )  
               a(3) = (   0.000000   0.000000   1.278940 )  

     reciprocal axes: (cart. coord. in units 2 pi/alat)
               b(1) = (  1.000000  0.577350 -0.000000 )  
               b(2) = (  0.000000  1.154701  0.000000 )  
               b(3) = (  0.000000 -0.000000  0.781898 )  


     PseudoPot. # 1 for Si read from file:
     ../pseudo/Si_ONCV_PBE_sr.upf
     MD5 check sum: e543d271109d17c80368dfa7c482276d
     Pseudo is Norm-conserving + core correction, Zval =  4.0
     Generated using ONCVPSP code by D. R. Hamann
     Using radial grid of 1510 points,  6 beta functions with: 
                l(1) =   0
                l(2) =   0
                l(3) =   1
                l(4) =   1
                l(5) =   2
                l(6) =   2

     PseudoPot. # 2 for Li read from file:
     ../pseudo/Li_ONCV_PBE_sr.upf
     MD5 check sum: 50ff420e78310ffa21704f3361e624a4
     Pseudo is Norm-conserving, Zval =  3.0
     Generated using ONCVPSP code by D. R. Hamann
     Using radial grid of 1944 points,  4 beta functions with: 
                l(1) =   0
                l(2) =   0
                l(3) =   1
                l(4) =   1

     atomic species   valence    mass     pseudopotential
        Si             4.00    28.08550     Si( 1.00)
        Li             3.00     6.94100     Li( 1.00)

     24 Sym. Ops., with inversion, found



   Cartesian axes

     site n.     atom                  positions (alat units)
         1           Si  tau(   1) = (   0.0000000   0.0000000   0.0000000  )
         2           Li  tau(   2) = (  -0.0000000   0.5773503   0.6394698  )
         3           Li  tau(   3) = (   0.5000000   0.2886751   0.6394698  )

     number of k points=    80  Marzari-Vanderbilt smearing, width (Ry)=  0.0200
                       cart. coord. in units 2pi/alat
        k(    1) = (   0.0000000   0.0000000   0.0000000), wk =   0.0020661
        k(    2) = (   0.0000000   0.0000000   0.0977372), wk =   0.0041322
        k(    3) = (   0.0000000   0.0000000   0.1954744), wk =   0.0041322
        k(    4) = (   0.0000000   0.0000000   0.2932117), wk =   0.0041322
        k(    5) = (   0.0000000   0.0000000  -0.3909489), wk =   0.0020661
        k(    6) = (   0.0000000   0.1049728   0.0000000), wk =   0.0123967
        k(    7) = (   0.0000000   0.1049728   0.0977372), wk =   0.0247934
        k(    8) = (   0.0000000   0.1049728   0.1954744), wk =   0.0247934
        k(    9) = (   0.0000000   0.1049728   0.2932117), wk =   0.0247934
        k(   10) = (   0.0000000   0.1049728  -0.3909489), wk =   0.0123967
        k(   11) = (   0.0000000   0.2099456   0.0000000), wk =   0.0123967
        k(   12) = (   0.0000000   0.2099456   0.0977372), wk =   0.0247934
        k(   13) = (   0.0000000   0.2099456   0.1954744), wk =   0.0247934
        k(   14) = (   0.0000000   0.2099456   0.2932117), wk =   0.0247934
        k(   15) = (   0.0000000   0.2099456  -0.3909489), wk =   0.0123967
        k(   16) = (   0.0000000   0.3149183   0.0000000), wk =   0.0123967
        k(   17) = (   0.0000000   0.3149183   0.0977372), wk =   0.0247934
        k(   18) = (   0.0000000   0.3149183   0.1954744), wk =   0.0247934
        k(   19) = (   0.0000000   0.3149183   0.2932117), wk =   0.0247934
        k(   20) = (   0.0000000   0.3149183  -0.3909489), wk =   0.0123967
        k(   21) = (   0.0000000   0.4198911   0.0000000), wk =   0.0123967
        k(   22) = (   0.0000000   0.4198911   0.0977372), wk =   0.0247934
        k(   23) = (   0.0000000   0.4198911   0.1954744), wk =   0.0247934
        k(   24) = (   0.0000000   0.4198911   0.2932117), wk =   0.0247934
        k(   25) = (   0.0000000   0.4198911  -0.3909489), wk =   0.0123967
        k(   26) = (   0.0000000   0.5248639   0.0000000), wk =   0.0123967
        k(   27) = (   0.0000000   0.5248639   0.0977372), wk =   0.0247934
        k(   28) = (   0.0000000   0.5248639   0.1954744), wk =   0.0247934
        k(   29) = (   0.0000000   0.5248639   0.2932117), wk =   0.0247934
        k(   30) = (   0.0000000   0.5248639  -0.3909489), wk =   0.0123967
        k(   31) = (   0.0909091   0.1574592   0.0000000), wk =   0.0123967
        k(   32) = (   0.0909091   0.1574592   0.0977372), wk =   0.0247934
        k(   33) = (   0.0909091   0.1574592   0.1954744), wk =   0.0247934
        k(   34) = (   0.0909091   0.1574592   0.2932117), wk =   0.0247934
        k(   35) = (   0.0909091   0.1574592  -0.3909489), wk =   0.0123967
        k(   36) = (   0.0909091   0.2624319   0.0000000), wk =   0.0247934
        k(   37) = (   0.0909091   0.2624319   0.0977372), wk =   0.0495868
        k(   38) = (   0.0909091   0.2624319   0.1954744), wk =   0.0495868
        k(   39) = (   0.0909091   0.2624319   0.2932117), wk =   0.0495868
        k(   40) = (   0.0909091   0.2624319  -0.3909489), wk =   0.0247934
        k(   41) = (   0.0909091   0.3674047   0.0000000), wk =   0.0247934
        k(   42) = (   0.0909091   0.3674047   0.0977372), wk =   0.0495868
        k(   43) = (   0.0909091   0.3674047   0.1954744), wk =   0.0495868
        k(   44) = (   0.0909091   0.3674047   0.2932117), wk =   0.0495868
        k(   45) = (   0.0909091   0.3674047  -0.3909489), wk =   0.0247934
        k(   46) = (   0.0909091   0.4723775   0.0000000), wk =   0.0247934
        k(   47) = (   0.0909091   0.4723775   0.0977372), wk =   0.0495868
        k(   48) = (   0.0909091   0.4723775   0.1954744), wk =   0.0495868
        k(   49) = (   0.0909091   0.4723775   0.2932117), wk =   0.0495868
        k(   50) = (   0.0909091   0.4723775  -0.3909489), wk =   0.0247934
        k(   51) = (   0.0909091   0.5773503   0.0000000), wk =   0.0123967
        k(   52) = (   0.0909091   0.5773503   0.0977372), wk =   0.0247934
        k(   53) = (   0.0909091   0.5773503   0.1954744), wk =   0.0247934
        k(   54) = (   0.0909091   0.5773503   0.2932117), wk =   0.0247934
        k(   55) = (   0.0909091   0.5773503  -0.3909489), wk =   0.0123967
        k(   56) = (   0.1818182   0.3149183   0.0000000), wk =   0.0123967
        k(   57) = (   0.1818182   0.3149183   0.0977372), wk =   0.0247934
        k(   58) = (   0.1818182   0.3149183   0.1954744), wk =   0.0247934
        k(   59) = (   0.1818182   0.3149183   0.2932117), wk =   0.0247934
        k(   60) = (   0.1818182   0.3149183  -0.3909489), wk =   0.0123967
        k(   61) = (   0.1818182   0.4198911   0.0000000), wk =   0.0247934
        k(   62) = (   0.1818182   0.4198911   0.0977372), wk =   0.0495868
        k(   63) = (   0.1818182   0.4198911   0.1954744), wk =   0.0495868
        k(   64) = (   0.1818182   0.4198911   0.2932117), wk =   0.0495868
        k(   65) = (   0.1818182   0.4198911  -0.3909489), wk =   0.0247934
        k(   66) = (   0.1818182   0.5248639   0.0000000), wk =   0.0247934
        k(   67) = (   0.1818182   0.5248639   0.0977372), wk =   0.0495868
        k(   68) = (   0.1818182   0.5248639   0.1954744), wk =   0.0495868
        k(   69) = (   0.1818182   0.5248639   0.2932117), wk =   0.0495868
        k(   70) = (   0.1818182   0.5248639  -0.3909489), wk =   0.0247934
        k(   71) = (   0.2727273   0.4723775   0.0000000), wk =   0.0123967
        k(   72) = (   0.2727273   0.4723775   0.0977372), wk =   0.0247934
        k(   73) = (   0.2727273   0.4723775   0.1954744), wk =   0.0247934
        k(   74) = (   0.2727273   0.4723775   0.2932117), wk =   0.0247934
        k(   75) = (   0.2727273   0.4723775  -0.3909489), wk =   0.0123967
        k(   76) = (   0.2727273   0.5773503   0.0000000), wk =   0.0123967
        k(   77) = (   0.2727273   0.5773503   0.0977372), wk =   0.0247934
        k(   78) = (   0.2727273   0.5773503   0.1954744), wk =   0.0247934
        k(   79) = (   0.2727273   0.5773503   0.2932117), wk =   0.0247934
        k(   80) = (   0.2727273   0.5773503  -0.3909489), wk =   0.0123967

     Dense  grid:    22123 G-vectors     FFT dimensions: (  36,  36,  45)

     Estimated max dynamical RAM per process >      18.84 MB

     Estimated total dynamical RAM >     150.69 MB

     Initial potential from superposition of free atoms

     starting charge       9.9903, renormalised to      10.0000
     Starting wfcs are    8 randomized atomic wfcs +    1 random wfcs

     total cpu time spent up to now is        1.7 secs

     Self-consistent Calculation

     iteration #  1     ecut=   100.00 Ry     beta= 0.70
     Davidson diagonalization with overlap
     ethr =  1.00E-02,  avg # of iterations =  5.9

     Threshold (ethr) on eigenvalues was too large:
     Diagonalizing with lowered threshold

     Davidson diagonalization with overlap
     ethr =  3.66E-04,  avg # of iterations =  2.1

     total cpu time spent up to now is        3.4 secs

     total energy              =     -36.99129860 Ry
     estimated scf accuracy    <       0.03745096 Ry

     iteration #  2     ecut=   100.00 Ry     beta= 0.70
     Davidson diagonalization with overlap
     ethr =  3.75E-04,  avg # of iterations =  2.3

     total cpu time spent up to now is        4.0 secs

     total energy              =     -36.99663804 Ry
     estimated scf accuracy    <       0.00267981 Ry

     iteration #  3     ecut=   100.00 Ry     beta= 0.70
     Davidson diagonalization with overlap
     ethr =  2.68E-05,  avg # of iterations =  3.3

     total cpu time spent up to now is        4.5 secs

     total energy              =     -36.99713247 Ry
     estimated scf accuracy    <       0.00014639 Ry

     iteration #  4     ecut=   100.00 Ry     beta= 0.70
     Davidson diagonalization with overlap
     ethr =  1.46E-06,  avg # of iterations =  3.0

     total cpu time spent up to now is        5.1 secs

     total energy              =     -36.99714484 Ry
     estimated scf accuracy    <       0.00000174 Ry

     iteration #  5     ecut=   100.00 Ry     beta= 0.70
     Davidson diagonalization with overlap
     ethr =  1.74E-08,  avg # of iterations =  2.8

     total cpu time spent up to now is        5.6 secs

     total energy              =     -36.99714563 Ry
     estimated scf accuracy    <       0.00000015 Ry

     iteration #  6     ecut=   100.00 Ry     beta= 0.70
     Davidson diagonalization with overlap
     ethr =  1.47E-09,  avg # of iterations =  2.0

     total cpu time spent up to now is        6.1 secs

     End of self-consistent calculation

          k = 0.0000 0.0000 0.0000 (  2751 PWs)   bands (ev):

   -38.5416 -36.4355  -1.2740   6.2693  13.4214  18.1721  18.1721  18.3087
    18.3087

          k = 0.0000 0.0000 0.0977 (  2781 PWs)   bands (ev):

   -38.5411 -36.4355  -1.2855   6.0334  14.0984  18.3181  18.3181  18.4749
    18.4749

          k = 0.0000 0.0000 0.1955 (  2794 PWs)   bands (ev):

   -38.5399 -36.4353  -1.3140   5.5638  15.8557  18.7458  18.7458  18.9635
    18.9635

          k = 0.0000 0.0000 0.2932 (  2776 PWs)   bands (ev):

   -38.5387 -36.4352  -1.3436   5.1863  18.1893  19.3924  19.3924  19.7155
    22.6097

          k = 0.0000 0.0000-0.3909 (  2794 PWs)   bands (ev):

   -38.5382 -36.4351  -1.3563   5.0488  19.8041  19.8580  19.8580  20.2928
    20.2928

          k = 0.0000 0.1050 0.0000 (  2775 PWs)   bands (ev):

   -38.5040 -36.4741  -1.1003   6.4677  13.0407  16.2429  16.3569  19.8677
    20.4077

          k = 0.0000 0.1050 0.0977 (  2775 PWs)   bands (ev):

   -38.5035 -36.4740  -1.1072   6.2026  13.6995  16.4317  16.5196  19.9609
    20.5203

          k = 0.0000 0.1050 0.1955 (  2793 PWs)   bands (ev):

   -38.5024 -36.4739  -1.1246   5.6840  15.2798  17.0053  17.0790  20.1254
    20.7037

          k = 0.0000 0.1050 0.2932 (  2783 PWs)   bands (ev):

   -38.5012 -36.4737  -1.1431   5.2725  16.8497  17.8045  18.5683  19.5425
    20.1070

          k = 0.0000 0.1050-0.3909 (  2772 PWs)   bands (ev):

   -38.5007 -36.4737  -1.1511   5.1232  17.7579  18.6329  18.8798  18.8935
    20.0478

          k = 0.0000 0.2099 0.0000 (  2773 PWs)   bands (ev):

   -38.3953 -36.5853  -0.5843   7.0626  11.5315  14.8284  15.1315  20.3175
    22.0485

          k = 0.0000 0.2099 0.0977 (  2773 PWs)   bands (ev):

   -38.3949 -36.5852  -0.5774   6.6929  12.0666  14.9929  15.4758  20.0543
    20.9107

          k = 0.0000 0.2099 0.1955 (  2774 PWs)   bands (ev):

   -38.3938 -36.5850  -0.5606   6.0215  13.0964  15.4853  16.5359  18.8143
    20.5238

          k = 0.0000 0.2099 0.2932 (  2776 PWs)   bands (ev):

   -38.3928 -36.5848  -0.5438   5.5120  14.0241  16.3005  16.9847  18.8436
    18.8788

          k = 0.0000 0.2099-0.3909 (  2770 PWs)   bands (ev):

   -38.3924 -36.5847  -0.5369   5.3296  14.5153  16.4598  17.3122  17.5723
    19.7044

          k = 0.0000 0.3149 0.0000 (  2773 PWs)   bands (ev):

   -38.2289 -36.7548   0.2559   8.0523   9.3491  13.6733  14.6947  18.8800
    20.0574

          k = 0.0000 0.3149 0.0977 (  2776 PWs)   bands (ev):

   -38.2285 -36.7547   0.2866   7.3787   9.9489  13.8381  15.0291  18.1300
    20.1263

          k = 0.0000 0.3149 0.1955 (  2767 PWs)   bands (ev):

   -38.2276 -36.7545   0.3639   6.4720  10.6757  14.3316  15.3928  17.7728
    19.5446

          k = 0.0000 0.3149 0.2932 (  2763 PWs)   bands (ev):

   -38.2267 -36.7543   0.4467   5.8416  11.1605  14.9417  15.1474  17.7984
    18.5450

          k = 0.0000 0.3149-0.3909 (  2754 PWs)   bands (ev):

   -38.2264 -36.7542   0.4828   5.6180  11.3451  14.6596  16.0947  16.5360
    18.7782

          k = 0.0000 0.4199 0.0000 (  2762 PWs)   bands (ev):

   -38.0319 -36.9546   1.3737   7.2055   9.4310  12.9002  14.3627  15.9959
    19.6755

          k = 0.0000 0.4199 0.0977 (  2765 PWs)   bands (ev):

   -38.0316 -36.9545   1.4401   7.0138   9.2429  13.0650  14.2238  16.4331
    19.7219

          k = 0.0000 0.4199 0.1955 (  2758 PWs)   bands (ev):

   -38.0309 -36.9542   1.6135   6.5542   8.8749  13.5581  13.8324  17.4837
    18.8285

          k = 0.0000 0.4199 0.2932 (  2755 PWs)   bands (ev):

   -38.0302 -36.9539   1.8108   6.0972   8.5706  13.5047  14.3713  17.0609
    18.0083

          k = 0.0000 0.4199-0.3909 (  2764 PWs)   bands (ev):

   -38.0299 -36.9537   1.9019   5.9063   8.4547  13.3889  15.2762  15.8348
    18.0647

          k = 0.0000 0.5249 0.0000 (  2746 PWs)   bands (ev):

   -37.8682 -37.1200   2.5627   5.4849  11.1578  12.5129  13.5053  14.1386
    19.4330

          k = 0.0000 0.5249 0.0977 (  2751 PWs)   bands (ev):

   -37.8680 -37.1198   2.6888   5.4424  10.2106  12.6776  13.0020  15.6882
    19.4761

          k = 0.0000 0.5249 0.1955 (  2747 PWs)   bands (ev):

   -37.8674 -37.1194   3.0394   5.3731   8.5780  12.8247  13.1702  17.2982
    18.4631

          k = 0.0000 0.5249 0.2932 (  2762 PWs)   bands (ev):

   -37.8668 -37.1190   3.4866   5.4551   7.0977  12.7506  13.9814  16.6898
    17.6848

          k = 0.0000 0.5249-0.3909 (  2762 PWs)   bands (ev):

   -37.8665 -37.1189   3.7119   5.9016   6.0914  12.7277  14.8656  15.4824
    17.6939

          k = 0.0909 0.1575 0.0000 (  2777 PWs)   bands (ev):

   -38.4308 -36.5490  -0.7554   6.8644  12.1360  14.5546  15.8604  20.9660
    21.2223

          k = 0.0909 0.1575 0.0977 (  2776 PWs)   bands (ev):

   -38.4303 -36.5490  -0.7531   6.5331  12.7365  14.7030  16.1509  20.5506
    21.3026

          k = 0.0909 0.1575 0.1955 (  2774 PWs)   bands (ev):

   -38.4292 -36.5488  -0.7479   5.9133  14.0128  15.1436  17.1310  19.4109
    20.1498

          k = 0.0909 0.1575 0.2932 (  2786 PWs)   bands (ev):

   -38.4282 -36.5486  -0.7432   5.4353  15.2691  15.8462  17.9274  18.5539
    19.0803

          k = 0.0909 0.1575-0.3909 (  2774 PWs)   bands (ev):

   -38.4277 -36.5485  -0.7414   5.2634  16.1149  16.4619  17.0633  17.6385
    20.5496

          k = 0.0909 0.2624 0.0000 (  2774 PWs)   bands (ev):

   -38.2925 -36.6901  -0.0770   7.6567  10.3860  12.9791  15.6335  20.4872
    20.6404

          k = 0.0909 0.2624 0.0977 (  2780 PWs)   bands (ev):

   -38.2921 -36.6900  -0.0559   7.1418  10.9611  13.1435  15.9853  19.1446
    20.1932

          k = 0.0909 0.2624 0.1955 (  2772 PWs)   bands (ev):

   -38.2911 -36.6898  -0.0034   6.3159  11.9078  13.6304  16.6023  18.2127
    18.6612

          k = 0.0909 0.2624 0.2932 (  2762 PWs)   bands (ev):

   -38.2902 -36.6896   0.0518   5.7206  12.6781  14.3733  15.9085  17.1588
    19.6930

          k = 0.0909 0.2624-0.3909 (  2768 PWs)   bands (ev):

   -38.2898 -36.6895   0.0756   5.5093  13.0379  15.0376  15.3078  16.3774
    21.0351

          k = 0.0909 0.3674 0.0000 (  2767 PWs)   bands (ev):

   -38.1073 -36.8782   0.9057   8.2950   8.8416  11.9555  15.4244  17.5216
    19.9966

          k = 0.0909 0.3674 0.0977 (  2770 PWs)   bands (ev):

   -38.1070 -36.8781   0.9560   7.5720   9.3452  12.1669  15.4194  17.4248
    19.2117

          k = 0.0909 0.3674 0.1955 (  2759 PWs)   bands (ev):

   -38.1062 -36.8778   1.0857   6.6777   9.7459  12.7090  14.8842  17.5345
    18.5493

          k = 0.0909 0.3674 0.2932 (  2756 PWs)   bands (ev):

   -38.1054 -36.8775   1.2299   6.0311   9.9435  13.4313  14.2766  16.1924
    20.1200

          k = 0.0909 0.3674-0.3909 (  2764 PWs)   bands (ev):

   -38.1051 -36.8774   1.2950   5.7939  10.0043  13.8966  14.1151  15.4203
    20.5537

          k = 0.0909 0.4724 0.0000 (  2762 PWs)   bands (ev):

   -37.9138 -37.0739   2.1014   6.3538  10.4055  11.3636  14.8345  15.1887
    19.5306

          k = 0.0909 0.4724 0.0977 (  2758 PWs)   bands (ev):

   -37.9136 -37.0737   2.1967   6.2937   9.7546  11.7027  13.9892  16.6211
    18.6496

          k = 0.0909 0.4724 0.1955 (  2755 PWs)   bands (ev):

   -37.9129 -37.0734   2.4527   6.1589   8.6422  12.2503  13.4469  16.9568
    18.8137

          k = 0.0909 0.4724 0.2932 (  2756 PWs)   bands (ev):

   -37.9123 -37.0730   2.7600   6.0511   7.6832  12.8753  13.2360  15.6064
    19.9936

          k = 0.0909 0.4724-0.3909 (  2772 PWs)   bands (ev):

   -37.9120 -37.0729   2.9095   6.0259   7.2812  13.0022  13.5584  14.8289
    20.0770

          k = 0.0909 0.5774 0.0000 (  2742 PWs)   bands (ev):

   -37.8127 -37.1758   2.9294   5.2692  11.1672  11.9751  12.8852  15.0816
    19.3661

          k = 0.0909 0.5774 0.0977 (  2742 PWs)   bands (ev):

   -37.8125 -37.1756   3.0840   5.2163  10.3000  11.8642  12.8515  16.4111
    18.4591

          k = 0.0909 0.5774 0.1955 (  2748 PWs)   bands (ev):

   -37.8119 -37.1752   3.5419   5.0917   8.5998  12.2180  12.7797  16.7611
    18.8950

          k = 0.0909 0.5774 0.2932 (  2767 PWs)   bands (ev):

   -37.8114 -37.1748   4.2678   4.9711   7.0332  12.7188  12.8479  15.4098
    19.8861

          k = 0.0909 0.5774-0.3909 (  2772 PWs)   bands (ev):

   -37.8111 -37.1746   4.8967   4.9223   6.1163  12.6963  13.3722  14.6290
    19.9083

          k = 0.1818 0.3149 0.0000 (  2759 PWs)   bands (ev):

   -38.1333 -36.8519   0.7456   8.6446   9.0506  11.0782  15.9706  18.8965
    20.6007

          k = 0.1818 0.3149 0.0977 (  2765 PWs)   bands (ev):

   -38.1329 -36.8518   0.7908   7.6697   9.9793  11.1733  16.1273  18.1582
    18.6583

          k = 0.1818 0.3149 0.1955 (  2760 PWs)   bands (ev):

   -38.1321 -36.8515   0.9068   6.6750  10.8814  11.4378  15.5712  17.0185
    18.7301

          k = 0.1818 0.3149 0.2932 (  2764 PWs)   bands (ev):

   -38.1313 -36.8512   1.0348   5.9931  11.5547  11.7805  14.6152  15.8439
    20.7108

          k = 0.1818 0.3149-0.3909 (  2752 PWs)   bands (ev):

   -38.1310 -36.8511   1.0922   5.7483  11.8599  11.9633  14.1711  15.3835
    22.3681

          k = 0.1818 0.4199 0.0000 (  2755 PWs)   bands (ev):

   -37.9392 -37.0482   1.8283   7.4343   9.8865  10.0190  15.9656  16.5035
    19.0040

          k = 0.1818 0.4199 0.0977 (  2764 PWs)   bands (ev):

   -37.9389 -37.0480   1.9097   7.2294   9.5665  10.3303  15.1269  17.3732
    17.7863

          k = 0.1818 0.4199 0.1955 (  2763 PWs)   bands (ev):

   -37.9382 -37.0477   2.1265   6.7216   9.2795  10.6703  14.1896  16.0811
    19.4093

          k = 0.1818 0.4199 0.2932 (  2765 PWs)   bands (ev):

   -37.9376 -37.0474   2.3834   6.1966   9.1014  10.9918  13.5579  15.0273
    21.7589

          k = 0.1818 0.4199-0.3909 (  2762 PWs)   bands (ev):

   -37.9373 -37.0472   2.5072   5.9696   9.0374  11.1502  13.3320  14.6302
    23.2555

          k = 0.1818 0.5249 0.0000 (  2760 PWs)   bands (ev):

   -37.7641 -37.2246   2.9430   5.9433   9.3767  11.7292  14.0945  15.8412
    18.5281

          k = 0.1818 0.5249 0.0977 (  2759 PWs)   bands (ev):

   -37.7638 -37.2244   3.0811   5.9071   9.2452  11.1828  13.6213  16.8842
    17.5507

          k = 0.1818 0.5249 0.1955 (  2761 PWs)   bands (ev):

   -37.7633 -37.2240   3.4730   5.8363   8.5053  10.6452  13.2175  15.6448
    19.8134

          k = 0.1818 0.5249 0.2932 (  2761 PWs)   bands (ev):

   -37.7627 -37.2236   4.0079   5.8532   7.3105  10.6799  12.9853  14.6153
    22.4631

          k = 0.1818 0.5249-0.3909 (  2764 PWs)   bands (ev):

   -37.7625 -37.2235   4.3117   6.1005   6.4942  10.7675  12.9062  14.2247
    23.1310

          k = 0.2727 0.4724 0.0000 (  2762 PWs)   bands (ev):

   -37.7438 -37.2449   2.8898   6.7381   8.2478  11.5593  15.5820  15.9938
    16.6233

          k = 0.2727 0.4724 0.0977 (  2750 PWs)   bands (ev):

   -37.7436 -37.2447   3.0168   6.6778   8.2757  10.9880  14.4798  15.9696
    17.7177

          k = 0.2727 0.4724 0.1955 (  2765 PWs)   bands (ev):

   -37.7430 -37.2443   3.3722   6.5066   8.3470   9.8287  13.6893  14.9479
    20.1169

          k = 0.2727 0.4724 0.2932 (  2759 PWs)   bands (ev):

   -37.7424 -37.2439   3.8453   6.2540   8.4247   8.8329  13.2459  14.2195
    22.8176

          k = 0.2727 0.4724-0.3909 (  2770 PWs)   bands (ev):

   -37.7422 -37.2438   4.1121   6.0869   8.4490   8.4591  13.1028  13.9607
    24.9403

          k = 0.2727 0.5774 0.0000 (  2744 PWs)   bands (ev):

   -37.6022 -37.3870   3.5236   6.2762   7.6436  13.0040  14.1342  15.9348
    16.0372

          k = 0.2727 0.5774 0.0977 (  2754 PWs)   bands (ev):

   -37.6020 -37.3868   3.6930   6.2511   7.6385  11.7247  13.9336  15.3546
    17.6525

          k = 0.2727 0.5774 0.1955 (  2757 PWs)   bands (ev):

   -37.6015 -37.3863   4.1973   6.1901   7.5822   9.8844  13.5387  14.4903
    20.3152

          k = 0.2727 0.5774 0.2932 (  2771 PWs)   bands (ev):

   -37.6010 -37.3859   5.0208   6.1287   7.1861   8.5716  13.2261  13.8644
    23.1036

          k = 0.2727 0.5774-0.3909 (  2772 PWs)   bands (ev):

   -37.6008 -37.3857   6.0957   6.1032   6.1257   8.2591  13.1133  13.6431
    24.7733

     the Fermi energy is    11.1980 ev

!    total energy              =     -36.99714567 Ry
     estimated scf accuracy    <          7.5E-09 Ry
     smearing contrib. (-TS)   =      -0.00000969 Ry
     internal energy E=F+TS    =     -36.99713598 Ry

     The total energy is F=E-TS. E is the sum of the following terms:
     one-electron contribution =      -8.05582639 Ry
     hartree contribution      =       6.08726129 Ry
     xc contribution           =     -10.36788194 Ry
     ewald contribution        =     -24.66068894 Ry

     convergence has been achieved in   6 iterations

     Forces acting on atoms (cartesian axes, Ry/au):

     atom    1 type  1   force =     0.00000000    0.00000000   -0.00000000
     atom    2 type  2   force =     0.00000000   -0.00000000   -0.00000000
     atom    3 type  2   force =    -0.00000000    0.00000000    0.00000000
     The non-local contrib.  to forces
     atom    1 type  1   force =     0.00000000    0.00000000   -0.00000000
     atom    2 type  2   force =    -0.00000000    0.00000000    0.00000000
     atom    3 type  2   force =     0.00000000   -0.00000000    0.00000000
     The ionic contribution  to forces
     atom    1 type  1   force =    -0.00000000   -0.00000000    0.00000000
     atom    2 type  2   force =     0.00000008   -0.00000005    0.00000000
     atom    3 type  2   force =    -0.00000008    0.00000005    0.00000000
     The local contribution  to forces
     atom    1 type  1   force =     0.00000000   -0.00000000    0.00000000
     atom    2 type  2   force =     0.00000049   -0.00000028    0.00000000
     atom    3 type  2   force =    -0.00000049    0.00000028    0.00000000
     The core correction contribution to forces
     atom    1 type  1   force =     0.00000000   -0.00000000    0.00000000
     atom    2 type  2   force =     0.00000000    0.00000000    0.00000000
     atom    3 type  2   force =     0.00000000    0.00000000    0.00000000
     The Hubbard contrib.    to forces
     atom    1 type  1   force =     0.00000000    0.00000000    0.00000000
     atom    2 type  2   force =     0.00000000    0.00000000    0.00000000
     atom    3 type  2   force =     0.00000000    0.00000000    0.00000000
     The SCF correction term to forces
     atom    1 type  1   force =    -0.00000000    0.00000000    0.00000000
     atom    2 type  2   force =    -0.00000000    0.00000000    0.00000000
     atom    3 type  2   force =     0.00000000   -0.00000000    0.00000000

     Total force =     0.000000     Total SCF correction =     0.000000


     Computing stress (Cartesian axis) and pressure

          total   stress  (Ry/bohr**3)                   (kbar)     P=      623.24
   0.00450177   0.00000000   0.00000000          662.23        0.00        0.00
   0.00000000   0.00450177   0.00000000            0.00      662.23        0.00
   0.00000000   0.00000000   0.00370652            0.00        0.00      545.25


     BFGS Geometry Optimization
     Energy error            =      0.0E+00 Ry
     Gradient error          =      1.3E-23 Ry/Bohr
     Cell gradient error     =      1.6E+02 kbar

     number of scf cycles    =   1
     number of bfgs steps    =   0

     enthalpy           new  =     -36.4408538520 Ry

     new trust radius        =       0.0705443636 bohr
ibrav =      4
 celldm(1) =      5.43256657
 celldm(3) =      1.25419482
Input lattice vectors:
     1.02757098     0.00000000     0.00000000
    -0.51378549     0.88990257     0.00000000
     0.00000000     0.00000000     1.28877419
New lattice vectors in INITIAL alat:
     1.02757098     0.00000000     0.00000000
    -0.51378549     0.88990257     0.00000000
     0.00000000     0.00000000     1.28877419
New lattice vectors in NEW alat (for information only):
     1.00000000     0.00000000     0.00000000
    -0.50000000     0.86602540     0.00000000
     0.00000000     0.00000000     1.25419482
Discrepancy in bohr =     0.000000    0.000000    0.000000
     new conv_thr            =       0.0000000100 Ry

     new unit-cell volume =    174.14492 a.u.^3 (    25.80561 Ang^3 )
     density =      2.70052 g/cm^3

CELL_PARAMETERS (alat=  5.28680421)
   1.027570977   0.000000000   0.000000000
  -0.513785489   0.889902570   0.000000000
   0.000000000   0.000000000   1.288774192

ATOMIC_POSITIONS (crystal)
Si            0.0000000000        0.0000000000       -0.0000000000
Li            0.3333333300        0.6666666700        0.5000000000
Li            0.6666666700        0.3333333300        0.5000000000



     Writing config-only to output data dir ./output/SiLi.save/
     NEW-OLD atomic charge density approx. for the potential
     extrapolated charge   10.60111, renormalised to   10.00000

     total cpu time spent up to now is        7.3 secs

     Self-consistent Calculation

     iteration #  1     ecut=   100.00 Ry     beta= 0.70
     Davidson diagonalization with overlap
     c_bands:  1 eigenvalues not converged
     ethr =  1.00E-06,  avg # of iterations =  7.3

     total cpu time spent up to now is        8.4 secs

     total energy              =     -37.02831966 Ry
     estimated scf accuracy    <       0.00469063 Ry

     iteration #  2     ecut=   100.00 Ry     beta= 0.70
     Davidson diagonalization with overlap
     ethr =  4.69E-05,  avg # of iterations =  3.2

     total cpu time spent up to now is        9.1 secs

     total energy              =     -37.03898228 Ry
     estimated scf accuracy    <       0.00817097 Ry

     iteration #  3     ecut=   100.00 Ry     beta= 0.70
     Davidson diagonalization with overlap
     ethr =  4.69E-05,  avg # of iterations =  1.6

     total cpu time spent up to now is        9.6 secs

     total energy              =     -37.03896128 Ry
     estimated scf accuracy    <       0.00167649 Ry

     iteration #  4     ecut=   100.00 Ry     beta= 0.70
     Davidson diagonalization with overlap
     ethr =  1.68E-05,  avg # of iterations =  1.1

     total cpu time spent up to now is       10.0 secs

     total energy              =     -37.03875761 Ry
     estimated scf accuracy    <       0.00063040 Ry

     iteration #  5     ecut=   100.00 Ry     beta= 0.70
     Davidson diagonalization with overlap
     ethr =  6.30E-06,  avg # of iterations =  1.7

     total cpu time spent up to now is       10.5 secs

     total energy              =     -37.03872519 Ry
     estimated scf accuracy    <       0.00012287 Ry

     iteration #  6     ecut=   100.00 Ry     beta= 0.70
     Davidson diagonalization with overlap
     ethr =  1.23E-06,  avg # of iterations =  2.4

     total cpu time spent up to now is       11.1 secs

     total energy              =     -37.03875020 Ry
     estimated scf accuracy    <       0.00000019 Ry

     iteration #  7     ecut=   100.00 Ry     beta= 0.70
     Davidson diagonalization with overlap
     ethr =  1.95E-09,  avg # of iterations =  3.5

     total cpu time spent up to now is       11.7 secs

     total energy              =     -37.03875056 Ry
     estimated scf accuracy    <       0.00000013 Ry

     iteration #  8     ecut=   100.00 Ry     beta= 0.70
     Davidson diagonalization with overlap
     ethr =  1.27E-09,  avg # of iterations =  1.0

     total cpu time spent up to now is       12.2 secs

     total energy              =     -37.03875045 Ry
     estimated scf accuracy    <       0.00000019 Ry

     iteration #  9     ecut=   100.00 Ry     beta= 0.70
     Davidson diagonalization with overlap
     ethr =  1.27E-09,  avg # of iterations =  2.0

     total cpu time spent up to now is       12.7 secs

     End of self-consistent calculation

          k = 0.0000 0.0000 0.0000 (  2751 PWs)   bands (ev):

   -38.9263 -37.1480  -1.6475   5.9617  12.6914  16.6772  16.6772  17.1432
    17.1432

          k = 0.0000 0.0000 0.0970 (  2781 PWs)   bands (ev):

   -38.9259 -37.1479  -1.6424   5.6626  13.4155  16.8192  16.8192  17.3063
    17.3063

          k = 0.0000 0.0000 0.1940 (  2794 PWs)   bands (ev):

   -38.9249 -37.1478  -1.6300   5.0766  15.2535  17.2324  17.2324  17.7851
    17.7851

          k = 0.0000 0.0000 0.2910 (  2776 PWs)   bands (ev):

   -38.9239 -37.1476  -1.6175   4.6073  17.6644  17.8429  17.8429  18.5178
    18.5178

          k = 0.0000 0.0000-0.3880 (  2794 PWs)   bands (ev):

   -38.9235 -37.1476  -1.6122   4.4356  18.2566  18.2566  19.0691  19.0691
    19.3670

          k = 0.0000 0.1022 0.0000 (  2775 PWs)   bands (ev):

   -38.8944 -37.1804  -1.4839   6.1494  12.2965  15.0478  15.1160  18.4430
    18.9682

          k = 0.0000 0.1022 0.0970 (  2775 PWs)   bands (ev):

   -38.8940 -37.1803  -1.4746   5.8213  12.9760  15.2580  15.2754  18.5357
    19.0765

          k = 0.0000 0.1022 0.1940 (  2793 PWs)   bands (ev):

   -38.8931 -37.1802  -1.4518   5.1901  14.4631  15.7509  16.0575  18.7041
    19.2577

          k = 0.0000 0.1022 0.2910 (  2783 PWs)   bands (ev):

   -38.8921 -37.1800  -1.4282   4.6903  15.7069  16.5291  17.8896  18.2612
    18.7535

          k = 0.0000 0.1022-0.3880 (  2772 PWs)   bands (ev):

   -38.8917 -37.1800  -1.4182   4.5079  16.4317  17.4448  17.5022  17.7367
    19.5170

          k = 0.0000 0.2043 0.0000 (  2773 PWs)   bands (ev):

   -38.8024 -37.2739  -0.9981   6.7118  10.7343  13.6747  14.1507  18.8453
    20.8883

          k = 0.0000 0.2043 0.0970 (  2773 PWs)   bands (ev):

   -38.8021 -37.2738  -0.9762   6.2799  11.2441  13.8372  14.5656  18.6501
    19.7654

          k = 0.0000 0.2043 0.1940 (  2774 PWs)   bands (ev):

   -38.8012 -37.2736  -0.9212   5.5091  12.1564  14.3235  15.7859  17.6325
    19.2823

          k = 0.0000 0.2043 0.2910 (  2776 PWs)   bands (ev):

   -38.8003 -37.2734  -0.8626   4.9223  12.9697  15.1296  15.9990  17.6463
    18.0021

          k = 0.0000 0.2043-0.3880 (  2770 PWs)   bands (ev):

   -38.7999 -37.2734  -0.8372   4.7101  13.4062  15.4506  16.2377  16.2544
    18.6421

          k = 0.0000 0.3065 0.0000 (  2773 PWs)   bands (ev):

   -38.6616 -37.4166  -0.2081   7.6466   8.5888  12.5820  13.8622  17.9090
    18.5932

          k = 0.0000 0.3065 0.0970 (  2776 PWs)   bands (ev):

   -38.6613 -37.4165  -0.1646   6.9011   9.1783  12.7454  14.2758  17.0763
    18.7495

          k = 0.0000 0.3065 0.1940 (  2767 PWs)   bands (ev):

   -38.6605 -37.4163  -0.0525   5.9340   9.8104  13.2347  14.6390  16.7774
    18.3538

          k = 0.0000 0.3065 0.2910 (  2763 PWs)   bands (ev):

   -38.6598 -37.4160   0.0715   5.2457  10.2429  14.0471  14.0500  16.6318
    17.4924

          k = 0.0000 0.3065-0.3880 (  2754 PWs)   bands (ev):

   -38.6595 -37.4160   0.1272   4.9962  10.4175  13.7307  15.0843  15.2854
    17.6391

          k = 0.0000 0.4086 0.0000 (  2762 PWs)   bands (ev):

   -38.4951 -37.5848   0.8370   6.5318   8.9453  11.8500  13.6408  15.1947
    18.2348

          k = 0.0000 0.4086 0.0970 (  2765 PWs)   bands (ev):

   -38.4948 -37.5847   0.9135   6.3880   8.6375  12.0136  13.5626  15.5585
    18.3311

          k = 0.0000 0.4086 0.1940 (  2758 PWs)   bands (ev):

   -38.4942 -37.5844   1.1166   5.9823   8.1239  12.5037  13.0915  16.5403
    17.6849

          k = 0.0000 0.4086 0.2910 (  2755 PWs)   bands (ev):

   -38.4936 -37.5841   1.3553   5.5049   7.7918  12.6573  13.3166  15.9332
    16.9101

          k = 0.0000 0.4086-0.3880 (  2764 PWs)   bands (ev):

   -38.4933 -37.5840   1.4689   5.2879   7.6847  12.4992  14.3092  14.6243
    16.9318

          k = 0.0000 0.5108 0.0000 (  2746 PWs)   bands (ev):

   -38.3568 -37.7240   1.9209   4.9262  10.5467  11.4831  12.8742  13.4809
    18.0112

          k = 0.0000 0.5108 0.0970 (  2751 PWs)   bands (ev):

   -38.3566 -37.7239   2.0509   4.8963   9.5503  11.6467  12.3943  14.9666
    18.0969

          k = 0.0000 0.5108 0.1940 (  2747 PWs)   bands (ev):

   -38.3561 -37.7235   2.4176   4.8461   7.9039  12.1022  12.1369  16.3668
    17.3410

          k = 0.0000 0.5108 0.2910 (  2762 PWs)   bands (ev):

   -38.3556 -37.7232   2.9068   4.9074   6.4355  11.9149  12.9494  15.5806
    16.5858

          k = 0.0000 0.5108-0.3880 (  2762 PWs)   bands (ev):

   -38.3553 -37.7230   3.1738   5.2762   5.4791  11.8492  13.9203  14.2909
    16.5705

          k = 0.0885 0.1532 0.0000 (  2777 PWs)   bands (ev):

   -38.8325 -37.2434  -1.1592   6.5245  11.3573  13.4556  14.7273  19.4934
    19.7520

          k = 0.0885 0.1532 0.0970 (  2776 PWs)   bands (ev):

   -38.8321 -37.2433  -1.1415   6.1309  11.9428  13.6036  15.0739  19.1608
    19.8434

          k = 0.0885 0.1532 0.1940 (  2774 PWs)   bands (ev):

   -38.8312 -37.2432  -1.0974   5.4069  13.0834  14.0429  16.2322  18.1603
    19.0328

          k = 0.0885 0.1532 0.2910 (  2786 PWs)   bands (ev):

   -38.8302 -37.2430  -1.0508   4.8478  14.1453  14.7427  16.7894  17.4430
    18.3763

          k = 0.0885 0.1532-0.3880 (  2774 PWs)   bands (ev):

   -38.8299 -37.2429  -1.0307   4.6450  14.8233  15.3544  16.0342  16.5334
    20.0342

          k = 0.0885 0.2554 0.0000 (  2774 PWs)   bands (ev):

   -38.7154 -37.3621  -0.5208   7.2732   9.6051  11.9908  14.5943  19.2396
    19.4046

          k = 0.0885 0.2554 0.0970 (  2780 PWs)   bands (ev):

   -38.7151 -37.3620  -0.4860   6.6951  10.1558  12.1573  15.0179  17.9984
    19.0786

          k = 0.0885 0.2554 0.1940 (  2772 PWs)   bands (ev):

   -38.7143 -37.3618  -0.3973   5.7879  10.9925  12.6358  15.6905  17.2019
    17.6117

          k = 0.0885 0.2554 0.2910 (  2762 PWs)   bands (ev):

   -38.7135 -37.3616  -0.3008   5.1267  11.6762  13.3468  14.9100  16.1074
    18.9259

          k = 0.0885 0.2554-0.3880 (  2768 PWs)   bands (ev):

   -38.7131 -37.3615  -0.2580   4.8883  12.0062  13.9357  14.3653  15.3342
    19.9609

          k = 0.0885 0.3575 0.0000 (  2767 PWs)   bands (ev):

   -38.5588 -37.5205   0.4013   7.5743   8.3910  11.0376  14.4795  16.6253
    18.6715

          k = 0.0885 0.3575 0.0970 (  2770 PWs)   bands (ev):

   -38.5586 -37.5204   0.4629   7.0045   8.6610  11.2473  14.5704  16.4459
    18.0816

          k = 0.0885 0.3575 0.1940 (  2759 PWs)   bands (ev):

   -38.5579 -37.5201   0.6244   6.1241   8.9243  11.7625  14.0209  16.5096
    17.6254

          k = 0.0885 0.3575 0.2910 (  2756 PWs)   bands (ev):

   -38.5572 -37.5198   0.8094   5.4368   9.0874  12.4573  13.3423  15.1823
    19.0545

          k = 0.0885 0.3575-0.3880 (  2764 PWs)   bands (ev):

   -38.5569 -37.5197   0.8953   5.1754   9.1484  13.0004  13.0510  14.4293
    19.2645

          k = 0.0885 0.4597 0.0000 (  2762 PWs)   bands (ev):

   -38.3953 -37.6853   1.5102   5.7300   9.8577  10.4845  14.1052  14.3246
    18.2503

          k = 0.0885 0.4597 0.0970 (  2758 PWs)   bands (ev):

   -38.3951 -37.6852   1.6133   5.6883   9.1244  10.8113  13.2536  15.7712
    17.5352

          k = 0.0885 0.4597 0.1940 (  2755 PWs)   bands (ev):

   -38.3945 -37.6848   1.8943   5.5847   7.9435  11.3089  12.6498  15.9520
    17.9174

          k = 0.0885 0.4597 0.2910 (  2756 PWs)   bands (ev):

   -38.3939 -37.6845   2.2435   5.4711   6.9644  11.9443  12.3094  14.6240
    18.7764

          k = 0.0885 0.4597-0.3880 (  2772 PWs)   bands (ev):

   -38.3937 -37.6844   2.4207   5.4153   6.5752  12.1196  12.5203  13.8722
    18.7853

          k = 0.0885 0.5619 0.0000 (  2742 PWs)   bands (ev):

   -38.3099 -37.7711   2.2460   4.7419  10.3011  11.2466  12.3594  14.2486
    18.1005

          k = 0.0885 0.5619 0.0970 (  2742 PWs)   bands (ev):

   -38.3097 -37.7710   2.3990   4.7049   9.6092  10.9195  12.2598  15.6125
    17.3534

          k = 0.0885 0.5619 0.1940 (  2748 PWs)   bands (ev):

   -38.3092 -37.7706   2.8511   4.6163   7.9380  11.2286  12.0517  15.7644
    18.0087

          k = 0.0885 0.5619 0.2910 (  2767 PWs)   bands (ev):

   -38.3087 -37.7703   3.5612   4.5290   6.3882  11.8429  11.8782  14.4369
    18.6498

          k = 0.0885 0.5619-0.3880 (  2772 PWs)   bands (ev):

   -38.3085 -37.7701   4.1507   4.4932   5.5107  11.8141  12.3431  13.6843
    18.6202

          k = 0.1769 0.3065 0.0000 (  2759 PWs)   bands (ev):

   -38.5807 -37.4983   0.2519   8.2055   8.3090  10.1993  14.9227  17.8704
    19.3523

          k = 0.1769 0.3065 0.0970 (  2765 PWs)   bands (ev):

   -38.5804 -37.4982   0.3088   7.1486   9.2304  10.2998  15.1651  17.1031
    17.7055

          k = 0.1769 0.3065 0.1940 (  2760 PWs)   bands (ev):

   -38.5797 -37.4980   0.4572   6.1281   9.9706  10.5813  14.6436  16.0516
    17.8143

          k = 0.1769 0.3065 0.2910 (  2764 PWs)   bands (ev):

   -38.5790 -37.4977   0.6259   5.3996  10.5206  10.9525  13.7029  14.8503
    19.9510

          k = 0.1769 0.3065-0.3880 (  2752 PWs)   bands (ev):

   -38.5787 -37.4976   0.7036   5.1308  10.7708  11.1556  13.2814  14.3702
    21.7538

          k = 0.1769 0.4086 0.0000 (  2755 PWs)   bands (ev):

   -38.4166 -37.6638   1.2629   6.7534   9.0875   9.4980  14.9587  15.6530
    18.1089

          k = 0.1769 0.4086 0.0970 (  2764 PWs)   bands (ev):

   -38.4164 -37.6636   1.3531   6.5992   8.8710   9.5708  14.2811  16.4356
    16.8100

          k = 0.1769 0.4086 0.1940 (  2763 PWs)   bands (ev):

   -38.4158 -37.6633   1.5967   6.1526   8.5096   9.7955  13.3544  15.1429
    18.4839

          k = 0.1769 0.4086 0.2910 (  2765 PWs)   bands (ev):

   -38.4152 -37.6630   1.8937   5.6146   8.2933  10.0952  12.6925  14.0656
    20.9008

          k = 0.1769 0.4086-0.3880 (  2762 PWs)   bands (ev):

   -38.4150 -37.6629   2.0414   5.3634   8.2282  10.2563  12.4522  13.6525
    21.8929

          k = 0.1769 0.5108 0.0000 (  2760 PWs)   bands (ev):

   -38.2686 -37.8125   2.2784   5.3615   8.6135  11.0780  13.4302  14.8789
    17.6404

          k = 0.1769 0.5108 0.0970 (  2759 PWs)   bands (ev):

   -38.2684 -37.8124   2.4193   5.3391   8.5322  10.3858  12.9420  15.9845
    16.6034

          k = 0.1769 0.5108 0.1940 (  2761 PWs)   bands (ev):

   -38.2679 -37.8120   2.8232   5.2942   7.8566   9.7249  12.4531  14.7231
    18.8928

          k = 0.1769 0.5108 0.2910 (  2761 PWs)   bands (ev):

   -38.2674 -37.8116   3.3930   5.3065   6.6436   9.7812  12.1284  13.6763
    21.3824

          k = 0.1769 0.5108-0.3880 (  2764 PWs)   bands (ev):

   -38.2672 -37.8115   3.7411   5.5063   5.8348   9.8865  12.0141  13.2740
    21.6782

          k = 0.2654 0.4597 0.0000 (  2762 PWs)   bands (ev):

   -38.2514 -37.8297   2.2406   6.1002   7.5426  10.9321  14.7635  15.0011
    15.8965

          k = 0.2654 0.4597 0.0970 (  2750 PWs)   bands (ev):

   -38.2512 -37.8296   2.3724   6.0613   7.5815  10.2408  13.7053  15.1704
    16.7198

          k = 0.2654 0.4597 0.1940 (  2765 PWs)   bands (ev):

   -38.2507 -37.8292   2.7450   5.9346   7.6822   8.9561  12.8932  14.0692
    19.1288

          k = 0.2654 0.4597 0.2910 (  2759 PWs)   bands (ev):

   -38.2502 -37.8289   3.2552   5.6939   7.7946   7.9172  12.3826  13.2839
    21.8240

          k = 0.2654 0.4597-0.3880 (  2770 PWs)   bands (ev):

   -38.2500 -37.8288   3.5567   5.4982   7.5371   7.8453  12.2096  13.0024
    23.6256

          k = 0.2654 0.5619 0.0000 (  2744 PWs)   bands (ev):

   -38.1317 -37.9497   2.8046   5.6894   6.9742  12.1859  13.5413  14.9598
    15.3071

          k = 0.2654 0.5619 0.0970 (  2754 PWs)   bands (ev):

   -38.1315 -37.9496   2.9726   5.6787   6.9848  10.8716  13.2703  14.5849
    16.6720

          k = 0.2654 0.5619 0.1940 (  2757 PWs)   bands (ev):

   -38.1311 -37.9492   3.4733   5.6522   6.9719   9.0193  12.7509  13.6384
    19.3047

          k = 0.2654 0.5619 0.2910 (  2771 PWs)   bands (ev):

   -38.1306 -37.9488   4.2930   5.6248   6.5756   7.7497  12.3457  12.9491
    22.0050

          k = 0.2654 0.5619-0.3880 (  2772 PWs)   bands (ev):

   -38.1304 -37.9486   5.2704   5.5457   5.6132   7.5223  12.1998  12.7034
    23.4958

     the Fermi energy is    10.3527 ev

!    total energy              =     -37.03875048 Ry
     estimated scf accuracy    <          3.1E-09 Ry
     smearing contrib. (-TS)   =      -0.00005477 Ry
     internal energy E=F+TS    =     -37.03869571 Ry

     The total energy is F=E-TS. E is the sum of the following terms:
     one-electron contribution =      -8.68859971 Ry
     hartree contribution      =       6.14343016 Ry
     xc contribution           =     -10.29599518 Ry
     ewald contribution        =     -24.19753099 Ry

     convergence has been achieved in   9 iterations

     Forces acting on atoms (cartesian axes, Ry/au):

     atom    1 type  1   force =    -0.00000000   -0.00000000    0.00000000
     atom    2 type  2   force =     0.00000000    0.00000000    0.00000000
     atom    3 type  2   force =     0.00000000    0.00000000   -0.00000000
     The non-local contrib.  to forces
     atom    1 type  1   force =     0.00000000    0.00000000    0.00000000
     atom    2 type  2   force =     0.00000000   -0.00000000    0.00000000
     atom    3 type  2   force =    -0.00000000    0.00000000    0.00000000
     The ionic contribution  to forces
     atom    1 type  1   force =    -0.00000000   -0.00000000    0.00000000
     atom    2 type  2   force =     0.00000008   -0.00000004    0.00000000
     atom    3 type  2   force =    -0.00000008    0.00000004    0.00000000
     The local contribution  to forces
     atom    1 type  1   force =     0.00000000   -0.00000000   -0.00000000
     atom    2 type  2   force =     0.00000051   -0.00000029    0.00000000
     atom    3 type  2   force =    -0.00000051    0.00000029    0.00000000
     The core correction contribution to forces
     atom    1 type  1   force =     0.00000000    0.00000000   -0.00000000
     atom    2 type  2   force =     0.00000000    0.00000000    0.00000000
     atom    3 type  2   force =     0.00000000    0.00000000    0.00000000
     The Hubbard contrib.    to forces
     atom    1 type  1   force =     0.00000000    0.00000000    0.00000000
     atom    2 type  2   force =     0.00000000    0.00000000    0.00000000
     atom    3 type  2   force =     0.00000000    0.00000000    0.00000000
     The SCF correction term to forces
     atom    1 type  1   force =    -0.00000000    0.00000000   -0.00000000
     atom    2 type  2   force =     0.00000000   -0.00000000   -0.00000000
     atom    3 type  2   force =    -0.00000000    0.00000000   -0.00000000

     Total force =     0.000000     Total SCF correction =     0.000000


     Computing stress (Cartesian axis) and pressure

          total   stress  (Ry/bohr**3)                   (kbar)     P=      501.57
   0.00365941   0.00000000   0.00000000          538.32        0.00        0.00
   0.00000000   0.00365941   0.00000000            0.00      538.32        0.00
   0.00000000   0.00000000   0.00291008            0.00        0.00      428.09

     Energy error            =      6.0E-03 Ry
     Gradient error          =      1.3E-23 Ry/Bohr
     Cell gradient error     =      7.2E+01 kbar

     number of scf cycles    =   2
     number of bfgs steps    =   1

     enthalpy           old  =     -36.4408538520 Ry
     enthalpy           new  =     -36.4468439368 Ry

     CASE: enthalpy          _new < enthalpy          _old

     new trust radius        =       0.0369294114 bohr
ibrav =      4
 celldm(1) =      5.50401464
 celldm(3) =      1.22059283
Input lattice vectors:
     1.04108539    -0.00000000     0.00000000
    -0.52054270     0.90160640     0.00000000
     0.00000000     0.00000000     1.27074136
New lattice vectors in INITIAL alat:
     1.04108539     0.00000000     0.00000000
    -0.52054270     0.90160640     0.00000000
     0.00000000     0.00000000     1.27074136
New lattice vectors in NEW alat (for information only):
     1.00000000     0.00000000     0.00000000
    -0.50000000     0.86602540     0.00000000
     0.00000000     0.00000000     1.22059283
Discrepancy in bohr =     0.000000    0.000000    0.000000
     new conv_thr            =            1.0E-10 Ry

     new unit-cell volume =    176.25449 a.u.^3 (    26.11822 Ang^3 )
     density =      2.66820 g/cm^3

CELL_PARAMETERS (alat=  5.28680421)
   1.041085393   0.000000000   0.000000000
  -0.520542696   0.901606398   0.000000000
   0.000000000   0.000000000   1.270741365

ATOMIC_POSITIONS (crystal)
Si           -0.0000000000       -0.0000000000       -0.0000000000
Li            0.3333333300        0.6666666700        0.5000000000
Li            0.6666666700        0.3333333300        0.5000000000



     Writing config-only to output data dir ./output/SiLi.save/
     NEW-OLD atomic charge density approx. for the potential
     extrapolated charge   10.11957, renormalised to   10.00000

     total cpu time spent up to now is       13.8 secs

     Self-consistent Calculation

     iteration #  1     ecut=   100.00 Ry     beta= 0.70
     Davidson diagonalization with overlap
     ethr =  1.00E-06,  avg # of iterations =  6.2

     total cpu time spent up to now is       14.7 secs

     total energy              =     -37.04727271 Ry
     estimated scf accuracy    <       0.00033279 Ry

     iteration #  2     ecut=   100.00 Ry     beta= 0.70
     Davidson diagonalization with overlap
     ethr =  3.33E-06,  avg # of iterations =  2.9

     total cpu time spent up to now is       15.3 secs

     total energy              =     -37.04776807 Ry
     estimated scf accuracy    <       0.00034346 Ry

     iteration #  3     ecut=   100.00 Ry     beta= 0.70
     Davidson diagonalization with overlap
     ethr =  3.33E-06,  avg # of iterations =  1.2

     total cpu time spent up to now is       15.8 secs

     total energy              =     -37.04776919 Ry
     estimated scf accuracy    <       0.00005439 Ry

     iteration #  4     ecut=   100.00 Ry     beta= 0.70
     Davidson diagonalization with overlap
     ethr =  5.44E-07,  avg # of iterations =  1.4

     total cpu time spent up to now is       16.2 secs

     total energy              =     -37.04776766 Ry
     estimated scf accuracy    <       0.00001101 Ry

     iteration #  5     ecut=   100.00 Ry     beta= 0.70
     Davidson diagonalization with overlap
     ethr =  1.10E-07,  avg # of iterations =  1.5

     total cpu time spent up to now is       16.6 secs

     total energy              =     -37.04776800 Ry
     estimated scf accuracy    <       0.00000114 Ry

     iteration #  6     ecut=   100.00 Ry     beta= 0.70
     Davidson diagonalization with overlap
     ethr =  1.14E-08,  avg # of iterations =  2.0

     total cpu time spent up to now is       17.1 secs

     total energy              =     -37.04776829 Ry
     estimated scf accuracy    <          2.0E-09 Ry

     iteration #  7     ecut=   100.00 Ry     beta= 0.70
     Davidson diagonalization with overlap
     ethr =  1.95E-11,  avg # of iterations =  4.1

     total cpu time spent up to now is       17.7 secs

     total energy              =     -37.04776829 Ry
     estimated scf accuracy    <          9.6E-10 Ry

     iteration #  8     ecut=   100.00 Ry     beta= 0.70
     Davidson diagonalization with overlap
     ethr =  9.59E-12,  avg # of iterations =  1.2

     total cpu time spent up to now is       18.2 secs

     total energy              =     -37.04776829 Ry
     estimated scf accuracy    <          1.6E-10 Ry

     iteration #  9     ecut=   100.00 Ry     beta= 0.70
     Davidson diagonalization with overlap
     ethr =  1.63E-12,  avg # of iterations =  2.0

     total cpu time spent up to now is       18.6 secs

     End of self-consistent calculation

          k = 0.0000 0.0000 0.0000 (  2751 PWs)   bands (ev):

   -38.8648 -37.2221  -1.6823   6.1670  12.7128  16.0390  16.0390  16.6571
    16.6571

          k = 0.0000 0.0000 0.0984 (  2781 PWs)   bands (ev):

   -38.8643 -37.2221  -1.6678   5.8043  13.5099  16.1861  16.1861  16.8263
    16.8263

          k = 0.0000 0.0000 0.1967 (  2794 PWs)   bands (ev):

   -38.8631 -37.2219  -1.6315   5.1087  15.4921  16.6144  16.6144  17.3238
    17.3238

          k = 0.0000 0.0000 0.2951 (  2776 PWs)   bands (ev):

   -38.8620 -37.2217  -1.5933   4.5574  17.2491  17.2491  18.0677  18.0894
    18.0894

          k = 0.0000 0.0000-0.3935 (  2794 PWs)   bands (ev):

   -38.8615 -37.2216  -1.5769   4.3558  17.6825  17.6825  18.6759  18.6759
    19.9272

          k = 0.0000 0.1008 0.0000 (  2775 PWs)   bands (ev):

   -38.8353 -37.2520  -1.5253   6.3493  12.2202  14.5830  14.6318  17.8988
    18.3824

          k = 0.0000 0.1008 0.0984 (  2775 PWs)   bands (ev):

   -38.8348 -37.2519  -1.5066   5.9557  12.9159  14.7471  14.9022  18.0052
    18.5025

          k = 0.0000 0.1008 0.1967 (  2793 PWs)   bands (ev):

   -38.8337 -37.2517  -1.4596   5.2149  14.2386  15.2361  16.0083  18.2260
    18.7365

          k = 0.0000 0.1008 0.2951 (  2783 PWs)   bands (ev):

   -38.8326 -37.2516  -1.4097   4.6342  15.2837  16.0348  17.8519  18.1572
    18.3212

          k = 0.0000 0.1008-0.3935 (  2772 PWs)   bands (ev):

   -38.8321 -37.2515  -1.3881   4.4223  15.9683  16.9342  17.1210  17.3366
    19.5146

          k = 0.0000 0.2017 0.0000 (  2773 PWs)   bands (ev):

   -38.7502 -37.3382  -1.0595   6.8958  10.4806  13.1818  13.9946  18.3744
    20.6772

          k = 0.0000 0.2017 0.0984 (  2773 PWs)   bands (ev):

   -38.7498 -37.3381  -1.0281   6.3889  10.9844  13.3492  14.4964  18.2284
    19.5106

          k = 0.0000 0.2017 0.1967 (  2774 PWs)   bands (ev):

   -38.7487 -37.3379  -0.9480   5.5113  11.8355  13.8504  15.8758  17.3029
    18.9682

          k = 0.0000 0.2017 0.2951 (  2776 PWs)   bands (ev):

   -38.7477 -37.3376  -0.8610   4.8483  12.6114  14.6811  15.7451  17.2729
    17.8607

          k = 0.0000 0.2017-0.3935 (  2770 PWs)   bands (ev):

   -38.7473 -37.3376  -0.8226   4.6076  13.0443  15.1424  15.7971  15.8667
    18.2705

          k = 0.0000 0.3025 0.0000 (  2773 PWs)   bands (ev):

   -38.6199 -37.4698  -0.3037   7.8036   8.3256  12.1175  13.8102  17.7892
    18.1925

          k = 0.0000 0.3025 0.0984 (  2776 PWs)   bands (ev):

   -38.6196 -37.4697  -0.2504   6.9288   8.9736  12.2860  14.2909  16.8590
    18.4239

          k = 0.0000 0.3025 0.1967 (  2767 PWs)   bands (ev):

   -38.6187 -37.4694  -0.1119   5.8916   9.5536  12.7908  14.5868  16.5769
    18.0648

          k = 0.0000 0.3025 0.2951 (  2763 PWs)   bands (ev):

   -38.6178 -37.4691   0.0445   5.1435   9.9651  13.6296  13.8495  16.2889
    17.1562

          k = 0.0000 0.3025-0.3935 (  2754 PWs)   bands (ev):

   -38.6174 -37.4690   0.1160   4.8685  10.1405  13.4891  14.7398  14.8601
    17.2551

          k = 0.0000 0.4033 0.0000 (  2762 PWs)   bands (ev):

   -38.4660 -37.6249   0.6901   6.3209   9.0628  11.4042  13.6419  15.1575
    17.8787

          k = 0.0000 0.4033 0.0984 (  2765 PWs)   bands (ev):

   -38.4657 -37.6248   0.7764   6.2069   8.6556  11.5730  13.5856  15.4582
    18.0476

          k = 0.0000 0.4033 0.1967 (  2758 PWs)   bands (ev):

   -38.4649 -37.6244   1.0079   5.8488   7.9953  12.0789  13.0197  16.3047
    17.4191

          k = 0.0000 0.4033 0.2951 (  2755 PWs)   bands (ev):

   -38.4642 -37.6241   1.2858   5.3672   7.5990  12.4987  12.9194  15.6086
    16.5510

          k = 0.0000 0.4033-0.3935 (  2764 PWs)   bands (ev):

   -38.4639 -37.6239   1.4213   5.1323   7.4820  12.3086  13.9832  14.2183
    16.5549

          k = 0.0000 0.5042 0.0000 (  2746 PWs)   bands (ev):

   -38.3382 -37.7534   1.6974   4.7967  10.6035  11.0466  12.9194  13.5097
    17.6753

          k = 0.0000 0.5042 0.0984 (  2751 PWs)   bands (ev):

   -38.3379 -37.7532   1.8355   4.7717   9.5396  11.2155  12.4256  14.9579
    17.8416

          k = 0.0000 0.5042 0.1967 (  2747 PWs)   bands (ev):

   -38.3373 -37.7528   2.2283   4.7282   7.8226  11.7217  12.0464  16.1098
    17.0854

          k = 0.0000 0.5042 0.2951 (  2762 PWs)   bands (ev):

   -38.3367 -37.7524   2.7666   4.7796   6.3002  11.7820  12.5622  15.2648
    16.2269

          k = 0.0000 0.5042-0.3935 (  2762 PWs)   bands (ev):

   -38.3364 -37.7522   3.0747   5.1436   5.3037  11.6881  13.6037  13.8941
    16.1993

          k = 0.0873 0.1512 0.0000 (  2777 PWs)   bands (ev):

   -38.7780 -37.3101  -1.2139   6.7138  11.1489  12.9977  14.4764  19.0069
    19.1530

          k = 0.0873 0.1512 0.0984 (  2776 PWs)   bands (ev):

   -38.7775 -37.3100  -1.1867   6.2491  11.7266  13.1511  14.9133  18.7387
    19.2506

          k = 0.0873 0.1512 0.1967 (  2774 PWs)   bands (ev):

   -38.7765 -37.3098  -1.1178   5.4168  12.7715  13.6064  16.3108  17.8023
    18.7504

          k = 0.0873 0.1512 0.2951 (  2786 PWs)   bands (ev):

   -38.7754 -37.3096  -1.0435   4.7797  13.7492  14.3333  16.4767  17.1074
    18.6322

          k = 0.0873 0.1512-0.3935 (  2774 PWs)   bands (ev):

   -38.7750 -37.3095  -1.0109   4.5481  14.3911  14.9755  15.7046  16.1581
    20.5503

          k = 0.0873 0.2521 0.0000 (  2774 PWs)   bands (ev):

   -38.6697 -37.4195  -0.6025   7.4410   9.3357  11.5971  14.4669  18.8276
    19.2313

          k = 0.0873 0.2521 0.0984 (  2780 PWs)   bands (ev):

   -38.6693 -37.4194  -0.5581   6.7693   9.9049  11.7692  14.9749  17.7306
    18.8218

          k = 0.0873 0.2521 0.1967 (  2772 PWs)   bands (ev):

   -38.6684 -37.4192  -0.4435   5.7657  10.6946  12.2573  15.6194  17.0211
    17.4445

          k = 0.0873 0.2521 0.2951 (  2762 PWs)   bands (ev):

   -38.6674 -37.4189  -0.3162   5.0357  11.3506  12.9817  14.6619  15.7955
    18.9832

          k = 0.0873 0.2521-0.3935 (  2768 PWs)   bands (ev):

   -38.6670 -37.4188  -0.2589   4.7704  11.6800  13.5773  14.0988  14.9874
    19.5283

          k = 0.0873 0.3529 0.0000 (  2767 PWs)   bands (ev):

   -38.5249 -37.5656   0.2774   7.3310   8.5258  10.6787  14.4190  16.5419
    18.3247

          k = 0.0873 0.3529 0.0984 (  2770 PWs)   bands (ev):

   -38.5246 -37.5655   0.3488   6.8904   8.5926  10.8949  14.5548  16.3039
    17.8537

          k = 0.0873 0.3529 0.1967 (  2759 PWs)   bands (ev):

   -38.5237 -37.5651   0.5378   6.0381   8.7183  11.4118  13.9023  16.2432
    17.6373

          k = 0.0873 0.3529 0.2951 (  2756 PWs)   bands (ev):

   -38.5229 -37.5648   0.7587   5.3150   8.8463  12.1208  13.1365  14.8884
    18.7198

          k = 0.0873 0.3529-0.3935 (  2764 PWs)   bands (ev):

   -38.5226 -37.5647   0.8633   5.0309   8.9048  12.7115  12.7873  14.1057
    18.8106

          k = 0.0873 0.4537 0.0000 (  2762 PWs)   bands (ev):

   -38.3737 -37.7177   1.3230   5.5535   9.9448  10.1429  14.1031  14.3050
    17.9385

          k = 0.0873 0.4537 0.0984 (  2758 PWs)   bands (ev):

   -38.3734 -37.7175   1.4356   5.5204   9.1085  10.4930  13.2337  15.7487
    17.3406

          k = 0.0873 0.4537 0.1967 (  2755 PWs)   bands (ev):

   -38.3728 -37.7171   1.7457   5.4330   7.8488  10.9670  12.5568  15.6958
    17.8822

          k = 0.0873 0.4537 0.2951 (  2756 PWs)   bands (ev):

   -38.3721 -37.7167   2.1400   5.3189   6.8089  11.6298  12.1280  14.3426
    18.3665

          k = 0.0873 0.4537-0.3935 (  2772 PWs)   bands (ev):

   -38.3718 -37.7166   2.3463   5.2469   6.4030  11.9433  12.1934  13.5634
    18.3366

          k = 0.0873 0.5546 0.0000 (  2742 PWs)   bands (ev):

   -38.2948 -37.7969   1.9924   4.6344   9.9651  11.2549  12.4472  14.2433
    17.7997

          k = 0.0873 0.5546 0.0984 (  2742 PWs)   bands (ev):

   -38.2946 -37.7967   2.1509   4.6038   9.5000  10.6377  12.2984  15.6234
    17.1712

          k = 0.0873 0.5546 0.1967 (  2748 PWs)   bands (ev):

   -38.2940 -37.7963   2.6196   4.5302   7.8491  10.8707  11.9934  15.5122
    17.9382

          k = 0.0873 0.5546 0.2951 (  2767 PWs)   bands (ev):

   -38.2934 -37.7958   3.3582   4.4567   6.2505  11.4993  11.7431  14.1599
    18.2322

          k = 0.0873 0.5546-0.3935 (  2772 PWs)   bands (ev):

   -38.2931 -37.7956   3.9804   4.4264   5.3322  11.6514  12.0204  13.3807
    18.1742

          k = 0.1746 0.3025 0.0000 (  2759 PWs)   bands (ev):

   -38.5451 -37.5452   0.1355   8.0486   8.3459   9.8697  14.8702  17.7272
    19.1006

          k = 0.1746 0.3025 0.0984 (  2765 PWs)   bands (ev):

   -38.5448 -37.5450   0.2021   7.1084   9.0784   9.9773  15.1698  16.9183
    17.5404

          k = 0.1746 0.3025 0.1967 (  2760 PWs)   bands (ev):

   -38.5440 -37.5447   0.3777   6.0604   9.7115  10.2803  14.5132  15.8260
    17.8781

          k = 0.1746 0.3025 0.2951 (  2764 PWs)   bands (ev):

   -38.5431 -37.5444   0.5813   5.2836  10.2062  10.6859  13.4985  14.5654
    20.2150

          k = 0.1746 0.3025-0.3935 (  2752 PWs)   bands (ev):

   -38.5428 -37.5443   0.6769   4.9907  10.4413  10.9129  13.0562  14.0529
    21.3126

          k = 0.1746 0.4033 0.0000 (  2755 PWs)   bands (ev):

   -38.3934 -37.6978   1.0943   6.5323   8.8040   9.5982  14.9628  15.5927
    18.0257

          k = 0.1746 0.4033 0.0984 (  2764 PWs)   bands (ev):

   -38.3931 -37.6977   1.1942   6.4097   8.7026   9.4570  14.2481  16.3987
    16.6823

          k = 0.1746 0.4033 0.1967 (  2763 PWs)   bands (ev):

   -38.3924 -37.6973   1.4664   6.0136   8.3396   9.5361  13.2448  14.9354
    18.5975

          k = 0.1746 0.4033 0.2951 (  2765 PWs)   bands (ev):

   -38.3917 -37.6970   1.8053   5.4716   8.0794   9.8273  12.5208  13.8010
    20.9728

          k = 0.1746 0.4033-0.3935 (  2762 PWs)   bands (ev):

   -38.3914 -37.6968   1.9782   5.2006   8.0055   9.9987  12.2570  13.3604
    21.3725

          k = 0.1746 0.5042 0.0000 (  2760 PWs)   bands (ev):

   -38.2566 -37.8351   2.0350   5.2162   8.3478  11.1151  13.4596  14.9135
    17.5611

          k = 0.1746 0.5042 0.0984 (  2759 PWs)   bands (ev):

   -38.2564 -37.8349   2.1835   5.1997   8.3068  10.3098  12.9431  15.9548
    16.5635

          k = 0.1746 0.5042 0.1967 (  2761 PWs)   bands (ev):

   -38.2558 -37.8345   2.6119   5.1657   7.7340   9.4752  12.3708  14.5271
    19.0304

          k = 0.1746 0.5042 0.2951 (  2761 PWs)   bands (ev):

   -38.2552 -37.8341   3.2297   5.1722   6.5014   9.5160  11.9743  13.4249
    21.0506

          k = 0.1746 0.5042-0.3935 (  2764 PWs)   bands (ev):

   -38.2549 -37.8339   3.6261   5.3289   5.6860   9.6343  11.8337  12.9969
    21.1562

          k = 0.2620 0.4537 0.0000 (  2762 PWs)   bands (ev):

   -38.2407 -37.8511   2.0072   5.9109   7.3216  10.9803  14.7236  15.0516
    15.8903

          k = 0.2620 0.4537 0.0984 (  2750 PWs)   bands (ev):

   -38.2404 -37.8509   2.1475   5.8826   7.3683  10.2045  13.6806  15.0882
    16.7773

          k = 0.2620 0.4537 0.1967 (  2765 PWs)   bands (ev):

   -38.2398 -37.8505   2.5473   5.7795   7.4904   8.8085  12.7929  13.8978
    19.2818

          k = 0.2620 0.4537 0.2951 (  2759 PWs)   bands (ev):

   -38.2392 -37.8501   3.1063   5.5437   7.6288   7.6953  12.2138  13.0488
    22.0529

          k = 0.2620 0.4537-0.3935 (  2770 PWs)   bands (ev):

   -38.2390 -37.8499   3.4500   5.3221   7.2953   7.6921  12.0148  12.7426
    23.5894

          k = 0.2620 0.5546 0.0000 (  2744 PWs)   bands (ev):

   -38.1301 -37.9619   2.5170   5.5439   6.7736  12.1512  13.5978  15.0254
    15.3024

          k = 0.2620 0.5546 0.0984 (  2754 PWs)   bands (ev):

   -38.1298 -37.9617   2.6903   5.5404   6.7938  10.7946  13.2669  14.5310
    16.7586

          k = 0.2620 0.5546 0.1967 (  2757 PWs)   bands (ev):

   -38.1293 -37.9612   3.2071   5.5315   6.8097   8.8754  12.6469  13.4875
    19.4588

          k = 0.2620 0.5546 0.2951 (  2771 PWs)   bands (ev):

   -38.1288 -37.9608   4.0539   5.5220   6.4372   7.5519  12.1691  12.7322
    22.1648

          k = 0.2620 0.5546-0.3935 (  2772 PWs)   bands (ev):

   -38.1285 -37.9606   5.0595   5.3649   5.5179   7.3406  11.9977  12.4619
    23.5091

     the Fermi energy is    10.1160 ev

!    total energy              =     -37.04776829 Ry
     estimated scf accuracy    <          2.0E-14 Ry
     smearing contrib. (-TS)   =       0.00015117 Ry
     internal energy E=F+TS    =     -37.04791947 Ry

     The total energy is F=E-TS. E is the sum of the following terms:
     one-electron contribution =      -8.74177297 Ry
     hartree contribution      =       6.13333327 Ry
     xc contribution           =     -10.28381137 Ry
     ewald contribution        =     -24.15566840 Ry

     convergence has been achieved in   9 iterations

     Forces acting on atoms (cartesian axes, Ry/au):

     atom    1 type  1   force =     0.00000000    0.00000000   -0.00000000
     atom    2 type  2   force =    -0.00000000    0.00000000    0.00000000
     atom    3 type  2   force =     0.00000000   -0.00000000   -0.00000000
     The non-local contrib.  to forces
     atom    1 type  1   force =     0.00000000    0.00000000    0.00000000
     atom    2 type  2   force =     0.00000000    0.00000000    0.00000000
     atom    3 type  2   force =    -0.00000000   -0.00000000    0.00000000
     The ionic contribution  to forces
     atom    1 type  1   force =    -0.00000000   -0.00000000    0.00000000
     atom    2 type  2   force =     0.00000008   -0.00000004   -0.00000000
     atom    3 type  2   force =    -0.00000008    0.00000004   -0.00000000
     The local contribution  to forces
     atom    1 type  1   force =     0.00000000   -0.00000000    0.00000000
     atom    2 type  2   force =     0.00000052   -0.00000030    0.00000000
     atom    3 type  2   force =    -0.00000052    0.00000030    0.00000000
     The core correction contribution to forces
     atom    1 type  1   force =     0.00000000    0.00000000    0.00000000
     atom    2 type  2   force =     0.00000000    0.00000000    0.00000000
     atom    3 type  2   force =     0.00000000    0.00000000    0.00000000
     The Hubbard contrib.    to forces
     atom    1 type  1   force =     0.00000000    0.00000000    0.00000000
     atom    2 type  2   force =     0.00000000    0.00000000    0.00000000
     atom    3 type  2   force =     0.00000000    0.00000000    0.00000000
     The SCF correction term to forces
     atom    1 type  1   force =    -0.00000000    0.00000000   -0.00000000
     atom    2 type  2   force =     0.00000000   -0.00000000    0.00000000
     atom    3 type  2   force =    -0.00000000    0.00000000    0.00000000

     Total force =     0.000000     Total SCF correction =     0.000000


     Computing stress (Cartesian axis) and pressure

          total   stress  (Ry/bohr**3)                   (kbar)     P=      488.81
   0.00348324   0.00000000   0.00000000          512.40        0.00        0.00
   0.00000000   0.00348324   0.00000000            0.00      512.40        0.00
   0.00000000  -0.00000000   0.00300208            0.00       -0.00      441.62

     Energy error            =      1.8E-03 Ry
     Gradient error          =      7.3E-24 Ry/Bohr
     Cell gradient error     =      5.8E+01 kbar

     number of scf cycles    =   3
     number of bfgs steps    =   2

     enthalpy           old  =     -36.4468439368 Ry
     enthalpy           new  =     -36.4486914580 Ry

     CASE: enthalpy          _new < enthalpy          _old

     new trust radius        =       0.0414476036 bohr
ibrav =      4
 celldm(1) =      5.55509646
 celldm(3) =      1.19049079
Input lattice vectors:
     1.05074753     0.00000000     0.00000000
    -0.52537376     0.90997405    -0.00000000
     0.00000000    -0.00000000     1.25090525
New lattice vectors in INITIAL alat:
     1.05074753     0.00000000     0.00000000
    -0.52537376     0.90997405     0.00000000
     0.00000000     0.00000000     1.25090525
New lattice vectors in NEW alat (for information only):
     1.00000000     0.00000000     0.00000000
    -0.50000000     0.86602540     0.00000000
     0.00000000     0.00000000     1.19049079
Discrepancy in bohr =     0.000000    0.000000    0.000000
     new conv_thr            =            1.0E-10 Ry

     new unit-cell volume =    176.73863 a.u.^3 (    26.18996 Ang^3 )
     density =      2.66089 g/cm^3

CELL_PARAMETERS (alat=  5.28680421)
   1.050747529   0.000000000   0.000000000
  -0.525373764   0.909974053   0.000000000
   0.000000000   0.000000000   1.250905255

ATOMIC_POSITIONS (crystal)
Si           -0.0000000000       -0.0000000000       -0.0000000000
Li            0.3333333300        0.6666666700        0.5000000000
Li            0.6666666700        0.3333333300        0.5000000000



     Writing config-only to output data dir ./output/SiLi.save/
     NEW-OLD atomic charge density approx. for the potential
     extrapolated charge   10.02737, renormalised to   10.00000

     total cpu time spent up to now is       19.7 secs

     Self-consistent Calculation

     iteration #  1     ecut=   100.00 Ry     beta= 0.70
     Davidson diagonalization with overlap
     ethr =  1.00E-06,  avg # of iterations =  5.8

     total cpu time spent up to now is       20.5 secs

     total energy              =     -37.05047630 Ry
     estimated scf accuracy    <       0.00008869 Ry

     iteration #  2     ecut=   100.00 Ry     beta= 0.70
     Davidson diagonalization with overlap
     ethr =  8.87E-07,  avg # of iterations =  2.1

     total cpu time spent up to now is       21.0 secs

     total energy              =     -37.05052348 Ry
     estimated scf accuracy    <       0.00002692 Ry

     iteration #  3     ecut=   100.00 Ry     beta= 0.70
     Davidson diagonalization with overlap
     ethr =  2.69E-07,  avg # of iterations =  1.8

     total cpu time spent up to now is       21.5 secs

     total energy              =     -37.05052555 Ry
     estimated scf accuracy    <       0.00000150 Ry

     iteration #  4     ecut=   100.00 Ry     beta= 0.70
     Davidson diagonalization with overlap
     ethr =  1.50E-08,  avg # of iterations =  2.0

     total cpu time spent up to now is       21.9 secs

     total energy              =     -37.05052594 Ry
     estimated scf accuracy    <       0.00000014 Ry

     iteration #  5     ecut=   100.00 Ry     beta= 0.70
     Davidson diagonalization with overlap
     ethr =  1.43E-09,  avg # of iterations =  2.0

     total cpu time spent up to now is       22.4 secs

     total energy              =     -37.05052597 Ry
     estimated scf accuracy    <          6.4E-10 Ry

     iteration #  6     ecut=   100.00 Ry     beta= 0.70
     Davidson diagonalization with overlap
     ethr =  6.43E-12,  avg # of iterations =  3.2

     total cpu time spent up to now is       22.9 secs

     End of self-consistent calculation

          k = 0.0000 0.0000 0.0000 (  2751 PWs)   bands (ev):

   -38.7468 -37.1927  -1.6647   6.4408  12.8402  15.6141  15.6141  16.3356
    16.3356

          k = 0.0000 0.0000 0.0999 (  2781 PWs)   bands (ev):

   -38.7463 -37.1926  -1.6422   6.0161  13.7100  15.7672  15.7672  16.5116
    16.5116

          k = 0.0000 0.0000 0.1999 (  2794 PWs)   bands (ev):

   -38.7449 -37.1924  -1.5854   5.2181  15.8310  16.2139  16.2139  17.0301
    17.0301

          k = 0.0000 0.0000 0.2998 (  2776 PWs)   bands (ev):

   -38.7436 -37.1922  -1.5246   4.5917  16.8804  16.8804  17.8328  17.8328
    18.5577

          k = 0.0000 0.0000-0.3997 (  2794 PWs)   bands (ev):

   -38.7430 -37.1921  -1.4981   4.3627  17.3433  17.3433  18.4604  18.4604
    20.5464

          k = 0.0000 0.0999 0.0000 (  2775 PWs)   bands (ev):

   -38.7189 -37.2210  -1.5129   6.6194  12.2201  14.2261  14.4164  17.5583
    17.9992

          k = 0.0000 0.0999 0.0999 (  2775 PWs)   bands (ev):

   -38.7184 -37.2209  -1.4862   6.1611  12.9068  14.3957  14.7720  17.6804
    18.1313

          k = 0.0000 0.0999 0.1999 (  2793 PWs)   bands (ev):

   -38.7171 -37.2206  -1.4183   5.3179  14.0573  14.9010  16.1784  17.9657
    18.4163

          k = 0.0000 0.0999 0.2998 (  2783 PWs)   bands (ev):

   -38.7157 -37.2204  -1.3450   4.6628  15.0180  15.7254  17.6295  18.0851
    18.4387

          k = 0.0000 0.0999-0.3997 (  2772 PWs)   bands (ev):

   -38.7152 -37.2203  -1.3128   4.4237  15.7001  16.6349  16.9020  17.1033
    19.3147

          k = 0.0000 0.1998 0.0000 (  2773 PWs)   bands (ev):

   -38.6383 -37.3024  -1.0631   7.1545  10.3244  12.8525  13.9925  18.1209
    20.0498

          k = 0.0000 0.1998 0.0999 (  2773 PWs)   bands (ev):

   -38.6378 -37.3022  -1.0234   6.5712  10.8298  13.0256  14.5733  18.0156
    19.4376

          k = 0.0000 0.1998 0.1999 (  2774 PWs)   bands (ev):

   -38.6366 -37.3020  -0.9212   5.5934  11.6440  13.5436  16.0691  17.1410
    18.8794

          k = 0.0000 0.1998 0.2998 (  2776 PWs)   bands (ev):

   -38.6354 -37.3017  -0.8085   4.8601  12.4066  14.4021  15.6275  17.0815
    17.7450

          k = 0.0000 0.1998-0.3997 (  2770 PWs)   bands (ev):

   -38.6349 -37.3016  -0.7581   4.5930  12.8473  14.9794  15.5340  15.6513
    18.0462

          k = 0.0000 0.2997 0.0000 (  2773 PWs)   bands (ev):

   -38.5149 -37.4267  -0.3347   8.0429   8.1682  11.8077  13.8758  17.8314
    18.0158

          k = 0.0000 0.2997 0.0999 (  2776 PWs)   bands (ev):

   -38.5145 -37.4266  -0.2728   7.0199   8.8995  11.9819  14.4153  16.7973
    18.3263

          k = 0.0000 0.2997 0.1999 (  2767 PWs)   bands (ev):

   -38.5134 -37.4262  -0.1103   5.9298   9.4267  12.5039  14.6383  16.4885
    17.9547

          k = 0.0000 0.2997 0.2998 (  2763 PWs)   bands (ev):

   -38.5124 -37.4259   0.0761   5.1282   9.8239  13.3714  13.7787  16.1191
    16.9603

          k = 0.0000 0.2997-0.3997 (  2754 PWs)   bands (ev):

   -38.5119 -37.4257   0.1627   4.8294  10.0024  13.3823  14.5418  14.6193
    17.0360

          k = 0.0000 0.3996 0.0000 (  2762 PWs)   bands (ev):

   -38.3692 -37.5733   0.6175   6.2073   9.2741  11.1073  13.7405  15.2586
    17.7482

          k = 0.0000 0.3996 0.0999 (  2765 PWs)   bands (ev):

   -38.3688 -37.5732   0.7128   6.1146   8.7797  11.2819  13.7122  15.4729
    18.0040

          k = 0.0000 0.3996 0.1999 (  2758 PWs)   bands (ev):

   -38.3679 -37.5727   0.9707   5.7971   7.9870  11.8051  13.0618  16.1786
    17.3262

          k = 0.0000 0.3996 0.2998 (  2755 PWs)   bands (ev):

   -38.3670 -37.5723   1.2858   5.3164   7.5245  12.4656  12.6749  15.4517
    16.3497

          k = 0.0000 0.3996-0.3997 (  2764 PWs)   bands (ev):

   -38.3666 -37.5721   1.4428   5.0655   7.3957  12.2482  13.7976  13.9910
    16.3438

          k = 0.0000 0.4995 0.0000 (  2746 PWs)   bands (ev):

   -38.2482 -37.6948   1.5637   4.7483  10.7562  10.7719  13.0788  13.6257
    17.5647

          k = 0.0000 0.4995 0.0999 (  2751 PWs)   bands (ev):

   -38.2479 -37.6946   1.7098   4.7270   9.6400  10.9309  12.5619  15.0294
    17.8309

          k = 0.0000 0.4995 0.1999 (  2747 PWs)   bands (ev):

   -38.2471 -37.6941   2.1278   4.6895   7.8488  11.4545  12.1043  15.9699
    16.9999

          k = 0.0000 0.4995 0.2998 (  2762 PWs)   bands (ev):

   -38.2464 -37.6935   2.7127   4.7349   6.2662  11.7737  12.3245  15.1142
    16.0279

          k = 0.0000 0.4995-0.3997 (  2762 PWs)   bands (ev):

   -38.2460 -37.6933   3.0608   5.1057   5.2171  11.6557  13.4245  13.6733
    15.9929

          k = 0.0865 0.1499 0.0000 (  2777 PWs)   bands (ev):

   -38.6646 -37.2758  -1.2121   6.9762  11.0258  12.6953  14.4136  18.7254
    18.7645

          k = 0.0865 0.1499 0.0999 (  2776 PWs)   bands (ev):

   -38.6641 -37.2757  -1.1767   6.4402  11.5966  12.8545  14.9416  18.5117
    18.8693

          k = 0.0865 0.1499 0.1999 (  2774 PWs)   bands (ev):

   -38.6628 -37.2754  -1.0861   5.5062  12.5748  13.3273  16.5480  17.6256
    18.6376

          k = 0.0865 0.1499 0.2998 (  2786 PWs)   bands (ev):

   -38.6616 -37.2752  -0.9869   4.7971  13.5134  14.0838  16.3199  16.9367
    18.9720

          k = 0.0865 0.1499-0.3997 (  2774 PWs)   bands (ev):

   -38.6611 -37.2751  -0.9428   4.5387  14.1495  14.7605  15.5223  15.9429
    19.7184

          k = 0.0865 0.2498 0.0000 (  2774 PWs)   bands (ev):

   -38.5621 -37.3792  -0.6223   7.6882   9.1702  11.3398  14.4990  18.6117
    19.2355

          k = 0.0865 0.2498 0.0999 (  2780 PWs)   bands (ev):

   -38.5616 -37.3791  -0.5694   6.9159   9.7717  11.5180  15.0861  17.6298
    18.7283

          k = 0.0865 0.2498 0.1999 (  2772 PWs)   bands (ev):

   -38.5605 -37.3788  -0.4317   5.8244  10.5290  12.0190  15.6604  16.9518
    17.4961

          k = 0.0865 0.2498 0.2998 (  2762 PWs)   bands (ev):

   -38.5594 -37.3785  -0.2762   5.0313  11.1727  12.7645  14.5578  15.6395
    18.9572

          k = 0.0865 0.2498-0.3997 (  2768 PWs)   bands (ev):

   -38.5589 -37.3783  -0.2050   4.7407  11.5082  13.3811  13.9681  14.7923
    19.2510

          k = 0.0865 0.3497 0.0000 (  2767 PWs)   bands (ev):

   -38.4249 -37.5173   0.2235   7.1903   8.7494  10.4451  14.4984  16.6101
    18.1706

          k = 0.0865 0.3497 0.0999 (  2770 PWs)   bands (ev):

   -38.4245 -37.5171   0.3037   6.8422   8.6531  10.6707  14.6733  16.2982
    17.8114

          k = 0.0865 0.3497 0.1999 (  2759 PWs)   bands (ev):

   -38.4236 -37.5167   0.5180   6.0318   8.6406  11.1943  13.9146  16.1271
    17.7536

          k = 0.0865 0.3497 0.2998 (  2756 PWs)   bands (ev):

   -38.4226 -37.5163   0.7728   5.2800   8.7338  11.9231  13.0705  14.7443
    18.5040

          k = 0.0865 0.3497-0.3997 (  2764 PWs)   bands (ev):

   -38.4222 -37.5162   0.8957   4.9749   8.7901  12.5292  12.7047  13.9261
    18.5436

          k = 0.0865 0.4496 0.0000 (  2762 PWs)   bands (ev):

   -38.2818 -37.6610   1.2178   5.4677   9.9210  10.1344  14.2292  14.4117
    17.8166

          k = 0.0865 0.4496 0.0999 (  2758 PWs)   bands (ev):

   -38.2815 -37.6608   1.3393   5.4412   9.1829  10.3144  13.3380  15.8253
    17.3447

          k = 0.0865 0.4496 0.1999 (  2755 PWs)   bands (ev):

   -38.2807 -37.6603   1.6766   5.3668   7.8639  10.7582  12.5901  15.5877
    17.9094

          k = 0.0865 0.4496 0.2998 (  2756 PWs)   bands (ev):

   -38.2799 -37.6599   2.1141   5.2531   6.7631  11.4423  12.0924  14.2067
    18.1289

          k = 0.0865 0.4496-0.3997 (  2772 PWs)   bands (ev):

   -38.2795 -37.6597   2.3493   5.1667   6.3378  11.8962  12.0201  13.3939
    18.0766

          k = 0.0865 0.5495 0.0000 (  2742 PWs)   bands (ev):

   -38.2072 -37.7359   1.8358   4.6021   9.7469  11.3915  12.6343  14.3595
    17.6875

          k = 0.0865 0.5495 0.0999 (  2742 PWs)   bands (ev):

   -38.2069 -37.7357   2.0005   4.5766   9.4626  10.5325  12.4403  15.7188
    17.1930

          k = 0.0865 0.5495 0.1999 (  2748 PWs)   bands (ev):

   -38.2061 -37.7352   2.4881   4.5145   7.8646  10.6558  12.0495  15.4071
    17.9239

          k = 0.0865 0.5495 0.2998 (  2767 PWs)   bands (ev):

   -38.2054 -37.7346   3.2601   4.4520   6.2117  11.3019  11.7332  14.0270
    17.9929

          k = 0.0865 0.5495-0.3997 (  2772 PWs)   bands (ev):

   -38.2051 -37.7344   3.9252   4.4259   5.2416  11.6179  11.8502  13.2146
    17.9168

          k = 0.1730 0.2997 0.0000 (  2759 PWs)   bands (ev):

   -38.4441 -37.4980   0.0877   7.8915   8.5735   9.6640  14.9767  17.7539
    19.0136

          k = 0.1730 0.2997 0.0999 (  2765 PWs)   bands (ev):

[...]

     Dense  grid:    23907 G-vectors     FFT dimensions: (  45,  45,  27)

     Estimated max dynamical RAM per process >      19.37 MB

     Estimated total dynamical RAM >     154.94 MB

     Initial potential from superposition of free atoms

     starting charge       9.9903, renormalised to      10.0000
     Starting wfcs are    8 randomized atomic wfcs +    1 random wfcs

     total cpu time spent up to now is       67.6 secs

     Self-consistent Calculation

     iteration #  1     ecut=   100.00 Ry     beta= 0.70
     Davidson diagonalization with overlap
     c_bands:  1 eigenvalues not converged
     c_bands:  1 eigenvalues not converged
     c_bands:  1 eigenvalues not converged
     c_bands:  1 eigenvalues not converged
     c_bands:  1 eigenvalues not converged
     c_bands:  1 eigenvalues not converged
     c_bands:  1 eigenvalues not converged
     c_bands:  1 eigenvalues not converged
     c_bands:  1 eigenvalues not converged
     c_bands:  1 eigenvalues not converged
     ethr =  1.00E-06,  avg # of iterations = 15.0

     total cpu time spent up to now is       69.4 secs

     total energy              =     -37.20590025 Ry
     estimated scf accuracy    <       0.00911809 Ry

     iteration #  2     ecut=   100.00 Ry     beta= 0.70
     Davidson diagonalization with overlap
     ethr =  9.12E-05,  avg # of iterations =  1.0

     total cpu time spent up to now is       69.8 secs

     total energy              =     -37.20601237 Ry
     estimated scf accuracy    <       0.00063940 Ry

     iteration #  3     ecut=   100.00 Ry     beta= 0.70
     Davidson diagonalization with overlap
     ethr =  6.39E-06,  avg # of iterations =  1.1

     total cpu time spent up to now is       70.3 secs

     total energy              =     -37.20603171 Ry
     estimated scf accuracy    <       0.00000898 Ry

     iteration #  4     ecut=   100.00 Ry     beta= 0.70
     Davidson diagonalization with overlap
     ethr =  8.98E-08,  avg # of iterations =  2.1

     total cpu time spent up to now is       70.8 secs

     total energy              =     -37.20603271 Ry
     estimated scf accuracy    <       0.00000030 Ry

     iteration #  5     ecut=   100.00 Ry     beta= 0.70
     Davidson diagonalization with overlap
     ethr =  3.02E-09,  avg # of iterations =  2.2

     total cpu time spent up to now is       71.4 secs

     total energy              =     -37.20603276 Ry
     estimated scf accuracy    <          9.8E-10 Ry

     iteration #  6     ecut=   100.00 Ry     beta= 0.70
     Davidson diagonalization with overlap
     ethr =  9.77E-12,  avg # of iterations =  3.6

     total cpu time spent up to now is       72.0 secs

     End of self-consistent calculation

          k = 0.0000 0.0000 0.0000 (  2941 PWs)   bands (ev):

   -36.7812 -36.3909  -2.2652   8.1154   8.1154  10.6662  10.6662  13.3657
    20.7534

          k = 0.0000 0.0000 0.1521 (  2972 PWs)   bands (ev):

   -36.7609 -36.3766  -1.9101   8.5137   8.5137  11.1032  11.1032  12.3438
    19.4310

          k = 0.0000 0.0000 0.3042 (  2972 PWs)   bands (ev):

   -36.7116 -36.3417  -0.8584   9.5817   9.7088   9.7088  12.4113  12.4113
    18.6936

          k = 0.0000 0.0000 0.4563 (  3026 PWs)   bands (ev):

   -36.6620 -36.3066   0.8360   6.3857  11.6980  11.6980  14.5735  14.5735
    18.1226

          k = 0.0000 0.0000-0.6084 (  2990 PWs)   bands (ev):

   -36.6413 -36.2921   2.5473   4.1221  14.1839  14.1839  14.8419  14.8419
    17.0682

          k = 0.0000 0.0808 0.0000 (  2969 PWs)   bands (ev):

   -36.7740 -36.3979  -2.2182   7.4256   7.6849  11.0984  11.3292  13.8234
    20.8556

          k = 0.0000 0.0808 0.1521 (  2967 PWs)   bands (ev):

   -36.7538 -36.3834  -1.8601   7.7892   8.0890  11.4490  11.7600  12.8699
    19.5265

          k = 0.0000 0.0808 0.3042 (  2990 PWs)   bands (ev):

   -36.7048 -36.3483  -0.7996   8.5842   9.3007  10.2409  12.8528  13.0494
    18.8336

          k = 0.0000 0.0808 0.4563 (  3001 PWs)   bands (ev):

   -36.6555 -36.3130   0.9104   6.3900  11.1633  11.3167  14.7607  15.1643
    17.2420

          k = 0.0000 0.0808-0.6084 (  3018 PWs)   bands (ev):

   -36.6350 -36.2983   2.6669   4.1243  13.4169  13.9435  14.2723  14.3234
    16.5961

          k = 0.0000 0.1615 0.0000 (  2985 PWs)   bands (ev):

   -36.7534 -36.4179  -2.0849   6.2262   6.9583  11.5490  12.7516  15.1471
    21.1593

          k = 0.0000 0.1615 0.1521 (  2977 PWs)   bands (ev):

   -36.7335 -36.4031  -1.7179   6.5541   7.3674  11.6921  13.1762  14.2526
    19.8254

          k = 0.0000 0.1615 0.3042 (  2987 PWs)   bands (ev):

   -36.6854 -36.3673  -0.6313   7.3557   8.5939  10.5732  13.5963  14.4434
    18.9240

          k = 0.0000 0.1615 0.4563 (  3010 PWs)   bands (ev):

   -36.6369 -36.3313   1.1239   6.3823  10.1616  10.6349  14.7494  15.8750
    16.3388

          k = 0.0000 0.1615-0.6084 (  3018 PWs)   bands (ev):

   -36.6167 -36.3163   3.0247   4.1283  11.7869  13.4048  13.4427  13.5128
    15.5508

          k = 0.0000 0.2423 0.0000 (  2993 PWs)   bands (ev):

   -36.7219 -36.4485  -1.8904   5.1129   6.3333  11.7673  14.5300  16.9187
    21.6534

          k = 0.0000 0.2423 0.1521 (  2993 PWs)   bands (ev):

   -36.7025 -36.4333  -1.5094   5.4158   6.7446  11.8234  14.9496  15.7648
    20.3050

          k = 0.0000 0.2423 0.3042 (  3002 PWs)   bands (ev):

   -36.6557 -36.3964  -0.3816   6.2247   7.9781  10.8706  14.1085  16.1911
    18.1431

          k = 0.0000 0.2423 0.4563 (  3009 PWs)   bands (ev):

   -36.6085 -36.3593   1.4428   6.3049   9.2514  10.0311  14.4618  14.7090
    16.4677

          k = 0.0000 0.2423-0.6084 (  3006 PWs)   bands (ev):

   -36.5889 -36.3439   3.6173   4.1298  10.0192  12.7103  12.8373  12.9531
    14.8248

          k = 0.0000 0.3231 0.0000 (  2995 PWs)   bands (ev):

   -36.6848 -36.4848  -1.6849   4.2661   5.8985  11.8787  16.5576  18.7188
    22.3015

          k = 0.0000 0.3231 0.1521 (  3004 PWs)   bands (ev):

   -36.6661 -36.4691  -1.2875   4.5484   6.3109  11.9134  16.9715  17.0513
    20.7596

          k = 0.0000 0.3231 0.3042 (  3007 PWs)   bands (ev):

   -36.6207 -36.4309  -0.1104   5.3417   7.5476  11.1355  14.4176  17.2293
    18.1516

          k = 0.0000 0.3231 0.4563 (  2997 PWs)   bands (ev):

   -36.5750 -36.3925   1.7939   6.1116   8.6520   9.6061  13.8609  14.2027
    16.1340

          k = 0.0000 0.3231-0.6084 (  3014 PWs)   bands (ev):

   -36.5560 -36.3765   4.1270   4.4353   8.3642  12.2563  12.3726  12.5928
    14.3491

          k = 0.0000 0.4038 0.0000 (  2983 PWs)   bands (ev):

   -36.6542 -36.5150  -1.5462   3.8010   5.6776  11.9290  18.6973  20.1230
    21.7199

          k = 0.0000 0.4038 0.1521 (  2999 PWs)   bands (ev):

   -36.6360 -36.4988  -1.1363   4.0696   6.0904  11.9611  17.9171  19.1093
    20.6690

          k = 0.0000 0.4038 0.3042 (  3014 PWs)   bands (ev):

   -36.5918 -36.4595   0.0791   4.8414   7.3283  11.2978  14.6261  16.6200
    19.9176

          k = 0.0000 0.4038 0.4563 (  2998 PWs)   bands (ev):

   -36.5473 -36.4200   2.0438   5.9074   8.3917   9.3891  13.4403  14.0396
    15.9433

          k = 0.0000 0.4038-0.6084 (  3008 PWs)   bands (ev):

   -36.5288 -36.4035   4.1235   5.4244   6.9462  12.0369  12.1374  12.4053
    14.1118

          k = 0.0699 0.1212 0.0000 (  2985 PWs)   bands (ev):

   -36.7601 -36.4114  -2.1280   6.6028   7.0749  11.7994  11.9729  14.7631
    21.0586

          k = 0.0699 0.1212 0.1521 (  2973 PWs)   bands (ev):

   -36.7401 -36.3967  -1.7640   6.9405   7.4766  11.9725  12.3570  13.9402
    19.7310

          k = 0.0699 0.1212 0.3042 (  2997 PWs)   bands (ev):

   -36.6917 -36.3611  -0.6860   7.7268   8.6794  10.5740  13.4719  13.9224
    19.1482

          k = 0.0699 0.1212 0.4563 (  3006 PWs)   bands (ev):

   -36.6430 -36.3253   1.0545   6.3892  10.5548  10.6712  15.0919  15.4700
    16.8897

          k = 0.0699 0.1212-0.6084 (  3022 PWs)   bands (ev):

   -36.6227 -36.3104   2.9056   4.1273  12.4691  13.1537  13.6223  13.7279
    16.2632

          k = 0.0699 0.2019 0.0000 (  2985 PWs)   bands (ev):

   -36.7339 -36.4368  -1.9632   5.5678   6.3883  12.1254  13.3729  16.4079
    21.4581

          k = 0.0699 0.2019 0.1521 (  2989 PWs)   bands (ev):

   -36.7144 -36.4218  -1.5877   5.8822   6.7855  12.1994  13.6829  15.4806
    20.1753

          k = 0.0699 0.2019 0.3042 (  2993 PWs)   bands (ev):

   -36.6670 -36.3853  -0.4760   6.6889   7.9693  10.9573  14.1278  15.1546
    18.9577

          k = 0.0699 0.2019 0.4563 (  3004 PWs)   bands (ev):

   -36.6193 -36.3486   1.3216   6.3540   9.6651  10.0314  14.8193  15.0612
    16.5808

          k = 0.0699 0.2019-0.6084 (  3008 PWs)   bands (ev):

   -36.5995 -36.3334   3.3809   4.1294  10.9318  12.2864  12.9212  13.0617
    16.0045

          k = 0.0699 0.2827 0.0000 (  3000 PWs)   bands (ev):

   -36.6990 -36.4710  -1.7603   4.6415   5.8667  12.2641  15.1472  18.2726
    22.0334

          k = 0.0699 0.2827 0.1521 (  2998 PWs)   bands (ev):

   -36.6800 -36.4554  -1.3693   4.9356   6.2617  12.3098  15.3707  16.9292
    20.7967

          k = 0.0699 0.2827 0.3042 (  2996 PWs)   bands (ev):

   -36.6340 -36.4177  -0.2117   5.7442   7.4340  11.3129  14.4673  16.5146
    18.2391

          k = 0.0699 0.2827 0.4563 (  3004 PWs)   bands (ev):

   -36.5878 -36.3798   1.6606   6.2355   8.8596   9.6052  14.1844  14.3564
    16.4870

          k = 0.0699 0.2827-0.6084 (  2990 PWs)   bands (ev):

   -36.5685 -36.3641   4.0873   4.1273   9.2422  11.7303  12.3977  12.5324
    15.6413

          k = 0.0699 0.3635 0.0000 (  2984 PWs)   bands (ev):

   -36.6627 -36.5066  -1.5828   4.0049   5.5469  12.3333  17.1396  19.8309
    22.5400

          k = 0.0699 0.3635 0.1521 (  3002 PWs)   bands (ev):

   -36.6443 -36.4905  -1.1766   4.2823   5.9411  12.3767  17.1216  18.1349
    21.1598

          k = 0.0699 0.3635 0.3042 (  3013 PWs)   bands (ev):

   -36.5997 -36.4516   0.0269   5.0733   7.1086  11.5840  14.6641  16.7004
    19.0501

          k = 0.0699 0.3635 0.4563 (  3006 PWs)   bands (ev):

   -36.5549 -36.4124   1.9708   6.0469   8.3639   9.3665  13.5837  14.0466
    16.3423

          k = 0.0699 0.3635-0.6084 (  3008 PWs)   bands (ev):

   -36.5363 -36.3961   4.1226   5.0053   7.6957  11.4015  12.0924  12.1995
    15.3760

          k = 0.0699 0.4442 0.0000 (  2993 PWs)   bands (ev):

   -36.6438 -36.5252  -1.5100   3.7761   5.4394  12.3550  19.0379  19.3380
    21.9484

          k = 0.0699 0.4442 0.1521 (  3003 PWs)   bands (ev):

   -36.6258 -36.5089  -1.0971   4.0464   5.8333  12.3994  18.0287  19.1332
    20.1189

          k = 0.0699 0.4442 0.3042 (  3007 PWs)   bands (ev):

   -36.5819 -36.4692   0.1275   4.8257   6.9996  11.6878  14.7620  16.4595
    19.8561

          k = 0.0699 0.4442 0.4563 (  3009 PWs)   bands (ev):

   -36.5378 -36.4293   2.1034   5.9440   8.2053   9.2923  13.3763  13.9403
    16.2833

          k = 0.0699 0.4442-0.6084 (  3008 PWs)   bands (ev):

   -36.5195 -36.4128   4.1201   5.8342   6.6531  11.2919  11.9946  12.0855
    15.2822

          k = 0.1399 0.2423 0.0000 (  2989 PWs)   bands (ev):

   -36.7038 -36.4662  -1.7878   4.8872   5.7087  13.0223  13.9837  18.2018
    21.9411

          k = 0.1399 0.2423 0.1521 (  3002 PWs)   bands (ev):

   -36.6848 -36.4507  -1.3991   5.1898   6.0866  13.0277  14.2340  16.8892
    20.8594

          k = 0.1399 0.2423 0.3042 (  3003 PWs)   bands (ev):

   -36.6386 -36.4132  -0.2487   6.0033   7.2094  11.5365  14.8203  15.5746
    18.9375

          k = 0.1399 0.2423 0.4563 (  3009 PWs)   bands (ev):

   -36.5922 -36.3755   1.6116   6.2943   9.0189   9.4661  14.3291  14.4984
    16.9690

          k = 0.1399 0.2423-0.6084 (  2996 PWs)   bands (ev):

   -36.5728 -36.3598   3.9706   4.1267  10.0368  10.7859  12.4514  12.6024
    16.8321

          k = 0.1399 0.3231 0.0000 (  3003 PWs)   bands (ev):

   -36.6674 -36.5020  -1.6059   4.2899   5.2268  13.3644  15.3863  19.7922
    22.5653

          k = 0.1399 0.3231 0.1521 (  3000 PWs)   bands (ev):

   -36.6489 -36.4860  -1.2022   4.5810   5.5913  13.4047  15.5080  17.9358
    20.9533

          k = 0.1399 0.3231 0.3042 (  3006 PWs)   bands (ev):

   -36.6041 -36.4472  -0.0070   5.3991   6.6660  12.0640  15.0540  16.1627
    18.4204

          k = 0.1399 0.3231 0.4563 (  3003 PWs)   bands (ev):

   -36.5591 -36.4082   1.9209   6.2173   8.2665   9.2724  13.7481  14.0137
    17.2556

          k = 0.1399 0.3231-0.6084 (  2998 PWs)   bands (ev):

   -36.5404 -36.3920   4.1201   4.7833   8.6523  10.0746  12.1279  12.2489
    17.1104

          k = 0.1399 0.4038 0.0000 (  3001 PWs)   bands (ev):

   -36.6346 -36.5343  -1.4853   3.9326   4.9924  13.4458  17.2208  19.1646
    22.6494

          k = 0.1399 0.4038 0.1521 (  2992 PWs)   bands (ev):

   -36.6167 -36.5178  -1.0707   4.2148   5.3509  13.5056  17.1618  18.4246
    19.4905

          k = 0.1399 0.4038 0.3042 (  3004 PWs)   bands (ev):

   -36.5732 -36.4779   0.1575   5.0278   6.4012  12.3935  15.0863  16.2976
    18.6914

          k = 0.1399 0.4038 0.4563 (  3012 PWs)   bands (ev):

   -36.5294 -36.4377   2.1325   6.1615   7.8110   9.2108  13.4032  13.7669
    17.2595

          k = 0.1399 0.4038-0.6084 (  3006 PWs)   bands (ev):

   -36.5112 -36.4210   4.1143   5.7603   7.2841   9.8113  11.9763  12.0544
    17.1039

          k = 0.2098 0.3635 0.0000 (  2995 PWs)   bands (ev):

   -36.6308 -36.5381  -1.4767   4.1067   4.6983  14.5384  15.8144  19.1502
    22.7917

          k = 0.2098 0.3635 0.1521 (  3002 PWs)   bands (ev):

   -36.6129 -36.5216  -1.0617   4.4000   5.0365  14.5883  15.8720  18.3808
    19.3633

          k = 0.2098 0.3635 0.3042 (  3004 PWs)   bands (ev):

   -36.5695 -36.4815   0.1670   5.2411   6.0292  12.7355  15.5691  15.9627
    18.0139

          k = 0.2098 0.3635 0.4563 (  2999 PWs)   bands (ev):

   -36.5259 -36.4413   2.1394   6.3338   7.5576   9.1854  13.4643  13.6517
    18.4469

          k = 0.2098 0.3635-0.6084 (  3016 PWs)   bands (ev):

   -36.5077 -36.4245   4.1114   5.6777   8.1075   8.7497  11.9713  12.0459
    18.3843

          k = 0.2098 0.4442 0.0000 (  3003 PWs)   bands (ev):

   -36.6044 -36.5644  -1.4256   4.0706   4.4784  14.8909  17.0243  17.5110
    23.4528

          k = 0.2098 0.4442 0.1521 (  3005 PWs)   bands (ev):

   -36.5869 -36.5475  -1.0059   4.3675   4.8043  14.9668  16.9985  17.4206
    18.8641

          k = 0.2098 0.4442 0.3042 (  2999 PWs)   bands (ev):

   -36.5445 -36.5065   0.2368   5.2292   5.7554  13.0152  15.6268  16.0467
    17.8870

          k = 0.2098 0.4442 0.4563 (  2994 PWs)   bands (ev):

   -36.5018 -36.4652   2.2258   6.4977   7.1603   9.1737  13.3674  13.5114
    18.5760

          k = 0.2098 0.4442-0.6084 (  3018 PWs)   bands (ev):

   -36.4841 -36.4481   4.1075   6.4384   7.3558   8.4113  11.9311  11.9636
    18.8615

     the Fermi energy is     9.4223 ev

!    total energy              =     -37.20603276 Ry
     estimated scf accuracy    <          5.1E-11 Ry
     smearing contrib. (-TS)   =      -0.00038824 Ry
     internal energy E=F+TS    =     -37.20564452 Ry

     The total energy is F=E-TS. E is the sum of the following terms:
     one-electron contribution =      -7.65778670 Ry
     hartree contribution      =       5.69588797 Ry
     xc contribution           =     -10.32304212 Ry
     ewald contribution        =     -24.92070368 Ry

     convergence has been achieved in   6 iterations

     Forces acting on atoms (cartesian axes, Ry/au):

     atom    1 type  1   force =    -0.00000000    0.00000000    0.00000000
     atom    2 type  2   force =    -0.00000000   -0.00000000   -0.00000000
     atom    3 type  2   force =     0.00000000    0.00000000    0.00000000
     The non-local contrib.  to forces
     atom    1 type  1   force =     0.00000000    0.00000000   -0.00000000
     atom    2 type  2   force =     0.00000000    0.00000000    0.00000000
     atom    3 type  2   force =    -0.00000000   -0.00000000    0.00000000
     The ionic contribution  to forces
     atom    1 type  1   force =    -0.00000000    0.00000000   -0.00000000
     atom    2 type  2   force =     0.00000007   -0.00000004   -0.00000000
     atom    3 type  2   force =    -0.00000007    0.00000004    0.00000000
     The local contribution  to forces
     atom    1 type  1   force =     0.00000000    0.00000000   -0.00000000
     atom    2 type  2   force =     0.00000065   -0.00000038    0.00000000
     atom    3 type  2   force =    -0.00000065    0.00000038    0.00000000
     The core correction contribution to forces
     atom    1 type  1   force =     0.00000000    0.00000000   -0.00000000
     atom    2 type  2   force =     0.00000000    0.00000000    0.00000000
     atom    3 type  2   force =     0.00000000    0.00000000    0.00000000
     The Hubbard contrib.    to forces
     atom    1 type  1   force =     0.00000000    0.00000000    0.00000000
     atom    2 type  2   force =     0.00000000    0.00000000    0.00000000
     atom    3 type  2   force =     0.00000000    0.00000000    0.00000000
     The SCF correction term to forces
     atom    1 type  1   force =     0.00000000   -0.00000000    0.00000000
     atom    2 type  2   force =    -0.00000000    0.00000000   -0.00000000
     atom    3 type  2   force =     0.00000000   -0.00000000   -0.00000000

     Total force =     0.000000     Total SCF correction =     0.000000


     Computing stress (Cartesian axis) and pressure

          total   stress  (Ry/bohr**3)                   (kbar)     P=      506.52
   0.00346464   0.00000000  -0.00000000          509.67        0.00       -0.00
   0.00000000   0.00346464  -0.00000000            0.00      509.67       -0.00
  -0.00000000  -0.00000000   0.00340045           -0.00       -0.00      500.22


     Writing all to output data dir ./output/SiLi.save/

     init_run     :      1.01s CPU      1.87s WALL (       2 calls)
     electrons    :     50.30s CPU     56.23s WALL (      15 calls)
     update_pot   :      2.94s CPU      2.98s WALL (      13 calls)
     forces       :      2.28s CPU      2.37s WALL (      15 calls)
     stress       :      8.40s CPU      8.72s WALL (      15 calls)

     Called by init_run:
     wfcinit      :      0.35s CPU      0.37s WALL (       2 calls)
     potinit      :      0.23s CPU      0.80s WALL (       2 calls)
     hinit0       :      0.40s CPU      0.62s WALL (       2 calls)

     Called by electrons:
     c_bands      :     43.09s CPU     47.86s WALL (     108 calls)
     sum_band     :      6.39s CPU      6.70s WALL (     108 calls)
     v_of_rho     :      0.83s CPU      2.04s WALL (     120 calls)
     mix_rho      :      0.10s CPU      0.12s WALL (     108 calls)

     Called by c_bands:
     init_us_2    :      1.59s CPU      1.73s WALL (   19840 calls)
     init_us_2:cp :      1.57s CPU      1.71s WALL (   19840 calls)
     cegterg      :     40.16s CPU     42.21s WALL (    8640 calls)

     Called by *egterg:
     cdiaghg      :      3.07s CPU      3.24s WALL (   31618 calls)
     h_psi        :     33.39s CPU     35.08s WALL (   33058 calls)
     g_psi        :      0.18s CPU      0.18s WALL (   24258 calls)

     Called by h_psi:
     h_psi:calbec :      1.99s CPU      2.09s WALL (   33058 calls)
     vloc_psi     :     29.98s CPU     31.49s WALL (   33058 calls)
     add_vuspsi   :      1.24s CPU      1.29s WALL (   33058 calls)

     General routines
     calbec       :      2.46s CPU      2.57s WALL (   39058 calls)
     fft          :      1.02s CPU      2.53s WALL (    1576 calls)
     ffts         :      0.05s CPU      0.10s WALL (     108 calls)
     fftw         :     30.95s CPU     32.42s WALL (  510788 calls)

     Parallel routines

     PWSCF        :   1m 5.38s CPU   1m13.07s WALL


   This run was terminated on:  22:10:32  10Jan2025            

=------------------------------------------------------------------------------=
   JOB DONE.
=------------------------------------------------------------------------------=
