
     Program PWSCF v.7.2 starts on 10Jan2025 at 22: 9: 6 

     This program is part of the open-source Quantum ESPRESSO suite
     for quantum simulation of materials; please cite
         "P. Giannozzi et al., J. Phys.:Condens. Matter 21 395502 (2009);
         "P. Giannozzi et al., J. Phys.:Condens. Matter 29 465901 (2017);
         "P. Giannozzi et al., J. Chem. Phys. 152 154105 (2020);
          URL http://www.quantum-espresso.org", 
     in publications or presentations arising from this work. More details at
     http://www.quantum-espresso.org/quote

     Parallel version (MPI & OpenMP), running on       8 processor cores
     Number of MPI processes:                 8
     Threads/MPI process:                     1

     MPI processes distributed on     1 nodes
     482063 MiB available memory on the printing compute node when the environment starts

     Waiting for input...
     Reading input from standard input

     Current dimensions of program PWSCF are:
     Max number of different atomic species (ntypx) = 10
     Max number of k-points (npk) =  40000
     Max angular momentum in pseudopotentials (lmaxx) =  4

     R & G space division:  proc/nbgrp/npool/nimage =       8
     Subspace diagonalization in iterative solution of the eigenvalue problem:
     a serial algorithm will be used


     Parallelization info
     --------------------
     sticks:   dense  smooth     PW     G-vecs:    dense   smooth      PW
     Min          72      72     21                 3300     3300     523
     Max          73      73     22                 3313     3313     533
     Sum         583     583    169                26485    26485    4213

     Using Slab Decomposition



     bravais-lattice index     =            4
     lattice parameter (alat)  =       4.6278  a.u.
     unit-cell volume          =     196.1207 (a.u.)^3
     number of atoms/cell      =            3
     number of atomic types    =            2
     number of electrons       =        11.00
     number of Kohn-Sham states=           10
     kinetic-energy cutoff     =     100.0000  Ry
     charge density cutoff     =     400.0000  Ry
     scf convergence threshold =      1.0E-08
     mixing beta               =       0.7000
     number of iterations used =            8  plain     mixing
     energy convergence thresh.=      1.0E-04
     force convergence thresh. =      1.0E-03
     press convergence thresh. =      1.0E+00
     Exchange-correlation= PBE
                           (   1   4   3   4   0   0   0)
     nstep                     =           50


     celldm(1)=   4.627845  celldm(2)=   0.000000  celldm(3)=   2.284844
     celldm(4)=   0.000000  celldm(5)=   0.000000  celldm(6)=   0.000000

     crystal axes: (cart. coord. in units of alat)
               a(1) = (   1.000000   0.000000   0.000000 )  
               a(2) = (  -0.500000   0.866025   0.000000 )  
               a(3) = (   0.000000   0.000000   2.284844 )  

     reciprocal axes: (cart. coord. in units 2 pi/alat)
               b(1) = (  1.000000  0.577350 -0.000000 )  
               b(2) = (  0.000000  1.154701  0.000000 )  
               b(3) = (  0.000000 -0.000000  0.437667 )  


     PseudoPot. # 1 for Si read from file:
     ../pseudo/Si_ONCV_PBE_sr.upf
     MD5 check sum: e543d271109d17c80368dfa7c482276d
     Pseudo is Norm-conserving + core correction, Zval =  4.0
     Generated using ONCVPSP code by D. R. Hamann
     Using radial grid of 1510 points,  6 beta functions with: 
                l(1) =   0
                l(2) =   0
                l(3) =   1
                l(4) =   1
                l(5) =   2
                l(6) =   2

     PseudoPot. # 2 for Li read from file:
     ../pseudo/Li_ONCV_PBE_sr.upf
     MD5 check sum: 50ff420e78310ffa21704f3361e624a4
     Pseudo is Norm-conserving, Zval =  3.0
     Generated using ONCVPSP code by D. R. Hamann
     Using radial grid of 1944 points,  4 beta functions with: 
                l(1) =   0
                l(2) =   0
                l(3) =   1
                l(4) =   1

     atomic species   valence    mass     pseudopotential
        Si             4.00    28.08550     Si( 1.00)
        Li             3.00     6.94100     Li( 1.00)

     12 Sym. Ops., with inversion, found



   Cartesian axes

     site n.     atom                  positions (alat units)
         1           Si  tau(   1) = (  -0.0000000   0.5773503   0.7179368  )
         2           Si  tau(   2) = (   0.5000000   0.2886751   1.5669072  )
         3           Li  tau(   3) = (   0.0000000   0.0000000   0.0000000  )

     number of k points=    68  Marzari-Vanderbilt smearing, width (Ry)=  0.0200
                       cart. coord. in units 2pi/alat
        k(    1) = (   0.0000000   0.0000000   0.0000000), wk =   0.0033058
        k(    2) = (   0.0000000   0.0000000   0.0875333), wk =   0.0066116
        k(    3) = (   0.0000000   0.0000000   0.1750667), wk =   0.0066116
        k(    4) = (   0.0000000   0.1049728   0.0000000), wk =   0.0198347
        k(    5) = (   0.0000000   0.1049728   0.0875333), wk =   0.0198347
        k(    6) = (   0.0000000   0.1049728   0.1750667), wk =   0.0198347
        k(    7) = (   0.0000000   0.2099456   0.0000000), wk =   0.0198347
        k(    8) = (   0.0000000   0.2099456   0.0875333), wk =   0.0198347
        k(    9) = (   0.0000000   0.2099456   0.1750667), wk =   0.0198347
        k(   10) = (   0.0000000   0.3149183   0.0000000), wk =   0.0198347
        k(   11) = (   0.0000000   0.3149183   0.0875333), wk =   0.0198347
        k(   12) = (   0.0000000   0.3149183   0.1750667), wk =   0.0198347
        k(   13) = (   0.0000000   0.4198911   0.0000000), wk =   0.0198347
        k(   14) = (   0.0000000   0.4198911   0.0875333), wk =   0.0198347
        k(   15) = (   0.0000000   0.4198911   0.1750667), wk =   0.0198347
        k(   16) = (   0.0000000   0.5248639   0.0000000), wk =   0.0198347
        k(   17) = (   0.0000000   0.5248639   0.0875333), wk =   0.0198347
        k(   18) = (   0.0000000   0.5248639   0.1750667), wk =   0.0198347
        k(   19) = (   0.0909091   0.1574592   0.0000000), wk =   0.0198347
        k(   20) = (   0.0909091   0.1574592   0.0875333), wk =   0.0396694
        k(   21) = (   0.0909091   0.1574592   0.1750667), wk =   0.0396694
        k(   22) = (   0.0909091   0.2624319   0.0000000), wk =   0.0396694
        k(   23) = (   0.0909091   0.2624319   0.0875333), wk =   0.0396694
        k(   24) = (   0.0909091   0.2624319   0.1750667), wk =   0.0396694
        k(   25) = (   0.0909091   0.3674047   0.0000000), wk =   0.0396694
        k(   26) = (   0.0909091   0.3674047   0.0875333), wk =   0.0396694
        k(   27) = (   0.0909091   0.3674047   0.1750667), wk =   0.0396694
        k(   28) = (   0.0909091   0.4723775   0.0000000), wk =   0.0396694
        k(   29) = (   0.0909091   0.4723775   0.0875333), wk =   0.0396694
        k(   30) = (   0.0909091   0.4723775   0.1750667), wk =   0.0396694
        k(   31) = (   0.0909091   0.5773503   0.0000000), wk =   0.0198347
        k(   32) = (   0.0909091   0.5773503   0.0875333), wk =   0.0396694
        k(   33) = (   0.0909091   0.5773503   0.1750667), wk =   0.0396694
        k(   34) = (   0.1818182   0.3149183   0.0000000), wk =   0.0198347
        k(   35) = (   0.1818182   0.3149183   0.0875333), wk =   0.0396694
        k(   36) = (   0.1818182   0.3149183   0.1750667), wk =   0.0396694
        k(   37) = (   0.1818182   0.4198911   0.0000000), wk =   0.0396694
        k(   38) = (   0.1818182   0.4198911   0.0875333), wk =   0.0396694
        k(   39) = (   0.1818182   0.4198911   0.1750667), wk =   0.0396694
        k(   40) = (   0.1818182   0.5248639   0.0000000), wk =   0.0396694
        k(   41) = (   0.1818182   0.5248639   0.0875333), wk =   0.0396694
        k(   42) = (   0.1818182   0.5248639   0.1750667), wk =   0.0396694
        k(   43) = (   0.2727273   0.4723775   0.0000000), wk =   0.0198347
        k(   44) = (   0.2727273   0.4723775   0.0875333), wk =   0.0396694
        k(   45) = (   0.2727273   0.4723775   0.1750667), wk =   0.0396694
        k(   46) = (   0.2727273   0.5773503   0.0000000), wk =   0.0198347
        k(   47) = (   0.2727273   0.5773503   0.0875333), wk =   0.0396694
        k(   48) = (   0.2727273   0.5773503   0.1750667), wk =   0.0396694
        k(   49) = (   0.0000000   0.1049728  -0.0875333), wk =   0.0198347
        k(   50) = (   0.0000000   0.1049728  -0.1750667), wk =   0.0198347
        k(   51) = (   0.0000000   0.2099456  -0.0875333), wk =   0.0198347
        k(   52) = (   0.0000000   0.2099456  -0.1750667), wk =   0.0198347
        k(   53) = (   0.0000000   0.3149183  -0.0875333), wk =   0.0198347
        k(   54) = (   0.0000000   0.3149183  -0.1750667), wk =   0.0198347
        k(   55) = (   0.0000000   0.4198911  -0.0875333), wk =   0.0198347
        k(   56) = (   0.0000000   0.4198911  -0.1750667), wk =   0.0198347
        k(   57) = (   0.0000000   0.5248639  -0.0875333), wk =   0.0198347
        k(   58) = (   0.0000000   0.5248639  -0.1750667), wk =   0.0198347
        k(   59) = (  -0.0909091   0.2624319  -0.0875333), wk =   0.0396694
        k(   60) = (  -0.0909091   0.2624319  -0.1750667), wk =   0.0396694
        k(   61) = (  -0.0909091   0.3674047  -0.0875333), wk =   0.0396694
        k(   62) = (  -0.0909091   0.3674047  -0.1750667), wk =   0.0396694
        k(   63) = (  -0.0909091   0.4723775  -0.0875333), wk =   0.0396694
        k(   64) = (  -0.0909091   0.4723775  -0.1750667), wk =   0.0396694
        k(   65) = (  -0.1818182   0.4198911  -0.0875333), wk =   0.0396694
        k(   66) = (  -0.1818182   0.4198911  -0.1750667), wk =   0.0396694
        k(   67) = (  -0.1818182   0.5248639  -0.0875333), wk =   0.0396694
        k(   68) = (  -0.1818182   0.5248639  -0.1750667), wk =   0.0396694

     Dense  grid:    26485 G-vectors     FFT dimensions: (  30,  30,  72)

     Estimated max dynamical RAM per process >      19.79 MB

     Estimated total dynamical RAM >     158.34 MB

     Initial potential from superposition of free atoms

     starting charge      10.9942, renormalised to      11.0000
     Starting wfcs are   10 randomized atomic wfcs

     total cpu time spent up to now is        1.9 secs

     Self-consistent Calculation

     iteration #  1     ecut=   100.00 Ry     beta= 0.70
     Davidson diagonalization with overlap
     ethr =  1.00E-02,  avg # of iterations =  5.9

     total cpu time spent up to now is        2.9 secs

     total energy              =     -31.04286282 Ry
     estimated scf accuracy    <       0.19342730 Ry

     iteration #  2     ecut=   100.00 Ry     beta= 0.70
     Davidson diagonalization with overlap
     ethr =  1.76E-03,  avg # of iterations =  3.1

     total cpu time spent up to now is        3.6 secs

     total energy              =     -31.03036543 Ry
     estimated scf accuracy    <       0.81685359 Ry

     iteration #  3     ecut=   100.00 Ry     beta= 0.70
     Davidson diagonalization with overlap
     ethr =  1.76E-03,  avg # of iterations =  2.0

     total cpu time spent up to now is        4.2 secs

     total energy              =     -31.15787232 Ry
     estimated scf accuracy    <       0.00049784 Ry

     iteration #  4     ecut=   100.00 Ry     beta= 0.70
     Davidson diagonalization with overlap
     c_bands:  1 eigenvalues not converged
     ethr =  4.53E-06,  avg # of iterations =  7.1

     total cpu time spent up to now is        5.2 secs

     total energy              =     -31.15846725 Ry
     estimated scf accuracy    <       0.00046131 Ry

     iteration #  5     ecut=   100.00 Ry     beta= 0.70
     Davidson diagonalization with overlap
     ethr =  4.19E-06,  avg # of iterations =  1.8

     total cpu time spent up to now is        5.7 secs

     total energy              =     -31.15855338 Ry
     estimated scf accuracy    <       0.00000400 Ry

     iteration #  6     ecut=   100.00 Ry     beta= 0.70
     Davidson diagonalization with overlap
     ethr =  3.64E-08,  avg # of iterations =  2.4

     total cpu time spent up to now is        6.2 secs

     total energy              =     -31.15855405 Ry
     estimated scf accuracy    <       0.00000084 Ry

     iteration #  7     ecut=   100.00 Ry     beta= 0.70
     Davidson diagonalization with overlap
     ethr =  7.65E-09,  avg # of iterations =  1.4

     total cpu time spent up to now is        6.7 secs

     total energy              =     -31.15855411 Ry
     estimated scf accuracy    <       0.00000007 Ry

     iteration #  8     ecut=   100.00 Ry     beta= 0.70
     Davidson diagonalization with overlap
     ethr =  6.77E-10,  avg # of iterations =  2.1

     total cpu time spent up to now is        7.2 secs

     End of self-consistent calculation

          k = 0.0000 0.0000 0.0000 (  3351 PWs)   bands (ev):

   -32.9922  -3.3931   0.4282   5.2869  14.2847  17.6365  25.1388  25.1388
    25.1605  25.1606

          k = 0.0000 0.0000 0.0875 (  3346 PWs)   bands (ev):

   -32.9922  -3.3880   0.3485   5.6128  12.9217  19.4475  25.1959  25.1960
    25.2544  25.2546

          k = 0.0000 0.0000 0.1751 (  3328 PWs)   bands (ev):

   -32.9922  -3.3796   0.2291   6.2371  11.4028  22.2977  25.2754  25.2754
    25.4822  25.4823

          k = 0.0000 0.1050 0.0000 (  3343 PWs)   bands (ev):

   -32.9805  -3.1325   0.6910   5.4834  14.5066  17.5858  21.5858  22.9328
    24.4584  25.9260

          k = 0.0000 0.1050 0.0875 (  3332 PWs)   bands (ev):

   -32.9805  -3.1258   0.6032   5.8244  13.0831  19.4373  21.6262  23.0114
    24.1800  25.8352

          k = 0.0000 0.1050 0.1751 (  3329 PWs)   bands (ev):

   -32.9805  -3.1147   0.4723   6.4798  11.5337  21.4555  22.4563  23.1766
    23.7782  25.6722

          k = 0.0000 0.2099 0.0000 (  3321 PWs)   bands (ev):

   -32.9491  -2.3533   1.4753   6.0709  15.0181  16.5235  18.6682  20.5203
    21.1455  24.5815

          k = 0.0000 0.2099 0.0875 (  3313 PWs)   bands (ev):

   -32.9491  -2.3418   1.3631   6.4583  13.4182  17.3062  19.8667  20.1897
    21.2311  24.1231

          k = 0.0000 0.2099 0.1751 (  3309 PWs)   bands (ev):

   -32.9491  -2.3226   1.1983   7.2070  11.8685  17.2825  19.7683  21.4060
    22.3498  23.5354

          k = 0.0000 0.3149 0.0000 (  3319 PWs)   bands (ev):

   -32.9079  -1.0628   2.7674   7.0366  12.5831  16.2726  16.6937  18.2070
    19.8045  21.1702

          k = 0.0000 0.3149 0.0875 (  3315 PWs)   bands (ev):

   -32.9079  -1.0437   2.6153   7.5034  12.2734  15.0856  16.5076  19.8943
    20.0534  21.3753

          k = 0.0000 0.3149 0.1751 (  3313 PWs)   bands (ev):

   -32.9079  -1.0113   2.3955   8.4104  11.8107  13.6929  16.3174  20.0770
    21.5026  22.1983

          k = 0.0000 0.4199 0.0000 (  3301 PWs)   bands (ev):

   -32.8698   0.7257   4.5279   8.2388   9.1858  12.9316  16.1742  18.0369
    18.9112  20.4431

          k = 0.0000 0.4199 0.0875 (  3298 PWs)   bands (ev):

   -32.8698   0.7539   4.3321   8.6957   9.2183  12.6132  15.6427  18.6728
    19.0037  20.2674

          k = 0.0000 0.4199 0.1751 (  3310 PWs)   bands (ev):

   -32.8698   0.8047   4.0383   9.0624  10.0610  11.6845  14.9687  18.7132
    19.1920  20.5206

          k = 0.0000 0.5249 0.0000 (  3314 PWs)   bands (ev):

   -32.8471   2.9853   5.5673   7.0176   9.6212   9.9909  14.1015  18.4649
    19.2110  21.1849

          k = 0.0000 0.5249 0.0875 (  3302 PWs)   bands (ev):

   -32.8471   3.0186   5.6996   6.5937   9.2188  10.9935  14.2293  18.5587
    18.6857  19.8264

          k = 0.0000 0.5249 0.1751 (  3302 PWs)   bands (ev):

   -32.8471   3.0940   5.6581   6.3526   8.8695  12.3541  14.6812  16.5450
    18.7499  19.3248

          k = 0.0909 0.1575 0.0000 (  3317 PWs)   bands (ev):

   -32.9590  -2.6126   1.2146   5.8757  14.9163  17.2517  19.4430  20.0485
    22.6009  23.5150

          k = 0.0909 0.1575 0.0875 (  3317 PWs)   bands (ev):

   -32.9590  -2.6027   1.1106   6.2451  13.4022  18.5778  19.4861  20.5162
    22.4040  23.2376

          k = 0.0909 0.1575 0.1751 (  3324 PWs)   bands (ev):

   -32.9590  -2.5862   0.9570   6.9624  11.7902  19.3127  19.5601  21.3859
    22.1276  24.0661

          k = 0.0909 0.2624 0.0000 (  3334 PWs)   bands (ev):

   -32.9226  -1.5777   2.2532   6.6561  14.4852  15.9521  17.4577  18.2223
    19.6782  21.8134

          k = 0.0909 0.2624 0.0875 (  3319 PWs)   bands (ev):

   -32.9226  -1.5616   2.1169   7.0860  13.4652  15.8755  17.3463  18.4715
    20.2704  21.8623

          k = 0.0909 0.2624 0.1751 (  3315 PWs)   bands (ev):

   -32.9226  -1.5345   1.9190   7.9267  12.1283  15.4414  17.4878  18.3797
    20.4514  24.1582

          k = 0.0909 0.3674 0.0000 (  3308 PWs)   bands (ev):

   -32.8830  -0.0378   3.7848   7.7949  10.9851  14.7201  16.0428  17.2141
    18.4959  19.9496

          k = 0.0909 0.3674 0.0875 (  3315 PWs)   bands (ev):

   -32.8830  -0.0131   3.6033   8.3162  10.8677  14.2703  15.7781  16.5572
    19.2199  20.1769

          k = 0.0909 0.3674 0.1751 (  3305 PWs)   bands (ev):

   -32.8830   0.0296   3.3420   9.3433  10.8820  12.8757  15.1130  16.8145
    19.2296  20.9098

          k = 0.0909 0.4724 0.0000 (  3303 PWs)   bands (ev):

   -32.8526   1.9896   5.6913   7.6254   9.3031  11.4741  15.0971  15.5863
    19.2856  19.7801

          k = 0.0909 0.4724 0.0875 (  3307 PWs)   bands (ev):

   -32.8526   2.0225   5.5162   7.5442   9.7923  11.3641  15.1504  15.7873
    18.0093  20.0199

          k = 0.0909 0.4724 0.1751 (  3305 PWs)   bands (ev):

   -32.8526   2.0860   5.1750   7.6729  10.2599  11.4800  14.9332  16.0083
    17.4063  18.8491

          k = 0.0909 0.5774 0.0000 (  3312 PWs)   bands (ev):

   -32.8413   4.3398   4.5925   7.9194   9.0308  10.2729  13.7477  15.3917
    19.1190  21.5809

          k = 0.0909 0.5774 0.0875 (  3314 PWs)   bands (ev):

   -32.8413   4.4350   4.5761   7.8692   8.2113  11.5407  13.8691  15.3848
    18.4921  19.5746

          k = 0.0909 0.5774 0.1751 (  3305 PWs)   bands (ev):

   -32.8413   4.5294   4.6457   7.2461   8.0748  13.4269  14.0674  15.2030
    17.3319  17.7069

          k = 0.1818 0.3149 0.0000 (  3325 PWs)   bands (ev):

   -32.8879  -0.2931   3.5334   7.6250  13.2336  13.3299  16.5940  17.3038
    17.8855  20.1226

          k = 0.1818 0.3149 0.0875 (  3320 PWs)   bands (ev):

   -32.8879  -0.2696   3.3572   8.1104  12.9941  13.5218  15.2761  16.9132
    17.7587  20.8113

          k = 0.1818 0.3149 0.1751 (  3317 PWs)   bands (ev):

   -32.8879  -0.2297   3.1078   9.0893  12.3922  13.6605  14.0920  16.3192
    17.7997  22.4795

          k = 0.1818 0.4199 0.0000 (  3304 PWs)   bands (ev):

   -32.8559   1.4877   5.2738   8.8866   9.8580  12.2335  13.8727  16.0983
    16.8973  19.3674

          k = 0.1818 0.4199 0.0875 (  3308 PWs)   bands (ev):

   -32.8559   1.5199   5.0557   9.3906   9.8484  12.3869  13.4830  15.6236
    16.6602  19.3249

          k = 0.1818 0.4199 0.1751 (  3320 PWs)   bands (ev):

   -32.8559   1.5771   4.7407   9.7818  10.6898  12.2088  12.8923  14.4981
    16.8467  19.8649

          k = 0.1818 0.5249 0.0000 (  3300 PWs)   bands (ev):

   -32.8369   3.7384   6.3048   7.7343  10.2396  10.5622  12.2761  14.2871
    16.0741  19.6815

          k = 0.1818 0.5249 0.0875 (  3305 PWs)   bands (ev):

   -32.8369   3.7749   6.4264   7.3094   9.9033  11.3731  12.3604  14.5880
    15.6958  19.8744

          k = 0.1818 0.5249 0.1751 (  3306 PWs)   bands (ev):

   -32.8369   3.8538   6.3734   7.0809   9.5494  11.9371  13.1740  14.6753
    15.4758  18.1591

          k = 0.2727 0.4724 0.0000 (  3285 PWs)   bands (ev):

   -32.8352   3.4962   7.0799   8.9322   9.1863  10.4747  12.6305  13.7410
    14.9576  18.4422

          k = 0.2727 0.4724 0.0875 (  3296 PWs)   bands (ev):

   -32.8352   3.5382   6.8357   8.9493   9.3057  10.7409  12.5698  13.1977
    16.0463  18.0377

          k = 0.2727 0.4724 0.1751 (  3315 PWs)   bands (ev):

   -32.8352   3.6121   6.5058   8.9735   9.4043  11.3860  11.9576  13.2672
    16.8320  18.4212

          k = 0.2727 0.5774 0.0000 (  3288 PWs)   bands (ev):

   -32.8275   5.8444   6.0489   8.4904   9.2817  10.8956  11.6213  13.2740
    13.5372  18.0463

          k = 0.2727 0.5774 0.0875 (  3293 PWs)   bands (ev):

   -32.8275   5.9348   6.0446   8.4016   9.3715  10.0331  11.9304  13.3792
    14.7289  17.8370

          k = 0.2727 0.5774 0.1751 (  3297 PWs)   bands (ev):

   -32.8275   6.0247   6.1240   8.2228   9.3382   9.5497  11.5665  15.0247
    15.6632  17.7749

          k = 0.0000 0.1050-0.0875 (  3332 PWs)   bands (ev):

   -32.9805  -3.1258   0.6033   5.8235  13.0985  19.2916  21.7509  23.0206
    24.3150  25.9122

          k = 0.0000 0.1050-0.1751 (  3329 PWs)   bands (ev):

   -32.9805  -3.1147   0.4724   6.4789  11.5390  21.2542  22.5098  23.1840
    24.1206  25.2720

          k = 0.0000 0.2099-0.0875 (  3313 PWs)   bands (ev):

   -32.9491  -2.3418   1.3633   6.4507  13.6231  16.7175  19.5355  21.1000
    21.2348  24.1249

          k = 0.0000 0.2099-0.1751 (  3309 PWs)   bands (ev):

   -32.9491  -2.3226   1.1984   7.1988  11.9292  17.1055  19.6475  21.4089
    22.7127  23.5341

          k = 0.0000 0.3149-0.0875 (  3315 PWs)   bands (ev):

   -32.9079  -1.0436   2.6138   7.4717  12.8196  14.3081  16.4622  19.7346
    19.8959  22.1483

          k = 0.0000 0.3149-0.1751 (  3313 PWs)   bands (ev):

   -32.9079  -1.0112   2.3946   8.3650  12.3417  13.1143  16.2861  20.0783
    21.0676  22.1993

          k = 0.0000 0.4199-0.0875 (  3298 PWs)   bands (ev):

   -32.8698   0.7562   4.3077   8.7601   9.2327  12.6307  15.9596  17.1278
    19.0044  21.9604

          k = 0.0000 0.4199-0.1751 (  3310 PWs)   bands (ev):

   -32.8698   0.8063   4.0257   9.0762  10.1174  11.6863  14.9357  18.0685
    19.1925  21.3028

          k = 0.0000 0.5249-0.0875 (  3302 PWs)   bands (ev):

   -32.8471   3.0366   5.4391   7.0750   8.7940  11.2418  14.3189  17.6565
    18.5589  21.5231

          k = 0.0000 0.5249-0.1751 (  3302 PWs)   bands (ev):

   -32.8471   3.1068   5.4523   6.6612   8.6976  12.4755  14.9808  15.8559
    18.7501  19.7682

          k =-0.0909 0.2624-0.0875 (  3319 PWs)   bands (ev):

   -32.9226  -1.5616   2.1167   7.0752  14.0027  14.9274  17.4808  18.6813
    20.4198  22.0095

          k =-0.0909 0.2624-0.1751 (  3315 PWs)   bands (ev):

   -32.9226  -1.5345   1.9189   7.9134  12.2526  15.2036  17.3928  18.6207
    20.4241  23.8329

          k =-0.0909 0.3674-0.0875 (  3315 PWs)   bands (ev):

   -32.8830  -0.0124   3.5971   8.2679  11.1460  14.0987  15.0748  17.6529
    18.3421  20.2502

          k =-0.0909 0.3674-0.1751 (  3305 PWs)   bands (ev):

   -32.8830   0.0301   3.3386   9.2312  11.3611  12.4886  14.8767  17.2120
    19.0925  20.4542

          k =-0.0909 0.4724-0.0875 (  3307 PWs)   bands (ev):

   -32.8526   2.0288   5.4108   7.8711   9.3987  11.6254  15.0568  15.7449
    18.1367  19.1517

          k =-0.0909 0.4724-0.1751 (  3305 PWs)   bands (ev):

   -32.8526   2.0904   5.1264   7.8226   9.9811  11.7741  14.6010  16.3508
    17.3999  18.3734

          k =-0.1818 0.4199-0.0875 (  3308 PWs)   bands (ev):

   -32.8559   1.5214   5.0384   9.4242   9.9474  12.1540  13.5242  15.5336
    17.5811  18.0037

          k =-0.1818 0.4199-0.1751 (  3320 PWs)   bands (ev):

   -32.8559   1.5782   4.7320   9.7896  10.8292  12.3008  12.4483  14.7454
    17.0092  19.1496

          k =-0.1818 0.5249-0.0875 (  3305 PWs)   bands (ev):

   -32.8369   3.7904   6.1835   7.7719   9.4891  11.4640  12.6174  14.1524
    16.2176  18.7551

          k =-0.1818 0.5249-0.1751 (  3306 PWs)   bands (ev):

   -32.8369   3.8650   6.1844   7.3756   9.3683  12.0432  13.2056  14.2845
    16.2346  17.3875

     the Fermi energy is    12.6639 ev

!    total energy              =     -31.15855413 Ry
     estimated scf accuracy    <          4.7E-10 Ry
     smearing contrib. (-TS)   =       0.00074003 Ry
     internal energy E=F+TS    =     -31.15929416 Ry

     The total energy is F=E-TS. E is the sum of the following terms:
     one-electron contribution =       5.20967783 Ry
     hartree contribution      =       2.94422415 Ry
     xc contribution           =     -10.19633860 Ry
     ewald contribution        =     -29.11685754 Ry

     convergence has been achieved in   8 iterations

     Forces acting on atoms (cartesian axes, Ry/au):

     atom    1 type  1   force =     0.00000000    0.00000000    0.04530757
     atom    2 type  1   force =     0.00000000    0.00000000   -0.04530757
     atom    3 type  2   force =     0.00000000   -0.00000000    0.00000000
     The non-local contrib.  to forces
     atom    1 type  1   force =    -0.00000000   -0.00000000    0.13022844
     atom    2 type  1   force =     0.00000000    0.00000000   -0.13022844
     atom    3 type  2   force =     0.00000000    0.00000000    0.00000000
     The ionic contribution  to forces
     atom    1 type  1   force =     0.00000000   -0.00000000    0.17480741
     atom    2 type  1   force =    -0.00000000    0.00000000   -0.17480741
     atom    3 type  2   force =    -0.00000000    0.00000000    0.00000000
     The local contribution  to forces
     atom    1 type  1   force =    -0.00000001    0.00000001   -0.25374384
     atom    2 type  1   force =     0.00000001   -0.00000001    0.25374384
     atom    3 type  2   force =     0.00000000    0.00000000    0.00000000
     The core correction contribution to forces
     atom    1 type  1   force =    -0.00000000    0.00000000   -0.00595189
     atom    2 type  1   force =     0.00000000   -0.00000000    0.00595189
     atom    3 type  2   force =     0.00000000    0.00000000    0.00000000
     The Hubbard contrib.    to forces
     atom    1 type  1   force =     0.00000000    0.00000000    0.00000000
     atom    2 type  1   force =     0.00000000    0.00000000    0.00000000
     atom    3 type  2   force =     0.00000000    0.00000000    0.00000000
     The SCF correction term to forces
     atom    1 type  1   force =     0.00000000   -0.00000000   -0.00003255
     atom    2 type  1   force =    -0.00000000    0.00000000    0.00003255
     atom    3 type  2   force =    -0.00000000    0.00000000    0.00000000

     Total force =     0.064075     Total SCF correction =     0.000046


     Computing stress (Cartesian axis) and pressure

          total   stress  (Ry/bohr**3)                   (kbar)     P=      542.28
   0.00369717   0.00000000   0.00000000          543.87        0.00        0.00
   0.00000000   0.00369717   0.00000000            0.00      543.87        0.00
  -0.00000000  -0.00000000   0.00366466           -0.00       -0.00      539.09


     BFGS Geometry Optimization
     Energy error            =      0.0E+00 Ry
     Gradient error          =      4.5E-02 Ry/Bohr
     Cell gradient error     =      4.4E+01 kbar

     number of scf cycles    =   1
     number of bfgs steps    =   0

     enthalpy           new  =     -30.4919532953 Ry

     new trust radius        =       0.0453075732 bohr
ibrav =      4
 celldm(1) =      4.66235036
 celldm(3) =      2.28300071
Input lattice vectors:
     1.00745610     0.00000000    -0.00000000
    -0.50372805     0.87248257    -0.00000000
     0.00000000     0.00000000     2.30002298
New lattice vectors in INITIAL alat:
     1.00745610     0.00000000     0.00000000
    -0.50372805     0.87248257     0.00000000
     0.00000000     0.00000000     2.30002298
New lattice vectors in NEW alat (for information only):
     1.00000000     0.00000000     0.00000000
    -0.50000000     0.86602540     0.00000000
     0.00000000     0.00000000     2.28300071
Discrepancy in bohr =     0.000000    0.000000    0.000000
     new conv_thr            =       0.0000000100 Ry

     new unit-cell volume =    200.37863 a.u.^3 (    29.69305 Ang^3 )
     density =      3.52944 g/cm^3

CELL_PARAMETERS (alat=  4.62784471)
   1.007456095   0.000000000   0.000000000
  -0.503728048   0.872482572   0.000000000
   0.000000000   0.000000000   2.300022980

ATOMIC_POSITIONS (crystal)
Si            0.3333333300        0.6666666700        0.3185018485
Si            0.6666666700        0.3333333300        0.6814981515
Li           -0.0000000000       -0.0000000000        0.0000000000



     Writing config-only to output data dir ./output/SiLi.save/
     NEW-OLD atomic charge density approx. for the potential
     extrapolated charge   11.23362, renormalised to   11.00000

     total cpu time spent up to now is        8.8 secs

     Self-consistent Calculation

     iteration #  1     ecut=   100.00 Ry     beta= 0.70
     Davidson diagonalization with overlap
     c_bands:  1 eigenvalues not converged
     ethr =  1.00E-06,  avg # of iterations =  7.3

     total cpu time spent up to now is       10.0 secs

     total energy              =     -31.17494628 Ry
     estimated scf accuracy    <       0.00270702 Ry

     iteration #  2     ecut=   100.00 Ry     beta= 0.70
     Davidson diagonalization with overlap
     ethr =  2.46E-05,  avg # of iterations =  2.8

     total cpu time spent up to now is       10.7 secs

     total energy              =     -31.17497610 Ry
     estimated scf accuracy    <       0.01459109 Ry

     iteration #  3     ecut=   100.00 Ry     beta= 0.70
     Davidson diagonalization with overlap
     ethr =  2.46E-05,  avg # of iterations =  2.0

     total cpu time spent up to now is       11.3 secs

     total energy              =     -31.17700842 Ry
     estimated scf accuracy    <       0.00007475 Ry

     iteration #  4     ecut=   100.00 Ry     beta= 0.70
     Davidson diagonalization with overlap
     ethr =  6.80E-07,  avg # of iterations =  3.0

     total cpu time spent up to now is       11.9 secs

     total energy              =     -31.17702521 Ry
     estimated scf accuracy    <       0.00000542 Ry

     iteration #  5     ecut=   100.00 Ry     beta= 0.70
     Davidson diagonalization with overlap
     ethr =  4.92E-08,  avg # of iterations =  2.2

     total cpu time spent up to now is       12.5 secs

     total energy              =     -31.17702534 Ry
     estimated scf accuracy    <       0.00000180 Ry

     iteration #  6     ecut=   100.00 Ry     beta= 0.70
     Davidson diagonalization with overlap
     ethr =  1.64E-08,  avg # of iterations =  1.6

     total cpu time spent up to now is       13.0 secs

     total energy              =     -31.17702559 Ry
     estimated scf accuracy    <       0.00000003 Ry

     iteration #  7     ecut=   100.00 Ry     beta= 0.70
     Davidson diagonalization with overlap
     ethr =  2.39E-10,  avg # of iterations =  3.8

     total cpu time spent up to now is       13.6 secs

     total energy              =     -31.17702561 Ry
     estimated scf accuracy    <       0.00000002 Ry

     iteration #  8     ecut=   100.00 Ry     beta= 0.70
     Davidson diagonalization with overlap
     ethr =  2.17E-10,  avg # of iterations =  1.0

     total cpu time spent up to now is       14.0 secs

     End of self-consistent calculation

          k = 0.0000 0.0000 0.0000 (  3351 PWs)   bands (ev):

   -33.2809  -3.6410   0.3300   5.1034  14.0840  17.3223  24.4546  24.4546
    24.6058  24.6058

          k = 0.0000 0.0000 0.0870 (  3346 PWs)   bands (ev):

   -33.2809  -3.6358   0.2497   5.4247  12.7218  19.1329  24.4911  24.4911
    24.7045  24.7045

          k = 0.0000 0.0000 0.1739 (  3328 PWs)   bands (ev):

   -33.2809  -3.6273   0.1295   6.0373  11.2206  21.9741  24.5559  24.5559
    24.9066  24.9066

          k = 0.0000 0.1042 0.0000 (  3343 PWs)   bands (ev):

   -33.2702  -3.3837   0.5891   5.2992  14.3004  17.2759  21.0095  22.3299
    24.0309  25.3087

          k = 0.0000 0.1042 0.0870 (  3332 PWs)   bands (ev):

   -33.2701  -3.3771   0.5013   5.6350  12.8800  19.1238  21.0387  22.3981
    23.7778  25.1818

          k = 0.0000 0.1042 0.1739 (  3329 PWs)   bands (ev):

   -33.2701  -3.3662   0.3705   6.2769  11.3510  20.9019  22.0724  22.5348
    23.4082  25.1313

          k = 0.0000 0.2084 0.0000 (  3321 PWs)   bands (ev):

   -33.2413  -2.6140   1.3626   5.8850  14.7556  16.1687  18.2476  20.1476
    20.5614  24.1288

          k = 0.0000 0.2084 0.0870 (  3313 PWs)   bands (ev):

   -33.2413  -2.6033   1.2520   6.2653  13.1936  16.8250  19.5144  19.8355
    20.6354  23.6975

          k = 0.0000 0.2084 0.1739 (  3309 PWs)   bands (ev):

   -33.2413  -2.5855   1.0900   6.9951  11.6814  16.7533  19.4566  20.7806
    21.9273  23.1551

          k = 0.0000 0.3126 0.0000 (  3319 PWs)   bands (ev):

   -33.2033  -1.3391   2.6375   6.8482  12.1501  15.9869  16.4445  17.8432
    19.2347  20.8356

          k = 0.0000 0.3126 0.0870 (  3315 PWs)   bands (ev):

   -33.2033  -1.3218   2.4894   7.3061  11.8882  14.7692  16.2191  19.3123
    19.6689  21.0440

          k = 0.0000 0.3126 0.1739 (  3313 PWs)   bands (ev):

   -33.2033  -1.2928   2.2769   8.1846  11.5335  13.3065  16.0349  19.4640
    21.0049  21.8328

          k = 0.0000 0.4168 0.0000 (  3301 PWs)   bands (ev):

   -33.1684   0.4286   4.3760   8.0456   8.7802  12.6637  15.8721  17.7419
    18.3510  20.1233

          k = 0.0000 0.4168 0.0870 (  3298 PWs)   bands (ev):

   -33.1684   0.4539   4.1862   8.4344   8.8859  12.3277  15.3765  18.3581
    18.4310  19.8451

          k = 0.0000 0.4168 0.1739 (  3310 PWs)   bands (ev):

   -33.1684   0.4986   3.9058   8.6611   9.8392  11.4350  14.7134  18.3346
    18.5872  20.1665

          k = 0.0000 0.5210 0.0000 (  3314 PWs)   bands (ev):

   -33.1475   2.6640   5.2536   6.8044   9.3723   9.7844  13.8206  17.9096
    18.7961  20.9123

          k = 0.0000 0.5210 0.0870 (  3302 PWs)   bands (ev):

   -33.1475   2.6948   5.3600   6.4094   9.0313  10.7070  13.9592  17.9907
    18.3105  19.5252

          k = 0.0000 0.5210 0.1739 (  3302 PWs)   bands (ev):

   -33.1475   2.7609   5.3523   6.1382   8.6854  12.0517  14.4094  16.2258
    18.1492  19.0738

          k = 0.0902 0.1563 0.0000 (  3317 PWs)   bands (ev):

   -33.2503  -2.8702   1.1054   5.6904  14.6927  16.9311  18.9024  19.5407
    22.2175  23.0201

          k = 0.0902 0.1563 0.0870 (  3317 PWs)   bands (ev):

   -33.2503  -2.8608   1.0026   6.0530  13.1916  18.1571  18.9358  20.1082
    22.0332  22.7631

          k = 0.0902 0.1563 0.1739 (  3324 PWs)   bands (ev):

   -33.2503  -2.8454   0.8509   6.7534  11.6060  18.7806  18.9798  21.0747
    21.7854  23.6271

          k = 0.0902 0.2605 0.0000 (  3334 PWs)   bands (ev):

   -33.2169  -1.8478   2.1300   6.4683  14.0624  15.6648  17.0447  17.9028
    19.2531  21.3678

          k = 0.0902 0.2605 0.0870 (  3319 PWs)   bands (ev):

   -33.2169  -1.8331   1.9970   6.8893  13.1760  15.4632  16.8635  18.1371
    19.9435  21.4492

          k = 0.0902 0.2605 0.1739 (  3315 PWs)   bands (ev):

   -33.2169  -1.8086   1.8045   7.7060  11.9273  14.9548  17.0289  18.0025
    20.1266  23.7270

          k = 0.0902 0.3647 0.0000 (  3308 PWs)   bands (ev):

   -33.1805  -0.3261   3.6420   7.6051  10.5608  14.4269  15.6054  16.9115
    18.1991  19.6202

          k = 0.0902 0.3647 0.0870 (  3315 PWs)   bands (ev):

   -33.1805  -0.3040   3.4663   8.1170  10.4590  13.9713  15.4610  16.1145
    18.9172  19.8442

          k = 0.0902 0.3647 0.1739 (  3305 PWs)   bands (ev):

   -33.1805  -0.2663   3.2155   9.1054  10.4970  12.6169  14.8197  16.3196
    18.9272  20.4805

          k = 0.0902 0.4689 0.0000 (  3303 PWs)   bands (ev):

   -33.1526   1.6784   5.5193   7.2699   9.0748  11.2240  14.8129  15.1026
    18.9576  19.5011

          k = 0.0902 0.4689 0.0870 (  3307 PWs)   bands (ev):

   -33.1526   1.7080   5.3536   7.1792   9.5990  11.0678  14.8552  15.3101
    17.7524  19.6332

          k = 0.0902 0.4689 0.1739 (  3305 PWs)   bands (ev):

   -33.1526   1.7635   5.0306   7.2832  10.0904  11.1706  14.6254  15.5593
    17.1401  18.4442

          k = 0.0902 0.5731 0.0000 (  3312 PWs)   bands (ev):

   -33.1421   4.0010   4.2657   7.7450   8.7642  10.0682  13.4760  14.9024
    18.7851  21.1790

          k = 0.0902 0.5731 0.0870 (  3314 PWs)   bands (ev):

   -33.1421   4.0867   4.2501   7.6902   8.0003  11.2812  13.5958  14.9036
    18.1983  19.1851

          k = 0.0902 0.5731 0.1739 (  3305 PWs)   bands (ev):

   -33.1421   4.2120   4.2653   7.0903   7.8785  13.1101  13.7819  14.7822
    17.0655  17.3190

          k = 0.1805 0.3126 0.0000 (  3325 PWs)   bands (ev):

   -33.1850  -0.5785   3.3937   7.4338  12.8241  12.8630  16.2943  17.0007
    17.6229  19.4769

          k = 0.1805 0.3126 0.0870 (  3320 PWs)   bands (ev):

   -33.1850  -0.5575   3.2238   7.9070  12.6061  13.0501  14.9964  16.6064
    17.4375  20.4298

          k = 0.1805 0.3126 0.1739 (  3317 PWs)   bands (ev):

   -33.1850  -0.5221   2.9835   8.8534  12.1230  13.1959  13.7020  16.0396
    17.4673  22.0407

          k = 0.1805 0.4168 0.0000 (  3304 PWs)   bands (ev):

   -33.1556   1.1818   5.1128   8.6918   9.4455  11.8335  13.5529  15.7936
    16.5893  19.0743

          k = 0.1805 0.4168 0.0870 (  3308 PWs)   bands (ev):

   -33.1556   1.2104   4.9031   9.1428   9.4880  11.9760  13.1505  15.3668
    16.3695  18.9644

          k = 0.1805 0.4168 0.1739 (  3320 PWs)   bands (ev):

   -33.1556   1.2605   4.6026   9.3762  10.4417  11.9186  12.4738  14.2786
    16.5417  19.4429

          k = 0.1805 0.5210 0.0000 (  3300 PWs)   bands (ev):

   -33.1381   3.4084   5.9821   7.5145   9.9735  10.3539  11.8433  14.0059
    15.7600  19.3303

          k = 0.1805 0.5210 0.0870 (  3305 PWs)   bands (ev):

   -33.1381   3.4418   6.0813   7.1166   9.7047  11.0587  11.9431  14.3231
    15.4014  19.5310

          k = 0.1805 0.5210 0.1739 (  3306 PWs)   bands (ev):

   -33.1381   3.5110   6.0665   6.8529   9.3566  11.5213  12.8248  14.4514
    15.1932  17.7907

          k = 0.2707 0.4689 0.0000 (  3285 PWs)   bands (ev):

   -33.1366   3.1681   6.8849   8.5809   8.7960  10.2345  12.3539  13.4276
    14.6921  18.0970

          k = 0.2707 0.4689 0.0870 (  3296 PWs)   bands (ev):

   -33.1366   3.2052   6.6571   8.5802   8.8899  10.5332  12.2836  12.9284
    15.7437  17.7090

          k = 0.2707 0.4689 0.1739 (  3315 PWs)   bands (ev):

   -33.1366   3.2697   6.3476   8.6017   8.9545  11.1928  11.7136  12.9838
    16.5454  18.0563

          k = 0.2707 0.5731 0.0000 (  3288 PWs)   bands (ev):

   -33.1295   5.4864   5.7070   8.1394   9.1073  10.5602  11.3775  12.9880
    13.2861  17.7088

          k = 0.2707 0.5731 0.0870 (  3293 PWs)   bands (ev):

   -33.1295   5.5675   5.7036   8.0804   9.1728   9.7391  11.6727  13.1082
    14.4260  17.5141

          k = 0.2707 0.5731 0.1739 (  3297 PWs)   bands (ev):

   -33.1295   5.6892   5.7293   7.9577   9.1295   9.2219  11.3535  14.7069
    15.3547  17.4717

          k = 0.0000 0.1042-0.0870 (  3332 PWs)   bands (ev):

   -33.2701  -3.3771   0.5013   5.6340  12.8958  18.9618  21.1896  22.4046
    23.9003  25.2857

          k = 0.0000 0.1042-0.1739 (  3329 PWs)   bands (ev):

   -33.2701  -3.3662   0.3705   6.2760  11.3565  20.7198  22.1381  22.5398
    23.7108  24.8836

          k = 0.0000 0.2084-0.0870 (  3313 PWs)   bands (ev):

   -33.2413  -2.6034   1.2524   6.2570  13.4119  16.2380  19.2276  20.6380
    20.7015  23.7035

          k = 0.0000 0.2084-0.1739 (  3309 PWs)   bands (ev):

   -33.2413  -2.5856   1.0902   6.9865  11.7447  16.5779  19.3519  20.7825
    22.2824  23.1561

          k = 0.0000 0.3126-0.0870 (  3315 PWs)   bands (ev):

   -33.2033  -1.3218   2.4892   7.2709  12.3630  14.0842  16.1848  19.3135
    19.3668  21.7832

          k = 0.0000 0.3126-0.1739 (  3313 PWs)   bands (ev):

   -33.2033  -1.2928   2.2767   8.1370  12.0958  12.7043  16.0098  19.4648
    20.6410  21.8348

          k = 0.0000 0.4168-0.0870 (  3298 PWs)   bands (ev):

   -33.1684   0.4554   4.1668   8.5449   8.8204  12.3984  15.6792  16.8083
    18.4315  21.5560

          k = 0.0000 0.4168-0.1739 (  3310 PWs)   bands (ev):

   -33.1684   0.4995   3.8958   8.6891   9.8285  11.5025  14.6740  17.7007
    18.5875  20.9481

          k = 0.0000 0.5210-0.0870 (  3302 PWs)   bands (ev):

   -33.1475   2.7081   5.1612   6.8110   8.6003  11.0026  14.0253  17.3305
    17.9908  21.1218

          k = 0.0000 0.5210-0.1739 (  3302 PWs)   bands (ev):

   -33.1475   2.7702   5.1912   6.3930   8.5165  12.2013  14.6688  15.5692
    18.1493  19.5309

          k =-0.0902 0.2605-0.0870 (  3319 PWs)   bands (ev):

   -33.2169  -1.8332   1.9972   6.8774  13.7731  14.4526  17.0629  18.3142
    20.0590  21.5288

          k =-0.0902 0.2605-0.1739 (  3315 PWs)   bands (ev):

   -33.2169  -1.8087   1.8046   7.6920  12.0617  14.7060  16.9814  18.1996
    20.0944  23.3602

          k =-0.0902 0.3647-0.0870 (  3315 PWs)   bands (ev):

   -33.1805  -0.3037   3.4622   8.0614  10.7080  13.8608  14.7379  17.2200
    17.9910  19.8893

          k =-0.0902 0.3647-0.1739 (  3305 PWs)   bands (ev):

   -33.1805  -0.2660   3.2132   8.9864  10.9041  12.3160  14.5769  16.7147
    18.7598  20.0677

          k =-0.0902 0.4689-0.0870 (  3307 PWs)   bands (ev):

   -33.1526   1.7125   5.2549   7.4715   9.1909  11.3965  14.6602  15.4059
    17.7506  18.8347

          k =-0.0902 0.4689-0.1739 (  3305 PWs)   bands (ev):

   -33.1526   1.7666   4.9858   7.4171   9.7792  11.5263  14.2630  15.9968
    16.9400  18.0997

          k =-0.1805 0.4168-0.0870 (  3308 PWs)   bands (ev):

   -33.1556   1.2114   4.8885   9.1996   9.5367  11.7659  13.2427  15.2342
    17.2751  17.6493

          k =-0.1805 0.4168-0.1739 (  3320 PWs)   bands (ev):

   -33.1556   1.2612   4.5953   9.3972  10.5324  11.9066  12.2357  14.4587
    16.6904  18.7713

          k =-0.1805 0.5210-0.0870 (  3305 PWs)   bands (ev):

   -33.1381   3.4534   5.8954   7.5024   9.2860  11.1636  12.2236  13.8892
    15.8934  18.4390

          k =-0.1805 0.5210-0.1739 (  3306 PWs)   bands (ev):

   -33.1381   3.5192   5.9165   7.0978   9.1802  11.6060  12.9271  14.0269
    15.9121  17.0697

     the Fermi energy is    12.3704 ev

!    total energy              =     -31.17702561 Ry
     estimated scf accuracy    <          1.1E-09 Ry
     smearing contrib. (-TS)   =       0.00045447 Ry
     internal energy E=F+TS    =     -31.17748008 Ry

     The total energy is F=E-TS. E is the sum of the following terms:
     one-electron contribution =       4.96050140 Ry
     hartree contribution      =       2.94158487 Ry
     xc contribution           =     -10.16549521 Ry
     ewald contribution        =     -28.91407114 Ry

     convergence has been achieved in   8 iterations

     Forces acting on atoms (cartesian axes, Ry/au):

     atom    1 type  1   force =     0.00000000    0.00000000    0.03063521
     atom    2 type  1   force =     0.00000000    0.00000000   -0.03063521
     atom    3 type  2   force =     0.00000000   -0.00000000    0.00000000
     The non-local contrib.  to forces
     atom    1 type  1   force =    -0.00000000    0.00000000    0.11430734
     atom    2 type  1   force =     0.00000000    0.00000000   -0.11430734
     atom    3 type  2   force =    -0.00000000    0.00000000    0.00000000
     The ionic contribution  to forces
     atom    1 type  1   force =     0.00000000   -0.00000000   -0.06104427
     atom    2 type  1   force =    -0.00000000    0.00000000    0.06104427
     atom    3 type  2   force =    -0.00000000   -0.00000000    0.00000000
     The local contribution  to forces
     atom    1 type  1   force =    -0.00000001    0.00000001   -0.01790826
     atom    2 type  1   force =     0.00000001   -0.00000001    0.01790826
     atom    3 type  2   force =     0.00000000    0.00000000    0.00000000
     The core correction contribution to forces
     atom    1 type  1   force =    -0.00000000    0.00000000   -0.00466634
     atom    2 type  1   force =     0.00000000   -0.00000000    0.00466634
     atom    3 type  2   force =     0.00000000    0.00000000    0.00000000
     The Hubbard contrib.    to forces
     atom    1 type  1   force =     0.00000000    0.00000000    0.00000000
     atom    2 type  1   force =     0.00000000    0.00000000    0.00000000
     atom    3 type  2   force =     0.00000000    0.00000000    0.00000000
     The SCF correction term to forces
     atom    1 type  1   force =     0.00000000   -0.00000000   -0.00005325
     atom    2 type  1   force =    -0.00000000    0.00000000    0.00005325
     atom    3 type  2   force =     0.00000000    0.00000000    0.00000000

     Total force =     0.043325     Total SCF correction =     0.000075


     Computing stress (Cartesian axis) and pressure

          total   stress  (Ry/bohr**3)                   (kbar)     P=      496.55
   0.00339116   0.00000000  -0.00000000          498.86        0.00       -0.00
   0.00000000   0.00339116  -0.00000000            0.00      498.86       -0.00
  -0.00000000  -0.00000000   0.00334408           -0.00       -0.00      491.93

     Energy error            =      4.0E-03 Ry
     Gradient error          =      3.1E-02 Ry/Bohr
     Cell gradient error     =      8.1E+00 kbar

     number of scf cycles    =   2
     number of bfgs steps    =   1

     enthalpy           old  =     -30.4919532953 Ry
     enthalpy           new  =     -30.4959525019 Ry

     CASE: enthalpy          _new < enthalpy          _old

     new trust radius        =       0.0501694236 bohr
ibrav =      4
 celldm(1) =      4.67015326
 celldm(3) =      2.27918469
Input lattice vectors:
     1.00914217     0.00000000    -0.00000000
    -0.50457109     0.87394276    -0.00000000
    -0.00000000    -0.00000000     2.30002138
New lattice vectors in INITIAL alat:
     1.00914217     0.00000000     0.00000000
    -0.50457109     0.87394276     0.00000000
     0.00000000     0.00000000     2.30002138
New lattice vectors in NEW alat (for information only):
     1.00000000     0.00000000     0.00000000
    -0.50000000     0.86602540     0.00000000
     0.00000000     0.00000000     2.27918469
Discrepancy in bohr =     0.000000    0.000000    0.000000
     new conv_thr            =       0.0000000031 Ry

     new unit-cell volume =    201.04975 a.u.^3 (    29.79250 Ang^3 )
     density =      3.51766 g/cm^3

CELL_PARAMETERS (alat=  4.62784471)
   1.009142171   0.000000000   0.000000000
  -0.504571085   0.873942756   0.000000000
   0.000000000   0.000000000   2.300021383

ATOMIC_POSITIONS (crystal)
Si            0.3333333300        0.6666666700        0.3232151819
Si            0.6666666700        0.3333333300        0.6767848181
Li            0.0000000000       -0.0000000000        0.0000000000



     Writing config-only to output data dir ./output/SiLi.save/
     NEW-OLD atomic charge density approx. for the potential
     extrapolated charge   11.03670, renormalised to   11.00000

     total cpu time spent up to now is       15.4 secs

     Self-consistent Calculation

     iteration #  1     ecut=   100.00 Ry     beta= 0.70
     Davidson diagonalization with overlap
     c_bands:  1 eigenvalues not converged
     ethr =  1.00E-06,  avg # of iterations =  7.7

     total cpu time spent up to now is       16.5 secs

     total energy              =     -31.18013890 Ry
     estimated scf accuracy    <       0.00209504 Ry

     iteration #  2     ecut=   100.00 Ry     beta= 0.70
     Davidson diagonalization with overlap
     ethr =  1.90E-05,  avg # of iterations =  2.7

     total cpu time spent up to now is       17.1 secs

     total energy              =     -31.17997797 Ry
     estimated scf accuracy    <       0.00900471 Ry

     iteration #  3     ecut=   100.00 Ry     beta= 0.70
     Davidson diagonalization with overlap
     ethr =  1.90E-05,  avg # of iterations =  2.0

     total cpu time spent up to now is       17.6 secs

     total energy              =     -31.18140499 Ry
     estimated scf accuracy    <       0.00000255 Ry

     iteration #  4     ecut=   100.00 Ry     beta= 0.70
     Davidson diagonalization with overlap
     ethr =  2.32E-08,  avg # of iterations =  4.3

     total cpu time spent up to now is       18.2 secs

     total energy              =     -31.18141102 Ry
     estimated scf accuracy    <       0.00000286 Ry

     iteration #  5     ecut=   100.00 Ry     beta= 0.70
     Davidson diagonalization with overlap
     ethr =  2.32E-08,  avg # of iterations =  1.8

     total cpu time spent up to now is       18.7 secs

     total energy              =     -31.18141161 Ry
     estimated scf accuracy    <       0.00000007 Ry

     iteration #  6     ecut=   100.00 Ry     beta= 0.70
     Davidson diagonalization with overlap
     ethr =  6.16E-10,  avg # of iterations =  1.9

     total cpu time spent up to now is       19.2 secs

     End of self-consistent calculation

          k = 0.0000 0.0000 0.0000 (  3351 PWs)   bands (ev):

   -33.3279  -3.8238   0.3933   5.1126  14.1825  17.3210  24.1343  24.1343
    24.4030  24.4030

          k = 0.0000 0.0000 0.0870 (  3346 PWs)   bands (ev):

   -33.3279  -3.8197   0.3149   5.4284  12.8046  19.1535  24.1649  24.1649
    24.4901  24.4902

          k = 0.0000 0.0000 0.1739 (  3328 PWs)   bands (ev):

   -33.3279  -3.8129   0.1978   6.0270  11.3097  22.0083  24.2178  24.2178
    24.6617  24.6617

          k = 0.0000 0.1040 0.0000 (  3343 PWs)   bands (ev):

   -33.3174  -3.5670   0.6514   5.3087  14.3932  17.2732  20.7658  22.0713
    23.9322  25.1676

          k = 0.0000 0.1040 0.0870 (  3332 PWs)   bands (ev):

   -33.3174  -3.5617   0.5658   5.6387  12.9583  19.1419  20.7775  22.1291
    23.7245  25.0300

          k = 0.0000 0.1040 0.1739 (  3329 PWs)   bands (ev):

   -33.3174  -3.5528   0.4386   6.2659  11.4379  20.6605  22.0525  22.2418
    23.3896  25.0200

          k = 0.0000 0.2080 0.0000 (  3321 PWs)   bands (ev):

   -33.2893  -2.7990   1.4220   5.8952  14.7571  16.1142  18.1614  20.1171
    20.3091  23.6243

          k = 0.0000 0.2080 0.0870 (  3313 PWs)   bands (ev):

   -33.2893  -2.7900   1.3146   6.2693  13.2351  16.6427  19.4920  19.8242
    20.3722  23.5591

          k = 0.0000 0.2080 0.1739 (  3309 PWs)   bands (ev):

   -33.2893  -2.7752   1.1575   6.9821  11.7555  16.5117  19.4931  20.4922
    21.8160  23.1878

          k = 0.0000 0.3121 0.0000 (  3319 PWs)   bands (ev):

   -33.2524  -1.5267   2.6921   6.8602  11.9413  16.0302  16.5142  17.7719
    18.9868  20.8365

          k = 0.0000 0.3121 0.0870 (  3315 PWs)   bands (ev):

   -33.2524  -1.5120   2.5485   7.3116  11.7137  14.7709  16.2579  19.0532
    19.5790  21.0360

          k = 0.0000 0.3121 0.1739 (  3313 PWs)   bands (ev):

   -33.2524  -1.4874   2.3432   8.1686  11.4549  13.2237  16.0765  19.1786
    20.8248  21.8694

          k = 0.0000 0.4161 0.0000 (  3301 PWs)   bands (ev):

   -33.2184   0.2376   4.4209   8.0453   8.5880  12.6902  15.8572  17.7322
    18.1061  20.1500

          k = 0.0000 0.4161 0.0870 (  3298 PWs)   bands (ev):

   -33.2183   0.2593   4.2384   8.3107   8.8165  12.3379  15.4142  18.1746
    18.3246  19.7287

          k = 0.0000 0.4161 0.1739 (  3310 PWs)   bands (ev):

   -33.2183   0.2972   3.9687   8.4501   9.8326  11.4651  14.7659  18.2521
    18.3036  20.1059

          k = 0.0000 0.5201 0.0000 (  3314 PWs)   bands (ev):

   -33.1981   2.4694   5.0737   6.8362   9.3711   9.8200  13.8054  17.6662
    18.6451  21.0031

          k = 0.0000 0.5201 0.0870 (  3302 PWs)   bands (ev):

   -33.1981   2.4963   5.1604   6.4593   9.0857  10.6800  13.9568  17.7357
    18.2020  19.5526

          k = 0.0000 0.5201 0.1739 (  3302 PWs)   bands (ev):

   -33.1981   2.5527   5.1684   6.1743   8.7468  12.0085  14.4235  16.1770
    17.8666  19.1338

          k = 0.0901 0.1560 0.0000 (  3317 PWs)   bands (ev):

   -33.2982  -3.0546   1.1658   5.7003  14.7625  16.8947  18.6947  19.3396
    22.2259  22.9631

          k = 0.0901 0.1560 0.0870 (  3317 PWs)   bands (ev):

   -33.2981  -3.0469   1.0659   6.0567  13.2591  18.0070  18.7049  20.0550
    22.0532  22.7074

          k = 0.0901 0.1560 0.1739 (  3324 PWs)   bands (ev):

   -33.2981  -3.0340   0.9186   6.7410  11.6877  18.5328  18.7136  21.1422
    21.8337  23.5745

          k = 0.0901 0.2601 0.0000 (  3334 PWs)   bands (ev):

   -33.2656  -2.0344   2.1866   6.4794  13.8741  15.6491  16.9666  17.9126
    19.1829  21.3323

          k = 0.0901 0.2601 0.0870 (  3319 PWs)   bands (ev):

   -33.2656  -2.0219   2.0575   6.8936  13.1171  15.3645  16.6428  18.1726
    19.9855  21.3976

          k = 0.0901 0.2601 0.1739 (  3315 PWs)   bands (ev):

   -33.2656  -2.0013   1.8713   7.6909  11.9726  14.7436  16.8131  18.0210
    20.1845  23.6363

          k = 0.0901 0.3641 0.0000 (  3308 PWs)   bands (ev):

   -33.2301  -0.5158   3.6922   7.6190  10.3491  14.4157  15.4514  16.9370
    18.2312  19.6527

          k = 0.0901 0.3641 0.0870 (  3315 PWs)   bands (ev):

   -33.2301  -0.4968   3.5222   8.1248  10.2550  13.9711  15.3686  16.0518
    18.9421  19.8640

          k = 0.0901 0.3641 0.1739 (  3305 PWs)   bands (ev):

   -33.2301  -0.4648   3.2804   9.0845  10.3061  12.6452  14.7881  16.1680
    18.9868  20.3901

          k = 0.0901 0.4681 0.0000 (  3303 PWs)   bands (ev):

   -33.2030   1.4851   5.5352   7.1099   9.0690  11.2499  14.7994  14.8946
    18.9909  19.5788

          k = 0.0901 0.4681 0.0870 (  3307 PWs)   bands (ev):

   -33.2030   1.5106   5.3898   6.9953   9.6234  11.0592  14.7871  15.1659
    17.8062  19.6276

          k = 0.0901 0.4681 0.1739 (  3305 PWs)   bands (ev):

   -33.2030   1.5578   5.0828   7.0784  10.1646  11.1174  14.5410  15.4646
    17.1606  18.4070

          k = 0.0901 0.5721 0.0000 (  3312 PWs)   bands (ev):

   -33.1928   3.8079   4.0668   7.8024   8.7719  10.0828  13.4667  14.6841
    18.8189  21.0978

          k = 0.0901 0.5721 0.0870 (  3314 PWs)   bands (ev):

   -33.1928   3.8835   4.0523   7.7431   8.0387  11.2730  13.5810  14.6902
    18.2415  19.1571

          k = 0.0901 0.5721 0.1739 (  3305 PWs)   bands (ev):

   -33.1928   4.0144   4.0396   7.1612   7.9295  13.0672  13.7448  14.6152
    17.0932  17.3158

          k = 0.1802 0.3121 0.0000 (  3325 PWs)   bands (ev):

   -33.2345  -0.7677   3.4453   7.4463  12.6298  12.6352  16.3205  17.0400
    17.7500  19.4707

          k = 0.1802 0.3121 0.0870 (  3320 PWs)   bands (ev):

   -33.2345  -0.7497   3.2808   7.9114  12.4289  12.8185  15.0117  16.6457
    17.5010  20.3898

          k = 0.1802 0.3121 0.1739 (  3317 PWs)   bands (ev):

   -33.2345  -0.7197   3.0490   8.8341  12.0574  12.9592  13.6067  16.0994
    17.5221  21.9724

          k = 0.1802 0.4161 0.0000 (  3304 PWs)   bands (ev):

   -33.2059   0.9891   5.1540   8.7011   9.2433  11.6382  13.5663  15.8070
    16.6124  19.0969

          k = 0.1802 0.4161 0.0870 (  3308 PWs)   bands (ev):

   -33.2059   1.0137   4.9525   9.0354   9.3971  11.7745  13.1464  15.4184
    16.4130  18.9439

          k = 0.1802 0.4161 0.1739 (  3320 PWs)   bands (ev):

   -33.2059   1.0563   4.6638   9.1644  10.4138  11.8333  12.3634  14.3610
    16.6086  19.3565

          k = 0.1802 0.5201 0.0000 (  3300 PWs)   bands (ev):

   -33.1889   3.2118   5.7998   7.5412   9.9478  10.3632  11.6915  13.9965
    15.7934  19.2830

          k = 0.1802 0.5201 0.0870 (  3305 PWs)   bands (ev):

   -33.1889   3.2409   5.8813   7.1601   9.7456  10.9616  11.8169  14.3391
    15.4295  19.5033

          k = 0.1802 0.5201 0.1739 (  3306 PWs)   bands (ev):

   -33.1889   3.3000   5.8855   6.8792   9.4107  11.3216  12.7654  14.5123
    15.2121  17.7761

          k = 0.2703 0.4681 0.0000 (  3285 PWs)   bands (ev):

   -33.1874   2.9714   6.8756   8.3927   8.6428  10.2273  12.3816  13.4577
    14.7048  18.0381

          k = 0.2703 0.4681 0.0870 (  3296 PWs)   bands (ev):

   -33.1874   3.0035   6.6687   8.3837   8.7029  10.5562  12.3028  12.9660
    15.7574  17.6701

          k = 0.2703 0.4681 0.1739 (  3315 PWs)   bands (ev):

   -33.1874   3.0584   6.3837   8.3989   8.7353  11.2458  11.7634  12.9754
    16.6145  18.0030

          k = 0.2703 0.5721 0.0000 (  3288 PWs)   bands (ev):

   -33.1805   5.2858   5.5077   7.9480   9.1679  10.5590  11.3781  13.0266
    13.2974  17.6553

          k = 0.2703 0.5721 0.0870 (  3293 PWs)   bands (ev):

   -33.1805   5.3569   5.5042   7.9098   9.2191   9.7439  11.6962  13.1280
    14.4249  17.4699

          k = 0.2703 0.5721 0.1739 (  3297 PWs)   bands (ev):

   -33.1805   5.4848   5.5014   7.8338   9.1571   9.2123  11.4125  14.6965
    15.3327  17.4761

          k = 0.0000 0.1040-0.0870 (  3332 PWs)   bands (ev):

   -33.3174  -3.5617   0.5659   5.6377  12.9753  18.9456  20.9809  22.1351
    23.8171  25.1146

          k = 0.0000 0.1040-0.1739 (  3329 PWs)   bands (ev):

   -33.3174  -3.5528   0.4386   6.2650  11.4437  20.4860  22.1618  22.2462
    23.6277  24.9067

          k = 0.0000 0.2080-0.0870 (  3313 PWs)   bands (ev):

   -33.2893  -2.7901   1.3151   6.2606  13.4798  16.0254  19.2754  20.3748
    20.6430  23.7076

          k = 0.0000 0.2080-0.1739 (  3309 PWs)   bands (ev):

   -33.2893  -2.7753   1.1577   6.9733  11.8243  16.3297  19.3999  20.4941
    22.1901  23.1884

          k = 0.0000 0.3121-0.0870 (  3315 PWs)   bands (ev):

   -33.2524  -1.5120   2.5485   7.2743  12.1363  14.1430  16.2175  19.0544
    19.3371  21.7728

          k = 0.0000 0.3121-0.1739 (  3313 PWs)   bands (ev):

   -33.2524  -1.4875   2.3431   8.1194  12.0127  12.6286  16.0501  19.1794
    20.5480  21.8711

          k = 0.0000 0.4161-0.0870 (  3298 PWs)   bands (ev):

   -33.2183   0.2605   4.2189   8.5009   8.6564  12.4454  15.6501  16.8239
    18.1751  21.1548

          k = 0.0000 0.4161-0.1739 (  3310 PWs)   bands (ev):

   -33.2183   0.2980   3.9588   8.4896   9.7853  11.5702  14.7038  17.6486
    18.3040  20.9869

          k = 0.0000 0.5201-0.0870 (  3302 PWs)   bands (ev):

   -33.1981   2.5073   5.0075   6.8070   8.6403  11.0180  13.9904  17.2923
    17.7359  20.9075

          k = 0.0000 0.5201-0.1739 (  3302 PWs)   bands (ev):

   -33.1981   2.5603   5.0478   6.3838   8.5762  12.1874  14.6121  15.5834
    17.8667  19.6122

          k =-0.0901 0.2601-0.0870 (  3319 PWs)   bands (ev):

   -33.2656  -2.0220   2.0578   6.8811  13.8001  14.2427  16.9039  18.3432
    20.0560  21.4558

          k =-0.0901 0.2601-0.1739 (  3315 PWs)   bands (ev):

   -33.2656  -2.0013   1.8715   7.6766  12.1248  14.4714  16.8097  18.1856
    20.1401  23.2763

          k =-0.0901 0.3641-0.0870 (  3315 PWs)   bands (ev):

   -33.2301  -0.4966   3.5184   8.0644  10.4879  13.9100  14.6320  17.1644
    17.9575  19.9131

          k =-0.0901 0.3641-0.1739 (  3305 PWs)   bands (ev):

   -33.2301  -0.4646   3.2784   8.9568  10.6710  12.3989  14.5300  16.5770
    18.7773  20.0355

          k =-0.0901 0.4681-0.0870 (  3307 PWs)   bands (ev):

   -33.2030   1.5143   5.2823   7.2814   9.2074  11.4321  14.4918  15.3658
    17.7287  18.8857

          k =-0.0901 0.4681-0.1739 (  3305 PWs)   bands (ev):

   -33.2030   1.5603   5.0344   7.2091   9.8212  11.5299  14.1430  15.9810
    16.8190  18.1646

          k =-0.1802 0.4161-0.0870 (  3308 PWs)   bands (ev):

   -33.2059   1.0145   4.9376   9.1534   9.3747  11.5758  13.2706  15.2542
    17.3123  17.6395

          k =-0.1802 0.4161-0.1739 (  3320 PWs)   bands (ev):

   -33.2059   1.0569   4.6565   9.1963  10.4842  11.7112  12.2901  14.4969
    16.7488  18.7223

          k =-0.1802 0.5201-0.0870 (  3305 PWs)   bands (ev):

   -33.1889   3.2506   5.7386   7.4948   9.3155  11.0509  12.1465  13.8991
    15.8985  18.4665

          k =-0.1802 0.5201-0.1739 (  3306 PWs)   bands (ev):

   -33.1889   3.3067   5.7726   7.0819   9.2325  11.3912  12.9135  14.0698
    15.8823  17.1178

     the Fermi energy is    12.3575 ev

!    total energy              =     -31.18141162 Ry
     estimated scf accuracy    <          6.2E-11 Ry
     smearing contrib. (-TS)   =       0.00011019 Ry
     internal energy E=F+TS    =     -31.18152181 Ry

     The total energy is F=E-TS. E is the sum of the following terms:
     one-electron contribution =       4.90692923 Ry
     hartree contribution      =       2.94420220 Ry
     xc contribution           =     -10.17001024 Ry
     ewald contribution        =     -28.86264300 Ry

     convergence has been achieved in   6 iterations

     Forces acting on atoms (cartesian axes, Ry/au):

     atom    1 type  1   force =     0.00000000    0.00000000    0.01090316
     atom    2 type  1   force =    -0.00000000   -0.00000000   -0.01090316
     atom    3 type  2   force =     0.00000000   -0.00000000    0.00000000
     The non-local contrib.  to forces
     atom    1 type  1   force =     0.00000000    0.00000000    0.09368801
     atom    2 type  1   force =     0.00000000   -0.00000000   -0.09368801
     atom    3 type  2   force =    -0.00000000    0.00000000    0.00000000
     The ionic contribution  to forces
     atom    1 type  1   force =     0.00000001   -0.00000000   -0.31541320
     atom    2 type  1   force =    -0.00000001    0.00000000    0.31541320
     atom    3 type  2   force =    -0.00000000    0.00000000    0.00000000
     The local contribution  to forces
     atom    1 type  1   force =    -0.00000001    0.00000000    0.23551165
     atom    2 type  1   force =     0.00000001   -0.00000000   -0.23551165
     atom    3 type  2   force =     0.00000000    0.00000000    0.00000000
     The core correction contribution to forces
     atom    1 type  1   force =    -0.00000000    0.00000000   -0.00288432
     atom    2 type  1   force =     0.00000000   -0.00000000    0.00288432
     atom    3 type  2   force =     0.00000000    0.00000000    0.00000000
     The Hubbard contrib.    to forces
     atom    1 type  1   force =     0.00000000    0.00000000    0.00000000
     atom    2 type  1   force =     0.00000000    0.00000000    0.00000000
     atom    3 type  2   force =     0.00000000    0.00000000    0.00000000
     The SCF correction term to forces
     atom    1 type  1   force =    -0.00000000    0.00000000    0.00000102
     atom    2 type  1   force =     0.00000000   -0.00000000   -0.00000102
     atom    3 type  2   force =    -0.00000000   -0.00000000   -0.00000000

     Total force =     0.015419     Total SCF correction =     0.000001


     Computing stress (Cartesian axis) and pressure

          total   stress  (Ry/bohr**3)                   (kbar)     P=      499.62
   0.00339934   0.00000000  -0.00000000          500.06        0.00       -0.00
   0.00000000   0.00339934  -0.00000000            0.00      500.06       -0.00
   0.00000000   0.00000000   0.00339038            0.00        0.00      498.74

     Energy error            =      2.1E-03 Ry
     Gradient error          =      1.1E-02 Ry/Bohr
     Cell gradient error     =      1.3E+00 kbar

     number of scf cycles    =   3
     number of bfgs steps    =   2

     enthalpy           old  =     -30.4959525019 Ry
     enthalpy           new  =     -30.4980573952 Ry

     CASE: enthalpy          _new < enthalpy          _old

     new trust radius        =       0.0278983637 bohr
ibrav =      4
 celldm(1) =      4.67482210
 celldm(3) =      2.27774664
Input lattice vectors:
     1.01015103     0.00000000     0.00000000
    -0.50507552     0.87481645     0.00000000
    -0.00000000    -0.00000000     2.30086811
New lattice vectors in INITIAL alat:
     1.01015103     0.00000000     0.00000000
    -0.50507552     0.87481645     0.00000000
     0.00000000     0.00000000     2.30086811
New lattice vectors in NEW alat (for information only):
     1.00000000     0.00000000     0.00000000
    -0.50000000     0.86602540     0.00000000
     0.00000000     0.00000000     2.27774664
Discrepancy in bohr =     0.000000    0.000000    0.000000
     new conv_thr            =       0.0000000011 Ry

     new unit-cell volume =    201.52611 a.u.^3 (    29.86309 Ang^3 )
     density =      3.50935 g/cm^3

CELL_PARAMETERS (alat=  4.62784471)
   1.010151030   0.000000000   0.000000000
  -0.505075515   0.874816454   0.000000000
   0.000000000   0.000000000   2.300868113

ATOMIC_POSITIONS (crystal)
Si            0.3333333300        0.6666666700        0.3258361883
Si            0.6666666700        0.3333333300        0.6741638117
Li            0.0000000000       -0.0000000000        0.0000000000



     Writing config-only to output data dir ./output/SiLi.save/
     NEW-OLD atomic charge density approx. for the potential
     extrapolated charge   11.02599, renormalised to   11.00000

     total cpu time spent up to now is       20.5 secs

     Self-consistent Calculation

     iteration #  1     ecut=   100.00 Ry     beta= 0.70
     Davidson diagonalization with overlap
     ethr =  1.00E-06,  avg # of iterations =  6.0

     total cpu time spent up to now is       21.4 secs

     total energy              =     -31.18294984 Ry
     estimated scf accuracy    <       0.00059249 Ry

     iteration #  2     ecut=   100.00 Ry     beta= 0.70
     Davidson diagonalization with overlap
     ethr =  5.39E-06,  avg # of iterations =  2.6

     total cpu time spent up to now is       22.0 secs

     total energy              =     -31.18291485 Ry
     estimated scf accuracy    <       0.00240748 Ry

     iteration #  3     ecut=   100.00 Ry     beta= 0.70
     Davidson diagonalization with overlap
     ethr =  5.39E-06,  avg # of iterations =  2.1

     total cpu time spent up to now is       22.5 secs

     total energy              =     -31.18330212 Ry
     estimated scf accuracy    <       0.00000066 Ry

     iteration #  4     ecut=   100.00 Ry     beta= 0.70
     Davidson diagonalization with overlap
     ethr =  6.01E-09,  avg # of iterations =  4.0

     total cpu time spent up to now is       23.1 secs

     total energy              =     -31.18330353 Ry
     estimated scf accuracy    <       0.00000071 Ry

     iteration #  5     ecut=   100.00 Ry     beta= 0.70
     Davidson diagonalization with overlap
     ethr =  6.01E-09,  avg # of iterations =  1.9

     total cpu time spent up to now is       23.6 secs

     total energy              =     -31.18330368 Ry
     estimated scf accuracy    <       0.00000002 Ry

     iteration #  6     ecut=   100.00 Ry     beta= 0.70
     Davidson diagonalization with overlap
     ethr =  2.04E-10,  avg # of iterations =  1.8

     total cpu time spent up to now is       24.1 secs

     End of self-consistent calculation

          k = 0.0000 0.0000 0.0000 (  3351 PWs)   bands (ev):

   -33.3624  -3.9323   0.4223   5.1145  14.2221  17.3062  23.9407  23.9407
    24.2752  24.2752

          k = 0.0000 0.0000 0.0869 (  3346 PWs)   bands (ev):

   -33.3624  -3.9286   0.3452   5.4269  12.8370  19.1491  23.9682  23.9682
    24.3560  24.3560

          k = 0.0000 0.0000 0.1738 (  3328 PWs)   bands (ev):

   -33.3624  -3.9226   0.2299   6.0178  11.3465  22.0115  24.0154  24.0154
    24.5118  24.5118

          k = 0.0000 0.1039 0.0000 (  3343 PWs)   bands (ev):

   -33.3521  -3.6758   0.6799   5.3108  14.4293  17.2580  20.6161  21.9117
    23.8576  25.0840

          k = 0.0000 0.1039 0.0869 (  3332 PWs)   bands (ev):

   -33.3521  -3.6711   0.5957   5.6373  12.9881  19.1364  20.6176  21.9641
    23.6783  24.9389

          k = 0.0000 0.1039 0.1738 (  3329 PWs)   bands (ev):

   -33.3521  -3.6632   0.4706   6.2562  11.4735  20.5079  22.0277  22.0650
    23.3657  24.9466

          k = 0.0000 0.2078 0.0000 (  3321 PWs)   bands (ev):

   -33.3244  -2.9089   1.4488   5.8977  14.7317  16.0782  18.1040  20.0913
    20.1536  23.5188

          k = 0.0000 0.2078 0.0869 (  3313 PWs)   bands (ev):

   -33.3244  -2.9008   1.3433   6.2679  13.2427  16.5290  19.4593  19.8149
    20.2111  23.4703

          k = 0.0000 0.2078 0.1738 (  3309 PWs)   bands (ev):

   -33.3244  -2.8874   1.1890   6.9711  11.7838  16.3666  19.5028  20.3186
    21.7364  23.1982

          k = 0.0000 0.3118 0.0000 (  3319 PWs)   bands (ev):

   -33.2881  -1.6384   2.7159   6.8636  11.8137  16.0445  16.5369  17.7255
    18.8341  20.8287

          k = 0.0000 0.3118 0.0869 (  3315 PWs)   bands (ev):

   -33.2881  -1.6250   2.5751   7.3110  11.6029  14.7639  16.2684  18.8946
    19.5144  21.0241

          k = 0.0000 0.3118 0.1738 (  3313 PWs)   bands (ev):

   -33.2881  -1.6027   2.3739   8.1558  11.3882  13.1803  16.0886  19.0069
    20.7159  21.8822

          k = 0.0000 0.4157 0.0000 (  3301 PWs)   bands (ev):

   -33.2546   0.1234   4.4388   8.0325   8.4813  12.6972  15.8440  17.7080
    17.9552  20.1564

          k = 0.0000 0.4157 0.0869 (  3298 PWs)   bands (ev):

   -33.2546   0.1433   4.2608   8.2144   8.7919  12.3373  15.4251  18.0176
    18.2897  19.6594

          k = 0.0000 0.4157 0.1738 (  3310 PWs)   bands (ev):

   -33.2546   0.1779   3.9973   8.3232   9.8229  11.4781  14.7811  18.1333
    18.1992  20.0592

          k = 0.0000 0.5196 0.0000 (  3314 PWs)   bands (ev):

   -33.2346   2.3525   4.9622   6.8488   9.3658   9.8354  13.7931  17.5162
    18.5467  21.0419

          k = 0.0000 0.5196 0.0869 (  3302 PWs)   bands (ev):

   -33.2346   2.3773   5.0394   6.4816   9.1108  10.6601  13.9508  17.5796
    18.1236  19.5591

          k = 0.0000 0.5196 0.1738 (  3302 PWs)   bands (ev):

   -33.2346   2.4289   5.0514   6.1945   8.7749  11.9802  14.4234  16.1376
    17.6969  19.1552

          k = 0.0900 0.1559 0.0000 (  3317 PWs)   bands (ev):

   -33.3331  -3.1642   1.1932   5.7027  14.7835  16.8594  18.5683  19.2156
    22.2210  22.9225

          k = 0.0900 0.1559 0.0869 (  3317 PWs)   bands (ev):

   -33.3331  -3.1572   1.0950   6.0553  13.2826  17.9027  18.5636  20.0186
    22.0549  22.6677

          k = 0.0900 0.1559 0.1738 (  3324 PWs)   bands (ev):

   -33.3331  -3.1456   0.9503   6.7304  11.7204  18.3824  18.5538  21.1720
    21.8495  23.5279

          k = 0.0900 0.2598 0.0000 (  3334 PWs)   bands (ev):

   -33.3011  -2.1454   2.2117   6.4823  13.7549  15.6137  16.9230  17.9082
    19.1333  21.3041

          k = 0.0900 0.2598 0.0869 (  3319 PWs)   bands (ev):

   -33.3011  -2.1341   2.0850   6.8924  13.0641  15.3041  16.5076  18.1844
    19.9972  21.3589

          k = 0.0900 0.2598 0.1738 (  3315 PWs)   bands (ev):

   -33.3011  -2.1153   1.9024   7.6788  11.9824  14.6189  16.6761  18.0286
    20.2071  23.5661

          k = 0.0900 0.3637 0.0000 (  3308 PWs)   bands (ev):

   -33.2662  -0.6289   3.7134   7.6235  10.2209  14.3940  15.3591  16.9418
    18.2370  19.6639

          k = 0.0900 0.3637 0.0869 (  3315 PWs)   bands (ev):

   -33.2662  -0.6116   3.5469   8.1252  10.1308  13.9634  15.2799  16.0311
    18.9510  19.8627

          k = 0.0900 0.3637 0.1738 (  3305 PWs)   bands (ev):

   -33.2662  -0.5824   3.3103   9.0680  10.1872  12.6571  14.7449  16.0867
    19.0121  20.3325

          k = 0.0900 0.4676 0.0000 (  3303 PWs)   bands (ev):

   -33.2394   1.3692   5.5325   7.0142   9.0648  11.2565  14.7470  14.8085
    19.0015  19.6009

          k = 0.0900 0.4676 0.0869 (  3307 PWs)   bands (ev):

   -33.2394   1.3926   5.4005   6.8860   9.6332  11.0482  14.7085  15.1085
    17.8289  19.6073

          k = 0.0900 0.4676 0.1738 (  3305 PWs)   bands (ev):

   -33.2394   1.4357   5.1034   6.9577  10.2001  11.0832  14.4622  15.4218
    17.1628  18.3795

          k = 0.0900 0.5715 0.0000 (  3312 PWs)   bands (ev):

   -33.2294   3.6904   3.9479   7.8281   8.7677  10.0896  13.4574  14.5512
    18.8296  21.0314

          k = 0.0900 0.5715 0.0869 (  3314 PWs)   bands (ev):

   -33.2294   3.7606   3.9340   7.7661   8.0546  11.2634  13.5686  14.5602
    18.2581  19.1257

          k = 0.0900 0.5715 0.1738 (  3305 PWs)   bands (ev):

   -33.2294   3.8881   3.9135   7.1948   7.9517  13.0355  13.7178  14.5124
    17.0817  17.3234

          k = 0.1800 0.3118 0.0000 (  3325 PWs)   bands (ev):

   -33.2705  -0.8805   3.4673   7.4500  12.4967  12.5107  16.3272  17.0541
    17.8067  19.4639

          k = 0.1800 0.3118 0.0869 (  3320 PWs)   bands (ev):

   -33.2705  -0.8641   3.3062   7.9100  12.3152  12.6798  15.0135  16.6611
    17.5234  20.3606

          k = 0.1800 0.3118 0.1738 (  3317 PWs)   bands (ev):

   -33.2705  -0.8367   3.0792   8.8193  11.9949  12.8183  13.5587  16.1264
    17.5401  21.9274

          k = 0.1800 0.4157 0.0000 (  3304 PWs)   bands (ev):

   -33.2423   0.8738   5.1696   8.6985   9.1258  11.5172  13.5677  15.8084
    16.6197  19.0833

          k = 0.1800 0.4157 0.0869 (  3308 PWs)   bands (ev):

   -33.2423   0.8963   4.9731   8.9405   9.3677  11.6499  13.1399  15.4402
    16.4294  18.9191

          k = 0.1800 0.4157 0.1738 (  3320 PWs)   bands (ev):

   -33.2423   0.9352   4.6913   9.0367  10.3903  11.7532  12.3232  14.3990
    16.6340  19.3008

          k = 0.1800 0.5196 0.0000 (  3300 PWs)   bands (ev):

   -33.2256   3.0936   5.6869   7.5504   9.9240  10.3624  11.6020  13.9891
    15.8041  19.2512

          k = 0.1800 0.5196 0.0869 (  3305 PWs)   bands (ev):

   -33.2256   3.1204   5.7597   7.1786   9.7602  10.8956  11.7457  14.3439
    15.4386  19.4791

          k = 0.1800 0.5196 0.1738 (  3306 PWs)   bands (ev):

   -33.2256   3.1745   5.7690   6.8945   9.4334  11.2012  12.7283  14.5402
    15.2160  17.7553

          k = 0.2700 0.4676 0.0000 (  3285 PWs)   bands (ev):

   -33.2241   2.8533   6.8565   8.2766   8.5538  10.2225  12.3900  13.4665
    14.7099  17.9999

          k = 0.2700 0.4676 0.0869 (  3296 PWs)   bands (ev):

   -33.2241   2.8827   6.6631   8.2648   8.5941  10.5647  12.3071  12.9818
    15.7594  17.6410

          k = 0.2700 0.4676 0.1738 (  3315 PWs)   bands (ev):

   -33.2241   2.9329   6.3934   8.2768   8.6087  11.2684  11.7837  12.9683
    16.6420  17.9653

          k = 0.2700 0.5715 0.0000 (  3288 PWs)   bands (ev):

   -33.2173   5.1639   5.3878   7.8305   9.1954  10.5507  11.3757  13.0412
    13.3018  17.6206

          k = 0.2700 0.5715 0.0869 (  3293 PWs)   bands (ev):

   -33.2173   5.2297   5.3844   7.8007   9.2400   9.7442  11.7032  13.1349
    14.4189  17.4402

          k = 0.2700 0.5715 0.1738 (  3297 PWs)   bands (ev):

   -33.2173   5.3501   5.3779   7.7438   9.1531   9.2269  11.4389  14.6852
    15.3149  17.4710

          k = 0.0000 0.1039-0.0869 (  3332 PWs)   bands (ev):

   -33.3521  -3.6711   0.5958   5.6363  13.0059  18.9168  20.8557  21.9699
    23.7510  25.0136

          k = 0.0000 0.1039-0.1738 (  3329 PWs)   bands (ev):

   -33.3521  -3.6632   0.4706   6.2553  11.4795  20.3378  22.0691  22.1663
    23.5624  24.9106

          k = 0.0000 0.2078-0.0869 (  3313 PWs)   bands (ev):

   -33.3244  -2.9009   1.3438   6.2591  13.5030  15.8950  19.2922  20.2136
    20.5985  23.7023

          k = 0.0000 0.2078-0.1738 (  3309 PWs)   bands (ev):

   -33.3244  -2.8875   1.1893   6.9622  11.8557  16.1811  19.4159  20.3204
    22.1250  23.1985

          k = 0.0000 0.3118-0.0869 (  3315 PWs)   bands (ev):

   -33.2881  -1.6251   2.5752   7.2726  11.9985  14.1661  16.2234  18.8958
    19.3154  21.7528

          k = 0.0000 0.3118-0.1738 (  3313 PWs)   bands (ev):

   -33.2881  -1.6027   2.3739   8.1056  11.9189  12.6138  16.0613  19.0078
    20.4885  21.8837

          k = 0.0000 0.4157-0.0869 (  3298 PWs)   bands (ev):

   -33.2546   0.1444   4.2411   8.4132   8.6152  12.4650  15.6200  16.8272
    18.0182  21.0907

          k = 0.0000 0.4157-0.1738 (  3310 PWs)   bands (ev):

   -33.2546   0.1786   3.9873   8.3672   9.7588  11.6026  14.7052  17.6154
    18.1336  21.0011

          k = 0.0000 0.5196-0.0869 (  3302 PWs)   bands (ev):

   -33.2346   2.3872   4.9076   6.8038   8.6573  11.0212  13.9671  17.2553
    17.5797  20.9024

          k = 0.0000 0.5196-0.1738 (  3302 PWs)   bands (ev):

   -33.2346   2.4356   4.9496   6.3827   8.6030  12.1749  14.5752  15.5777
    17.6970  19.6473

          k =-0.0900 0.2598-0.0869 (  3319 PWs)   bands (ev):

   -33.3011  -2.1341   2.0854   6.8796  13.7823  14.1328  16.8008  18.3527
    20.0438  21.4060

          k =-0.0900 0.2598-0.1738 (  3315 PWs)   bands (ev):

   -33.3011  -2.1154   1.9026   7.6642  12.1454  14.3330  16.6936  18.1782
    20.1558  23.2215

          k =-0.0900 0.3637-0.0869 (  3315 PWs)   bands (ev):

   -33.2662  -0.6114   3.5433   8.0621  10.3551  13.9312  14.5543  17.1231
    17.9335  19.9203

          k =-0.0900 0.3637-0.1738 (  3305 PWs)   bands (ev):

   -33.2662  -0.5823   3.3084   8.9348  10.5336  12.4365  14.4842  16.4975
    18.7751  20.0154

          k =-0.0900 0.4676-0.0869 (  3307 PWs)   bands (ev):

   -33.2394   1.3960   5.2874   7.1699   9.2127  11.4449  14.3854  15.3380
    17.7035  18.9069

          k =-0.0900 0.4676-0.1738 (  3305 PWs)   bands (ev):

   -33.2394   1.4379   5.0526   7.0874   9.8373  11.5284  14.0572  15.9689
    16.7442  18.1932

          k =-0.1800 0.4157-0.0869 (  3308 PWs)   bands (ev):

   -33.2423   0.8971   4.9580   9.0787   9.3200  11.4570  13.2819  15.2599
    17.3088  17.6383

          k =-0.1800 0.4157-0.1738 (  3320 PWs)   bands (ev):

   -33.2423   0.9357   4.6839   9.0730  10.4535  11.5894  12.3173  14.5131
    16.7664  18.6906

          k =-0.1800 0.5196-0.0869 (  3305 PWs)   bands (ev):

   -33.2256   3.1291   5.6367   7.4891   9.3251  10.9714  12.1063  13.9004
    15.8945  18.4707

          k =-0.1800 0.5196-0.1738 (  3306 PWs)   bands (ev):

   -33.2256   3.1804   5.6737   7.0770   9.2540  11.2632  12.9004  14.0880
    15.8603  17.1313

     the Fermi energy is    12.3411 ev

!    total energy              =     -31.18330369 Ry
     estimated scf accuracy    <          5.0E-11 Ry
     smearing contrib. (-TS)   =      -0.00000903 Ry
     internal energy E=F+TS    =     -31.18329466 Ry

     The total energy is F=E-TS. E is the sum of the following terms:
     one-electron contribution =       4.85287537 Ry
     hartree contribution      =       2.95445044 Ry
     xc contribution           =     -10.17234839 Ry
     ewald contribution        =     -28.81827207 Ry

     convergence has been achieved in   6 iterations

     Forces acting on atoms (cartesian axes, Ry/au):

     atom    1 type  1   force =     0.00000000    0.00000000   -0.00130890
     atom    2 type  1   force =     0.00000000    0.00000000    0.00130890
     atom    3 type  2   force =     0.00000000    0.00000000    0.00000000
     The non-local contrib.  to forces
     atom    1 type  1   force =    -0.00000000   -0.00000000    0.08133995
     atom    2 type  1   force =     0.00000000    0.00000000   -0.08133995
     atom    3 type  2   force =    -0.00000000    0.00000000    0.00000000
     The ionic contribution  to forces
     atom    1 type  1   force =     0.00000001   -0.00000000   -0.45531874
     atom    2 type  1   force =    -0.00000001    0.00000000    0.45531874
     atom    3 type  2   force =     0.00000000    0.00000000   -0.00000000
     The local contribution  to forces
     atom    1 type  1   force =    -0.00000001    0.00000000    0.37449582
     atom    2 type  1   force =     0.00000001   -0.00000000   -0.37449582
     atom    3 type  2   force =     0.00000000    0.00000000   -0.00000000
     The core correction contribution to forces
     atom    1 type  1   force =    -0.00000000    0.00000000   -0.00183466
     atom    2 type  1   force =     0.00000000   -0.00000000    0.00183466
     atom    3 type  2   force =     0.00000000    0.00000000    0.00000000
     The Hubbard contrib.    to forces
     atom    1 type  1   force =     0.00000000    0.00000000    0.00000000
     atom    2 type  1   force =     0.00000000    0.00000000    0.00000000
     atom    3 type  2   force =     0.00000000    0.00000000    0.00000000
     The SCF correction term to forces
     atom    1 type  1   force =    -0.00000000    0.00000000    0.00000873
     atom    2 type  1   force =     0.00000000   -0.00000000   -0.00000873
     atom    3 type  2   force =     0.00000000   -0.00000000   -0.00000000

     Total force =     0.001851     Total SCF correction =     0.000012


     Computing stress (Cartesian axis) and pressure

          total   stress  (Ry/bohr**3)                   (kbar)     P=      501.44
   0.00340406  -0.00000000   0.00000000          500.75       -0.00        0.00
  -0.00000000   0.00340406   0.00000000           -0.00      500.75        0.00
[...]
     c_bands:  1 eigenvalues not converged
     c_bands:  1 eigenvalues not converged
     c_bands:  1 eigenvalues not converged
     c_bands:  1 eigenvalues not converged
     c_bands:  1 eigenvalues not converged
     c_bands:  1 eigenvalues not converged
     c_bands:  1 eigenvalues not converged
     c_bands:  1 eigenvalues not converged
     c_bands:  1 eigenvalues not converged
     c_bands:  1 eigenvalues not converged
     c_bands:  1 eigenvalues not converged
     c_bands:  1 eigenvalues not converged
     c_bands:  1 eigenvalues not converged
     c_bands:  1 eigenvalues not converged
     c_bands:  1 eigenvalues not converged
     c_bands:  2 eigenvalues not converged
     c_bands:  1 eigenvalues not converged
     c_bands:  1 eigenvalues not converged
     c_bands:  1 eigenvalues not converged
     c_bands:  1 eigenvalues not converged
     c_bands:  1 eigenvalues not converged
     c_bands:  1 eigenvalues not converged
     ethr =  1.00E-06,  avg # of iterations = 17.9

     total cpu time spent up to now is       31.8 secs

     total energy              =     -31.12042293 Ry
     estimated scf accuracy    <       0.11197194 Ry

     iteration #  2     ecut=   100.00 Ry     beta= 0.70
     Davidson diagonalization with overlap
     ethr =  1.02E-03,  avg # of iterations =  2.4

     total cpu time spent up to now is       32.3 secs

     total energy              =     -31.11855699 Ry
     estimated scf accuracy    <       0.42199142 Ry

     iteration #  3     ecut=   100.00 Ry     beta= 0.70
     Davidson diagonalization with overlap
     ethr =  1.02E-03,  avg # of iterations =  1.9

     total cpu time spent up to now is       32.8 secs

     total energy              =     -31.18317583 Ry
     estimated scf accuracy    <       0.00047607 Ry

     iteration #  4     ecut=   100.00 Ry     beta= 0.70
     Davidson diagonalization with overlap
     ethr =  4.33E-06,  avg # of iterations =  6.0

     total cpu time spent up to now is       33.6 secs

     total energy              =     -31.18342650 Ry
     estimated scf accuracy    <       0.00027466 Ry

     iteration #  5     ecut=   100.00 Ry     beta= 0.70
     Davidson diagonalization with overlap
     ethr =  2.50E-06,  avg # of iterations =  1.8

     total cpu time spent up to now is       34.1 secs

     total energy              =     -31.18347678 Ry
     estimated scf accuracy    <       0.00000086 Ry

     iteration #  6     ecut=   100.00 Ry     beta= 0.70
     Davidson diagonalization with overlap
     ethr =  7.83E-09,  avg # of iterations =  3.4

     total cpu time spent up to now is       34.6 secs

     total energy              =     -31.18347722 Ry
     estimated scf accuracy    <       0.00000069 Ry

     iteration #  7     ecut=   100.00 Ry     beta= 0.70
     Davidson diagonalization with overlap
     ethr =  6.32E-09,  avg # of iterations =  1.1

     total cpu time spent up to now is       35.1 secs

     total energy              =     -31.18347727 Ry
     estimated scf accuracy    <       0.00000006 Ry

     iteration #  8     ecut=   100.00 Ry     beta= 0.70
     Davidson diagonalization with overlap
     ethr =  5.32E-10,  avg # of iterations =  1.8

     total cpu time spent up to now is       35.6 secs

     total energy              =     -31.18347727 Ry
     estimated scf accuracy    <          1.6E-09 Ry

     iteration #  9     ecut=   100.00 Ry     beta= 0.70
     Davidson diagonalization with overlap
     ethr =  1.44E-11,  avg # of iterations =  3.5

     total cpu time spent up to now is       36.1 secs

     total energy              =     -31.18347727 Ry
     estimated scf accuracy    <          3.2E-10 Ry

     iteration # 10     ecut=   100.00 Ry     beta= 0.70
     Davidson diagonalization with overlap
     ethr =  2.93E-12,  avg # of iterations =  1.7

     total cpu time spent up to now is       36.6 secs

     End of self-consistent calculation

          k = 0.0000 0.0000 0.0000 (  3447 PWs)   bands (ev):

   -33.3657  -3.9240   0.4133   5.1082  14.2053  17.2950  23.9545  23.9545
    24.2830  24.2830

          k = 0.0000 0.0000 0.0869 (  3412 PWs)   bands (ev):

   -33.3657  -3.9203   0.3361   5.4206  12.8226  19.1352  23.9823  23.9823
    24.3643  24.3643

          k = 0.0000 0.0000 0.1738 (  3418 PWs)   bands (ev):

   -33.3657  -3.9142   0.2209   6.0114  11.3331  21.9953  24.0300  24.0300
    24.5214  24.5214

          k = 0.0000 0.1039 0.0000 (  3419 PWs)   bands (ev):

   -33.3554  -3.6676   0.6709   5.3045  14.4129  17.2475  20.6252  21.9225
    23.8588  25.0829

          k = 0.0000 0.1039 0.0869 (  3416 PWs)   bands (ev):

   -33.3554  -3.6627   0.5867   5.6309  12.9741  19.1234  20.6278  21.9754
    23.6764  24.9394

          k = 0.0000 0.1039 0.1738 (  3414 PWs)   bands (ev):

   -33.3554  -3.6548   0.4615   6.2499  11.4603  20.5175  22.0161  22.0773
    23.3616  24.9200

          k = 0.0000 0.2078 0.0000 (  3427 PWs)   bands (ev):

   -33.3277  -2.9006   1.4399   5.8916  14.7249  16.0728  18.0986  20.0862
    20.1642  23.5219

          k = 0.0000 0.2078 0.0869 (  3420 PWs)   bands (ev):

   -33.3277  -2.8924   1.3343   6.2617  13.2323  16.5339  19.4503  19.8081
    20.2221  23.6904

          k = 0.0000 0.2078 0.1738 (  3418 PWs)   bands (ev):

   -33.3277  -2.8789   1.1801   6.9649  11.7720  16.3757  19.4947  20.3307
    21.7345  23.1899

          k = 0.0000 0.3118 0.0000 (  3405 PWs)   bands (ev):

   -33.2913  -1.6300   2.7072   6.8576  11.8222  16.0335  16.5240  17.7207
    18.8445  20.8213

          k = 0.0000 0.3118 0.0869 (  3404 PWs)   bands (ev):

   -33.2913  -1.6165   2.5663   7.3048  11.6095  14.7547  16.2589  18.9055
    19.5112  21.0179

          k = 0.0000 0.3118 0.1738 (  3409 PWs)   bands (ev):

   -33.2913  -1.5940   2.3651   8.1497  11.3898  13.1767  16.0796  19.0189
    20.7200  21.8738

          k = 0.0000 0.4157 0.0000 (  3399 PWs)   bands (ev):

   -33.2577   0.1319   4.4306   8.0297   8.4866  12.6889  15.8382  17.7005
    17.9655  20.1448

          k = 0.0000 0.4157 0.0869 (  3410 PWs)   bands (ev):

   -33.2577   0.1520   4.2524   8.2208   8.7877  12.3301  15.4146  18.0284
    18.2846  19.6594

          k = 0.0000 0.4157 0.1738 (  3414 PWs)   bands (ev):

   -33.2577   0.1868   3.9888   8.3319   9.8167  11.4702  14.7698  18.1452
    18.1966  20.0573

          k = 0.0000 0.5196 0.0000 (  3394 PWs)   bands (ev):

   -33.2378   2.3611   4.9700   6.8407   9.3603   9.8275  13.7874  17.5264
    18.5501  21.0253

          k = 0.0000 0.5196 0.0869 (  3397 PWs)   bands (ev):

   -33.2378   2.3861   5.0481   6.4733   9.1020  10.6552  13.9440  17.5903
    18.1234  19.5491

          k = 0.0000 0.5196 0.1738 (  3393 PWs)   bands (ev):

   -33.2378   2.4381   5.0596   6.1869   8.7658  11.9753  14.4149  16.1330
    17.7087  19.1449

          k = 0.0900 0.1559 0.0000 (  3433 PWs)   bands (ev):

   -33.3364  -3.1559   1.1842   5.6965  14.7694  16.8538  18.5748  19.2200
    22.2130  22.9171

          k = 0.0900 0.1559 0.0869 (  3427 PWs)   bands (ev):

   -33.3364  -3.1488   1.0860   6.0490  13.2696  17.9067  18.5721  20.0101
    22.0466  22.6625

          k = 0.0900 0.1559 0.1738 (  3416 PWs)   bands (ev):

   -33.3364  -3.1371   0.9413   6.7241  11.7078  18.3923  18.5643  21.1597
    21.8400  23.5194

          k = 0.0900 0.2598 0.0000 (  3421 PWs)   bands (ev):

   -33.3043  -2.1371   2.2028   6.4762  13.7619  15.6088  16.9179  17.8986
    19.1290  21.2973

          k = 0.0900 0.2598 0.0869 (  3415 PWs)   bands (ev):

   -33.3043  -2.1256   2.0762   6.8862  13.0629  15.3012  16.5162  18.1749
    19.9850  21.3528

          k = 0.0900 0.2598 0.1738 (  3410 PWs)   bands (ev):

   -33.3043  -2.1067   1.8935   7.6726  11.9735  14.6255  16.6850  18.0201
    20.1967  23.5629

          k = 0.0900 0.3637 0.0000 (  3409 PWs)   bands (ev):

   -33.2694  -0.6205   3.7048   7.6176  10.2296  14.3897  15.3617  16.9323
    18.2253  19.6538

          k = 0.0900 0.3637 0.0869 (  3411 PWs)   bands (ev):

   -33.2694  -0.6030   3.5383   8.1191  10.1392  13.9569  15.2826  16.0237
    18.9430  19.8528

          k = 0.0900 0.3637 0.1738 (  3414 PWs)   bands (ev):

   -33.2694  -0.5736   3.3016   9.0624  10.1950  12.6485  14.7427  16.0875
    19.0019  20.3297

          k = 0.0900 0.4676 0.0000 (  3396 PWs)   bands (ev):

   -33.2426   1.3778   5.5271   7.0193   9.0599  11.2485  14.7523  14.8055
    18.9912  19.5865

          k = 0.0900 0.4676 0.0869 (  3398 PWs)   bands (ev):

   -33.2426   1.4014   5.3936   6.8930   9.6265  11.0420  14.7119  15.1058
    17.8179  19.5990

          k = 0.0900 0.4676 0.1738 (  3397 PWs)   bands (ev):

   -33.2426   1.4448   5.0960   6.9658  10.1905  11.0790  14.4641  15.4175
    17.1551  18.3736

          k = 0.0900 0.5716 0.0000 (  3388 PWs)   bands (ev):

   -33.2326   3.6991   3.9565   7.8189   8.7606  10.0841  13.4515  14.5597
    18.8196  21.0303

          k = 0.0900 0.5716 0.0869 (  3386 PWs)   bands (ev):

   -33.2326   3.7697   3.9426   7.7577   8.0466  11.2577  13.5628  14.5683
    18.2482  19.1176

          k = 0.0900 0.5716 0.1738 (  3389 PWs)   bands (ev):

   -33.2326   3.8977   3.9225   7.1866   7.9426  13.0310  13.7134  14.5167
    17.0733  17.3149

          k = 0.1800 0.3118 0.0000 (  3407 PWs)   bands (ev):

   -33.2737  -0.8721   3.4586   7.4441  12.5062  12.5184  16.3175  17.0434
    17.7889  19.4582

          k = 0.1800 0.3118 0.0869 (  3402 PWs)   bands (ev):

   -33.2737  -0.8555   3.2975   7.9040  12.3222  12.6893  15.0040  16.6521
    17.5112  20.3558

          k = 0.1800 0.3118 0.1738 (  3417 PWs)   bands (ev):

   -33.2737  -0.8280   3.0705   8.8135  11.9958  12.8279  13.5562  16.1172
    17.5285  21.9228

          k = 0.1800 0.4157 0.0000 (  3379 PWs)   bands (ev):

   -33.2455   0.8823   5.1616   8.6942   9.1328  11.5252  13.5595  15.8006
    16.6115  19.0746

          k = 0.1800 0.4157 0.0869 (  3396 PWs)   bands (ev):

   -33.2455   0.9050   4.9650   8.9468   9.3640  11.6580  13.1333  15.4297
    16.4193  18.9117

          k = 0.1800 0.4157 0.1738 (  3406 PWs)   bands (ev):

   -33.2455   0.9442   4.6830   9.0455  10.3859  11.7570  12.3199  14.3881
    16.6213  19.2972

          k = 0.1800 0.5196 0.0000 (  3390 PWs)   bands (ev):

   -33.2287   3.1023   5.6949   7.5427   9.9205  10.3574  11.6050  13.9834
    15.7945  19.2469

          k = 0.1800 0.5196 0.0869 (  3392 PWs)   bands (ev):

   -33.2287   3.1293   5.7684   7.1707   9.7527  10.8972  11.7465  14.3365
    15.4294  19.4734

          k = 0.1800 0.5196 0.1738 (  3391 PWs)   bands (ev):

   -33.2287   3.1837   5.7772   6.8874   9.4250  11.2088  12.7246  14.5305
    15.2071  17.7464

          k = 0.2700 0.4676 0.0000 (  3393 PWs)   bands (ev):

   -33.2273   2.8620   6.8531   8.2846   8.5575  10.2178  12.3817  13.4569
    14.7037  17.9958

          k = 0.2700 0.4676 0.0869 (  3389 PWs)   bands (ev):

   -33.2273   2.8916   6.6585   8.2730   8.6000  10.5583  12.2997  12.9723
    15.7514  17.6356

          k = 0.2700 0.4676 0.1738 (  3400 PWs)   bands (ev):

   -33.2273   2.9421   6.3874   8.2853   8.6166  11.2600  11.7758  12.9609
    16.6288  17.9604

          k = 0.2700 0.5716 0.0000 (  3374 PWs)   bands (ev):

   -33.2205   5.1728   5.3964   7.8386   9.1861  10.5435  11.3708  13.0315
    13.2956  17.6162

          k = 0.2700 0.5716 0.0869 (  3379 PWs)   bands (ev):

   -33.2205   5.2391   5.3930   7.8081   9.2311   9.7379  11.6963  13.1268
    14.4116  17.4355

          k = 0.2700 0.5716 0.1738 (  3397 PWs)   bands (ev):

   -33.2205   5.3603   5.3867   7.7494   9.1481   9.2185  11.4302  14.6777
    15.3085  17.4628

          k = 0.0000 0.1039-0.0869 (  3416 PWs)   bands (ev):

   -33.3554  -3.6627   0.5868   5.6299  12.9917  18.9079  20.8603  21.9811
    23.7514  25.0148

          k = 0.0000 0.1039-0.1738 (  3414 PWs)   bands (ev):

   -33.3554  -3.6548   0.4616   6.2490  11.4663  20.3466  22.0814  22.1520
    23.5626  24.9030

          k = 0.0000 0.2078-0.0869 (  3420 PWs)   bands (ev):

   -33.3277  -2.8925   1.3348   6.2529  13.4900  15.9030  19.2802  20.2246
    20.5927  23.6946

          k = 0.0000 0.2078-0.1738 (  3418 PWs)   bands (ev):

   -33.3277  -2.8790   1.1803   6.9560  11.8434  16.1909  19.4069  20.3324
    22.1220  23.1902

          k = 0.0000 0.3118-0.0869 (  3404 PWs)   bands (ev):

   -33.2913  -1.6166   2.5664   7.2666  12.0080  14.1539  16.2150  18.9066
    19.3085  21.7449

          k = 0.0000 0.3118-0.1738 (  3409 PWs)   bands (ev):

   -33.2913  -1.5941   2.3651   8.0997  11.9235  12.6071  16.0526  19.0197
    20.4870  21.8754

          k = 0.0000 0.4157-0.0869 (  3410 PWs)   bands (ev):

   -33.2577   0.1530   4.2329   8.4190   8.6123  12.4555  15.6147  16.8183
    18.0290  21.5536

          k = 0.0000 0.4157-0.1738 (  3414 PWs)   bands (ev):

   -33.2577   0.1875   3.9789   8.3753   9.7545  11.5925  14.6961  17.6108
    18.1455  20.9927

          k = 0.0000 0.5196-0.0869 (  3397 PWs)   bands (ev):

   -33.2378   2.3961   4.9144   6.7974   8.6499  11.0136  13.9626  17.2504
    17.5905  20.8939

          k = 0.0000 0.5196-0.1738 (  3393 PWs)   bands (ev):

   -33.2378   2.4449   4.9563   6.3769   8.5943  12.1680  14.5717  15.5689
    17.7089  19.6346

          k =-0.0900 0.2598-0.0869 (  3415 PWs)   bands (ev):

   -33.3043  -2.1257   2.0765   6.8735  13.7761  14.1375  16.8057  18.3422
    20.0363  21.3990

          k =-0.0900 0.2598-0.1738 (  3410 PWs)   bands (ev):

   -33.3043  -2.1068   1.8937   7.6581  12.1348  14.3418  16.7005  18.1706
    20.1465  23.2174

          k =-0.0900 0.3637-0.0869 (  3411 PWs)   bands (ev):

   -33.2694  -0.6028   3.5347   8.0563  10.3642  13.9209  14.5565  17.1173
    17.9290  19.9106

          k =-0.0900 0.3637-0.1738 (  3414 PWs)   bands (ev):

   -33.2694  -0.5735   3.2997   8.9302  10.5426  12.4254  14.4829  16.4974
    18.7681  20.0086

          k =-0.0900 0.4676-0.0869 (  3398 PWs)   bands (ev):

   -33.2426   1.4047   5.2817   7.1762   9.2067  11.4361  14.3908  15.3343
    17.6953  18.8959

          k =-0.0900 0.4676-0.1738 (  3397 PWs)   bands (ev):

   -33.2426   1.4470   5.0457   7.0953   9.8297  11.5206  14.0604  15.9616
    16.7432  18.1825

          k =-0.1800 0.4157-0.0869 (  3396 PWs)   bands (ev):

   -33.2455   0.9058   4.9499   9.0828   9.3187  11.4650  13.2728  15.2526
    17.2986  17.6295

          k =-0.1800 0.4157-0.1738 (  3406 PWs)   bands (ev):

   -33.2455   0.9447   4.6756   9.0811  10.4497  11.5973  12.3076  14.5047
    16.7539  18.6851

          k =-0.1800 0.5196-0.0869 (  3392 PWs)   bands (ev):

   -33.2287   3.1380   5.6436   7.4830   9.3186  10.9752  12.1025  13.8943
    15.8864  18.4599

          k =-0.1800 0.5196-0.1738 (  3391 PWs)   bands (ev):

   -33.2287   3.1897   5.6803   7.0716   9.2460  11.2716  12.8935  14.0800
    15.8543  17.1186

     the Fermi energy is    12.3360 ev

!    total energy              =     -31.18347728 Ry
     estimated scf accuracy    <          6.4E-12 Ry
     smearing contrib. (-TS)   =       0.00000664 Ry
     internal energy E=F+TS    =     -31.18348392 Ry

     The total energy is F=E-TS. E is the sum of the following terms:
     one-electron contribution =       4.85278077 Ry
     hartree contribution      =       2.95345005 Ry
     xc contribution           =     -10.17125405 Ry
     ewald contribution        =     -28.81846069 Ry

     convergence has been achieved in  10 iterations

     Forces acting on atoms (cartesian axes, Ry/au):

     atom    1 type  1   force =    -0.00000000   -0.00000000    0.00004753
     atom    2 type  1   force =     0.00000000    0.00000000   -0.00004753
     atom    3 type  2   force =     0.00000000    0.00000000    0.00000000
     The non-local contrib.  to forces
     atom    1 type  1   force =     0.00000000    0.00000000    0.08274845
     atom    2 type  1   force =     0.00000000   -0.00000000   -0.08274845
     atom    3 type  2   force =     0.00000000    0.00000000    0.00000000
     The ionic contribution  to forces
     atom    1 type  1   force =     0.00000001   -0.00000000   -0.44136488
     atom    2 type  1   force =    -0.00000001    0.00000000    0.44136488
     atom    3 type  2   force =     0.00000000    0.00000000   -0.00000000
     The local contribution  to forces
     atom    1 type  1   force =    -0.00000001    0.00000000    0.36061691
     atom    2 type  1   force =     0.00000001   -0.00000000   -0.36061691
     atom    3 type  2   force =     0.00000000    0.00000000   -0.00000000
     The core correction contribution to forces
     atom    1 type  1   force =    -0.00000000    0.00000000   -0.00195686
     atom    2 type  1   force =     0.00000000   -0.00000000    0.00195686
     atom    3 type  2   force =     0.00000000    0.00000000    0.00000000
     The Hubbard contrib.    to forces
     atom    1 type  1   force =     0.00000000    0.00000000    0.00000000
     atom    2 type  1   force =     0.00000000    0.00000000    0.00000000
     atom    3 type  2   force =     0.00000000    0.00000000    0.00000000
     The SCF correction term to forces
     atom    1 type  1   force =    -0.00000000    0.00000000    0.00000391
     atom    2 type  1   force =     0.00000000   -0.00000000   -0.00000391
     atom    3 type  2   force =    -0.00000000   -0.00000000    0.00000000

     Total force =     0.000067     Total SCF correction =     0.000006


     Computing stress (Cartesian axis) and pressure

          total   stress  (Ry/bohr**3)                   (kbar)     P=      500.00
   0.00339722   0.00000000   0.00000000          499.75        0.00        0.00
   0.00000000   0.00339722   0.00000000            0.00      499.75        0.00
   0.00000000   0.00000000   0.00340240            0.00        0.00      500.51


     Writing all to output data dir ./output/SiLi.save/

     init_run     :      1.14s CPU      1.99s WALL (       2 calls)
     electrons    :     24.56s CPU     27.62s WALL (       6 calls)
     update_pot   :      1.26s CPU      1.30s WALL (       4 calls)
     forces       :      1.24s CPU      1.32s WALL (       6 calls)
     stress       :      4.66s CPU      4.92s WALL (       6 calls)

     Called by init_run:
     wfcinit      :      0.33s CPU      0.36s WALL (       2 calls)
     potinit      :      0.33s CPU      0.92s WALL (       2 calls)
     hinit0       :      0.44s CPU      0.55s WALL (       2 calls)

     Called by electrons:
     c_bands      :     21.15s CPU     23.36s WALL (      44 calls)
     sum_band     :      2.86s CPU      3.01s WALL (      44 calls)
     v_of_rho     :      0.67s CPU      1.87s WALL (      49 calls)
     mix_rho      :      0.04s CPU      0.08s WALL (      44 calls)

     Called by c_bands:
     init_us_2    :      0.70s CPU      0.77s WALL (    6936 calls)
     init_us_2:cp :      0.69s CPU      0.76s WALL (    6936 calls)
     cegterg      :     19.53s CPU     20.36s WALL (    2992 calls)

     Called by *egterg:
     cdiaghg      :      1.52s CPU      1.61s WALL (   12351 calls)
     h_psi        :     16.19s CPU     16.87s WALL (   12827 calls)
     g_psi        :      0.09s CPU      0.09s WALL (    9699 calls)

     Called by h_psi:
     h_psi:calbec :      1.14s CPU      1.18s WALL (   12827 calls)
     vloc_psi     :     14.17s CPU     14.78s WALL (   12827 calls)
     add_vuspsi   :      0.79s CPU      0.82s WALL (   12827 calls)

     General routines
     calbec       :      1.48s CPU      1.53s WALL (   14867 calls)
     fft          :      1.03s CPU      2.47s WALL (     639 calls)
     ffts         :      0.03s CPU      0.06s WALL (      44 calls)
     fftw         :     14.55s CPU     15.14s WALL (  206854 calls)

     Parallel routines

     PWSCF        :     33.21s CPU     37.89s WALL


   This run was terminated on:  22: 9:44  10Jan2025            

=------------------------------------------------------------------------------=
   JOB DONE.
=------------------------------------------------------------------------------=
