
     Program PWSCF v.7.2 starts on 10Jan2025 at 22: 9:19 

     This program is part of the open-source Quantum ESPRESSO suite
     for quantum simulation of materials; please cite
         "P. Giannozzi et al., J. Phys.:Condens. Matter 21 395502 (2009);
         "P. Giannozzi et al., J. Phys.:Condens. Matter 29 465901 (2017);
         "P. Giannozzi et al., J. Chem. Phys. 152 154105 (2020);
          URL http://www.quantum-espresso.org", 
     in publications or presentations arising from this work. More details at
     http://www.quantum-espresso.org/quote

     Parallel version (MPI & OpenMP), running on       8 processor cores
     Number of MPI processes:                 8
     Threads/MPI process:                     1

     MPI processes distributed on     1 nodes
     481450 MiB available memory on the printing compute node when the environment starts

     Waiting for input...
     Reading input from standard input

     Current dimensions of program PWSCF are:
     Max number of different atomic species (ntypx) = 10
     Max number of k-points (npk) =  40000
     Max angular momentum in pseudopotentials (lmaxx) =  4

     R & G space division:  proc/nbgrp/npool/nimage =       8
     Subspace diagonalization in iterative solution of the eigenvalue problem:
     a serial algorithm will be used


     Parallelization info
     --------------------
     sticks:   dense  smooth     PW     G-vecs:    dense   smooth      PW
     Min          69      69     20                 6023     6023     962
     Max          70      70     21                 6042     6042     979
     Sum         559     559    163                48279    48279    7745

     Using Slab Decomposition



     bravais-lattice index     =            4
     lattice parameter (alat)  =       4.5063  a.u.
     unit-cell volume          =     356.7534 (a.u.)^3
     number of atoms/cell      =            6
     number of atomic types    =            2
     number of electrons       =        20.00
     number of Kohn-Sham states=           14
     kinetic-energy cutoff     =     100.0000  Ry
     charge density cutoff     =     400.0000  Ry
     scf convergence threshold =      1.0E-08
     mixing beta               =       0.7000
     number of iterations used =            8  plain     mixing
     energy convergence thresh.=      1.0E-04
     force convergence thresh. =      1.0E-03
     press convergence thresh. =      1.0E+00
     Exchange-correlation= PBE
                           (   1   4   3   4   0   0   0)
     nstep                     =           50


     celldm(1)=   4.506332  celldm(2)=   0.000000  celldm(3)=   4.501611
     celldm(4)=   0.000000  celldm(5)=   0.000000  celldm(6)=   0.000000

     crystal axes: (cart. coord. in units of alat)
               a(1) = (   1.000000   0.000000   0.000000 )  
               a(2) = (  -0.500000   0.866025   0.000000 )  
               a(3) = (   0.000000   0.000000   4.501611 )  

     reciprocal axes: (cart. coord. in units 2 pi/alat)
               b(1) = (  1.000000  0.577350 -0.000000 )  
               b(2) = (  0.000000  1.154701  0.000000 )  
               b(3) = (  0.000000 -0.000000  0.222143 )  


     PseudoPot. # 1 for Si read from file:
     ../pseudo/Si_ONCV_PBE_sr.upf
     MD5 check sum: e543d271109d17c80368dfa7c482276d
     Pseudo is Norm-conserving + core correction, Zval =  4.0
     Generated using ONCVPSP code by D. R. Hamann
     Using radial grid of 1510 points,  6 beta functions with: 
                l(1) =   0
                l(2) =   0
                l(3) =   1
                l(4) =   1
                l(5) =   2
                l(6) =   2

     PseudoPot. # 2 for Li read from file:
     ../pseudo/Li_ONCV_PBE_sr.upf
     MD5 check sum: 50ff420e78310ffa21704f3361e624a4
     Pseudo is Norm-conserving, Zval =  3.0
     Generated using ONCVPSP code by D. R. Hamann
     Using radial grid of 1944 points,  4 beta functions with: 
                l(1) =   0
                l(2) =   0
                l(3) =   1
                l(4) =   1

     atomic species   valence    mass     pseudopotential
        Si             4.00    28.08550     Si( 1.00)
        Li             3.00     6.94100     Li( 1.00)

     24 Sym. Ops., with inversion, found (12 have fractional translation)



   Cartesian axes

     site n.     atom                  positions (alat units)
         1           Si  tau(   1) = (   0.0000000   0.0000000   0.0000000  )
         2           Si  tau(   2) = (   0.0000000   0.0000000   2.2508054  )
         3           Li  tau(   3) = (  -0.0000000   0.5773503   0.7429233  )
         4           Li  tau(   4) = (   0.5000000   0.2886751   3.7586875  )
         5           Li  tau(   5) = (   0.5000000   0.2886751   2.9937288  )
         6           Li  tau(   6) = (   0.0000000   0.5773503   1.5078821  )

     number of k points=    42  Marzari-Vanderbilt smearing, width (Ry)=  0.0200
                       cart. coord. in units 2pi/alat
        k(    1) = (   0.0000000   0.0000000   0.0000000), wk =   0.0050000
        k(    2) = (   0.0000000   0.0000000   0.0555357), wk =   0.0100000
        k(    3) = (   0.0000000   0.0000000  -0.1110714), wk =   0.0050000
        k(    4) = (   0.0000000   0.1154701   0.0000000), wk =   0.0300000
        k(    5) = (   0.0000000   0.1154701   0.0555357), wk =   0.0600000
        k(    6) = (   0.0000000   0.1154701  -0.1110714), wk =   0.0300000
        k(    7) = (   0.0000000   0.2309401   0.0000000), wk =   0.0300000
        k(    8) = (   0.0000000   0.2309401   0.0555357), wk =   0.0600000
        k(    9) = (   0.0000000   0.2309401  -0.1110714), wk =   0.0300000
        k(   10) = (   0.0000000   0.3464102   0.0000000), wk =   0.0300000
        k(   11) = (   0.0000000   0.3464102   0.0555357), wk =   0.0600000
        k(   12) = (   0.0000000   0.3464102  -0.1110714), wk =   0.0300000
        k(   13) = (   0.0000000   0.4618802   0.0000000), wk =   0.0300000
        k(   14) = (   0.0000000   0.4618802   0.0555357), wk =   0.0600000
        k(   15) = (   0.0000000   0.4618802  -0.1110714), wk =   0.0300000
        k(   16) = (   0.0000000  -0.5773503   0.0000000), wk =   0.0150000
        k(   17) = (   0.0000000  -0.5773503   0.0555357), wk =   0.0300000
        k(   18) = (   0.0000000  -0.5773503  -0.1110714), wk =   0.0150000
        k(   19) = (   0.1000000   0.1732051   0.0000000), wk =   0.0300000
        k(   20) = (   0.1000000   0.1732051   0.0555357), wk =   0.0600000
        k(   21) = (   0.1000000   0.1732051  -0.1110714), wk =   0.0300000
        k(   22) = (   0.1000000   0.2886751   0.0000000), wk =   0.0600000
        k(   23) = (   0.1000000   0.2886751   0.0555357), wk =   0.1200000
        k(   24) = (   0.1000000   0.2886751  -0.1110714), wk =   0.0600000
        k(   25) = (   0.1000000   0.4041452   0.0000000), wk =   0.0600000
        k(   26) = (   0.1000000   0.4041452   0.0555357), wk =   0.1200000
        k(   27) = (   0.1000000   0.4041452  -0.1110714), wk =   0.0600000
        k(   28) = (   0.1000000   0.5196152   0.0000000), wk =   0.0600000
        k(   29) = (   0.1000000   0.5196152   0.0555357), wk =   0.1200000
        k(   30) = (   0.1000000   0.5196152  -0.1110714), wk =   0.0600000
        k(   31) = (   0.2000000   0.3464102   0.0000000), wk =   0.0300000
        k(   32) = (   0.2000000   0.3464102   0.0555357), wk =   0.0600000
        k(   33) = (   0.2000000   0.3464102  -0.1110714), wk =   0.0300000
        k(   34) = (   0.2000000   0.4618802   0.0000000), wk =   0.0600000
        k(   35) = (   0.2000000   0.4618802   0.0555357), wk =   0.1200000
        k(   36) = (   0.2000000   0.4618802  -0.1110714), wk =   0.0600000
        k(   37) = (   0.2000000   0.5773503   0.0000000), wk =   0.0300000
        k(   38) = (   0.2000000   0.5773503   0.0555357), wk =   0.0600000
        k(   39) = (   0.2000000   0.5773503  -0.1110714), wk =   0.0300000
        k(   40) = (   0.3000000   0.5196152   0.0000000), wk =   0.0300000
        k(   41) = (   0.3000000   0.5196152   0.0555357), wk =   0.0600000
        k(   42) = (   0.3000000   0.5196152  -0.1110714), wk =   0.0300000

     Dense  grid:    48279 G-vectors     FFT dimensions: (  30,  30, 144)

     Estimated max dynamical RAM per process >      25.04 MB

     Estimated total dynamical RAM >     200.35 MB

     Initial potential from superposition of free atoms

     starting charge      19.9805, renormalised to      20.0000
     Starting wfcs are   16 randomized atomic wfcs

     total cpu time spent up to now is        1.9 secs

     Self-consistent Calculation

     iteration #  1     ecut=   100.00 Ry     beta= 0.70
     Davidson diagonalization with overlap
     ethr =  1.00E-02,  avg # of iterations =  5.4

     Threshold (ethr) on eigenvalues was too large:
     Diagonalizing with lowered threshold

     Davidson diagonalization with overlap
     ethr =  3.40E-04,  avg # of iterations =  3.5

     total cpu time spent up to now is        4.4 secs

     total energy              =     -74.17049118 Ry
     estimated scf accuracy    <       0.07284301 Ry

     iteration #  2     ecut=   100.00 Ry     beta= 0.70
     Davidson diagonalization with overlap
     ethr =  3.64E-04,  avg # of iterations =  2.9

     total cpu time spent up to now is        5.3 secs

     total energy              =     -74.16257745 Ry
     estimated scf accuracy    <       0.20067447 Ry

     iteration #  3     ecut=   100.00 Ry     beta= 0.70
     Davidson diagonalization with overlap
     ethr =  3.64E-04,  avg # of iterations =  2.3

     total cpu time spent up to now is        6.1 secs

     total energy              =     -74.20106852 Ry
     estimated scf accuracy    <       0.00267365 Ry

     iteration #  4     ecut=   100.00 Ry     beta= 0.70
     Davidson diagonalization with overlap
     ethr =  1.34E-05,  avg # of iterations =  3.5

     total cpu time spent up to now is        6.9 secs

     total energy              =     -74.20137793 Ry
     estimated scf accuracy    <       0.00005106 Ry

     iteration #  5     ecut=   100.00 Ry     beta= 0.70
     Davidson diagonalization with overlap
     c_bands:  1 eigenvalues not converged
     c_bands:  1 eigenvalues not converged
     ethr =  2.55E-07,  avg # of iterations =  4.0

     total cpu time spent up to now is        7.9 secs

     total energy              =     -74.20139454 Ry
     estimated scf accuracy    <       0.00000083 Ry

     iteration #  6     ecut=   100.00 Ry     beta= 0.70
     Davidson diagonalization with overlap
     ethr =  4.13E-09,  avg # of iterations =  3.6

     total cpu time spent up to now is        8.7 secs

     total energy              =     -74.20139475 Ry
     estimated scf accuracy    <       0.00000002 Ry

     iteration #  7     ecut=   100.00 Ry     beta= 0.70
     Davidson diagonalization with overlap
     ethr =  1.12E-10,  avg # of iterations =  3.2

     total cpu time spent up to now is        9.6 secs

     End of self-consistent calculation

          k = 0.0000 0.0000 0.0000 (  6011 PWs)   bands (ev):

   -36.6802 -36.6777 -36.3334 -36.3307  -5.1750  -5.1632   3.1417   3.4232
     6.5879   7.5404  12.7894  15.3229  19.9324  23.5637

          k = 0.0000 0.0000 0.0555 (  6011 PWs)   bands (ev):

   -36.6799 -36.6781 -36.3330 -36.3311  -5.1733  -5.1649   3.1782   3.3763
     6.7161   7.3838  13.0993  14.8275  20.6471  23.5756

          k = 0.0000 0.0000-0.1111 (  6004 PWs)   bands (ev):

   -36.6790 -36.6790 -36.3320 -36.3320  -5.1691  -5.1691   3.2721   3.2721
     7.0364   7.0364  13.8879  13.8879  22.2605  22.2606

          k = 0.0000 0.1155 0.0000 (  6021 PWs)   bands (ev):

   -36.6621 -36.6598 -36.3183 -36.3158  -4.8510  -4.8381   3.3625   3.6810
     6.7544   7.8023  12.8156  15.4456  19.2037  20.0105

          k = 0.0000 0.1155 0.0555 (  6020 PWs)   bands (ev):

   -36.6618 -36.6601 -36.3179 -36.3161  -4.8492  -4.8400   3.4032   3.6271
     6.8952   7.6284  13.1396  14.9268  19.5523  19.9827

          k = 0.0000 0.1155-0.1111 (  6010 PWs)   bands (ev):

   -36.6610 -36.6610 -36.3170 -36.3170  -4.8446  -4.8446   3.5087   3.5087
     7.2463   7.2463  13.9561  13.9561  19.8734  19.8734

          k = 0.0000 0.2309 0.0000 (  6019 PWs)   bands (ev):

   -36.6146 -36.6127 -36.2786 -36.2766  -3.8849  -3.8679   4.0116   4.4521
     7.2324   8.5873  12.6010  14.5331  15.4443  16.8506

          k = 0.0000 0.2309 0.0555 (  6009 PWs)   bands (ev):

   -36.6143 -36.6130 -36.2783 -36.2769  -3.8824  -3.8704   4.0652   4.3733
     7.4140   8.3547  12.9177  14.2659  15.5901  16.4845

          k = 0.0000 0.2309-0.1111 (  6024 PWs)   bands (ev):

   -36.6136 -36.6136 -36.2776 -36.2776  -3.8764  -3.8764   4.2072   4.2072
     7.8614   7.8614  13.6177  13.6177  15.9469  15.9469

          k = 0.0000 0.3464 0.0000 (  6028 PWs)   bands (ev):

   -36.5555 -36.5542 -36.2293 -36.2280  -2.2945  -2.2674   5.0287   5.7153
     7.7941   9.6046   9.9596  11.2038  13.9372  16.9867

          k = 0.0000 0.3464 0.0555 (  6027 PWs)   bands (ev):

   -36.5553 -36.5544 -36.2291 -36.2282  -2.2906  -2.2714   5.1042   5.5757
     8.0394   9.2085  10.2485  10.9985  14.3810  16.4416

          k = 0.0000 0.3464-0.1111 (  6022 PWs)   bands (ev):

   -36.5549 -36.5549 -36.2286 -36.2286  -2.2810  -2.2810   5.3115   5.3115
     8.5966   8.5966  10.6231  10.6231  15.3718  15.3718

          k = 0.0000 0.4619 0.0000 (  6038 PWs)   bands (ev):

   -36.5074 -36.5068 -36.1892 -36.1886  -0.1174  -0.0692   5.5514   6.0948
     6.8035   7.5846   9.3730  12.1939  12.9127  14.6872

          k = 0.0000 0.4619 0.0555 (  6022 PWs)   bands (ev):

   -36.5073 -36.5068 -36.1891 -36.1887  -0.1105  -0.0764   5.6143   5.9863
     6.9153   7.4342   9.6926  11.4056  13.6541  14.6356

          k = 0.0000 0.4619-0.1111 (  6038 PWs)   bands (ev):

   -36.5071 -36.5071 -36.1889 -36.1889  -0.0935  -0.0935   5.7816   5.7816
     7.1579   7.1579  10.4467  10.4467  14.3568  14.3569

          k = 0.0000-0.5774 0.0000 (  6040 PWs)   bands (ev):

   -36.4889 -36.4886 -36.1738 -36.1736   2.1878   2.2390   3.1206   3.3237
     7.3550   8.8827   9.5087  11.3994  13.4496  14.3726

          k = 0.0000-0.5774 0.0555 (  6030 PWs)   bands (ev):

   -36.4889 -36.4887 -36.1738 -36.1736   2.1948   2.2309   3.1488   3.2922
     7.4917   8.4264  10.0133  11.2042  13.5500  14.2061

          k = 0.0000-0.5774-0.1111 (  6048 PWs)   bands (ev):

   -36.4888 -36.4888 -36.1737 -36.1737   2.2123   2.2123   3.2189   3.2189
     7.8735   7.8735  10.6892  10.6892  13.8364  13.8364

          k = 0.1000 0.1732 0.0000 (  6015 PWs)   bands (ev):

   -36.6293 -36.6273 -36.2909 -36.2887  -4.2060  -4.1905   3.7985   4.1960
     7.0811   8.3290  12.8049  15.4849  16.7825  17.1238

          k = 0.1000 0.1732 0.0555 (  6026 PWs)   bands (ev):

   -36.6290 -36.6276 -36.2905 -36.2890  -4.2037  -4.1927   3.8477   4.1262
     7.2485   8.1177  13.1489  14.9543  16.9346  17.1150

          k = 0.1000 0.1732-0.1111 (  6020 PWs)   bands (ev):

   -36.6283 -36.6283 -36.2898 -36.2898  -4.1982  -4.1982   3.9771   3.9771
     7.6629   7.6629  13.9867  13.9867  17.0695  17.0695

          k = 0.1000 0.2887 0.0000 (  6007 PWs)   bands (ev):

   -36.5760 -36.5745 -36.2464 -36.2448  -2.9273  -2.9048   4.6455   5.2198
     7.6814   9.3496  11.8680  12.8858  13.7625  15.3615

          k = 0.1000 0.2887 0.0555 (  6006 PWs)   bands (ev):

   -36.5757 -36.5747 -36.2461 -36.2450  -2.9240  -2.9081   4.7118   5.1101
     7.9060   9.0498  12.0752  12.7370  14.0496  15.1871

          k = 0.1000 0.2887-0.1111 (  6018 PWs)   bands (ev):

   -36.5752 -36.5752 -36.2456 -36.2456  -2.9161  -2.9161   4.8910   4.8910
     8.4467   8.4467  12.4357  12.4357  14.6618  14.6618

          k = 0.1000 0.4041 0.0000 (  6019 PWs)   bands (ev):

   -36.5224 -36.5215 -36.2017 -36.2008  -1.0400  -1.0026   5.7678   6.6733
     7.6910   8.3454   9.4440  11.4889  13.2115  14.3032

          k = 0.1000 0.4041 0.0555 (  6017 PWs)   bands (ev):

   -36.5222 -36.5216 -36.2016 -36.2009  -1.0346  -1.0082   5.8569   6.4565
     7.8789   8.2930   9.6414  10.9846  13.6988  14.3183

          k = 0.1000 0.4041-0.1111 (  6020 PWs)   bands (ev):

   -36.5219 -36.5219 -36.2012 -36.2012  -1.0215  -1.0215   6.1083   6.1083
     8.1372   8.1372  10.2062  10.2062  14.2343  14.2343

          k = 0.1000 0.5196 0.0000 (  6035 PWs)   bands (ev):

   -36.4890 -36.4887 -36.1739 -36.1736   1.3854   1.4492   4.4683   4.7012
     7.3442   8.6140   9.6870  12.1265  12.9142  13.6055

          k = 0.1000 0.5196 0.0555 (  6024 PWs)   bands (ev):

   -36.4890 -36.4887 -36.1739 -36.1736   1.3945   1.4396   4.4993   4.6634
     7.4699   8.2886  10.1109  11.6720  13.0167  13.4081

          k = 0.1000 0.5196-0.1111 (  6026 PWs)   bands (ev):

   -36.4889 -36.4889 -36.1737 -36.1737   1.4168   1.4168   4.5779   4.5779
     7.8137   7.8137  10.8781  10.8781  13.1981  13.1981

          k = 0.2000 0.3464 0.0000 (  6011 PWs)   bands (ev):

   -36.5281 -36.5271 -36.2065 -36.2054  -1.3500  -1.3162   5.6728   6.4844
     8.3341   9.9876  10.5498  11.0962  11.6635  12.2490

          k = 0.2000 0.3464 0.0555 (  6008 PWs)   bands (ev):

   -36.5280 -36.5273 -36.2063 -36.2056  -1.3451  -1.3212   5.7578   6.3083
     8.6245   9.8072  10.5505  10.7760  11.9662  12.2490

          k = 0.2000 0.3464-0.1111 (  6010 PWs)   bands (ev):

   -36.5276 -36.5276 -36.2060 -36.2060  -1.3332  -1.3332   5.9947   5.9947
     9.2453   9.2453  10.5823  10.5823  12.1970  12.1970

          k = 0.2000 0.4619 0.0000 (  6036 PWs)   bands (ev):

   -36.4892 -36.4887 -36.1741 -36.1736   0.8105   0.8649   6.4346   6.9552
     7.5310   8.3466   9.2999  10.2175  11.1321  13.1128

          k = 0.2000 0.4619 0.0555 (  6036 PWs)   bands (ev):

   -36.4892 -36.4888 -36.1740 -36.1737   0.8183   0.8568   6.4977   6.8560
     7.6299   8.1529   9.5355  10.1342  11.2988  12.5838

          k = 0.2000 0.4619-0.1111 (  6036 PWs)   bands (ev):

   -36.4890 -36.4890 -36.1738 -36.1738   0.8374   0.8374   6.6623   6.6623
     7.8574   7.8574   9.8942   9.8942  11.8110  11.8110

          k = 0.2000 0.5774 0.0000 (  6037 PWs)   bands (ev):

   -36.4743 -36.4741 -36.1616 -36.1615   3.0992   3.1528   4.0345   4.2233
     8.2549   9.4526   9.7038   9.9424  10.6010  12.2410

          k = 0.2000 0.5774 0.0555 (  6038 PWs)   bands (ev):

   -36.4743 -36.4742 -36.1616 -36.1615   3.1066   3.1445   4.0607   4.1939
     8.3792   9.1691   9.7420   9.9060  10.8986  11.9505

          k = 0.2000 0.5774-0.1111 (  6030 PWs)   bands (ev):

   -36.4742 -36.4742 -36.1615 -36.1615   3.1251   3.1251   4.1258   4.1258
     8.7180   8.7180   9.8222   9.8222  11.4307  11.4307

          k = 0.3000 0.5196 0.0000 (  6061 PWs)   bands (ev):

   -36.4687 -36.4686 -36.1570 -36.1568   3.1828   3.2571   5.7684   5.8870
     6.9997   7.3567   8.7635  10.0410  11.3968  11.9134

          k = 0.3000 0.5196 0.0555 (  6053 PWs)   bands (ev):

   -36.4687 -36.4686 -36.1570 -36.1568   3.1934   3.2459   5.7855   5.8694
     7.0396   7.2859   8.9224   9.7766  11.6597  11.9638

          k = 0.3000 0.5196-0.1111 (  6046 PWs)   bands (ev):

   -36.4687 -36.4687 -36.1569 -36.1569   3.2193   3.2193   5.8272   5.8272
     7.1488   7.1488   9.3113   9.3113  11.9758  11.9758

     the Fermi energy is     9.3590 ev

!    total energy              =     -74.20139476 Ry
     estimated scf accuracy    <          1.9E-10 Ry
     smearing contrib. (-TS)   =      -0.00085105 Ry
     internal energy E=F+TS    =     -74.20054371 Ry

     The total energy is F=E-TS. E is the sum of the following terms:
     one-electron contribution =     -16.20114664 Ry
     hartree contribution      =      11.83630054 Ry
     xc contribution           =     -20.75595300 Ry
     ewald contribution        =     -49.07974461 Ry

     convergence has been achieved in   7 iterations

     Forces acting on atoms (cartesian axes, Ry/au):

     atom    1 type  1   force =     0.00000000    0.00000000    0.00000000
     atom    2 type  1   force =     0.00000000    0.00000000    0.00000000
     atom    3 type  2   force =    -0.00000000    0.00000000    0.01618312
     atom    4 type  2   force =     0.00000000    0.00000000   -0.01618312
     atom    5 type  2   force =     0.00000000   -0.00000000    0.01618312
     atom    6 type  2   force =     0.00000000    0.00000000   -0.01618312
     The non-local contrib.  to forces
     atom    1 type  1   force =    -0.00000000   -0.00000000    0.00000000
     atom    2 type  1   force =     0.00000000   -0.00000000   -0.00000000
     atom    3 type  2   force =     0.00000000    0.00000000    0.05286335
     atom    4 type  2   force =     0.00000000   -0.00000000   -0.05286335
     atom    5 type  2   force =     0.00000000    0.00000000    0.05286335
     atom    6 type  2   force =     0.00000000    0.00000000   -0.05286335
     The ionic contribution  to forces
     atom    1 type  1   force =    -0.00000000   -0.00000000   -0.00000000
     atom    2 type  1   force =     0.00000000   -0.00000000    0.00000000
     atom    3 type  2   force =    -0.00000000   -0.00000000    0.58793418
     atom    4 type  2   force =     0.00000000    0.00000000   -0.58793418
     atom    5 type  2   force =    -0.00000000    0.00000000    0.58793418
     atom    6 type  2   force =     0.00000000   -0.00000000   -0.58793418
     The local contribution  to forces
     atom    1 type  1   force =    -0.00000000   -0.00000000    0.00000000
     atom    2 type  1   force =    -0.00000000    0.00000000    0.00000000
     atom    3 type  2   force =     0.00000044   -0.00000025   -0.62461267
     atom    4 type  2   force =    -0.00000044    0.00000025    0.62461267
     atom    5 type  2   force =     0.00000044    0.00000025   -0.62461267
     atom    6 type  2   force =    -0.00000044   -0.00000025    0.62461267
     The core correction contribution to forces
     atom    1 type  1   force =     0.00000000    0.00000000   -0.00000000
     atom    2 type  1   force =    -0.00000000    0.00000000   -0.00000000
     atom    3 type  2   force =     0.00000000    0.00000000    0.00000000
     atom    4 type  2   force =     0.00000000    0.00000000    0.00000000
     atom    5 type  2   force =     0.00000000    0.00000000    0.00000000
     atom    6 type  2   force =     0.00000000    0.00000000    0.00000000
     The Hubbard contrib.    to forces
     atom    1 type  1   force =     0.00000000    0.00000000    0.00000000
     atom    2 type  1   force =     0.00000000    0.00000000    0.00000000
     atom    3 type  2   force =     0.00000000    0.00000000    0.00000000
     atom    4 type  2   force =     0.00000000    0.00000000    0.00000000
     atom    5 type  2   force =     0.00000000    0.00000000    0.00000000
     atom    6 type  2   force =     0.00000000    0.00000000    0.00000000
     The SCF correction term to forces
     atom    1 type  1   force =     0.00000000   -0.00000000   -0.00000000
     atom    2 type  1   force =    -0.00000000   -0.00000000   -0.00000000
     atom    3 type  2   force =    -0.00000000    0.00000000   -0.00000174
     atom    4 type  2   force =     0.00000000   -0.00000000    0.00000174
     atom    5 type  2   force =    -0.00000000   -0.00000000   -0.00000174
     atom    6 type  2   force =     0.00000000    0.00000000    0.00000174

     Total force =     0.032366     Total SCF correction =     0.000003


     Computing stress (Cartesian axis) and pressure

          total   stress  (Ry/bohr**3)                   (kbar)     P=      587.86
   0.00343467   0.00000000   0.00000000          505.26        0.00        0.00
   0.00000000   0.00343467   0.00000000            0.00      505.26        0.00
   0.00000000   0.00000000   0.00511932            0.00        0.00      753.08


     BFGS Geometry Optimization
     Energy error            =      0.0E+00 Ry
     Gradient error          =      1.6E-02 Ry/Bohr
     Cell gradient error     =      2.5E+02 kbar

     number of scf cycles    =   1
     number of bfgs steps    =   0

     enthalpy           new  =     -72.9888144614 Ry

     new trust radius        =       0.1624725765 bohr
ibrav =      4
 celldm(1) =      4.51035855
 celldm(3) =      4.69103211
Input lattice vectors:
     1.00089350     0.00000000     0.00000000
    -0.50044675     0.86679920     0.00000000
     0.00000000     0.00000000     4.69522357
New lattice vectors in INITIAL alat:
     1.00089350     0.00000000     0.00000000
    -0.50044675     0.86679920     0.00000000
     0.00000000     0.00000000     4.69522357
New lattice vectors in NEW alat (for information only):
     1.00000000     0.00000000     0.00000000
    -0.50000000     0.86602540     0.00000000
     0.00000000     0.00000000     4.69103211
Discrepancy in bohr =     0.000000    0.000000    0.000000
     new conv_thr            =       0.0000000100 Ry

     new unit-cell volume =    372.76252 a.u.^3 (    55.23771 Ang^3 )
     density =      2.52323 g/cm^3

CELL_PARAMETERS (alat=  4.50633212)
   1.000893505   0.000000000   0.000000000
  -0.500446752   0.866799202   0.000000000
   0.000000000   0.000000000   4.695223572

ATOMIC_POSITIONS (crystal)
Si            0.0000000000        0.0000000000        0.0000000000
Si            0.0000000000        0.0000000000        0.5000000000
Li            0.3333333300        0.6666666700        0.1658327579
Li            0.6666666700        0.3333333300        0.8341672421
Li            0.6666666600        0.3333333300        0.6658327579
Li            0.3333333400        0.6666666700        0.3341672421



     Writing config-only to output data dir ./output/SiLi.save/
     NEW-OLD atomic charge density approx. for the potential
     extrapolated charge   20.85811, renormalised to   20.00000

     total cpu time spent up to now is       12.2 secs

     Self-consistent Calculation

     iteration #  1     ecut=   100.00 Ry     beta= 0.70
     Davidson diagonalization with overlap
     ethr =  1.00E-06,  avg # of iterations =  7.7

     total cpu time spent up to now is       14.0 secs

     total energy              =     -74.26411402 Ry
     estimated scf accuracy    <       0.00670706 Ry

     iteration #  2     ecut=   100.00 Ry     beta= 0.70
     Davidson diagonalization with overlap
     ethr =  3.35E-05,  avg # of iterations =  3.6

     total cpu time spent up to now is       15.0 secs

     total energy              =     -74.26905145 Ry
     estimated scf accuracy    <       0.03299747 Ry

     iteration #  3     ecut=   100.00 Ry     beta= 0.70
     Davidson diagonalization with overlap
     ethr =  3.35E-05,  avg # of iterations =  2.5

     total cpu time spent up to now is       15.8 secs

     total energy              =     -74.27314969 Ry
     estimated scf accuracy    <       0.00076157 Ry

     iteration #  4     ecut=   100.00 Ry     beta= 0.70
     Davidson diagonalization with overlap
     ethr =  3.81E-06,  avg # of iterations =  2.3

     total cpu time spent up to now is       16.5 secs

     total energy              =     -74.27302070 Ry
     estimated scf accuracy    <       0.00031078 Ry

     iteration #  5     ecut=   100.00 Ry     beta= 0.70
     Davidson diagonalization with overlap
     ethr =  1.55E-06,  avg # of iterations =  2.5

     total cpu time spent up to now is       17.3 secs

     total energy              =     -74.27306736 Ry
     estimated scf accuracy    <       0.00000323 Ry

     iteration #  6     ecut=   100.00 Ry     beta= 0.70
     Davidson diagonalization with overlap
     ethr =  1.62E-08,  avg # of iterations =  3.2

     total cpu time spent up to now is       18.1 secs

     total energy              =     -74.27306831 Ry
     estimated scf accuracy    <       0.00000076 Ry

     iteration #  7     ecut=   100.00 Ry     beta= 0.70
     Davidson diagonalization with overlap
     ethr =  3.78E-09,  avg # of iterations =  1.6

     total cpu time spent up to now is       18.8 secs

     End of self-consistent calculation

          k = 0.0000 0.0000 0.0000 (  6011 PWs)   bands (ev):

   -37.0659 -37.0644 -36.7876 -36.7860  -5.5564  -5.5487   2.6001   2.8110
     6.0361   6.8280  11.7356  13.9382  18.4216  23.2991

          k = 0.0000 0.0000 0.0532 (  6011 PWs)   bands (ev):

   -37.0656 -37.0646 -36.7873 -36.7862  -5.5553  -5.5499   2.6281   2.7768
     6.1416   6.6974  12.0066  13.5154  19.0518  22.3205

          k = 0.0000 0.0000-0.1065 (  6004 PWs)   bands (ev):

   -37.0651 -37.0651 -36.7868 -36.7868  -5.5526  -5.5526   2.6994   2.6994
     6.4075   6.4075  12.6977  12.6977  20.5094  20.5094

          k = 0.0000 0.1154 0.0000 (  6021 PWs)   bands (ev):

   -37.0484 -37.0470 -36.7727 -36.7713  -5.2299  -5.2215   2.8374   3.0785
     6.2126   7.0879  11.8000  14.1134  18.1459  19.6595

          k = 0.0000 0.1154 0.0532 (  6020 PWs)   bands (ev):

   -37.0482 -37.0472 -36.7725 -36.7715  -5.2286  -5.2227   2.8690   3.0389
     6.3288   6.9422  12.0854  13.6641  18.6827  19.6210

          k = 0.0000 0.1154-0.1065 (  6010 PWs)   bands (ev):

   -37.0477 -37.0477 -36.7720 -36.7720  -5.2257  -5.2257   2.9500   2.9500
     6.6215   6.6215  12.8081  12.8081  19.4197  19.4197

          k = 0.0000 0.2307 0.0000 (  6019 PWs)   bands (ev):

   -37.0025 -37.0014 -36.7338 -36.7326  -4.2559  -4.2446   3.5361   3.8785
     6.7232   7.8703  11.7935  13.8722  14.9421  15.8630

          k = 0.0000 0.2307 0.0532 (  6009 PWs)   bands (ev):

   -37.0024 -37.0016 -36.7336 -36.7328  -4.2543  -4.2463   3.5790   3.8194
     6.8742   7.6728  12.0966  13.5399  15.0535  15.6263

          k = 0.0000 0.2307-0.1065 (  6024 PWs)   bands (ev):

   -37.0020 -37.0020 -36.7332 -36.7332  -4.2503  -4.2503   3.6914   3.6914
     7.2522   7.2522  12.8057  12.8057  15.2934  15.2934

          k = 0.0000 0.3461 0.0000 (  6028 PWs)   bands (ev):

   -36.9455 -36.9448 -36.6854 -36.6847  -2.6520  -2.6336   4.6392   5.1924
     7.3779   8.9878   9.6048  10.6188  13.1232  16.0242

          k = 0.0000 0.3461 0.0532 (  6027 PWs)   bands (ev):

   -36.9454 -36.9449 -36.6853 -36.6848  -2.6494  -2.6363   4.7023   5.0853
     7.5871   8.6524   9.8306  10.4640  13.5097  15.4385

          k = 0.0000 0.3461-0.1065 (  6022 PWs)   bands (ev):

   -36.9452 -36.9452 -36.6850 -36.6850  -2.6428  -2.6428   4.8737   4.8737
     8.0848   8.0848  10.1589  10.1589  14.4086  14.4086

          k = 0.0000 0.4615 0.0000 (  6038 PWs)   bands (ev):

   -36.8992 -36.8988 -36.6461 -36.6458  -0.4555  -0.4217   5.3428   5.7962
     6.4243   7.0877   8.8782  11.3775  12.3457  14.1970

          k = 0.0000 0.4615 0.0532 (  6022 PWs)   bands (ev):

   -36.8992 -36.8989 -36.6461 -36.6458  -0.4506  -0.4267   5.3964   5.7083
     6.5164   6.9600   9.1643  10.7213  12.9961  14.1130

          k = 0.0000 0.4615-0.1065 (  6038 PWs)   bands (ev):

   -36.8990 -36.8990 -36.6459 -36.6459  -0.4387  -0.4387   5.5380   5.5380
     6.7224   6.7224   9.8502   9.8502  13.7468  13.7468

          k = 0.0000-0.5768 0.0000 (  6040 PWs)   bands (ev):

   -36.8814 -36.8813 -36.6310 -36.6309   1.8566   1.8921   2.8544   3.0074
     7.1020   8.4833   9.0478  10.8408  12.7790  13.5349

          k = 0.0000-0.5768 0.0532 (  6030 PWs)   bands (ev):

   -36.8814 -36.8813 -36.6310 -36.6309   1.8615   1.8866   2.8758   2.9839
     7.2225   8.0627   9.5225  10.6536  12.8558  13.3742

          k = 0.0000-0.5768-0.1065 (  6048 PWs)   bands (ev):

   -36.8813 -36.8813 -36.6310 -36.6310   1.8738   1.8738   2.9288   2.9288
     7.5627   7.5627  10.1616  10.1616  13.0756  13.0756

          k = 0.0999 0.1731 0.0000 (  6015 PWs)   bands (ev):

   -37.0167 -37.0155 -36.7458 -36.7446  -4.5796  -4.5694   3.3063   3.6127
     6.5598   7.6116  11.8813  14.3384  16.3983  16.7908

          k = 0.0999 0.1731 0.0532 (  6026 PWs)   bands (ev):

   -37.0165 -37.0157 -36.7456 -36.7448  -4.5781  -4.5709   3.3453   3.5607
     6.6987   7.4329  12.1914  13.8550  16.5573  16.7772

          k = 0.0999 0.1731-0.1065 (  6020 PWs)   bands (ev):

   -37.0161 -37.0161 -36.7452 -36.7452  -4.5745  -4.5745   3.4467   3.4467
     7.0473   7.0473  12.9579  12.9579  16.7169  16.7169

          k = 0.0999 0.2884 0.0000 (  6007 PWs)   bands (ev):

   -36.9653 -36.9644 -36.7022 -36.7013  -3.2903  -3.2752   4.2182   4.6747
     7.2084   8.6442  11.3572  12.4453  13.1839  14.7582

          k = 0.0999 0.2884 0.0532 (  6006 PWs)   bands (ev):

   -36.9652 -36.9645 -36.7020 -36.7014  -3.2881  -3.2774   4.2727   4.5912
     7.3967   8.3852  11.5823  12.3048  13.4070  14.5184

          k = 0.0999 0.2884-0.1065 (  6018 PWs)   bands (ev):

   -36.9649 -36.9649 -36.7017 -36.7017  -3.2828  -3.2828   4.4182   4.4182
     7.8608   7.8608  11.9868  11.9868  13.9420  13.9420

          k = 0.0999 0.4038 0.0000 (  6019 PWs)   bands (ev):

   -36.9136 -36.9131 -36.6583 -36.6578  -1.3868  -1.3609   5.4549   6.2063
     7.3688   7.9905   8.9412  10.6968  12.6320  13.9928

          k = 0.0999 0.4038 0.0532 (  6017 PWs)   bands (ev):

   -36.9135 -36.9132 -36.6583 -36.6579  -1.3830  -1.3647   5.5319   6.0377
     7.5265   7.9328   9.1138  10.2801  13.0894  13.9759

          k = 0.0999 0.4038-0.1065 (  6020 PWs)   bands (ev):

   -36.9134 -36.9134 -36.6581 -36.6581  -1.3739  -1.3739   5.7476   5.7476
     7.7709   7.7709   9.6058   9.6058  13.7518  13.7518

          k = 0.0999 0.5192 0.0000 (  6035 PWs)   bands (ev):

   -36.8815 -36.8813 -36.6311 -36.6309   1.0592   1.1043   4.2081   4.3860
     7.0552   8.1783   9.2309  11.5971  12.4629  12.9321

          k = 0.0999 0.5192 0.0532 (  6024 PWs)   bands (ev):

   -36.8815 -36.8814 -36.6311 -36.6310   1.0656   1.0976   4.2322   4.3576
     7.1649   7.8915   9.6186  11.1168  12.6535  12.9733

          k = 0.0999 0.5192-0.1065 (  6026 PWs)   bands (ev):

   -36.8814 -36.8814 -36.6310 -36.6310   1.0815   1.0815   4.2927   4.2927
     7.4684   7.4684  10.3421  10.3421  12.8380  12.8380

          k = 0.1998 0.3461 0.0000 (  6011 PWs)   bands (ev):

   -36.9191 -36.9186 -36.6630 -36.6624  -1.6998  -1.6765   5.3222   5.9883
     7.9338   9.5223  10.2168  10.7035  11.0051  11.8326

          k = 0.1998 0.3461 0.0532 (  6008 PWs)   bands (ev):

   -36.9191 -36.9187 -36.6629 -36.6625  -1.6964  -1.6799   5.3946   5.8510
     8.1808   9.2995  10.2191  10.3953  11.3904  11.8106

          k = 0.1998 0.3461-0.1065 (  6010 PWs)   bands (ev):

   -36.9189 -36.9189 -36.6627 -36.6627  -1.6882  -1.6882   5.5943   5.5943
     8.7389   8.7389  10.2473  10.2473  11.6976  11.6976

          k = 0.1998 0.4615 0.0000 (  6036 PWs)   bands (ev):

   -36.8817 -36.8814 -36.6313 -36.6310   0.4790   0.5173   6.2243   6.6549
     7.1756   7.8766   8.9516   9.8911  10.7340  12.3188

          k = 0.1998 0.4615 0.0532 (  6036 PWs)   bands (ev):

   -36.8817 -36.8815 -36.6312 -36.6310   0.4845   0.5116   6.2780   6.5760
     7.2577   7.7134   9.1755   9.8041  10.8604  11.8922

          k = 0.1998 0.4615-0.1065 (  6036 PWs)   bands (ev):

   -36.8816 -36.8816 -36.6311 -36.6311   0.4979   0.4979   6.4167   6.4167
     7.4545   7.4545   9.5476   9.5476  11.2620  11.2620

          k = 0.1998 0.5768 0.0000 (  6037 PWs)   bands (ev):

   -36.8673 -36.8672 -36.6191 -36.6190   2.7731   2.8107   3.7649   3.9063
     8.0188   9.1715   9.3245   9.6304  10.2212  11.7149

          k = 0.1998 0.5768 0.0532 (  6038 PWs)   bands (ev):

   -36.8673 -36.8673 -36.6191 -36.6190   2.7784   2.8049   3.7847   3.8846
     8.1284   8.8509   9.4397   9.6011  10.4821  11.4598

          k = 0.1998 0.5768-0.1065 (  6030 PWs)   bands (ev):

   -36.8673 -36.8673 -36.6190 -36.6190   2.7915   2.7915   3.8337   3.8337
     8.4316   8.4316   9.5295   9.5295  10.9760  10.9760

          k = 0.2997 0.5192 0.0000 (  6061 PWs)   bands (ev):

   -36.8620 -36.8619 -36.6145 -36.6144   2.8672   2.9202   5.4768   5.5624
     6.7679   7.0543   8.5209   9.6572  11.0081  11.5967

          k = 0.2997 0.5192 0.0532 (  6053 PWs)   bands (ev):

   -36.8619 -36.8619 -36.6145 -36.6144   2.8748   2.9123   5.4892   5.5498
     6.8012   7.0001   8.6565   9.4180  11.2696  11.6395

          k = 0.2997 0.5192-0.1065 (  6046 PWs)   bands (ev):

   -36.8619 -36.8619 -36.6145 -36.6145   2.8934   2.8934   5.5194   5.5194
     6.8909   6.8909   8.9988   8.9988  11.6210  11.6210

     the Fermi energy is     8.9007 ev

!    total energy              =     -74.27306842 Ry
     estimated scf accuracy    <          4.4E-09 Ry
     smearing contrib. (-TS)   =      -0.00040774 Ry
     internal energy E=F+TS    =     -74.27266068 Ry

     The total energy is F=E-TS. E is the sum of the following terms:
     one-electron contribution =     -17.09010245 Ry
     hartree contribution      =      11.91902379 Ry
     xc contribution           =     -20.65685367 Ry
     ewald contribution        =     -48.44472834 Ry

     convergence has been achieved in   7 iterations

     Forces acting on atoms (cartesian axes, Ry/au):

     atom    1 type  1   force =     0.00000000    0.00000000    0.00000000
     atom    2 type  1   force =    -0.00000000   -0.00000000    0.00000000
     atom    3 type  2   force =     0.00000000    0.00000000   -0.00086895
     atom    4 type  2   force =     0.00000000   -0.00000000    0.00086895
     atom    5 type  2   force =     0.00000000    0.00000000   -0.00086895
     atom    6 type  2   force =    -0.00000000   -0.00000000    0.00086895
     The non-local contrib.  to forces
     atom    1 type  1   force =     0.00000000   -0.00000000    0.00000000
     atom    2 type  1   force =    -0.00000000    0.00000000    0.00000000
     atom    3 type  2   force =     0.00000000   -0.00000000    0.03549362
     atom    4 type  2   force =    -0.00000000   -0.00000000   -0.03549362
     atom    5 type  2   force =     0.00000000   -0.00000000    0.03549362
     atom    6 type  2   force =    -0.00000000   -0.00000000   -0.03549362
     The ionic contribution  to forces
     atom    1 type  1   force =     0.00000000    0.00000000    0.00000000
     atom    2 type  1   force =     0.00000000   -0.00000000   -0.00000000
     atom    3 type  2   force =    -0.00000000   -0.00000000    0.56893358
     atom    4 type  2   force =     0.00000000    0.00000000   -0.56893358
     atom    5 type  2   force =    -0.00000000    0.00000000    0.56893358
     atom    6 type  2   force =     0.00000000   -0.00000000   -0.56893358
     The local contribution  to forces
     atom    1 type  1   force =    -0.00000000    0.00000000    0.00000000
     atom    2 type  1   force =    -0.00000000   -0.00000000    0.00000000
     atom    3 type  2   force =     0.00000044   -0.00000025   -0.60525115
     atom    4 type  2   force =    -0.00000044    0.00000025    0.60525115
     atom    5 type  2   force =     0.00000044    0.00000025   -0.60525115
     atom    6 type  2   force =    -0.00000044   -0.00000025    0.60525115
     The core correction contribution to forces
     atom    1 type  1   force =    -0.00000000    0.00000000    0.00000000
     atom    2 type  1   force =     0.00000000    0.00000000    0.00000000
     atom    3 type  2   force =     0.00000000    0.00000000    0.00000000
     atom    4 type  2   force =     0.00000000    0.00000000    0.00000000
     atom    5 type  2   force =     0.00000000    0.00000000    0.00000000
     atom    6 type  2   force =     0.00000000    0.00000000    0.00000000
     The Hubbard contrib.    to forces
     atom    1 type  1   force =     0.00000000    0.00000000    0.00000000
     atom    2 type  1   force =     0.00000000    0.00000000    0.00000000
     atom    3 type  2   force =     0.00000000    0.00000000    0.00000000
     atom    4 type  2   force =     0.00000000    0.00000000    0.00000000
     atom    5 type  2   force =     0.00000000    0.00000000    0.00000000
     atom    6 type  2   force =     0.00000000    0.00000000    0.00000000
     The SCF correction term to forces
     atom    1 type  1   force =    -0.00000000    0.00000000   -0.00000000
     atom    2 type  1   force =     0.00000000   -0.00000000    0.00000000
     atom    3 type  2   force =    -0.00000000    0.00000000   -0.00004501
     atom    4 type  2   force =     0.00000000   -0.00000000    0.00004501
     atom    5 type  2   force =    -0.00000000   -0.00000000   -0.00004501
     atom    6 type  2   force =     0.00000000    0.00000000    0.00004501

     Total force =     0.001738     Total SCF correction =     0.000090


     Computing stress (Cartesian axis) and pressure

          total   stress  (Ry/bohr**3)                   (kbar)     P=      493.58
   0.00308317  -0.00000000   0.00000000          453.55       -0.00        0.00
  -0.00000000   0.00308317   0.00000000           -0.00      453.55        0.00
   0.00000000   0.00000000   0.00389959            0.00        0.00      573.65

     Energy error            =      1.7E-02 Ry
     Gradient error          =      8.7E-04 Ry/Bohr
     Cell gradient error     =      7.4E+01 kbar

     number of scf cycles    =   2
     number of bfgs steps    =   1

     enthalpy           old  =     -72.9888144614 Ry
     enthalpy           new  =     -73.0060743613 Ry

     CASE: enthalpy          _new < enthalpy          _old

     new trust radius        =       0.0873315911 bohr
ibrav =      4
 celldm(1) =      4.46005873
 celldm(3) =      4.85122802
Input lattice vectors:
     0.98973147    -0.00000000     0.00000000
    -0.49486574     0.85713260     0.00000000
     0.00000000     0.00000000     4.80141306
New lattice vectors in INITIAL alat:
     0.98973147     0.00000000     0.00000000
    -0.49486574     0.85713260     0.00000000
     0.00000000     0.00000000     4.80141306
New lattice vectors in NEW alat (for information only):
     1.00000000     0.00000000     0.00000000
    -0.50000000     0.86602540     0.00000000
     0.00000000     0.00000000     4.85122802
Discrepancy in bohr =     0.000000    0.000000    0.000000
     new conv_thr            =            1.0E-10 Ry

     new unit-cell volume =    372.73833 a.u.^3 (    55.23412 Ang^3 )
     density =      2.52339 g/cm^3

CELL_PARAMETERS (alat=  4.50633212)
   0.989731474   0.000000000   0.000000000
  -0.494865737   0.857132599   0.000000000
   0.000000000   0.000000000   4.801413061

ATOMIC_POSITIONS (crystal)
Si            0.0000000000        0.0000000000        0.0000000000
Si           -0.0000000000       -0.0000000000        0.5000000000
Li            0.3333333300        0.6666666700        0.1658902977
Li            0.6666666700        0.3333333300        0.8341097023
Li            0.6666666600        0.3333333300        0.6658902977
Li            0.3333333400        0.6666666700        0.3341097023



     Writing config-only to output data dir ./output/SiLi.save/
     NEW-OLD atomic charge density approx. for the potential
     extrapolated charge   19.99870, renormalised to   20.00000

     total cpu time spent up to now is       21.3 secs

     Self-consistent Calculation

     iteration #  1     ecut=   100.00 Ry     beta= 0.70
     Davidson diagonalization with overlap
     ethr =  1.00E-06,  avg # of iterations =  6.7

     total cpu time spent up to now is       22.7 secs

     total energy              =     -74.27658390 Ry
     estimated scf accuracy    <       0.00047880 Ry

     iteration #  2     ecut=   100.00 Ry     beta= 0.70
     Davidson diagonalization with overlap
     ethr =  2.39E-06,  avg # of iterations =  2.6

     total cpu time spent up to now is       23.5 secs

     total energy              =     -74.27656918 Ry
     estimated scf accuracy    <       0.00046990 Ry

     iteration #  3     ecut=   100.00 Ry     beta= 0.70
     Davidson diagonalization with overlap
     ethr =  2.35E-06,  avg # of iterations =  2.0

     total cpu time spent up to now is       24.2 secs

     total energy              =     -74.27669516 Ry
     estimated scf accuracy    <       0.00009685 Ry

     iteration #  4     ecut=   100.00 Ry     beta= 0.70
     Davidson diagonalization with overlap
     ethr =  4.84E-07,  avg # of iterations =  1.5

     total cpu time spent up to now is       24.8 secs

     total energy              =     -74.27671069 Ry
     estimated scf accuracy    <       0.00000017 Ry

     iteration #  5     ecut=   100.00 Ry     beta= 0.70
     Davidson diagonalization with overlap
     ethr =  8.37E-10,  avg # of iterations =  3.7

     total cpu time spent up to now is       25.7 secs

     total energy              =     -74.27671086 Ry
     estimated scf accuracy    <       0.00000008 Ry

     iteration #  6     ecut=   100.00 Ry     beta= 0.70
     Davidson diagonalization with overlap
     ethr =  3.99E-10,  avg # of iterations =  1.5

     total cpu time spent up to now is       26.3 secs

     total energy              =     -74.27671087 Ry
     estimated scf accuracy    <          8.4E-10 Ry

     iteration #  7     ecut=   100.00 Ry     beta= 0.70
     Davidson diagonalization with overlap
     ethr =  4.21E-12,  avg # of iterations =  3.4

     total cpu time spent up to now is       27.1 secs

     total energy              =     -74.27671087 Ry
     estimated scf accuracy    <          1.1E-10 Ry

     iteration #  8     ecut=   100.00 Ry     beta= 0.70
     Davidson diagonalization with overlap
     ethr =  5.59E-13,  avg # of iterations =  1.6

     total cpu time spent up to now is       27.7 secs

     End of self-consistent calculation

          k = 0.0000 0.0000 0.0000 (  6011 PWs)   bands (ev):

   -37.0434 -37.0422 -36.8024 -36.8011  -5.7282  -5.7226   2.4469   2.6052
     5.9519   6.6156  11.3730  13.3320  17.8468  23.6848

          k = 0.0000 0.0000 0.0521 (  6011 PWs)   bands (ev):

   -37.0433 -37.0424 -36.8022 -36.8013  -5.7274  -5.7234   2.4684   2.5801
     6.0399   6.5063  11.6149  12.9623  18.4205  21.4975

          k = 0.0000 0.0000-0.1041 (  6004 PWs)   bands (ev):

   -37.0428 -37.0428 -36.8017 -36.8017  -5.7254  -5.7254   2.5225   2.5225
     6.2628   6.2628  12.2340  12.2340  19.7778  19.7778

          k = 0.0000 0.1167 0.0000 (  6021 PWs)   bands (ev):

   -37.0244 -37.0233 -36.7860 -36.7848  -5.3933  -5.3871   2.6990   2.8833
     6.1367   6.8781  11.4566  13.5374  17.6927  20.0088

          k = 0.0000 0.1167 0.0521 (  6020 PWs)   bands (ev):

   -37.0243 -37.0235 -36.7858 -36.7850  -5.3924  -5.3880   2.7237   2.8537
     6.2345   6.7548  11.7135  13.1391  18.2531  19.9390

          k = 0.0000 0.1167-0.1041 (  6010 PWs)   bands (ev):

   -37.0239 -37.0239 -36.7854 -36.7854  -5.3902  -5.3902   2.7863   2.7863
     6.4824   6.4824  12.3673  12.3673  19.3992  19.3992

          k = 0.0000 0.2333 0.0000 (  6019 PWs)   bands (ev):

   -36.9746 -36.9737 -36.7429 -36.7420  -4.3944  -4.3861   3.4413   3.7148
     6.6724   7.6703  11.5557  13.6894  15.0944  15.7645

          k = 0.0000 0.2333 0.0521 (  6009 PWs)   bands (ev):

   -36.9744 -36.9738 -36.7428 -36.7421  -4.3932  -4.3873   3.4765   3.6689
     6.8022   7.4983  11.8434  13.3089  15.2012  15.6202

          k = 0.0000 0.2333-0.1041 (  6024 PWs)   bands (ev):

   -36.9741 -36.9741 -36.7424 -36.7424  -4.3902  -4.3902   3.5675   3.5675
     7.1307   7.1307  12.5385  12.5385  15.3971  15.3971

          k = 0.0000 0.3500 0.0000 (  6028 PWs)   bands (ev):

   -36.9126 -36.9120 -36.6894 -36.6888  -2.7506  -2.7367   4.6167   5.0821
     7.3873   8.8632   9.7325  10.6629  12.9201  15.6776

          k = 0.0000 0.3500 0.0521 (  6027 PWs)   bands (ev):

   -36.9125 -36.9121 -36.6894 -36.6889  -2.7486  -2.7387   4.6715   4.9954
     7.5734   8.5623   9.9336  10.5289  13.2695  15.0911

          k = 0.0000 0.3500-0.1041 (  6022 PWs)   bands (ev):

   -36.9123 -36.9123 -36.6891 -36.6891  -2.7437  -2.7437   4.8184   4.8184
     8.0298   8.0298  10.2490  10.2490  14.1033  14.1033

          k = 0.0000 0.4667 0.0000 (  6038 PWs)   bands (ev):

   -36.8621 -36.8619 -36.6460 -36.6457  -0.5034  -0.4771   5.4754   5.9019
     6.4693   7.0471   8.8725  11.1837  12.2715  14.3067

          k = 0.0000 0.4667 0.0521 (  6022 PWs)   bands (ev):

   -36.8621 -36.8619 -36.6459 -36.6457  -0.4996  -0.4810   5.5258   5.8191
     6.5520   6.9396   9.1336  10.5892  12.8924  14.1782

          k = 0.0000 0.4667-0.1041 (  6038 PWs)   bands (ev):

   -36.8620 -36.8620 -36.6458 -36.6458  -0.4903  -0.4903   5.6589   5.6589
     6.7341   6.7341   9.7721   9.7721  13.7045  13.7045

          k = 0.0000-0.5833 0.0000 (  6040 PWs)   bands (ev):

   -36.8428 -36.8427 -36.6293 -36.6292   1.8100   1.8381   2.9769   3.1087
     7.2252   8.5362   9.0537  10.7590  12.6694  13.4196

          k = 0.0000-0.5833 0.0521 (  6030 PWs)   bands (ev):

   -36.8428 -36.8427 -36.6293 -36.6292   1.8140   1.8338   2.9954   3.0884
     7.3382   8.1319   9.5109  10.5839  12.7381  13.2375

          k = 0.0000-0.5833-0.1041 (  6048 PWs)   bands (ev):

   -36.8427 -36.8427 -36.6293 -36.6293   1.8238   1.8238   3.0410   3.0410
     7.6583   7.6583  10.1194  10.1194  12.9405  12.9405

          k = 0.1010 0.1750 0.0000 (  6015 PWs)   bands (ev):

   -36.9900 -36.9890 -36.7562 -36.7552  -4.7263  -4.7188   3.1970   3.4384
     6.5003   7.4077  11.5852  13.8648  16.5328  17.0559

          k = 0.1010 0.1750 0.0521 (  6026 PWs)   bands (ev):

   -36.9899 -36.9892 -36.7561 -36.7554  -4.7252  -4.7199   3.2285   3.3986
     6.6189   7.2534  11.8699  13.4184  16.7419  17.0375

          k = 0.1010 0.1750-0.1041 (  6020 PWs)   bands (ev):

   -36.9895 -36.9895 -36.7557 -36.7557  -4.7226  -4.7226   3.3095   3.3095
     6.9194   6.9194  12.5810  12.5810  16.9575  16.9575

          k = 0.1010 0.2917 0.0000 (  6007 PWs)   bands (ev):

   -36.9340 -36.9334 -36.7080 -36.7072  -3.4046  -3.3933   4.1657   4.5424
     7.1840   8.4618  11.3231  12.5735  13.2036  14.6726

          k = 0.1010 0.2917 0.0521 (  6006 PWs)   bands (ev):

   -36.9339 -36.9335 -36.7079 -36.7073  -3.4030  -3.3950   4.2120   4.4757
     7.3483   8.2307  11.5692  12.4162  13.3826  14.3899

          k = 0.1010 0.2917-0.1041 (  6018 PWs)   bands (ev):

   -36.9337 -36.9337 -36.7076 -36.7076  -3.3990  -3.3990   4.3340   4.3340
     7.7605   7.7605  12.0410  12.0410  13.8276  13.8276

          k = 0.1010 0.4083 0.0000 (  6019 PWs)   bands (ev):

   -36.8778 -36.8774 -36.6595 -36.6591  -1.4553  -1.4354   5.4930   6.1452
     7.4644   8.1120   8.9478  10.5209  12.5474  14.2425

          k = 0.1010 0.4083 0.0521 (  6017 PWs)   bands (ev):

   -36.8778 -36.8775 -36.6594 -36.6591  -1.4524  -1.4383   5.5622   6.0059
     7.6108   8.0435   9.1037  10.1509  12.9987  14.1804

          k = 0.1010 0.4083-0.1041 (  6020 PWs)   bands (ev):

   -36.8776 -36.8776 -36.6593 -36.6593  -1.4454  -1.4454   5.7542   5.7542
     7.8616   7.8616   9.5442   9.5442  13.7703  13.7703

          k = 0.1010 0.5250 0.0000 (  6035 PWs)   bands (ev):

   -36.8429 -36.8427 -36.6294 -36.6292   1.0378   1.0731   4.3177   4.4736
     7.1557   8.1938   9.2444  11.5525  12.3713  13.0583

          k = 0.1010 0.5250 0.0521 (  6024 PWs)   bands (ev):

   -36.8429 -36.8428 -36.6294 -36.6293   1.0429   1.0679   4.3389   4.4489
     7.2572   7.9316   9.6071  11.0575  12.6859  13.0682

          k = 0.1010 0.5250-0.1041 (  6026 PWs)   bands (ev):

   -36.8428 -36.8428 -36.6293 -36.6293   1.0553   1.0553   4.3921   4.3921
     7.5390   7.5390  10.2996  10.2996  12.9504  12.9504

          k = 0.2021 0.3500 0.0000 (  6011 PWs)   bands (ev):

   -36.8838 -36.8834 -36.6647 -36.6642  -1.7756  -1.7578   5.3369   5.9091
     7.9628   9.4950  10.3379  10.8319  10.9545  12.0643

          k = 0.2021 0.3500 0.0521 (  6008 PWs)   bands (ev):

   -36.8838 -36.8835 -36.6646 -36.6643  -1.7730  -1.7604   5.4010   5.7957
     8.1834   9.2511  10.3412  10.4980  11.4398  12.0194

          k = 0.2021 0.3500-0.1041 (  6010 PWs)   bands (ev):

   -36.8836 -36.8836 -36.6644 -36.6644  -1.7667  -1.7667   5.5761   5.5761
     8.7007   8.7007  10.3685  10.3685  11.8381  11.8381

          k = 0.2021 0.4667 0.0000 (  6036 PWs)   bands (ev):

   -36.8431 -36.8429 -36.6295 -36.6293   0.4512   0.4812   6.3615   6.7586
     7.2509   7.8674   9.0355  10.0874  10.9280  12.1423

          k = 0.2021 0.4667 0.0521 (  6036 PWs)   bands (ev):

   -36.8431 -36.8429 -36.6295 -36.6293   0.4556   0.4767   6.4114   6.6869
     7.3231   7.7269   9.2591   9.9796  11.0212  11.8109

          k = 0.2021 0.4667-0.1041 (  6036 PWs)   bands (ev):

   -36.8430 -36.8430 -36.6294 -36.6294   0.4661   0.4661   6.5401   6.5401
     7.4978   7.4978   9.6693   9.6693  11.3206  11.3206

          k = 0.2021 0.5833 0.0000 (  6037 PWs)   bands (ev):

   -36.8275 -36.8274 -36.6161 -36.6160   2.7470   2.7766   3.8907   4.0102
     8.1766   9.3274   9.4143   9.8374  10.3552  11.6778

          k = 0.2021 0.5833 0.0521 (  6038 PWs)   bands (ev):

   -36.8275 -36.8274 -36.6161 -36.6160   2.7512   2.7721   3.9075   3.9920
     8.2785   8.9648   9.6173   9.8091  10.5701  11.4574

          k = 0.2021 0.5833-0.1041 (  6030 PWs)   bands (ev):

   -36.8274 -36.8274 -36.6160 -36.6160   2.7615   2.7615   3.9490   3.9490
     8.5625   8.5625   9.7347   9.7347  11.0152  11.0152

          k = 0.3031 0.5250 0.0000 (  6061 PWs)   bands (ev):

   -36.8216 -36.8215 -36.6110 -36.6109   2.8778   2.9193   5.5212   5.5903
     7.0353   7.3052   8.6877   9.7490  11.1109  11.7541

          k = 0.3031 0.5250 0.0521 (  6053 PWs)   bands (ev):

   -36.8216 -36.8215 -36.6110 -36.6109   2.8837   2.9131   5.5312   5.5801
     7.0666   7.2542   8.8148   9.5275  11.3703  11.7946

          k = 0.3031 0.5250-0.1041 (  6046 PWs)   bands (ev):

   -36.8216 -36.8216 -36.6110 -36.6110   2.8983   2.8983   5.5556   5.5556
     7.1512   7.1512   9.1356   9.1356  11.7530  11.7530

     the Fermi energy is     8.9400 ev

!    total energy              =     -74.27671087 Ry
     estimated scf accuracy    <          3.3E-12 Ry
     smearing contrib. (-TS)   =      -0.00052545 Ry
     internal energy E=F+TS    =     -74.27618542 Ry

     The total energy is F=E-TS. E is the sum of the following terms:
     one-electron contribution =     -17.04883049 Ry
     hartree contribution      =      11.90172646 Ry
     xc contribution           =     -20.66880739 Ry
     ewald contribution        =     -48.46027400 Ry

     convergence has been achieved in   8 iterations

     Forces acting on atoms (cartesian axes, Ry/au):

     atom    1 type  1   force =    -0.00000000    0.00000000    0.00000000
     atom    2 type  1   force =     0.00000000    0.00000000    0.00000000
     atom    3 type  2   force =     0.00000000    0.00000000   -0.00418102
     atom    4 type  2   force =     0.00000000    0.00000000    0.00418102
     atom    5 type  2   force =     0.00000000    0.00000000   -0.00418102
     atom    6 type  2   force =     0.00000000   -0.00000000    0.00418102
     The non-local contrib.  to forces
     atom    1 type  1   force =     0.00000000    0.00000000   -0.00000000
     atom    2 type  1   force =    -0.00000000   -0.00000000   -0.00000000
     atom    3 type  2   force =     0.00000000    0.00000000    0.02272367
     atom    4 type  2   force =    -0.00000000   -0.00000000   -0.02272367
     atom    5 type  2   force =     0.00000000    0.00000000    0.02272367
     atom    6 type  2   force =     0.00000000    0.00000000   -0.02272367
     The ionic contribution  to forces
     atom    1 type  1   force =     0.00000000    0.00000000    0.00000000
     atom    2 type  1   force =    -0.00000000    0.00000000    0.00000000
     atom    3 type  2   force =    -0.00000000   -0.00000000    0.61549437
     atom    4 type  2   force =     0.00000000    0.00000000   -0.61549437
     atom    5 type  2   force =    -0.00000000    0.00000000    0.61549437
     atom    6 type  2   force =     0.00000000   -0.00000000   -0.61549437
     The local contribution  to forces
     atom    1 type  1   force =     0.00000000   -0.00000000   -0.00000000
     atom    2 type  1   force =    -0.00000000    0.00000000   -0.00000000
     atom    3 type  2   force =     0.00000043   -0.00000025   -0.64240077
     atom    4 type  2   force =    -0.00000043    0.00000025    0.64240077
     atom    5 type  2   force =     0.00000043    0.00000025   -0.64240077
     atom    6 type  2   force =    -0.00000043   -0.00000025    0.64240077
     The core correction contribution to forces
     atom    1 type  1   force =     0.00000000   -0.00000000   -0.00000000
     atom    2 type  1   force =    -0.00000000    0.00000000    0.00000000
     atom    3 type  2   force =     0.00000000    0.00000000    0.00000000
     atom    4 type  2   force =     0.00000000    0.00000000    0.00000000
     atom    5 type  2   force =     0.00000000    0.00000000    0.00000000
     atom    6 type  2   force =     0.00000000    0.00000000    0.00000000
     The Hubbard contrib.    to forces
     atom    1 type  1   force =     0.00000000    0.00000000    0.00000000
     atom    2 type  1   force =     0.00000000    0.00000000    0.00000000
     atom    3 type  2   force =     0.00000000    0.00000000    0.00000000
     atom    4 type  2   force =     0.00000000    0.00000000    0.00000000
     atom    5 type  2   force =     0.00000000    0.00000000    0.00000000
     atom    6 type  2   force =     0.00000000    0.00000000    0.00000000
     The SCF correction term to forces
     atom    1 type  1   force =     0.00000000   -0.00000000    0.00000000
     atom    2 type  1   force =    -0.00000000    0.00000000    0.00000000
     atom    3 type  2   force =    -0.00000000    0.00000000    0.00000172
     atom    4 type  2   force =     0.00000000   -0.00000000   -0.00000172
     atom    5 type  2   force =    -0.00000000   -0.00000000    0.00000172
     atom    6 type  2   force =     0.00000000    0.00000000   -0.00000172

     Total force =     0.008362     Total SCF correction =     0.000003


     Computing stress (Cartesian axis) and pressure

          total   stress  (Ry/bohr**3)                   (kbar)     P=      498.73
   0.00336826   0.00000000   0.00000000          495.49        0.00        0.00
   0.00000000   0.00336826   0.00000000            0.00      495.49        0.00
   0.00000000   0.00000000   0.00343439            0.00        0.00      505.22

     Energy error            =      3.7E-03 Ry
     Gradient error          =      4.2E-03 Ry/Bohr
     Cell gradient error     =      5.2E+00 kbar

     number of scf cycles    =   3
     number of bfgs steps    =   2

     enthalpy           old  =     -73.0060743613 Ry
     enthalpy           new  =     -73.0097990407 Ry

     CASE: enthalpy          _new < enthalpy          _old

     new trust radius        =       0.0078101234 bohr
ibrav =      4
 celldm(1) =      4.45507305
 celldm(3) =      4.86648048
Input lattice vectors:
     0.98862510     0.00000000    -0.00000000
    -0.49431255     0.85617445    -0.00000000
    -0.00000000    -0.00000000     4.81112475
New lattice vectors in INITIAL alat:
     0.98862510     0.00000000     0.00000000
    -0.49431255     0.85617445     0.00000000
     0.00000000     0.00000000     4.81112475
New lattice vectors in NEW alat (for information only):
     1.00000000     0.00000000     0.00000000
    -0.50000000     0.86602540     0.00000000
     0.00000000     0.00000000     4.86648048
Discrepancy in bohr =     0.000000    0.000000    0.000000
     new conv_thr            =       0.0000000004 Ry

     new unit-cell volume =    372.65771 a.u.^3 (    55.22217 Ang^3 )
     density =      2.52394 g/cm^3

CELL_PARAMETERS (alat=  4.50633212)
   0.988625102   0.000000000   0.000000000
  -0.494312551   0.856174453   0.000000000
   0.000000000   0.000000000   4.811124754

ATOMIC_POSITIONS (crystal)
Si           -0.0000000000        0.0000000000        0.0000000000
Si            0.0000000000        0.0000000000        0.5000000000
Li            0.3333333300        0.6666666700        0.1656662919
Li            0.6666666700        0.3333333300        0.8343337081
Li            0.6666666600        0.3333333300        0.6656662919
Li            0.3333333400        0.6666666700        0.3343337081



     Writing config-only to output data dir ./output/SiLi.save/
     NEW-OLD atomic charge density approx. for the potential
     extrapolated charge   19.99568, renormalised to   20.00000

     total cpu time spent up to now is       30.0 secs

     Self-consistent Calculation

     iteration #  1     ecut=   100.00 Ry     beta= 0.70
     Davidson diagonalization with overlap
     ethr =  1.00E-06,  avg # of iterations =  3.1

     total cpu time spent up to now is       30.9 secs

     total energy              =     -74.27650315 Ry
     estimated scf accuracy    <       0.00004659 Ry

     iteration #  2     ecut=   100.00 Ry     beta= 0.70
     Davidson diagonalization with overlap
     ethr =  2.33E-07,  avg # of iterations =  2.4

     total cpu time spent up to now is       31.6 secs

     total energy              =     -74.27650348 Ry
     estimated scf accuracy    <       0.00017104 Ry

     iteration #  3     ecut=   100.00 Ry     beta= 0.70
     Davidson diagonalization with overlap
     ethr =  2.33E-07,  avg # of iterations =  2.0

     total cpu time spent up to now is       32.3 secs

     total energy              =     -74.27653135 Ry
     estimated scf accuracy    <       0.00000002 Ry

     iteration #  4     ecut=   100.00 Ry     beta= 0.70
     Davidson diagonalization with overlap
     ethr =  1.24E-10,  avg # of iterations =  4.7

     total cpu time spent up to now is       33.2 secs

     total energy              =     -74.27653143 Ry
     estimated scf accuracy    <       0.00000003 Ry

     iteration #  5     ecut=   100.00 Ry     beta= 0.70
     Davidson diagonalization with overlap
     ethr =  1.24E-10,  avg # of iterations =  1.9

     total cpu time spent up to now is       33.9 secs

     total energy              =     -74.27653144 Ry
     estimated scf accuracy    <          2.4E-09 Ry

     iteration #  6     ecut=   100.00 Ry     beta= 0.70
     Davidson diagonalization with overlap
     ethr =  1.19E-11,  avg # of iterations =  1.6

     total cpu time spent up to now is       34.5 secs

     End of self-consistent calculation

          k = 0.0000 0.0000 0.0000 (  6011 PWs)   bands (ev):

   -37.0361 -37.0349 -36.8027 -36.8015  -5.7464  -5.7409   2.4360   2.5898
     5.9416   6.5930  11.3505  13.2932  17.7858  23.7186

          k = 0.0000 0.0000 0.0520 (  6011 PWs)   bands (ev):

   -37.0360 -37.0351 -36.8025 -36.8016  -5.7456  -5.7417   2.4569   2.5655
     6.0280   6.4858  11.5900  12.9262  18.3566  21.4180

          k = 0.0000 0.0000-0.1039 (  6004 PWs)   bands (ev):

   -37.0355 -37.0355 -36.8021 -36.8021  -5.7436  -5.7436   2.5095   2.5095
     6.2469   6.2469  12.2036  12.2036  19.7073  19.7073

          k = 0.0000 0.1168 0.0000 (  6021 PWs)   bands (ev):

   -37.0170 -37.0159 -36.7861 -36.7850  -5.4106  -5.4047   2.6893   2.8685
     6.1281   6.8565  11.4345  13.4997  17.6385  20.0403

          k = 0.0000 0.1168 0.0520 (  6020 PWs)   bands (ev):

   -37.0168 -37.0160 -36.7860 -36.7851  -5.4098  -5.4056   2.7133   2.8398
     6.2242   6.7354  11.6890  13.1038  18.1994  19.9641

          k = 0.0000 0.1168-0.1039 (  6010 PWs)   bands (ev):

   -37.0164 -37.0164 -36.7855 -36.7855  -5.4077  -5.4077   2.7743   2.7743
     6.4678   6.4678  12.3374  12.3374  19.3677  19.3677

          k = 0.0000 0.2336 0.0000 (  6019 PWs)   bands (ev):

   -36.9667 -36.9658 -36.7426 -36.7417  -4.4096  -4.4015   3.4350   3.7020
     6.6685   7.6520  11.5375  13.6711  15.1066  15.7684

          k = 0.0000 0.2336 0.0520 (  6009 PWs)   bands (ev):

   -36.9666 -36.9659 -36.7424 -36.7418  -4.4084  -4.4027   3.4694   3.6573
     6.7963   7.4825  11.8234  13.2877  15.2147  15.6286

          k = 0.0000 0.2336-0.1039 (  6024 PWs)   bands (ev):

   -36.9663 -36.9663 -36.7421 -36.7421  -4.4055  -4.4055   3.5584   3.5584
     7.1201   7.1201  12.5161  12.5161  15.4102  15.4102

          k = 0.0000 0.3504 0.0000 (  6028 PWs)   bands (ev):

   -36.9042 -36.9036 -36.6885 -36.6879  -2.7622  -2.7487   4.6162   5.0725
     7.3915   8.8537   9.7408  10.6680  12.9035  15.6501

          k = 0.0000 0.3504 0.0520 (  6027 PWs)   bands (ev):

   -36.9041 -36.9037 -36.6884 -36.6880  -2.7602  -2.7507   4.6701   4.9878
     7.5752   8.5555   9.9409  10.5352  13.2498  15.0626

          k = 0.0000 0.3504-0.1039 (  6022 PWs)   bands (ev):

   -36.9039 -36.9039 -36.6882 -36.6882  -2.7554  -2.7554   4.8145   4.8145
     8.0271   8.0271  10.2562  10.2562  14.0781  14.0781

          k = 0.0000 0.4672 0.0000 (  6038 PWs)   bands (ev):

   -36.8534 -36.8531 -36.6446 -36.6443  -0.5104  -0.4849   5.4852   5.9074
     6.4757   7.0431   8.8807  11.1748  12.2599  14.3159

          k = 0.0000 0.4672 0.0520 (  6022 PWs)   bands (ev):

   -36.8533 -36.8531 -36.6445 -36.6443  -0.5067  -0.4887   5.5351   5.8256
     6.5571   6.9381   9.1385  10.5834  12.8803  14.1823

          k = 0.0000 0.4672-0.1039 (  6038 PWs)   bands (ev):

   -36.8532 -36.8532 -36.6444 -36.6444  -0.4978  -0.4978   5.6670   5.6670
     6.7364   6.7364   9.7715   9.7715  13.6977  13.6977

          k = 0.0000-0.5840 0.0000 (  6040 PWs)   bands (ev):

   -36.8339 -36.8338 -36.6277 -36.6276   1.8030   1.8304   2.9853   3.1147
     7.2395   8.5361   9.0641  10.7511  12.6684  13.4232

          k = 0.0000-0.5840 0.0520 (  6030 PWs)   bands (ev):

   -36.8338 -36.8338 -36.6277 -36.6276   1.8069   1.8262   3.0034   3.0949
     7.3516   8.1385   9.5143  10.5778  12.7368  13.2379

          k = 0.0000-0.5840-0.1039 (  6048 PWs)   bands (ev):

   -36.8338 -36.8338 -36.6276 -36.6276   1.8164   1.8164   3.0483   3.0483
     7.6691   7.6691  10.1175  10.1175  12.9389  12.9389

          k = 0.1012 0.1752 0.0000 (  6015 PWs)   bands (ev):

   -36.9823 -36.9813 -36.7561 -36.7551  -4.7422  -4.7350   3.1895   3.4250
     6.4949   7.3882  11.5644  13.8313  16.5331  17.0785

          k = 0.1012 0.1752 0.0520 (  6026 PWs)   bands (ev):

   -36.9821 -36.9815 -36.7559 -36.7552  -4.7411  -4.7360   3.2203   3.3862
     6.6116   7.2364  11.8468  13.3866  16.7513  17.0595

          k = 0.1012 0.1752-0.1039 (  6020 PWs)   bands (ev):

   -36.9818 -36.9818 -36.7556 -36.7556  -4.7386  -4.7386   3.2994   3.2994
     6.9074   6.9074  12.5532  12.5532  16.9765  16.9765

          k = 0.1012 0.2920 0.0000 (  6007 PWs)   bands (ev):

   -36.9259 -36.9252 -36.7072 -36.7065  -3.4176  -3.4066   4.1627   4.5315
     7.1845   8.4469  11.3169  12.5832  13.2067  14.6633

          k = 0.1012 0.2920 0.0520 (  6006 PWs)   bands (ev):

   -36.9258 -36.9253 -36.7071 -36.7066  -3.4160  -3.4083   4.2081   4.4665
     7.3465   8.2186  11.5643  12.4234  13.3829  14.3785

          k = 0.1012 0.2920-0.1039 (  6018 PWs)   bands (ev):

   -36.9255 -36.9255 -36.7069 -36.7069  -3.4121  -3.4121   4.3279   4.3279
     7.7537   7.7537  12.0417  12.0417  13.8201  13.8201

          k = 0.1012 0.4088 0.0000 (  6019 PWs)   bands (ev):

   -36.8692 -36.8688 -36.6582 -36.6578  -1.4641  -1.4448   5.4973   6.1383
     7.4745   8.1208   8.9527  10.5108  12.5359  14.2632

          k = 0.1012 0.4088 0.0520 (  6017 PWs)   bands (ev):

   -36.8691 -36.8688 -36.6582 -36.6579  -1.4613  -1.4477   5.5656   6.0023
     7.6189   8.0516   9.1072  10.1444  12.9867  14.1953

          k = 0.1012 0.4088-0.1039 (  6020 PWs)   bands (ev):

   -36.8690 -36.8690 -36.6580 -36.6580  -1.4545  -1.4545   5.7550   5.7550
     7.8688   7.8688   9.5433   9.5433  13.7658  13.7658

          k = 0.1012 0.5256 0.0000 (  6035 PWs)   bands (ev):

   -36.8340 -36.8338 -36.6278 -36.6276   1.0331   1.0674   4.3249   4.4784
     7.1676   8.1921   9.2554  11.5457  12.3692  13.0739

          k = 0.1012 0.5256 0.0520 (  6024 PWs)   bands (ev):

   -36.8340 -36.8338 -36.6278 -36.6276   1.0380   1.0623   4.3458   4.4541
     7.2681   7.9349   9.6130  11.0536  12.6874  13.0792

          k = 0.1012 0.5256-0.1039 (  6026 PWs)   bands (ev):

   -36.8339 -36.8339 -36.6277 -36.6277   1.0501   1.0501   4.3983   4.3983
     7.5470   7.5470  10.3000  10.3000  12.9587  12.9587

          k = 0.2023 0.3504 0.0000 (  6011 PWs)   bands (ev):

   -36.8752 -36.8748 -36.6634 -36.6630  -1.7851  -1.7679   5.3396   5.9015
     7.9701   9.4929  10.3465  10.8389  10.9531  12.0847

          k = 0.2023 0.3504 0.0520 (  6008 PWs)   bands (ev):

   -36.8752 -36.8749 -36.6634 -36.6631  -1.7826  -1.7704   5.4027   5.7907
     8.1878   9.2483  10.3499  10.5049  11.4439  12.0377

          k = 0.2023 0.3504-0.1039 (  6010 PWs)   bands (ev):

   -36.8750 -36.8750 -36.6632 -36.6632  -1.7765  -1.7765   5.5751   5.5751
     8.7003   8.7003  10.3770  10.3770  11.8498  11.8498

          k = 0.2023 0.4672 0.0000 (  6036 PWs)   bands (ev):

   -36.8342 -36.8339 -36.6279 -36.6277   0.4460   0.4751   6.3717   6.7641
     7.2595   7.8653   9.0470  10.1021  10.9498  12.1352

          k = 0.2023 0.4672 0.0520 (  6036 PWs)   bands (ev):

   -36.8341 -36.8340 -36.6279 -36.6277   0.4502   0.4708   6.4211   6.6935
     7.3305   7.7280   9.2685   9.9926  11.0406  11.8110

          k = 0.2023 0.4672-0.1039 (  6036 PWs)   bands (ev):

   -36.8341 -36.8341 -36.6278 -36.6278   0.4604   0.4604   6.5484   6.5484
     7.5027   7.5027   9.6790   9.6790  11.3323  11.3323

          k = 0.2023 0.5840 0.0000 (  6037 PWs)   bands (ev):

   -36.8184 -36.8183 -36.6143 -36.6142   2.7418   2.7707   3.8994   4.0165
     8.1936   9.3426   9.4174   9.8533  10.3734  11.6735

          k = 0.2023 0.5840 0.0520 (  6038 PWs)   bands (ev):

   -36.8184 -36.8184 -36.6143 -36.6142   2.7459   2.7663   3.9158   3.9986
     8.2946   8.9757   9.6298   9.8250  10.5830  11.4576

          k = 0.2023 0.5840-0.1039 (  6030 PWs)   bands (ev):

   -36.8184 -36.8184 -36.6143 -36.6143   2.7560   2.7560   3.9565   3.9565
     8.5762   8.5762   9.7501   9.7501  11.0215  11.0215

          k = 0.3035 0.5256 0.0000 (  6061 PWs)   bands (ev):

   -36.8125 -36.8124 -36.6092 -36.6091   2.8759   2.9163   5.5222   5.5899
     7.0580   7.3252   8.7049   9.7528  11.1301  11.7744

          k = 0.3035 0.5256 0.0520 (  6053 PWs)   bands (ev):

   -36.8125 -36.8124 -36.6092 -36.6091   2.8817   2.9103   5.5321   5.5799
     7.0891   7.2748   8.8307   9.5352  11.3871  11.8146

          k = 0.3035 0.5256-0.1039 (  6046 PWs)   bands (ev):

   -36.8125 -36.8125 -36.6091 -36.6091   2.8959   2.8959   5.5559   5.5559
     7.1729   7.1729   9.1481   9.1481  11.7709  11.7709

     the Fermi energy is     8.9479 ev

!    total energy              =     -74.27653144 Ry
     estimated scf accuracy    <          2.6E-12 Ry
     smearing contrib. (-TS)   =      -0.00055239 Ry
     internal energy E=F+TS    =     -74.27597905 Ry

     The total energy is F=E-TS. E is the sum of the following terms:
     one-electron contribution =     -17.06427634 Ry
     hartree contribution      =      11.91154921 Ry
     xc contribution           =     -20.67176421 Ry
     ewald contribution        =     -48.45148770 Ry

     convergence has been achieved in   6 iterations

     Forces acting on atoms (cartesian axes, Ry/au):

     atom    1 type  1   force =     0.00000000   -0.00000000   -0.00000000
     atom    2 type  1   force =    -0.00000000    0.00000000    0.00000000
     atom    3 type  2   force =     0.00000000    0.00000000   -0.00292587
     atom    4 type  2   force =     0.00000000    0.00000000    0.00292587
     atom    5 type  2   force =     0.00000000   -0.00000000   -0.00292587
     atom    6 type  2   force =     0.00000000    0.00000000    0.00292587
     The non-local contrib.  to forces
     atom    1 type  1   force =     0.00000000    0.00000000    0.00000000
     atom    2 type  1   force =     0.00000000   -0.00000000    0.00000000
     atom    3 type  2   force =    -0.00000000   -0.00000000    0.02143353
     atom    4 type  2   force =     0.00000000    0.00000000   -0.02143353
     atom    5 type  2   force =     0.00000000   -0.00000000    0.02143353
     atom    6 type  2   force =     0.00000000    0.00000000   -0.02143353
     The ionic contribution  to forces
     atom    1 type  1   force =    -0.00000000   -0.00000000    0.00000000
     atom    2 type  1   force =     0.00000000   -0.00000000    0.00000000
     atom    3 type  2   force =    -0.00000000   -0.00000000    0.64096848
     atom    4 type  2   force =     0.00000000    0.00000000   -0.64096848
     atom    5 type  2   force =    -0.00000000    0.00000000    0.64096848
     atom    6 type  2   force =     0.00000000   -0.00000000   -0.64096848
     The local contribution  to forces
     atom    1 type  1   force =    -0.00000000   -0.00000000    0.00000000
     atom    2 type  1   force =     0.00000000    0.00000000   -0.00000000
     atom    3 type  2   force =     0.00000043   -0.00000025   -0.66532721
     atom    4 type  2   force =    -0.00000043    0.00000025    0.66532721
     atom    5 type  2   force =     0.00000043    0.00000025   -0.66532721
     atom    6 type  2   force =    -0.00000043   -0.00000025    0.66532721
     The core correction contribution to forces
     atom    1 type  1   force =     0.00000000    0.00000000   -0.00000000
     atom    2 type  1   force =     0.00000000    0.00000000   -0.00000000
     atom    3 type  2   force =     0.00000000    0.00000000    0.00000000
     atom    4 type  2   force =     0.00000000    0.00000000    0.00000000
     atom    5 type  2   force =     0.00000000    0.00000000    0.00000000
     atom    6 type  2   force =     0.00000000    0.00000000    0.00000000
     The Hubbard contrib.    to forces
     atom    1 type  1   force =     0.00000000    0.00000000    0.00000000
     atom    2 type  1   force =     0.00000000    0.00000000    0.00000000
     atom    3 type  2   force =     0.00000000    0.00000000    0.00000000
     atom    4 type  2   force =     0.00000000    0.00000000    0.00000000
     atom    5 type  2   force =     0.00000000    0.00000000    0.00000000
     atom    6 type  2   force =     0.00000000    0.00000000    0.00000000
     The SCF correction term to forces
     atom    1 type  1   force =    -0.00000000   -0.00000000   -0.00000000
     atom    2 type  1   force =    -0.00000000    0.00000000   -0.00000000
     atom    3 type  2   force =     0.00000000   -0.00000000   -0.00000067
     atom    4 type  2   force =    -0.00000000    0.00000000    0.00000067
     atom    5 type  2   force =     0.00000000    0.00000000   -0.00000067
     atom    6 type  2   force =    -0.00000000   -0.00000000    0.00000067

     Total force =     0.005852     Total SCF correction =     0.000001


     Computing stress (Cartesian axis) and pressure

          total   stress  (Ry/bohr**3)                   (kbar)     P=      500.72
   0.00340409   0.00000000   0.00000000          500.76        0.00        0.00
   0.00000000   0.00340409   0.00000000            0.00      500.76        0.00
   0.00000000   0.00000000   0.00340331            0.00        0.00      500.64

     Energy error            =      9.5E-05 Ry
     Gradient error          =      2.9E-03 Ry/Bohr
     Cell gradient error     =      7.6E-01 kbar

     number of scf cycles    =   4
     number of bfgs steps    =   3

     enthalpy           old  =     -73.0097990407 Ry
     enthalpy           new  =     -73.0098936368 Ry

     CASE: enthalpy          _new < enthalpy          _old

     new trust radius        =       0.0073812316 bohr
ibrav =      4
 celldm(1) =      4.45409155
 celldm(3) =      4.87306030
Input lattice vectors:
     0.98840730    -0.00000000     0.00000000
    -0.49420365     0.85598583     0.00000000
     0.00000000     0.00000000     4.81656836
New lattice vectors in INITIAL alat:
     0.98840730     0.00000000     0.00000000
    -0.49420365     0.85598583     0.00000000
     0.00000000     0.00000000     4.81656836
New lattice vectors in NEW alat (for information only):
     1.00000000     0.00000000     0.00000000
    -0.50000000     0.86602540     0.00000000
     0.00000000     0.00000000     4.87306030
Discrepancy in bohr =     0.000000    0.000000    0.000000
     new conv_thr            =            1.0E-10 Ry

     new unit-cell volume =    372.91499 a.u.^3 (    55.26030 Ang^3 )
     density =      2.52220 g/cm^3

CELL_PARAMETERS (alat=  4.50633212)
   0.988407298   0.000000000   0.000000000
  -0.494203649   0.855985829   0.000000000
   0.000000000   0.000000000   4.816568361

ATOMIC_POSITIONS (crystal)
Si            0.0000000000       -0.0000000000        0.0000000000
Si           -0.0000000000        0.0000000000        0.5000000000
Li            0.3333333300        0.6666666700        0.1653258374
Li            0.6666666700        0.3333333300        0.8346741626
Li            0.6666666600        0.3333333300        0.6653258374
Li            0.3333333400        0.6666666700        0.3346741626



     Writing config-only to output data dir ./output/SiLi.save/
     NEW-OLD atomic charge density approx. for the potential
     extrapolated charge   20.01378, renormalised to   20.00000

     total cpu time spent up to now is       36.7 secs

     Self-consistent Calculation

     iteration #  1     ecut=   100.00 Ry     beta= 0.70
     Davidson diagonalization with overlap
     ethr =  1.00E-06,  avg # of iterations =  3.0

     total cpu time spent up to now is       37.6 secs

     total energy              =     -74.27742766 Ry
     estimated scf accuracy    <       0.00005953 Ry

     iteration #  2     ecut=   100.00 Ry     beta= 0.70
     Davidson diagonalization with overlap
     ethr =  2.98E-07,  avg # of iterations =  2.5

     total cpu time spent up to now is       38.3 secs

     total energy              =     -74.27742679 Ry
     estimated scf accuracy    <       0.00018009 Ry

     iteration #  3     ecut=   100.00 Ry     beta= 0.70
     Davidson diagonalization with overlap
     ethr =  2.98E-07,  avg # of iterations =  2.0

     total cpu time spent up to now is       38.9 secs

     total energy              =     -74.27745975 Ry
     estimated scf accuracy    <       0.00000067 Ry

     iteration #  4     ecut=   100.00 Ry     beta= 0.70
     Davidson diagonalization with overlap
     ethr =  3.34E-09,  avg # of iterations =  2.5

     total cpu time spent up to now is       39.6 secs

     total energy              =     -74.27745987 Ry
     estimated scf accuracy    <       0.00000006 Ry

     iteration #  5     ecut=   100.00 Ry     beta= 0.70
     Davidson diagonalization with overlap
     ethr =  3.13E-10,  avg # of iterations =  2.0

     total cpu time spent up to now is       40.2 secs

     total energy              =     -74.27745989 Ry
     estimated scf accuracy    <          7.3E-10 Ry

     iteration #  6     ecut=   100.00 Ry     beta= 0.70
     Davidson diagonalization with overlap
     ethr =  3.65E-12,  avg # of iterations =  3.8

     total cpu time spent up to now is       41.0 secs

     total energy              =     -74.27745989 Ry
     estimated scf accuracy    <          1.2E-10 Ry

     iteration #  7     ecut=   100.00 Ry     beta= 0.70
     Davidson diagonalization with overlap
     ethr =  6.13E-13,  avg # of iterations =  2.0

     total cpu time spent up to now is       41.6 secs

     End of self-consistent calculation

          k = 0.0000 0.0000 0.0000 (  6011 PWs)   bands (ev):

   -37.0365 -37.0353 -36.8114 -36.8101  -5.7601  -5.7548   2.4280   2.5798
     5.9243   6.5695  11.3399  13.2825  17.7322  23.7131

          k = 0.0000 0.0000 0.0519 (  6011 PWs)   bands (ev):

   -37.0363 -37.0355 -36.8112 -36.8103  -5.7593  -5.7556   2.4486   2.5558
     6.0100   6.4635  11.5786  12.9143  18.3040  21.3602

          k = 0.0000 0.0000-0.1038 (  6004 PWs)   bands (ev):

   -37.0359 -37.0359 -36.8108 -36.8108  -5.7574  -5.7574   2.5006   2.5006
     6.2268   6.2268  12.1911  12.1911  19.6544  19.6544

          k = 0.0000 0.1168 0.0000 (  6021 PWs)   bands (ev):

   -37.0173 -37.0162 -36.7948 -36.7936  -5.4242  -5.4185   2.6813   2.8584
     6.1124   6.8343  11.4227  13.4878  17.5878  20.0345

          k = 0.0000 0.1168 0.0519 (  6020 PWs)   bands (ev):

[...]
        k(   27) = (   0.1011408   0.4087558  -0.1038137), wk =   0.0600000
        k(   28) = (   0.1011408   0.5255432   0.0000000), wk =   0.0600000
        k(   29) = (   0.1011408   0.5255432   0.0519069), wk =   0.1200000
        k(   30) = (   0.1011408   0.5255432  -0.1038137), wk =   0.0600000
        k(   31) = (   0.2022817   0.3503621   0.0000000), wk =   0.0300000
        k(   32) = (   0.2022817   0.3503621   0.0519069), wk =   0.0600000
        k(   33) = (   0.2022817   0.3503621  -0.1038137), wk =   0.0300000
        k(   34) = (   0.2022817   0.4671495   0.0000000), wk =   0.0600000
        k(   35) = (   0.2022817   0.4671495   0.0519069), wk =   0.1200000
        k(   36) = (   0.2022817   0.4671495  -0.1038137), wk =   0.0600000
        k(   37) = (   0.2022817   0.5839368   0.0000000), wk =   0.0300000
        k(   38) = (   0.2022817   0.5839368   0.0519069), wk =   0.0600000
        k(   39) = (   0.2022817   0.5839368  -0.1038137), wk =   0.0300000
        k(   40) = (   0.3034225   0.5255432   0.0000000), wk =   0.0300000
        k(   41) = (   0.3034225   0.5255432   0.0519069), wk =   0.0600000
        k(   42) = (   0.3034225   0.5255432  -0.1038137), wk =   0.0300000

     Dense  grid:    50401 G-vectors     FFT dimensions: (  30,  30, 144)

     Estimated max dynamical RAM per process >      25.63 MB

     Estimated total dynamical RAM >     205.00 MB

     Initial potential from superposition of free atoms

     starting charge      19.9805, renormalised to      20.0000
     Starting wfcs are   16 randomized atomic wfcs

     total cpu time spent up to now is       51.0 secs

     Self-consistent Calculation

     iteration #  1     ecut=   100.00 Ry     beta= 0.70
     Davidson diagonalization with overlap
     c_bands:  1 eigenvalues not converged
     c_bands:  1 eigenvalues not converged
     c_bands:  1 eigenvalues not converged
     c_bands:  1 eigenvalues not converged
     c_bands:  1 eigenvalues not converged
     c_bands:  1 eigenvalues not converged
     c_bands:  1 eigenvalues not converged
     c_bands:  1 eigenvalues not converged
     c_bands:  1 eigenvalues not converged
     c_bands:  2 eigenvalues not converged
     c_bands:  2 eigenvalues not converged
     c_bands:  2 eigenvalues not converged
     c_bands:  1 eigenvalues not converged
     ethr =  1.00E-06,  avg # of iterations = 17.2

     total cpu time spent up to now is       53.4 secs

     total energy              =     -74.23695435 Ry
     estimated scf accuracy    <       0.08491664 Ry

     iteration #  2     ecut=   100.00 Ry     beta= 0.70
     Davidson diagonalization with overlap
     ethr =  4.25E-04,  avg # of iterations =  3.0

     total cpu time spent up to now is       54.2 secs

     total energy              =     -74.21602186 Ry
     estimated scf accuracy    <       0.33564427 Ry

     iteration #  3     ecut=   100.00 Ry     beta= 0.70
     Davidson diagonalization with overlap
     ethr =  4.25E-04,  avg # of iterations =  2.1

     total cpu time spent up to now is       54.9 secs

     total energy              =     -74.27795414 Ry
     estimated scf accuracy    <       0.00217801 Ry

     iteration #  4     ecut=   100.00 Ry     beta= 0.70
     Davidson diagonalization with overlap
     ethr =  1.09E-05,  avg # of iterations =  3.3

     total cpu time spent up to now is       55.6 secs

     total energy              =     -74.27819370 Ry
     estimated scf accuracy    <       0.00006686 Ry

     iteration #  5     ecut=   100.00 Ry     beta= 0.70
     Davidson diagonalization with overlap
     ethr =  3.34E-07,  avg # of iterations =  2.6

     total cpu time spent up to now is       56.3 secs

     total energy              =     -74.27820955 Ry
     estimated scf accuracy    <       0.00000054 Ry

     iteration #  6     ecut=   100.00 Ry     beta= 0.70
     Davidson diagonalization with overlap
     ethr =  2.69E-09,  avg # of iterations =  3.5

     total cpu time spent up to now is       57.2 secs

     total energy              =     -74.27820981 Ry
     estimated scf accuracy    <       0.00000020 Ry

     iteration #  7     ecut=   100.00 Ry     beta= 0.70
     Davidson diagonalization with overlap
     ethr =  9.99E-10,  avg # of iterations =  1.6

     total cpu time spent up to now is       57.8 secs

     total energy              =     -74.27820985 Ry
     estimated scf accuracy    <          4.5E-10 Ry

     iteration #  8     ecut=   100.00 Ry     beta= 0.70
     Davidson diagonalization with overlap
     ethr =  2.25E-12,  avg # of iterations =  4.2

     total cpu time spent up to now is       58.7 secs

     total energy              =     -74.27820985 Ry
     estimated scf accuracy    <          9.5E-10 Ry

     iteration #  9     ecut=   100.00 Ry     beta= 0.70
     Davidson diagonalization with overlap
     ethr =  2.25E-12,  avg # of iterations =  2.0

     total cpu time spent up to now is       59.4 secs

     End of self-consistent calculation

          k = 0.0000 0.0000 0.0000 (  6279 PWs)   bands (ev):

   -37.0401 -37.0389 -36.8174 -36.8161  -5.7619  -5.7566   2.4268   2.5791
     5.9167   6.5629  11.3411  13.2902  17.7207  22.7923

          k = 0.0000 0.0000 0.0519 (  6273 PWs)   bands (ev):

   -37.0399 -37.0390 -36.8172 -36.8163  -5.7611  -5.7574   2.4475   2.5550
     6.0025   6.4567  11.5803  12.9200  18.2945  21.3534

          k = 0.0000 0.0000-0.1038 (  6286 PWs)   bands (ev):

   -37.0395 -37.0395 -36.8167 -36.8167  -5.7592  -5.7592   2.4996   2.4996
     6.2197   6.2197  12.1943  12.1943  19.6473  19.6473

          k = 0.0000 0.1168 0.0000 (  6247 PWs)   bands (ev):

   -37.0210 -37.0198 -36.8008 -36.7996  -5.4263  -5.4205   2.6797   2.8573
     6.1051   6.8280  11.4230  13.4943  17.5758  20.0174

          k = 0.0000 0.1168 0.0519 (  6258 PWs)   bands (ev):

   -37.0208 -37.0200 -36.8006 -36.7997  -5.4254  -5.4214   2.7036   2.8289
     6.2006   6.7080  11.6771  13.0951  18.1406  19.9373

          k = 0.0000 0.1168-0.1038 (  6250 PWs)   bands (ev):

   -37.0204 -37.0204 -36.8002 -36.8002  -5.4234  -5.4234   2.7640   2.7640
     6.4425   6.4425  12.3257  12.3257  19.3184  19.3184

          k = 0.0000 0.2336 0.0000 (  6280 PWs)   bands (ev):

   -36.9708 -36.9699 -36.7571 -36.7562  -4.4256  -4.4178   3.4247   3.6890
     6.6512   7.6282  11.5196  13.6538  15.0798  15.7533

          k = 0.0000 0.2336 0.0519 (  6287 PWs)   bands (ev):

   -36.9707 -36.9700 -36.7570 -36.7563  -4.4245  -4.4190   3.4589   3.6449
     6.7782   7.4599  11.8048  13.2687  15.1901  15.6105

          k = 0.0000 0.2336-0.1038 (  6294 PWs)   bands (ev):

   -36.9704 -36.9704 -36.7567 -36.7567  -4.4217  -4.4217   3.5470   3.5470
     7.0999   7.0999  12.4965  12.4965  15.3886  15.3886

          k = 0.0000 0.3504 0.0000 (  6288 PWs)   bands (ev):

   -36.9085 -36.9079 -36.7030 -36.7024  -2.7789  -2.7658   4.6055   5.0565
     7.3820   8.8371   9.7173  10.6462  12.8794  15.6299

          k = 0.0000 0.3504 0.0519 (  6289 PWs)   bands (ev):

   -36.9084 -36.9080 -36.7029 -36.7025  -2.7770  -2.7677   4.6588   4.9729
     7.5642   8.5395   9.9180  10.5131  13.2251  15.0386

          k = 0.0000 0.3504-0.1038 (  6298 PWs)   bands (ev):

   -36.9082 -36.9082 -36.7027 -36.7027  -2.7724  -2.7724   4.8017   4.8017
     8.0133   8.0133  10.2338  10.2338  14.0528  14.0528

          k = 0.0000 0.4671 0.0000 (  6322 PWs)   bands (ev):

   -36.8578 -36.8575 -36.6589 -36.6586  -0.5281  -0.5030   5.4684   5.8839
     6.4649   7.0244   8.8802  11.1664  12.2296  14.2926

          k = 0.0000 0.4671 0.0519 (  6296 PWs)   bands (ev):

   -36.8577 -36.8575 -36.6589 -36.6587  -0.5244  -0.5067   5.5176   5.8039
     6.5449   6.9213   9.1353  10.5731  12.8526  14.1575

          k = 0.0000 0.4671-0.1038 (  6272 PWs)   bands (ev):

   -36.8576 -36.8576 -36.6588 -36.6588  -0.5156  -0.5156   5.6478   5.6478
     6.7222   6.7222   9.7639   9.7639  13.6704  13.6704

          k = 0.0000-0.5839 0.0000 (  6304 PWs)   bands (ev):

   -36.8383 -36.8382 -36.6420 -36.6419   1.7853   1.8122   2.9657   3.0930
     7.2332   8.5087   9.0674  10.7306  12.6651  13.4243

          k = 0.0000-0.5839 0.0519 (  6310 PWs)   bands (ev):

   -36.8383 -36.8382 -36.6420 -36.6419   1.7891   1.8081   2.9836   3.0735
     7.3444   8.1231   9.5054  10.5589  12.7335  13.2368

          k = 0.0000-0.5839-0.1038 (  6308 PWs)   bands (ev):

   -36.8382 -36.8382 -36.6420 -36.6420   1.7984   1.7984   3.0277   3.0277
     7.6591   7.6591  10.1025  10.1025  12.9359  12.9359

          k = 0.1011 0.1752 0.0000 (  6259 PWs)   bands (ev):

   -36.9863 -36.9854 -36.7706 -36.7696  -4.7581  -4.7511   3.1795   3.4126
     6.4757   7.3629  11.5490  13.8205  16.4947  17.0557

          k = 0.1011 0.1752 0.0519 (  6266 PWs)   bands (ev):

   -36.9862 -36.9855 -36.7705 -36.7698  -4.7571  -4.7522   3.2100   3.3743
     6.5916   7.2122  11.8307  13.3724  16.7198  17.0362

          k = 0.1011 0.1752-0.1038 (  6254 PWs)   bands (ev):

   -36.9859 -36.9859 -36.7701 -36.7701  -4.7546  -4.7546   3.2883   3.2883
     6.8856   6.8856  12.5368  12.5368  16.9512  16.9512

          k = 0.1011 0.2920 0.0000 (  6282 PWs)   bands (ev):

   -36.9301 -36.9294 -36.7217 -36.7210  -3.4341  -3.4235   4.1521   4.5168
     7.1721   8.4272  11.2938  12.5602  13.1840  14.6439

          k = 0.1011 0.2920 0.0519 (  6296 PWs)   bands (ev):

   -36.9300 -36.9295 -36.7216 -36.7211  -3.4325  -3.4250   4.1971   4.4526
     7.3331   8.2001  11.5405  12.3997  13.3608  14.3581

          k = 0.1011 0.2920-0.1038 (  6290 PWs)   bands (ev):

   -36.9297 -36.9297 -36.7214 -36.7214  -3.4288  -3.4288   4.3156   4.3156
     7.7378   7.7378  12.0174  12.0174  13.7987  13.7987

          k = 0.1011 0.4088 0.0000 (  6302 PWs)   bands (ev):

   -36.8735 -36.8731 -36.6726 -36.6722  -1.4814  -1.4625   5.4864   6.1192
     7.4625   8.0992   8.9422  10.4967  12.5082  14.2425

          k = 0.1011 0.4088 0.0519 (  6307 PWs)   bands (ev):

   -36.8735 -36.8732 -36.6726 -36.6723  -1.4787  -1.4653   5.5540   5.9855
     7.6042   8.0309   9.0962  10.1306  12.9593  14.1731

          k = 0.1011 0.4088-0.1038 (  6316 PWs)   bands (ev):

   -36.8733 -36.8733 -36.6724 -36.6724  -1.4720  -1.4720   5.7414   5.7414
     7.8504   7.8504   9.5310   9.5310  13.7396  13.7396

          k = 0.1011 0.5255 0.0000 (  6307 PWs)   bands (ev):

   -36.8384 -36.8382 -36.6421 -36.6420   1.0151   1.0488   4.3057   4.4568
     7.1599   8.1682   9.2583  11.5202  12.3658  13.0563

          k = 0.1011 0.5255 0.0519 (  6321 PWs)   bands (ev):

   -36.8384 -36.8383 -36.6421 -36.6420   1.0199   1.0438   4.3263   4.4329
     7.2593   7.9176   9.6090  11.0366  12.6753  13.0611

          k = 0.1011 0.5255-0.1038 (  6312 PWs)   bands (ev):

   -36.8383 -36.8383 -36.6420 -36.6420   1.0318   1.0318   4.3779   4.3779
     7.5353   7.5353  10.2894  10.2894  12.9415  12.9415

          k = 0.2023 0.3504 0.0000 (  6319 PWs)   bands (ev):

   -36.8796 -36.8791 -36.6779 -36.6774  -1.8023  -1.7854   5.3288   5.8836
     7.9635   9.4771  10.3253  10.8127  10.9345  12.0620

          k = 0.2023 0.3504 0.0519 (  6299 PWs)   bands (ev):

   -36.8795 -36.8792 -36.6778 -36.6775  -1.7998  -1.7879   5.3913   5.7746
     8.1792   9.2335  10.3287  10.4832  11.4207  12.0146

          k = 0.2023 0.3504-0.1038 (  6292 PWs)   bands (ev):

   -36.8793 -36.8793 -36.6776 -36.6776  -1.7939  -1.7939   5.5618   5.5618
     8.6882   8.6882  10.3558  10.3558  11.8262  11.8262

          k = 0.2023 0.4671 0.0000 (  6309 PWs)   bands (ev):

   -36.8386 -36.8384 -36.6423 -36.6420   0.4281   0.4566   6.3550   6.7412
     7.2479   7.8449   9.0398  10.0775  10.9368  12.1272

          k = 0.2023 0.4671 0.0519 (  6314 PWs)   bands (ev):

   -36.8386 -36.8384 -36.6422 -36.6421   0.4322   0.4524   6.4037   6.6720
     7.3179   7.7106   9.2567   9.9695  11.0280  11.8010

          k = 0.2023 0.4671-0.1038 (  6310 PWs)   bands (ev):

   -36.8385 -36.8385 -36.6422 -36.6422   0.4422   0.4422   6.5292   6.5292
     7.4884   7.4884   9.6605   9.6605  11.3209  11.3209

          k = 0.2023 0.5839 0.0000 (  6323 PWs)   bands (ev):

   -36.8229 -36.8228 -36.6286 -36.6285   2.7237   2.7521   3.8797   3.9949
     8.1859   9.3306   9.3893   9.8291  10.3664  11.6519

          k = 0.2023 0.5839 0.0519 (  6328 PWs)   bands (ev):

   -36.8229 -36.8228 -36.6286 -36.6286   2.7278   2.7478   3.8959   3.9773
     8.2861   8.9613   9.6065   9.8010  10.5736  11.4395

          k = 0.2023 0.5839-0.1038 (  6342 PWs)   bands (ev):

   -36.8228 -36.8228 -36.6286 -36.6286   2.7377   2.7377   3.9359   3.9359
     8.5653   8.5653   9.7266   9.7266  11.0080  11.0080

          k = 0.3034 0.5255 0.0000 (  6325 PWs)   bands (ev):

   -36.8170 -36.8169 -36.6235 -36.6234   2.8574   2.8971   5.5032   5.5699
     7.0378   7.3003   8.6955   9.7260  11.1328  11.7703

          k = 0.3034 0.5255 0.0519 (  6335 PWs)   bands (ev):

   -36.8170 -36.8169 -36.6235 -36.6234   2.8631   2.8912   5.5129   5.5601
     7.0684   7.2510   8.8194   9.5136  11.3853  11.8102

          k = 0.3034 0.5255-0.1038 (  6326 PWs)   bands (ev):

   -36.8170 -36.8170 -36.6235 -36.6235   2.8770   2.8770   5.5364   5.5364
     7.1510   7.1510   9.1326   9.1326  11.7662  11.7662

     the Fermi energy is     8.9380 ev

!    total energy              =     -74.27820985 Ry
     estimated scf accuracy    <          3.4E-13 Ry
     smearing contrib. (-TS)   =      -0.00056111 Ry
     internal energy E=F+TS    =     -74.27764874 Ry

     The total energy is F=E-TS. E is the sum of the following terms:
     one-electron contribution =     -17.14275293 Ry
     hartree contribution      =      11.94063353 Ry
     xc contribution           =     -20.67166005 Ry
     ewald contribution        =     -48.40386929 Ry

     convergence has been achieved in   9 iterations

     Forces acting on atoms (cartesian axes, Ry/au):

     atom    1 type  1   force =     0.00000000   -0.00000000   -0.00000000
     atom    2 type  1   force =     0.00000000    0.00000000    0.00000000
     atom    3 type  2   force =     0.00000000   -0.00000000   -0.00006036
     atom    4 type  2   force =     0.00000000    0.00000000    0.00006036
     atom    5 type  2   force =    -0.00000000   -0.00000000   -0.00006036
     atom    6 type  2   force =     0.00000000    0.00000000    0.00006036
     The non-local contrib.  to forces
     atom    1 type  1   force =     0.00000000    0.00000000   -0.00000000
     atom    2 type  1   force =     0.00000000   -0.00000000    0.00000000
     atom    3 type  2   force =     0.00000000   -0.00000000    0.02085944
     atom    4 type  2   force =     0.00000000    0.00000000   -0.02085944
     atom    5 type  2   force =    -0.00000000   -0.00000000    0.02085944
     atom    6 type  2   force =     0.00000000    0.00000000   -0.02085944
     The ionic contribution  to forces
     atom    1 type  1   force =     0.00000000    0.00000000    0.00000000
     atom    2 type  1   force =     0.00000000   -0.00000000    0.00000000
     atom    3 type  2   force =    -0.00000000   -0.00000000    0.68516798
     atom    4 type  2   force =     0.00000000    0.00000000   -0.68516798
     atom    5 type  2   force =    -0.00000000    0.00000000    0.68516798
     atom    6 type  2   force =     0.00000000   -0.00000000   -0.68516798
     The local contribution  to forces
     atom    1 type  1   force =    -0.00000000   -0.00000000   -0.00000000
     atom    2 type  1   force =     0.00000000    0.00000000   -0.00000000
     atom    3 type  2   force =     0.00000043   -0.00000025   -0.70608768
     atom    4 type  2   force =    -0.00000043    0.00000025    0.70608768
     atom    5 type  2   force =     0.00000043    0.00000025   -0.70608768
     atom    6 type  2   force =    -0.00000043   -0.00000025    0.70608768
     The core correction contribution to forces
     atom    1 type  1   force =     0.00000000    0.00000000    0.00000000
     atom    2 type  1   force =    -0.00000000    0.00000000    0.00000000
     atom    3 type  2   force =     0.00000000    0.00000000    0.00000000
     atom    4 type  2   force =     0.00000000    0.00000000    0.00000000
     atom    5 type  2   force =     0.00000000    0.00000000    0.00000000
     atom    6 type  2   force =     0.00000000    0.00000000    0.00000000
     The Hubbard contrib.    to forces
     atom    1 type  1   force =     0.00000000    0.00000000    0.00000000
     atom    2 type  1   force =     0.00000000    0.00000000    0.00000000
     atom    3 type  2   force =     0.00000000    0.00000000    0.00000000
     atom    4 type  2   force =     0.00000000    0.00000000    0.00000000
     atom    5 type  2   force =     0.00000000    0.00000000    0.00000000
     atom    6 type  2   force =     0.00000000    0.00000000    0.00000000
     The SCF correction term to forces
     atom    1 type  1   force =    -0.00000000   -0.00000000   -0.00000000
     atom    2 type  1   force =     0.00000000    0.00000000   -0.00000000
     atom    3 type  2   force =     0.00000000   -0.00000000   -0.00000010
     atom    4 type  2   force =    -0.00000000    0.00000000    0.00000010
     atom    5 type  2   force =     0.00000000    0.00000000   -0.00000010
     atom    6 type  2   force =    -0.00000000   -0.00000000    0.00000010

     Total force =     0.000121     Total SCF correction =     0.000000


     Computing stress (Cartesian axis) and pressure

          total   stress  (Ry/bohr**3)                   (kbar)     P=      500.30
   0.00340313   0.00000000   0.00000000          500.62        0.00        0.00
   0.00000000   0.00340313   0.00000000            0.00      500.62        0.00
   0.00000000   0.00000000   0.00339661            0.00        0.00      499.66


     Writing all to output data dir ./output/SiLi.save/

     init_run     :      1.66s CPU      2.38s WALL (       2 calls)
     electrons    :     40.52s CPU     43.18s WALL (       7 calls)
     update_pot   :      2.45s CPU      2.52s WALL (       5 calls)
     forces       :      2.29s CPU      2.38s WALL (       7 calls)
     stress       :      9.89s CPU     10.35s WALL (       7 calls)

     Called by init_run:
     wfcinit      :      0.60s CPU      0.63s WALL (       2 calls)
     potinit      :      0.50s CPU      0.84s WALL (       2 calls)
     hinit0       :      0.50s CPU      0.71s WALL (       2 calls)

     Called by electrons:
     c_bands      :     34.85s CPU     36.68s WALL (      52 calls)
     sum_band     :      4.95s CPU      5.33s WALL (      52 calls)
     v_of_rho     :      0.73s CPU      1.47s WALL (      57 calls)
     mix_rho      :      0.09s CPU      0.13s WALL (      52 calls)

     Called by c_bands:
     init_us_2    :      0.99s CPU      1.07s WALL (    5040 calls)
     init_us_2:cp :      0.99s CPU      1.06s WALL (    5040 calls)
     cegterg      :     32.41s CPU     33.34s WALL (    2184 calls)

     Called by *egterg:
     cdiaghg      :      1.72s CPU      1.80s WALL (    8717 calls)
     h_psi        :     27.63s CPU     28.41s WALL (    9095 calls)
     g_psi        :      0.14s CPU      0.14s WALL (    6827 calls)

     Called by h_psi:
     h_psi:calbec :      2.11s CPU      2.20s WALL (    9095 calls)
     vloc_psi     :     23.82s CPU     24.46s WALL (    9095 calls)
     add_vuspsi   :      1.59s CPU      1.64s WALL (    9095 calls)

     General routines
     calbec       :      2.89s CPU      2.99s WALL (   10565 calls)
     fft          :      0.92s CPU      2.07s WALL (     745 calls)
     ffts         :      0.04s CPU      0.09s WALL (      52 calls)
     fftw         :     24.53s CPU     25.15s WALL (  201866 calls)

     Parallel routines

     PWSCF        :     57.06s CPU   1m 1.38s WALL


   This run was terminated on:  22:10:20  10Jan2025            

=------------------------------------------------------------------------------=
   JOB DONE.
=------------------------------------------------------------------------------=
