
     Program PWSCF v.7.2 starts on  5Feb2025 at 18: 8:40 

     This program is part of the open-source Quantum ESPRESSO suite
     for quantum simulation of materials; please cite
         "P. Giannozzi et al., J. Phys.:Condens. Matter 21 395502 (2009);
         "P. Giannozzi et al., J. Phys.:Condens. Matter 29 465901 (2017);
         "P. Giannozzi et al., J. Chem. Phys. 152 154105 (2020);
          URL http://www.quantum-espresso.org", 
     in publications or presentations arising from this work. More details at
     http://www.quantum-espresso.org/quote

     Parallel version (MPI & OpenMP), running on      32 processor cores
     Number of MPI processes:                32
     Threads/MPI process:                     1

     MPI processes distributed on     1 nodes
     490122 MiB available memory on the printing compute node when the environment starts

     Waiting for input...
     Reading input from standard input

     Current dimensions of program PWSCF are:
     Max number of different atomic species (ntypx) = 10
     Max number of k-points (npk) =  40000
     Max angular momentum in pseudopotentials (lmaxx) =  4

     K-points division:     npool     =       2
     R & G space division:  proc/nbgrp/npool/nimage =      16
     Subspace diagonalization in iterative solution of the eigenvalue problem:
     a serial algorithm will be used


     Parallelization info
     --------------------
     sticks:   dense  smooth     PW     G-vecs:    dense   smooth      PW
     Min          92      92     28                 1801     1801     303
     Max          94      94     29                 1802     1802     305
     Sum        1475    1475    451                28823    28823    4859

     Using Slab Decomposition



     bravais-lattice index     =            5
     lattice parameter (alat)  =      11.6400  a.u.
     unit-cell volume          =     458.4572 (a.u.)^3
     number of atoms/cell      =            6
     number of atomic types    =            2
     number of electrons       =        22.00
     number of Kohn-Sham states=           15
     kinetic-energy cutoff     =      60.0000  Ry
     charge density cutoff     =     240.0000  Ry
     scf convergence threshold =      1.0E-08
     mixing beta               =       0.8000
     number of iterations used =            8  plain     mixing
     energy convergence thresh.=      1.0E-03
     force convergence thresh. =      5.0E-03
     press convergence thresh. =      2.0E+00
     Exchange-correlation= PBE
                           (   1   4   3   4   0   0   0)
     nstep                     =           50


     celldm(1)=  11.639961  celldm(2)=   0.000000  celldm(3)=   0.000000
     celldm(4)=   0.821166  celldm(5)=   0.000000  celldm(6)=   0.000000

     crystal axes: (cart. coord. in units of alat)
               a(1) = (   0.299027  -0.172643   0.938497 )  
               a(2) = (   0.000000   0.345287   0.938497 )  
               a(3) = (  -0.299027  -0.172643   0.938497 )  

     reciprocal axes: (cart. coord. in units 2 pi/alat)
               b(1) = (  1.672090 -0.965382  0.355178 )  
               b(2) = ( -0.000000  1.930764  0.355178 )  
               b(3) = ( -1.672090 -0.965382  0.355178 )  


     PseudoPot. # 1 for Si read from file:
     ../pseudo/Si_ONCV_PBE_sr.upf
     MD5 check sum: e543d271109d17c80368dfa7c482276d
     Pseudo is Norm-conserving + core correction, Zval =  4.0
     Generated using ONCVPSP code by D. R. Hamann
     Using radial grid of 1510 points,  6 beta functions with: 
                l(1) =   0
                l(2) =   0
                l(3) =   1
                l(4) =   1
                l(5) =   2
                l(6) =   2

     PseudoPot. # 2 for Li read from file:
     ../pseudo/Li_ONCV_PBE_sr.upf
     MD5 check sum: 50ff420e78310ffa21704f3361e624a4
     Pseudo is Norm-conserving, Zval =  3.0
     Generated using ONCVPSP code by D. R. Hamann
     Using radial grid of 1944 points,  4 beta functions with: 
                l(1) =   0
                l(2) =   0
                l(3) =   1
                l(4) =   1

     atomic species   valence    mass     pseudopotential
        Si             4.00    28.08550     Si( 1.00)
        Li             3.00     6.94100     Li( 1.00)

     12 Sym. Ops., with inversion, found



   Cartesian axes

     site n.     atom                  positions (alat units)
         1           Si  tau(   1) = (  -0.0000000  -0.0000000   0.0773585  )
         2           Si  tau(   2) = (   0.0000000  -0.0000000   2.7381335  )
         3           Si  tau(   3) = (  -0.0000000  -0.0000000   0.8067229  )
         4           Si  tau(   4) = (   0.0000000  -0.0000000   2.0087691  )
         5           Li  tau(   5) = (   0.0000000  -0.0000000   0.6070229  )
         6           Li  tau(   6) = (  -0.0000000  -0.0000000   2.2084691  )

     number of k points=    13  Marzari-Vanderbilt smearing, width (Ry)=  0.0100
                       cart. coord. in units 2pi/alat
        k(    1) = (   0.0000000   0.0000000   0.0000000), wk =   0.0312500
        k(    2) = (  -0.4180226  -0.2413455   0.0887944), wk =   0.1875000
        k(    3) = (   0.8360452   0.4826909  -0.1775889), wk =   0.0937500
        k(    4) = (  -0.4180226   0.2413455   0.1775889), wk =   0.1875000
        k(    5) = (   0.8360452   0.9653819  -0.0887944), wk =   0.3750000
        k(    6) = (   0.4180226   0.7240364   0.0000000), wk =   0.1875000
        k(    7) = (   0.8360452  -0.4826909  -0.3551777), wk =   0.0937500
        k(    8) = (   0.0000000   0.0000000   0.2663833), wk =   0.0625000
        k(    9) = (   1.2540678   0.7240364   0.0000000), wk =   0.1875000
        k(   10) = (   0.8360452   0.4826909   0.0887944), wk =   0.1875000
        k(   11) = (   1.2540678  -0.7240364  -0.2663833), wk =   0.1875000
        k(   12) = (   0.8360452  -0.9653819  -0.1775889), wk =   0.1875000
        k(   13) = (   0.0000000   0.0000000  -0.5327666), wk =   0.0312500

     Dense  grid:    28823 G-vectors     FFT dimensions: (  60,  60,  60)

     Estimated max dynamical RAM per process >      12.72 MB

     Estimated total dynamical RAM >     400.10 MB

     Initial potential from superposition of free atoms

     starting charge      21.9884, renormalised to      22.0000
     Starting wfcs are   20 randomized atomic wfcs

     total cpu time spent up to now is        0.8 secs

     Self-consistent Calculation

     iteration #  1     ecut=    60.00 Ry     beta= 0.80
     Davidson diagonalization with overlap
     ethr =  1.00E-02,  avg # of iterations =  5.1

     total cpu time spent up to now is        1.0 secs

     total energy              =     -55.23341223 Ry
     estimated scf accuracy    <       1.30208791 Ry

     iteration #  2     ecut=    60.00 Ry     beta= 0.80
     Davidson diagonalization with overlap
     ethr =  5.92E-03,  avg # of iterations =  4.3

     total cpu time spent up to now is        1.1 secs

     total energy              =     -54.81062330 Ry
     estimated scf accuracy    <       6.20712125 Ry

     iteration #  3     ecut=    60.00 Ry     beta= 0.80
     Davidson diagonalization with overlap
     ethr =  5.92E-03,  avg # of iterations =  2.8

     total cpu time spent up to now is        1.2 secs

     total energy              =     -55.86211924 Ry
     estimated scf accuracy    <       0.14125659 Ry

     iteration #  4     ecut=    60.00 Ry     beta= 0.80
     Davidson diagonalization with overlap
     ethr =  6.42E-04,  avg # of iterations =  4.2

     total cpu time spent up to now is        1.4 secs

     total energy              =     -55.90393271 Ry
     estimated scf accuracy    <       0.01517153 Ry

     iteration #  5     ecut=    60.00 Ry     beta= 0.80
     Davidson diagonalization with overlap
     ethr =  6.90E-05,  avg # of iterations =  3.2

     total cpu time spent up to now is        1.5 secs

     total energy              =     -55.90561068 Ry
     estimated scf accuracy    <       0.00151645 Ry

     iteration #  6     ecut=    60.00 Ry     beta= 0.80
     Davidson diagonalization with overlap
     ethr =  6.89E-06,  avg # of iterations =  4.0

     total cpu time spent up to now is        1.6 secs

     total energy              =     -55.90603702 Ry
     estimated scf accuracy    <       0.00001547 Ry

     iteration #  7     ecut=    60.00 Ry     beta= 0.80
     Davidson diagonalization with overlap
     ethr =  7.03E-08,  avg # of iterations =  5.8

     total cpu time spent up to now is        1.8 secs

     total energy              =     -55.90605434 Ry
     estimated scf accuracy    <       0.00000077 Ry

     iteration #  8     ecut=    60.00 Ry     beta= 0.80
     Davidson diagonalization with overlap
     ethr =  3.50E-09,  avg # of iterations =  3.4

     total cpu time spent up to now is        1.9 secs

     total energy              =     -55.90605453 Ry
     estimated scf accuracy    <       0.00000004 Ry

     iteration #  9     ecut=    60.00 Ry     beta= 0.80
     Davidson diagonalization with overlap
     ethr =  1.75E-10,  avg # of iterations =  4.3

     total cpu time spent up to now is        2.1 secs

     End of self-consistent calculation

          k = 0.0000 0.0000 0.0000 (  3621 PWs)   bands (ev):

   -42.3658 -42.3436  -6.9283   0.3975   2.3835   2.3835   5.6558   5.8755
     5.8755  10.1198  11.2107  11.2107  11.3805  11.3805  11.5834

          k =-0.4180-0.2413 0.0888 (  3601 PWs)   bands (ev):

   -42.3618 -42.3458  -6.1427  -0.1995   1.1067   1.4620   4.9516   6.3091
     7.2449   7.9778  10.1112  10.4256  12.2543  12.3785  13.5808

          k = 0.8360 0.4827-0.1776 (  3598 PWs)   bands (ev):

   -42.3564 -42.3499  -4.3430  -3.1429   0.8808   2.5783   3.3846   6.2890
     7.3817   7.6427   8.8437  11.6297  11.8068  13.6459  14.1640

          k =-0.4180 0.2413 0.1776 (  3612 PWs)   bands (ev):

   -42.3618 -42.3462  -6.1424  -0.1946   1.0800   1.4511   4.9917   6.4120
     7.3370   7.8136  10.2900  10.3093  12.3135  12.3628  12.5091

          k = 0.8360 0.9654-0.0888 (  3597 PWs)   bands (ev):

   -42.3568 -42.3498  -4.6721  -1.7748  -1.0147   2.3710   5.0295   5.9110
     7.5527   8.2144   9.7758   9.9229  11.0280  12.5450  14.7707

          k = 0.4180 0.7240 0.0000 (  3581 PWs)   bands (ev):

   -42.3562 -42.3497  -4.6733  -1.7759  -1.0115   2.4371   5.0520   5.7725
     7.2698   8.2363   9.6986  10.0442  11.3068  13.8146  13.8703

          k = 0.8360-0.4827-0.3552 (  3596 PWs)   bands (ev):

   -42.3566 -42.3500  -4.3459  -3.1357   0.8625   2.5880   3.3199   5.9977
     7.7629   7.9014   9.5842  10.7999  11.7744  13.1671  14.1433

          k = 0.0000 0.0000 0.2664 (  3615 PWs)   bands (ev):

   -42.3651 -42.3442  -6.9271   0.3264   2.3779   2.3779   5.8961   5.8961
     6.1726   9.7789  10.5660  10.9698  10.9698  11.6499  11.6499

          k = 1.2541 0.7240 0.0000 (  3605 PWs)   bands (ev):

   -42.3617 -42.3462  -6.1409  -0.2019   1.0111   1.4576   4.9354   7.0744
     7.3346   8.0696   9.9041  10.3212  10.6187  12.3684  13.1045

          k = 0.8360 0.4827 0.0888 (  3586 PWs)   bands (ev):

   -42.3563 -42.3497  -4.3444  -3.1393   0.8716   2.5815   3.3545   6.1465
     7.5558   7.6887   9.3004  11.2808  12.0761  12.6327  13.8314

          k = 1.2541-0.7240-0.2664 (  3610 PWs)   bands (ev):

   -42.3617 -42.3463  -6.1407  -0.1970   0.9866   1.4468   4.9652   7.3082
     7.4331   7.8655   9.7218  10.0480  11.0853  12.4257  12.4901

          k = 0.8360-0.9654-0.1776 (  3596 PWs)   bands (ev):

   -42.3566 -42.3500  -4.6710  -1.7736  -1.0180   2.3089   5.0212   6.0310
     7.9944   8.0356   9.8988  10.2621  10.2961  11.8024  15.0708

          k = 0.0000 0.0000-0.5328 (  3620 PWs)   bands (ev):

   -42.3653 -42.3443  -6.9259   0.2597   2.3723   2.3723   5.9166   5.9166
     7.0299   8.6579  10.3973  10.8808  10.8808  11.7366  11.7367

     the Fermi energy is    10.0302 ev

!    total energy              =     -55.90605454 Ry
     estimated scf accuracy    <          6.5E-10 Ry
     smearing contrib. (-TS)   =       0.00031380 Ry
     internal energy E=F+TS    =     -55.90636834 Ry

     The total energy is F=E-TS. E is the sum of the following terms:
     one-electron contribution =     -13.73454881 Ry
     hartree contribution      =      15.10790515 Ry
     xc contribution           =     -21.22296525 Ry
     ewald contribution        =     -36.05675943 Ry

     convergence has been achieved in   9 iterations

     Forces acting on atoms (cartesian axes, Ry/au):

     atom    1 type  1   force =    -0.00000000    0.00000000    7.27590033
     atom    2 type  1   force =     0.00000000    0.00000000   -7.27590033
     atom    3 type  1   force =    -0.00000000   -0.00000000    1.06369859
     atom    4 type  1   force =     0.00000000    0.00000000   -1.06369859
     atom    5 type  2   force =    -0.00000000   -0.00000000   -1.13212658
     atom    6 type  2   force =    -0.00000000   -0.00000000    1.13212658
     The non-local contrib.  to forces
     atom    1 type  1   force =     0.00000000   -0.00000000    0.85731300
     atom    2 type  1   force =    -0.00000000    0.00000000   -0.85731300
     atom    3 type  1   force =     0.00000000    0.00000000    0.30512741
     atom    4 type  1   force =     0.00000000   -0.00000000   -0.30512741
     atom    5 type  2   force =    -0.00000000    0.00000000    0.67019449
     atom    6 type  2   force =    -0.00000000    0.00000000   -0.67019449
     The ionic contribution  to forces
     atom    1 type  1   force =     0.00000000   -0.00000000   10.15661207
     atom    2 type  1   force =    -0.00000000    0.00000000  -10.15661207
     atom    3 type  1   force =    -0.00000000   -0.00000000    0.37154961
     atom    4 type  1   force =     0.00000000    0.00000000   -0.37154961
     atom    5 type  2   force =    -0.00000000   -0.00000000   -5.32654647
     atom    6 type  2   force =     0.00000000    0.00000000    5.32654647
     The local contribution  to forces
     atom    1 type  1   force =    -0.00000000    0.00000000   -3.62286377
     atom    2 type  1   force =     0.00000000   -0.00000000    3.62286377
     atom    3 type  1   force =    -0.00000000    0.00000000    0.40879858
     atom    4 type  1   force =     0.00000000   -0.00000000   -0.40879858
     atom    5 type  2   force =     0.00000000    0.00000000    3.52423837
     atom    6 type  2   force =    -0.00000000   -0.00000000   -3.52423837
     The core correction contribution to forces
     atom    1 type  1   force =     0.00000000    0.00000000   -0.11517382
     atom    2 type  1   force =     0.00000000   -0.00000000    0.11517382
     atom    3 type  1   force =     0.00000000    0.00000000   -0.02175874
     atom    4 type  1   force =    -0.00000000   -0.00000000    0.02175874
     atom    5 type  2   force =     0.00000000    0.00000000    0.00000000
     atom    6 type  2   force =     0.00000000    0.00000000    0.00000000
     The Hubbard contrib.    to forces
     atom    1 type  1   force =     0.00000000    0.00000000    0.00000000
     atom    2 type  1   force =     0.00000000    0.00000000    0.00000000
     atom    3 type  1   force =     0.00000000    0.00000000    0.00000000
     atom    4 type  1   force =     0.00000000    0.00000000    0.00000000
     atom    5 type  2   force =     0.00000000    0.00000000    0.00000000
     atom    6 type  2   force =     0.00000000    0.00000000    0.00000000
     The SCF correction term to forces
     atom    1 type  1   force =    -0.00000000    0.00000000    0.00001285
     atom    2 type  1   force =    -0.00000000   -0.00000000   -0.00001285
     atom    3 type  1   force =    -0.00000000   -0.00000000   -0.00001828
     atom    4 type  1   force =     0.00000000    0.00000000    0.00001828
     atom    5 type  2   force =    -0.00000000   -0.00000000   -0.00001298
     atom    6 type  2   force =     0.00000000    0.00000000    0.00001298

     Total force =    10.521586     Total SCF correction =     0.000037


     Computing stress (Cartesian axis) and pressure

          total   stress  (Ry/bohr**3)                   (kbar)     P=     2125.50
   0.00172658  -0.00000000   0.00000000          253.99       -0.00        0.00
  -0.00000000   0.00172658   0.00000000           -0.00      253.99        0.00
   0.00000000   0.00000000   0.03989334            0.00        0.00     5868.51


     BFGS Geometry Optimization
     Energy error            =      0.0E+00 Ry
     Gradient error          =      7.3E+00 Ry/Bohr
     Cell gradient error     =      5.4E+03 kbar

     number of scf cycles    =   1
     number of bfgs steps    =   0

     enthalpy           new  =     -54.3477902959 Ry

     new trust radius        =       0.5000000000 bohr
ibrav =      5
 celldm(1) =     12.28125214
 celldm(4) =      0.84027639
Input lattice vectors:
     0.29816775    -0.17214723     0.99733867
     0.00000000     0.34429447     0.99733867
    -0.29816775    -0.17214723     0.99733867
New lattice vectors in INITIAL alat:
     0.29816775    -0.17214723     0.99733867
     0.00000000     0.34429447     0.99733867
    -0.29816775    -0.17214723     0.99733867
New lattice vectors in NEW alat (for information only):
     0.28259831    -0.16315821     0.94526059
     0.00000000     0.32631643     0.94526059
    -0.28259831    -0.16315821     0.94526059
Discrepancy in bohr =     0.000000    0.000000    0.000000
     new conv_thr            =       0.0000000100 Ry

     new unit-cell volume =    484.40571 a.u.^3 (    71.78152 Ang^3 )
     density =      2.91997 g/cm^3

CELL_PARAMETERS (alat= 11.63996142)
   0.298167753  -0.172147233   0.997338674
   0.000000000   0.344294465   0.997338674
  -0.298167753  -0.172147233   0.997338674

ATOMIC_POSITIONS (crystal)
Si            0.0427328252        0.0427328252        0.0427328252
Si            0.9572671748        0.9572671748        0.9572671748
Si            0.2887604681        0.2887604681        0.2887604681
Si            0.7112395319        0.7112395319        0.7112395319
Li            0.2132270454        0.2132270454        0.2132270454
Li            0.7867729546        0.7867729546        0.7867729546



     Writing config-only to output data dir ./output/SiLi.save/
     NEW-OLD atomic charge density approx. for the potential

     negative rho (up, down):  2.571E-03 0.000E+00
     extrapolated charge   23.17787, renormalised to   22.00000

     total cpu time spent up to now is        2.6 secs

     Self-consistent Calculation

     iteration #  1     ecut=    60.00 Ry     beta= 0.80
     Davidson diagonalization with overlap
     c_bands:  1 eigenvalues not converged
     c_bands:  1 eigenvalues not converged
     ethr =  1.00E-06,  avg # of iterations = 16.6

     total cpu time spent up to now is        3.0 secs

     total energy              =     -59.78951805 Ry
     estimated scf accuracy    <       1.18863103 Ry

     iteration #  2     ecut=    60.00 Ry     beta= 0.80
     Davidson diagonalization with overlap
     ethr =  5.40E-03,  avg # of iterations =  5.6

     total cpu time spent up to now is        3.3 secs

     total energy              =     -60.21585357 Ry
     estimated scf accuracy    <       7.31460641 Ry

     iteration #  3     ecut=    60.00 Ry     beta= 0.80
     Davidson diagonalization with overlap
     ethr =  5.40E-03,  avg # of iterations =  3.5

     total cpu time spent up to now is        3.4 secs

     total energy              =     -60.76792455 Ry
     estimated scf accuracy    <       0.51569818 Ry

     iteration #  4     ecut=    60.00 Ry     beta= 0.80
     Davidson diagonalization with overlap
     ethr =  2.34E-03,  avg # of iterations =  1.8

     total cpu time spent up to now is        3.5 secs

     total energy              =     -60.76155074 Ry
     estimated scf accuracy    <       0.11141346 Ry

     iteration #  5     ecut=    60.00 Ry     beta= 0.80
     Davidson diagonalization with overlap
     ethr =  5.06E-04,  avg # of iterations =  4.3

     total cpu time spent up to now is        3.7 secs

     total energy              =     -60.79016049 Ry
     estimated scf accuracy    <       0.00101256 Ry

     iteration #  6     ecut=    60.00 Ry     beta= 0.80
     Davidson diagonalization with overlap
     ethr =  4.60E-06,  avg # of iterations =  6.6

     total cpu time spent up to now is        3.8 secs

     total energy              =     -60.79048066 Ry
     estimated scf accuracy    <       0.00163193 Ry

     iteration #  7     ecut=    60.00 Ry     beta= 0.80
     Davidson diagonalization with overlap
     ethr =  4.60E-06,  avg # of iterations =  2.2

     total cpu time spent up to now is        4.0 secs

     total energy              =     -60.79089327 Ry
     estimated scf accuracy    <       0.00011713 Ry

     iteration #  8     ecut=    60.00 Ry     beta= 0.80
     Davidson diagonalization with overlap
     ethr =  5.32E-07,  avg # of iterations =  1.9

     total cpu time spent up to now is        4.1 secs

     total energy              =     -60.79086895 Ry
     estimated scf accuracy    <       0.00007809 Ry

     iteration #  9     ecut=    60.00 Ry     beta= 0.80
     Davidson diagonalization with overlap
     ethr =  3.55E-07,  avg # of iterations =  1.9

     total cpu time spent up to now is        4.2 secs

     total energy              =     -60.79088157 Ry
     estimated scf accuracy    <       0.00000107 Ry

     iteration # 10     ecut=    60.00 Ry     beta= 0.80
     Davidson diagonalization with overlap
     ethr =  4.88E-09,  avg # of iterations =  4.2

     total cpu time spent up to now is        4.3 secs

     total energy              =     -60.79088204 Ry
     estimated scf accuracy    <       0.00000021 Ry

     iteration # 11     ecut=    60.00 Ry     beta= 0.80
     Davidson diagonalization with overlap
     ethr =  9.54E-10,  avg # of iterations =  2.5

     total cpu time spent up to now is        4.4 secs

     total energy              =     -60.79088204 Ry
     estimated scf accuracy    <       0.00000040 Ry

     iteration # 12     ecut=    60.00 Ry     beta= 0.80
     Davidson diagonalization with overlap
     ethr =  9.54E-10,  avg # of iterations =  2.0

     total cpu time spent up to now is        4.5 secs

     total energy              =     -60.79088205 Ry
     estimated scf accuracy    <       0.00000006 Ry

     iteration # 13     ecut=    60.00 Ry     beta= 0.80
     Davidson diagonalization with overlap
     ethr =  2.86E-10,  avg # of iterations =  1.8

     total cpu time spent up to now is        4.6 secs

     total energy              =     -60.79088205 Ry
     estimated scf accuracy    <       0.00000001 Ry

     iteration # 14     ecut=    60.00 Ry     beta= 0.80
     Davidson diagonalization with overlap
     ethr =  6.02E-11,  avg # of iterations =  2.5

     total cpu time spent up to now is        4.8 secs

     End of self-consistent calculation

          k = 0.0000 0.0000 0.0000 (  3621 PWs)   bands (ev):

   -40.1286 -40.1036  -6.8833  -0.8049   3.9341   4.3009   4.3009   6.3307
     6.3307   7.3784  10.5183  10.8072  10.8072  11.2421  11.2421

          k =-0.4192-0.2420 0.0836 (  3601 PWs)   bands (ev):

   -40.1235 -40.1059  -6.0833  -0.1738   0.6920   2.9766   4.5155   4.8323
     7.1384   7.3885   9.8378  10.5060  11.0284  12.3050  12.6136

          k = 0.8385 0.4841-0.1671 (  3598 PWs)   bands (ev):

   -40.1179 -40.1102  -4.3856  -2.5725   1.7122   2.2775   2.4107   5.5038
     6.2670   6.8110   8.1112  10.8276  12.7510  12.8905  12.9360

          k =-0.4192 0.2420 0.1671 (  3612 PWs)   bands (ev):

   -40.1237 -40.1061  -6.0833  -0.1813   0.6904   2.9573   4.4214   5.0626
     7.2721   7.3009   9.2001  10.8059  11.1220  12.4633  12.6283

          k = 0.8385 0.9682-0.0836 (  3597 PWs)   bands (ev):

   -40.1177 -40.1100  -4.6283  -1.2603  -0.3320   1.5127   4.2940   5.0249
     5.7677   9.0195   9.5095  10.1018  10.5056  11.6004  13.7809

          k = 0.4192 0.7261 0.0000 (  3581 PWs)   bands (ev):

   -40.1172 -40.1093  -4.6285  -1.2627  -0.3317   1.5624   4.3279   4.9316
     5.5765   9.0336   9.5091  10.1592  10.9344  12.2156  12.9043

          k = 0.8385-0.4841-0.3342 (  3596 PWs)   bands (ev):

   -40.1177 -40.1096  -4.3890  -2.5648   1.7333   2.2478   2.3599   5.2126
     6.5978   7.0963   8.5903  10.6241  11.4760  12.2741  12.8149

          k =-0.0000 0.0000 0.2507 (  3615 PWs)   bands (ev):

   -40.1278 -40.1034  -6.8829  -0.8459   4.2030   4.2882   4.2882   6.3577
     6.3577   7.4324   9.1313  10.8263  10.8263  11.2360  11.2360

          k = 1.2577 0.7261 0.0000 (  3605 PWs)   bands (ev):

   -40.1240 -40.1055  -6.0826  -0.2137   0.6706   2.9696   4.6064   5.1374
     7.1995   7.4205   9.2959  10.1912  10.8883  11.7762  12.3427

          k = 0.8385 0.4841 0.0836 (  3586 PWs)   bands (ev):

   -40.1170 -40.1097  -4.3873  -2.5686   1.7220   2.2625   2.3863   5.3457
     6.4199   6.9464   8.3766  11.1370  11.4206  12.0206  13.9817

          k = 1.2577-0.7261-0.2507 (  3610 PWs)   bands (ev):

   -40.1238 -40.1056  -6.0826  -0.2213   0.6701   2.9504   4.5136   5.4187
     7.3297   7.3393   8.6226  10.5671  10.9347  11.9630  12.4535

          k = 0.8385-0.9682-0.1671 (  3596 PWs)   bands (ev):

   -40.1175 -40.1102  -4.6282  -1.2580  -0.3322   1.4657   4.2698   5.0974
     5.9909   9.2668   9.2888   9.6510  10.6176  11.0750  14.6339

          k = 0.0000 0.0000-0.5013 (  3620 PWs)   bands (ev):

   -40.1286 -40.1028  -6.8824  -0.8853   4.2758   4.2758   4.5220   6.3844
     6.3844   7.6208   8.1163  10.9789  10.9789  11.0713  11.0713

     the Fermi energy is     9.7440 ev

!    total energy              =     -60.79088205 Ry
     estimated scf accuracy    <          4.5E-10 Ry
     smearing contrib. (-TS)   =       0.00065010 Ry
     internal energy E=F+TS    =     -60.79153215 Ry

     The total energy is F=E-TS. E is the sum of the following terms:
     one-electron contribution =     -10.74064771 Ry
     hartree contribution      =      13.45240478 Ry
     xc contribution           =     -20.69078808 Ry
     ewald contribution        =     -42.81250114 Ry

     convergence has been achieved in  14 iterations

     Forces acting on atoms (cartesian axes, Ry/au):

     atom    1 type  1   force =    -0.00000000    0.00000000    1.34286566
     atom    2 type  1   force =     0.00000000   -0.00000000   -1.34286566
     atom    3 type  1   force =    -0.00000000    0.00000000    0.70030523
     atom    4 type  1   force =     0.00000000   -0.00000000   -0.70030523
     atom    5 type  2   force =     0.00000000   -0.00000000   -0.72690429
     atom    6 type  2   force =    -0.00000000    0.00000000    0.72690429
     The non-local contrib.  to forces
     atom    1 type  1   force =    -0.00000000   -0.00000000    0.88396008
     atom    2 type  1   force =     0.00000000    0.00000000   -0.88396008
     atom    3 type  1   force =    -0.00000000   -0.00000000    0.29950869
     atom    4 type  1   force =     0.00000000    0.00000000   -0.29950869
     atom    5 type  2   force =    -0.00000000    0.00000000    0.29272230
     atom    6 type  2   force =     0.00000000   -0.00000000   -0.29272230
     The ionic contribution  to forces
     atom    1 type  1   force =    -0.00000000   -0.00000000    4.14083965
     atom    2 type  1   force =    -0.00000000    0.00000000   -4.14083965
     atom    3 type  1   force =     0.00000000   -0.00000000    0.01421040
     atom    4 type  1   force =     0.00000000    0.00000000   -0.01421040
     atom    5 type  2   force =     0.00000000   -0.00000000   -4.17406521
     atom    6 type  2   force =    -0.00000000    0.00000000    4.17406521
     The local contribution  to forces
     atom    1 type  1   force =    -0.00000000    0.00000000   -3.62346513
     atom    2 type  1   force =     0.00000000   -0.00000000    3.62346513
     atom    3 type  1   force =    -0.00000000    0.00000000    0.40545824
     atom    4 type  1   force =    -0.00000000   -0.00000000   -0.40545824
     atom    5 type  2   force =    -0.00000000    0.00000000    3.15445189
     atom    6 type  2   force =     0.00000000   -0.00000000   -3.15445189
     The core correction contribution to forces
     atom    1 type  1   force =    -0.00000000    0.00000000   -0.05848703
     atom    2 type  1   force =     0.00000000   -0.00000000    0.05848703
     atom    3 type  1   force =    -0.00000000    0.00000000   -0.01885350
     atom    4 type  1   force =    -0.00000000   -0.00000000    0.01885350
     atom    5 type  2   force =     0.00000000    0.00000000    0.00000000
     atom    6 type  2   force =     0.00000000    0.00000000    0.00000000
     The Hubbard contrib.    to forces
     atom    1 type  1   force =     0.00000000    0.00000000    0.00000000
     atom    2 type  1   force =     0.00000000    0.00000000    0.00000000
     atom    3 type  1   force =     0.00000000    0.00000000    0.00000000
     atom    4 type  1   force =     0.00000000    0.00000000    0.00000000
     atom    5 type  2   force =     0.00000000    0.00000000    0.00000000
     atom    6 type  2   force =     0.00000000    0.00000000    0.00000000
     The SCF correction term to forces
     atom    1 type  1   force =    -0.00000000   -0.00000000    0.00001809
     atom    2 type  1   force =     0.00000000    0.00000000   -0.00001809
     atom    3 type  1   force =     0.00000000   -0.00000000   -0.00001860
     atom    4 type  1   force =    -0.00000000    0.00000000    0.00001860
     atom    5 type  2   force =     0.00000000   -0.00000000   -0.00001327
     atom    6 type  2   force =    -0.00000000    0.00000000    0.00001327

     Total force =     2.375755     Total SCF correction =     0.000041


     Computing stress (Cartesian axis) and pressure

          total   stress  (Ry/bohr**3)                   (kbar)     P=     1094.39
   0.00303979   0.00000000  -0.00000000          447.17        0.00       -0.00
  -0.00000000   0.00303979   0.00000000           -0.00      447.17        0.00
  -0.00000000   0.00000000   0.01623903           -0.00        0.00     2388.84

     Energy error            =      4.8E+00 Ry
     Gradient error          =      1.3E+00 Ry/Bohr
     Cell gradient error     =      1.9E+03 kbar

     number of scf cycles    =   2
     number of bfgs steps    =   1

     enthalpy           old  =     -54.3477902959 Ry
     enthalpy           new  =     -59.1444205130 Ry

     CASE: enthalpy          _new < enthalpy          _old

     new trust radius        =       0.7517180738 bohr
ibrav =      5
 celldm(1) =     14.09196719
 celldm(4) =      0.87900474
Input lattice vectors:
     0.29777571    -0.17192089     1.16079982
    -0.00000000     0.34384178     1.16079982
    -0.29777571    -0.17192089     1.16079982
New lattice vectors in INITIAL alat:
     0.29777571    -0.17192089     1.16079982
     0.00000000     0.34384178     1.16079982
    -0.29777571    -0.17192089     1.16079982
New lattice vectors in NEW alat (for information only):
     0.24596266    -0.14200661     0.95882036
     0.00000000     0.28401322     0.95882036
    -0.24596266    -0.14200661     0.95882036
Discrepancy in bohr =     0.000000    0.000000    0.000000
     new conv_thr            =       0.0000000100 Ry

     new unit-cell volume =    562.31688 a.u.^3 (    83.32676 Ang^3 )
     density =      2.51540 g/cm^3

CELL_PARAMETERS (alat= 11.63996142)
   0.297775712  -0.171920888   1.160799819
   0.000000000   0.343841775   1.160799819
  -0.297775712  -0.171920888   1.160799819

ATOMIC_POSITIONS (crystal)
Si            0.0405910359        0.0405910359        0.0405910359
Si            0.9594089641        0.9594089641        0.9594089641
Si            0.3097738489        0.3097738489        0.3097738489
Si            0.6902261511        0.6902261511        0.6902261511
Li            0.1916426674        0.1916426674        0.1916426674
Li            0.8083573326        0.8083573326        0.8083573326



     Writing config-only to output data dir ./output/SiLi.save/
     NEW-OLD atomic charge density approx. for the potential
     extrapolated charge   25.04658, renormalised to   22.00000

     total cpu time spent up to now is        5.3 secs

     Self-consistent Calculation

     iteration #  1     ecut=    60.00 Ry     beta= 0.80
     Davidson diagonalization with overlap
     c_bands:  1 eigenvalues not converged
     c_bands:  1 eigenvalues not converged
     c_bands:  1 eigenvalues not converged
     ethr =  1.00E-06,  avg # of iterations = 17.0

     total cpu time spent up to now is        5.8 secs

     total energy              =     -56.79820407 Ry
     estimated scf accuracy    <       4.99184926 Ry

     iteration #  2     ecut=    60.00 Ry     beta= 0.80
     Davidson diagonalization with overlap
     ethr =  1.00E-02,  avg # of iterations =  7.5

     total cpu time spent up to now is        6.0 secs

     total energy              =     -62.27241079 Ry
     estimated scf accuracy    <      20.28799009 Ry

     iteration #  3     ecut=    60.00 Ry     beta= 0.80
     Davidson diagonalization with overlap
     ethr =  1.00E-02,  avg # of iterations =  2.0

     total cpu time spent up to now is        6.1 secs

     total energy              =     -62.17944043 Ry
     estimated scf accuracy    <       4.80583575 Ry

     iteration #  4     ecut=    60.00 Ry     beta= 0.80
     Davidson diagonalization with overlap
     ethr =  1.00E-02,  avg # of iterations =  1.9

     total cpu time spent up to now is        6.2 secs

     total energy              =     -61.44392393 Ry
     estimated scf accuracy    <       2.27981081 Ry

     iteration #  5     ecut=    60.00 Ry     beta= 0.80
     Davidson diagonalization with overlap
     ethr =  1.00E-02,  avg # of iterations =  3.7

     total cpu time spent up to now is        6.3 secs

     total energy              =     -61.85383392 Ry
     estimated scf accuracy    <       0.06627539 Ry

     iteration #  6     ecut=    60.00 Ry     beta= 0.80
     Davidson diagonalization with overlap
     ethr =  3.01E-04,  avg # of iterations =  4.3

     total cpu time spent up to now is        6.5 secs

     total energy              =     -61.87250309 Ry
     estimated scf accuracy    <       0.01611509 Ry

     iteration #  7     ecut=    60.00 Ry     beta= 0.80
     Davidson diagonalization with overlap
     ethr =  7.33E-05,  avg # of iterations =  3.9

     total cpu time spent up to now is        6.6 secs

     total energy              =     -61.88912802 Ry
     estimated scf accuracy    <       0.07444977 Ry

     iteration #  8     ecut=    60.00 Ry     beta= 0.80
     Davidson diagonalization with overlap
     ethr =  7.33E-05,  avg # of iterations =  1.2

     total cpu time spent up to now is        6.7 secs

     total energy              =     -61.87652151 Ry
     estimated scf accuracy    <       0.04162316 Ry

     iteration #  9     ecut=    60.00 Ry     beta= 0.80
     Davidson diagonalization with overlap
     ethr =  7.33E-05,  avg # of iterations =  2.5

     total cpu time spent up to now is        6.8 secs

     total energy              =     -61.88138757 Ry
     estimated scf accuracy    <       0.00151140 Ry

     iteration # 10     ecut=    60.00 Ry     beta= 0.80
     Davidson diagonalization with overlap
     ethr =  6.87E-06,  avg # of iterations =  2.0
     Minimization algorithm failed to find Fermi energy: reverting to bisection
     Possible cause: smearing is larger than the electronic band-gap.

     total cpu time spent up to now is        6.9 secs

     total energy              =     -61.88178997 Ry
     estimated scf accuracy    <       0.00241751 Ry

     iteration # 11     ecut=    60.00 Ry     beta= 0.80
     Davidson diagonalization with overlap
     ethr =  6.87E-06,  avg # of iterations =  1.0

     total cpu time spent up to now is        7.0 secs

     total energy              =     -61.88179601 Ry
     estimated scf accuracy    <       0.00035069 Ry

     iteration # 12     ecut=    60.00 Ry     beta= 0.80
     Davidson diagonalization with overlap
     ethr =  1.59E-06,  avg # of iterations =  3.3

     total cpu time spent up to now is        7.2 secs

     total energy              =     -61.88184546 Ry
     estimated scf accuracy    <       0.00006694 Ry

     iteration # 13     ecut=    60.00 Ry     beta= 0.80
     Davidson diagonalization with overlap
     ethr =  3.04E-07,  avg # of iterations =  1.4

     total cpu time spent up to now is        7.3 secs

     total energy              =     -61.88185527 Ry
     estimated scf accuracy    <       0.00000245 Ry

     iteration # 14     ecut=    60.00 Ry     beta= 0.80
     Davidson diagonalization with overlap
     ethr =  1.12E-08,  avg # of iterations =  3.9

     total cpu time spent up to now is        7.4 secs

     total energy              =     -61.88185571 Ry
     estimated scf accuracy    <       0.00000020 Ry

     iteration # 15     ecut=    60.00 Ry     beta= 0.80
     Davidson diagonalization with overlap
     ethr =  8.97E-10,  avg # of iterations =  3.9

     total cpu time spent up to now is        7.5 secs

     total energy              =     -61.88185575 Ry
     estimated scf accuracy    <       0.00000149 Ry

     iteration # 16     ecut=    60.00 Ry     beta= 0.80
     Davidson diagonalization with overlap
     ethr =  8.97E-10,  avg # of iterations =  1.9

     total cpu time spent up to now is        7.6 secs

     total energy              =     -61.88185581 Ry
     estimated scf accuracy    <       0.00000010 Ry

     iteration # 17     ecut=    60.00 Ry     beta= 0.80
     Davidson diagonalization with overlap
     ethr =  4.55E-10,  avg # of iterations =  1.1

     total cpu time spent up to now is        7.7 secs

     End of self-consistent calculation

          k = 0.0000 0.0000 0.0000 (  3621 PWs)   bands (ev):

   -39.3473 -39.2191  -8.6824  -1.7514   2.5845   3.0163   3.0163   4.7939
     4.7939   6.0656   8.1924   8.9336   9.7911  10.0292  10.0292

          k =-0.4198-0.2424 0.0718 (  3601 PWs)   bands (ev):

   -39.3252 -39.2328  -7.8448  -1.2263  -0.7585   1.3973   3.2117   3.8613
     5.9759   7.2544   8.1463   9.0140   9.2866  10.0805  10.5914

          k = 0.8396 0.4847-0.1436 (  3598 PWs)   bands (ev):

   -39.2975 -39.2597  -5.9564  -4.4629   0.6384   1.1918   1.6062   3.6939
     5.1924   6.4059   7.2527   8.7479  10.4757  10.8098  12.5622

          k =-0.4198 0.2424 0.1436 (  3612 PWs)   bands (ev):

   -39.3229 -39.2329  -7.8448  -1.2273  -0.7616   1.3955   3.2006   3.9566
     5.9879   7.2847   7.4788   9.3527   9.5593   9.9900  11.0816

          k = 0.8396 0.9694-0.0718 (  3597 PWs)   bands (ev):

   -39.2963 -39.2548  -6.2787  -2.9713  -2.0492   0.7690   3.7947   4.1856
     5.1600   7.6928   7.7547   8.0553   9.0524   9.9259  10.8416

          k = 0.4198 0.7271 0.0000 (  3581 PWs)   bands (ev):

   -39.2924 -39.2536  -6.2787  -2.9717  -2.0491   0.7871   3.7966   4.1658
     4.9790   7.7389   7.7473   8.2418   9.8128   9.9417  10.5289

          k = 0.8396-0.4847-0.2872 (  3596 PWs)   bands (ev):

   -39.2960 -39.2521  -5.9570  -4.4617   0.6357   1.1986   1.5874   3.6476
     5.1542   7.0064   7.3727   8.7439   8.9804  11.2948  11.3250

          k =-0.0000 0.0000 0.2154 (  3615 PWs)   bands (ev):

   -39.3380 -39.2174  -8.6825  -1.7667   2.7619   3.0153   3.0153   4.7949
     4.7949   6.0273   6.9080   9.7519  10.0724  10.0724  10.7854

          k = 1.2593 0.7271 0.0000 (  3605 PWs)   bands (ev):

   -39.3184 -39.2364  -7.8448  -1.2307  -0.7767   1.3967   3.3509   3.9980
     5.9541   7.0332   7.2654   9.2008   9.3028  10.1446  11.2337

          k = 0.8396 0.4847 0.0718 (  3586 PWs)   bands (ev):

   -39.2914 -39.2554  -5.9567  -4.4623   0.6371   1.1950   1.5971   3.6714
     5.1576   6.7117   7.3106   8.6757   9.5387  11.5900  11.7590

          k = 1.2593-0.7271-0.2154 (  3610 PWs)   bands (ev):

   -39.3180 -39.2330  -7.8449  -1.2318  -0.7796   1.3950   3.3252   4.1383
     6.0084   6.5938   7.2959   9.3731   9.4347  10.0984  11.6827

          k = 0.8396-0.9694-0.1436 (  3596 PWs)   bands (ev):

   -39.2935 -39.2569  -6.2788  -2.9709  -2.0493   0.7513   3.7937   4.2027
     5.3867   7.5485   7.7855   7.8197   8.9230   9.3965  11.8765

          k = 0.0000-0.0000-0.4307 (  3620 PWs)   bands (ev):

   -39.3277 -39.2248  -8.6825  -1.7816   2.9740   3.0142   3.0142   4.7959
     4.7959   5.8672   6.3707   9.7614  10.1199  10.1199  11.9458

     the Fermi energy is     7.8966 ev

!    total energy              =     -61.88185582 Ry
     estimated scf accuracy    <          7.0E-10 Ry
     smearing contrib. (-TS)   =       0.00154923 Ry
     internal energy E=F+TS    =     -61.88340505 Ry

     The total energy is F=E-TS. E is the sum of the following terms:
     one-electron contribution =     -17.62566049 Ry
     hartree contribution      =      15.94261164 Ry
     xc contribution           =     -20.28647753 Ry
     ewald contribution        =     -39.91387866 Ry

     convergence has been achieved in  17 iterations

     Forces acting on atoms (cartesian axes, Ry/au):

     atom    1 type  1   force =     0.00000000    0.00000000    0.76851873
     atom    2 type  1   force =    -0.00000000    0.00000000   -0.76851873
     atom    3 type  1   force =    -0.00000000   -0.00000000   -0.02096638
     atom    4 type  1   force =    -0.00000000   -0.00000000    0.02096638
     atom    5 type  2   force =    -0.00000000    0.00000000    0.04180489
     atom    6 type  2   force =     0.00000000    0.00000000   -0.04180489
     The non-local contrib.  to forces
     atom    1 type  1   force =    -0.00000000   -0.00000000    0.61158715
     atom    2 type  1   force =     0.00000000   -0.00000000   -0.61158715
     atom    3 type  1   force =     0.00000000    0.00000000    0.03335915
     atom    4 type  1   force =     0.00000000    0.00000000   -0.03335915
     atom    5 type  2   force =     0.00000000   -0.00000000   -0.02114381
     atom    6 type  2   force =     0.00000000   -0.00000000    0.02114381
     The ionic contribution  to forces
     atom    1 type  1   force =    -0.00000000   -0.00000000    5.04656172
     atom    2 type  1   force =     0.00000000    0.00000000   -5.04656172
     atom    3 type  1   force =     0.00000000   -0.00000000   -2.10495796
     atom    4 type  1   force =    -0.00000000    0.00000000    2.10495796
     atom    5 type  2   force =     0.00000000   -0.00000000   -0.95020434
     atom    6 type  2   force =     0.00000000    0.00000000    0.95020434
     The local contribution  to forces
     atom    1 type  1   force =     0.00000000    0.00000000   -4.84306828
     atom    2 type  1   force =    -0.00000000   -0.00000000    4.84306828
     atom    3 type  1   force =    -0.00000000    0.00000000    2.05082817
     atom    4 type  1   force =     0.00000000   -0.00000000   -2.05082817
     atom    5 type  2   force =    -0.00000000    0.00000000    1.01314570
     atom    6 type  2   force =     0.00000000   -0.00000000   -1.01314570
     The core correction contribution to forces
     atom    1 type  1   force =    -0.00000000    0.00000000   -0.04654160
     atom    2 type  1   force =     0.00000000   -0.00000000    0.04654160
     atom    3 type  1   force =    -0.00000000    0.00000000   -0.00020612
     atom    4 type  1   force =     0.00000000   -0.00000000    0.00020612
     atom    5 type  2   force =     0.00000000    0.00000000    0.00000000
     atom    6 type  2   force =     0.00000000    0.00000000    0.00000000
     The Hubbard contrib.    to forces
     atom    1 type  1   force =     0.00000000    0.00000000    0.00000000
     atom    2 type  1   force =     0.00000000    0.00000000    0.00000000
     atom    3 type  1   force =     0.00000000    0.00000000    0.00000000
     atom    4 type  1   force =     0.00000000    0.00000000    0.00000000
     atom    5 type  2   force =     0.00000000    0.00000000    0.00000000
     atom    6 type  2   force =     0.00000000    0.00000000    0.00000000
     The SCF correction term to forces
     atom    1 type  1   force =    -0.00000000    0.00000000   -0.00002026
     atom    2 type  1   force =     0.00000000    0.00000000    0.00002026
     atom    3 type  1   force =     0.00000000    0.00000000    0.00001038
     atom    4 type  1   force =    -0.00000000   -0.00000000   -0.00001038
     atom    5 type  2   force =    -0.00000000   -0.00000000    0.00000734
     atom    6 type  2   force =    -0.00000000   -0.00000000   -0.00000734

     Total force =     1.088860     Total SCF correction =     0.000034


     Computing stress (Cartesian axis) and pressure

          total   stress  (Ry/bohr**3)                   (kbar)     P=      527.52
   0.00349509   0.00000000   0.00000000          514.15        0.00        0.00
   0.00000000   0.00349509   0.00000000            0.00      514.15        0.00
   0.00000000   0.00000000   0.00376781            0.00        0.00      554.26

     Energy error            =      8.3E-01 Ry
     Gradient error          =      7.7E-01 Ry/Bohr
     Cell gradient error     =      5.4E+01 kbar

     number of scf cycles    =   3
     number of bfgs steps    =   2

     enthalpy           old  =     -59.1444205130 Ry
     enthalpy           new  =     -59.9705795830 Ry

     CASE: enthalpy          _new < enthalpy          _old

     new trust radius        =       0.1951498013 bohr
ibrav =      5
 celldm(1) =     13.56781010
 celldm(4) =      0.86770599
Input lattice vectors:
     0.29978735    -0.17308231     1.11303536
    -0.00000000     0.34616462     1.11303536
    -0.29978735    -0.17308231     1.11303536
New lattice vectors in INITIAL alat:
     0.29978735    -0.17308231     1.11303536
     0.00000000     0.34616462     1.11303536
    -0.29978735    -0.17308231     1.11303536
New lattice vectors in NEW alat (for information only):
     0.25719060    -0.14848906     0.95488428
     0.00000000     0.29697812     0.95488428
    -0.25719060    -0.14848906     0.95488428
Discrepancy in bohr =     0.000000    0.000000    0.000000
     new conv_thr            =       0.0000000100 Ry

     new unit-cell volume =    546.48824 a.u.^3 (    80.98120 Ang^3 )
     density =      2.58825 g/cm^3

CELL_PARAMETERS (alat= 11.63996142)
   0.299787353  -0.173082309   1.113035357
   0.000000000   0.346164618   1.113035357
  -0.299787353  -0.173082309   1.113035357

ATOMIC_POSITIONS (crystal)
Si            0.0448707434        0.0448707434        0.0448707434
Si            0.9551292566        0.9551292566        0.9551292566
Si            0.3096851799        0.3096851799        0.3096851799
Si            0.6903148201        0.6903148201        0.6903148201
Li            0.1925684227        0.1925684227        0.1925684227
Li            0.8074315773        0.8074315773        0.8074315773



     Writing config-only to output data dir ./output/SiLi.save/
     NEW-OLD atomic charge density approx. for the potential
     extrapolated charge   21.36312, renormalised to   22.00000

     total cpu time spent up to now is        8.2 secs

     Self-consistent Calculation

     iteration #  1     ecut=    60.00 Ry     beta= 0.80
     Davidson diagonalization with overlap
     ethr =  1.00E-06,  avg # of iterations =  9.9

     total cpu time spent up to now is        8.5 secs

     total energy              =     -61.98127681 Ry
     estimated scf accuracy    <       0.06177108 Ry

     iteration #  2     ecut=    60.00 Ry     beta= 0.80
     Davidson diagonalization with overlap
     ethr =  2.81E-04,  avg # of iterations =  4.4

     total cpu time spent up to now is        8.7 secs

     total energy              =     -61.92826416 Ry
     estimated scf accuracy    <       2.29958094 Ry

     iteration #  3     ecut=    60.00 Ry     beta= 0.80
     Davidson diagonalization with overlap
     ethr =  2.81E-04,  avg # of iterations =  3.8

     total cpu time spent up to now is        8.9 secs

     total energy              =     -62.04413944 Ry
     estimated scf accuracy    <       0.12278076 Ry

     iteration #  4     ecut=    60.00 Ry     beta= 0.80
     Davidson diagonalization with overlap
     ethr =  2.81E-04,  avg # of iterations =  1.5

     total cpu time spent up to now is        9.0 secs

     total energy              =     -62.04937263 Ry
     estimated scf accuracy    <       0.00886160 Ry

     iteration #  5     ecut=    60.00 Ry     beta= 0.80
     Davidson diagonalization with overlap
     ethr =  4.03E-05,  avg # of iterations =  4.1

     total cpu time spent up to now is        9.1 secs

     total energy              =     -62.05027251 Ry
     estimated scf accuracy    <       0.00023871 Ry

     iteration #  6     ecut=    60.00 Ry     beta= 0.80
     Davidson diagonalization with overlap
     ethr =  1.09E-06,  avg # of iterations =  5.2

     total cpu time spent up to now is        9.3 secs

     total energy              =     -62.05036747 Ry
     estimated scf accuracy    <       0.00002333 Ry

     iteration #  7     ecut=    60.00 Ry     beta= 0.80
     Davidson diagonalization with overlap
     ethr =  1.06E-07,  avg # of iterations =  2.2

     total cpu time spent up to now is        9.4 secs

     total energy              =     -62.05037291 Ry
     estimated scf accuracy    <       0.00000833 Ry

     iteration #  8     ecut=    60.00 Ry     beta= 0.80
     Davidson diagonalization with overlap
     ethr =  3.79E-08,  avg # of iterations =  1.2

     total cpu time spent up to now is        9.5 secs

     total energy              =     -62.05037247 Ry
     estimated scf accuracy    <       0.00000307 Ry

     iteration #  9     ecut=    60.00 Ry     beta= 0.80
     Davidson diagonalization with overlap
     ethr =  1.40E-08,  avg # of iterations =  1.8

     total cpu time spent up to now is        9.6 secs

     total energy              =     -62.05037294 Ry
     estimated scf accuracy    <       0.00000023 Ry

     iteration # 10     ecut=    60.00 Ry     beta= 0.80
     Davidson diagonalization with overlap
     ethr =  1.04E-09,  avg # of iterations =  2.5

     total cpu time spent up to now is        9.7 secs

     total energy              =     -62.05037297 Ry
     estimated scf accuracy    <       0.00000003 Ry

     iteration # 11     ecut=    60.00 Ry     beta= 0.80
     Davidson diagonalization with overlap
     ethr =  1.42E-10,  avg # of iterations =  2.2

     total cpu time spent up to now is        9.8 secs

     End of self-consistent calculation

          k = 0.0000 0.0000 0.0000 (  3621 PWs)   bands (ev):

   -38.7888 -38.6721  -8.1411  -1.4982   2.8275   3.5811   3.5811   5.1308
     5.1308   6.3696   8.9576   9.4132   9.8997  10.0895  10.0895

          k =-0.4170-0.2407 0.0749 (  3601 PWs)   bands (ev):

   -38.7707 -38.6840  -7.3086  -0.8735  -0.3909   1.9037   3.4826   4.0863
     6.1353   7.5075   8.8484   9.1896   9.4977  10.5498  11.0016

          k = 0.8339 0.4815-0.1497 (  3598 PWs)   bands (ev):

   -38.7460 -38.7081  -5.4055  -4.0023   1.1433   1.3607   1.8656   4.0111
     5.2595   6.6612   7.3713   9.2768  10.6556  11.7085  13.0446

          k =-0.4170 0.2407 0.1497 (  3612 PWs)   bands (ev):

   -38.7699 -38.6841  -7.3086  -0.8766  -0.3940   1.8999   3.4743   4.1946
     6.1300   7.5648   7.9605   9.5777   9.8965  10.4415  11.7037

          k = 0.8339 0.9629-0.0749 (  3597 PWs)   bands (ev):

   -38.7443 -38.7061  -5.7425  -2.4837  -1.6082   0.9731   3.9601   4.4133
     5.2653   8.0150   8.1534   8.3418   9.4456  10.2499  11.4671

          k = 0.4170 0.7222 0.0000 (  3581 PWs)   bands (ev):

   -38.7424 -38.7042  -5.7424  -2.4843  -1.6081   0.9997   3.9640   4.3855
     5.0652   8.0484   8.1464   8.4447  10.1910  10.7269  10.8922

          k = 0.8339-0.4815-0.2995 (  3596 PWs)   bands (ev):

   -38.7446 -38.7037  -5.4067  -4.0000   1.1376   1.3683   1.8367   3.9524
     5.2528   7.2618   7.5541   9.0989   9.7110  11.3949  11.6490

          k =-0.0000 0.0000 0.2246 (  3615 PWs)   bands (ev):

   -38.7850 -38.6691  -8.1412  -1.5206   3.0423   3.5786   3.5786   5.1328
     5.1328   6.3655   7.3694   9.8923  10.1540  10.1540  11.4189

          k = 1.2509 0.7222 0.0000 (  3605 PWs)   bands (ev):

   -38.7678 -38.6853  -7.3086  -0.8877  -0.4098   1.9025   3.6786   4.2079
     6.1292   7.5251   7.5885   9.3364   9.5241  10.5107  11.3832

          k = 0.8339 0.4815 0.0749 (  3586 PWs)   bands (ev):

   -38.7414 -38.7058  -5.4061  -4.0011   1.1404   1.3642   1.8517   3.9834
     5.2373   6.9719   7.4582   9.2636   9.8668  11.9278  12.2939

          k = 1.2509-0.7222-0.2246 (  3610 PWs)   bands (ev):

   -38.7681 -38.6829  -7.3087  -0.8909  -0.4123   1.8987   3.6414   4.3810
     6.1573   7.0658   7.5829   9.6133   9.6426  10.4723  11.8976

          k = 0.8339-0.9629-0.1497 (  3596 PWs)   bands (ev):

   -38.7432 -38.7068  -5.7425  -2.4830  -1.6084   0.9475   3.9580   4.4365
     5.5085   7.9951   8.1075   8.1802   9.1666   9.6762  12.4598

          k = 0.0000-0.0000-0.4492 (  3620 PWs)   bands (ev):

   -38.7797 -38.6732  -8.1413  -1.5421   3.3037   3.5761   3.5761   5.1347
     5.1347   6.3229   6.6218   9.8955  10.2280  10.2280  12.0486

     the Fermi energy is     8.2576 ev

!    total energy              =     -62.05037297 Ry
     estimated scf accuracy    <          5.2E-09 Ry
     smearing contrib. (-TS)   =       0.00110625 Ry
     internal energy E=F+TS    =     -62.05147922 Ry

     The total energy is F=E-TS. E is the sum of the following terms:
     one-electron contribution =     -13.24888754 Ry
     hartree contribution      =      14.02588857 Ry
     xc contribution           =     -20.23223515 Ry
     ewald contribution        =     -42.59624511 Ry

     convergence has been achieved in  11 iterations

     Forces acting on atoms (cartesian axes, Ry/au):

     atom    1 type  1   force =    -0.00000000   -0.00000000    0.54122955
     atom    2 type  1   force =    -0.00000000   -0.00000000   -0.54122955
     atom    3 type  1   force =     0.00000000   -0.00000000   -0.00951850
     atom    4 type  1   force =     0.00000000    0.00000000    0.00951850
     atom    5 type  2   force =     0.00000000   -0.00000000    0.02664268
     atom    6 type  2   force =     0.00000000   -0.00000000   -0.02664268
     The non-local contrib.  to forces
     atom    1 type  1   force =     0.00000000    0.00000000    0.45806554
     atom    2 type  1   force =    -0.00000000   -0.00000000   -0.45806554
     atom    3 type  1   force =     0.00000000    0.00000000    0.04495431
     atom    4 type  1   force =     0.00000000    0.00000000   -0.04495431
     atom    5 type  2   force =     0.00000000    0.00000000   -0.02465846
     atom    6 type  2   force =     0.00000000    0.00000000    0.02465846
     The ionic contribution  to forces
     atom    1 type  1   force =    -0.00000000   -0.00000000    4.44944170
     atom    2 type  1   force =    -0.00000000    0.00000000   -4.44944170
     atom    3 type  1   force =     0.00000000   -0.00000000   -1.69192338
     atom    4 type  1   force =     0.00000000    0.00000000    1.69192338
     atom    5 type  2   force =     0.00000000   -0.00000000   -1.02312559
     atom    6 type  2   force =    -0.00000000    0.00000000    1.02312559
     The local contribution  to forces
     atom    1 type  1   force =     0.00000000    0.00000000   -4.32940319
     atom    2 type  1   force =    -0.00000000   -0.00000000    4.32940319
     atom    3 type  1   force =    -0.00000000    0.00000000    1.63884849
     atom    4 type  1   force =     0.00000000   -0.00000000   -1.63884849
     atom    5 type  2   force =    -0.00000000    0.00000000    1.07440854
     atom    6 type  2   force =     0.00000000   -0.00000000   -1.07440854
     The core correction contribution to forces
     atom    1 type  1   force =     0.00000000    0.00000000   -0.03680531
     atom    2 type  1   force =     0.00000000   -0.00000000    0.03680531
     atom    3 type  1   force =     0.00000000    0.00000000   -0.00144190
     atom    4 type  1   force =     0.00000000   -0.00000000    0.00144190
     atom    5 type  2   force =     0.00000000    0.00000000    0.00000000
     atom    6 type  2   force =     0.00000000    0.00000000    0.00000000
     The Hubbard contrib.    to forces
     atom    1 type  1   force =     0.00000000    0.00000000    0.00000000
     atom    2 type  1   force =     0.00000000    0.00000000    0.00000000
     atom    3 type  1   force =     0.00000000    0.00000000    0.00000000
     atom    4 type  1   force =     0.00000000    0.00000000    0.00000000
     atom    5 type  2   force =     0.00000000    0.00000000    0.00000000
     atom    6 type  2   force =     0.00000000    0.00000000    0.00000000
     The SCF correction term to forces
     atom    1 type  1   force =     0.00000000    0.00000000   -0.00006919
     atom    2 type  1   force =    -0.00000000    0.00000000    0.00006919
     atom    3 type  1   force =    -0.00000000   -0.00000000    0.00004399
     atom    4 type  1   force =     0.00000000    0.00000000   -0.00004399
     atom    5 type  2   force =    -0.00000000   -0.00000000    0.00001819
     atom    6 type  2   force =     0.00000000    0.00000000   -0.00001819

     Total force =     0.766459     Total SCF correction =     0.000119


     Computing stress (Cartesian axis) and pressure

          total   stress  (Ry/bohr**3)                   (kbar)     P=      477.77
   0.00331064   0.00000000   0.00000000          487.01        0.00        0.00
   0.00000000   0.00331064   0.00000000            0.00      487.01        0.00
  -0.00000000   0.00000000   0.00312218           -0.00        0.00      459.29

     Energy error            =      2.2E-01 Ry
     Gradient error          =      5.4E-01 Ry/Bohr
     Cell gradient error     =      4.1E+01 kbar

     number of scf cycles    =   4
     number of bfgs steps    =   3

     enthalpy           old  =     -59.9705795830 Ry
     enthalpy           new  =     -60.1928971948 Ry

     CASE: enthalpy          _new < enthalpy          _old

     new trust radius        =       0.2207033980 bohr
ibrav =      5
 celldm(1) =     12.98522465
 celldm(4) =      0.85553959
Input lattice vectors:
     0.29981776    -0.17309986     1.06049445
     0.00000000     0.34619973     1.06049445
    -0.29981776    -0.17309986     1.06049445
New lattice vectors in INITIAL alat:
     0.29981776    -0.17309986     1.06049445
     0.00000000     0.34619973     1.06049445
    -0.29981776    -0.17309986     1.06049445
New lattice vectors in NEW alat (for information only):
     0.26875678    -0.15516680     0.95062772
     0.00000000     0.31033360     0.95062772
    -0.26875678    -0.15516680     0.95062772
Discrepancy in bohr =     0.000000    0.000000    0.000000
     new conv_thr            =       0.0000000100 Ry

     new unit-cell volume =    520.79686 a.u.^3 (    77.17413 Ang^3 )
     density =      2.71593 g/cm^3

CELL_PARAMETERS (alat= 11.63996142)
   0.299817759  -0.173099864   1.060494449
   0.000000000   0.346199728   1.060494449
  -0.299817759  -0.173099864   1.060494449

ATOMIC_POSITIONS (crystal)
Si            0.0487547278        0.0487547278        0.0487547278
Si            0.9512452722        0.9512452722        0.9512452722
Si            0.3099400895        0.3099400895        0.3099400895
Si            0.6900599105        0.6900599105        0.6900599105
Li            0.1931099734        0.1931099734        0.1931099734
Li            0.8068900266        0.8068900266        0.8068900266



     Writing config-only to output data dir ./output/SiLi.save/
     NEW-OLD atomic charge density approx. for the potential
     extrapolated charge   20.91529, renormalised to   22.00000

     total cpu time spent up to now is       10.4 secs

     Self-consistent Calculation

     iteration #  1     ecut=    60.00 Ry     beta= 0.80
     Davidson diagonalization with overlap
     ethr =  1.00E-06,  avg # of iterations = 10.3

     total cpu time spent up to now is       10.7 secs

     total energy              =     -61.95060898 Ry
     estimated scf accuracy    <       0.14397445 Ry

     iteration #  2     ecut=    60.00 Ry     beta= 0.80
     Davidson diagonalization with overlap
     ethr =  6.54E-04,  avg # of iterations =  4.8

     total cpu time spent up to now is       10.8 secs

     total energy              =     -61.88559534 Ry
     estimated scf accuracy    <       3.64120461 Ry

     iteration #  3     ecut=    60.00 Ry     beta= 0.80
     Davidson diagonalization with overlap
     ethr =  6.54E-04,  avg # of iterations =  3.8

     total cpu time spent up to now is       11.0 secs

     total energy              =     -62.11321423 Ry
     estimated scf accuracy    <       0.18722519 Ry

     iteration #  4     ecut=    60.00 Ry     beta= 0.80
     Davidson diagonalization with overlap
     ethr =  6.54E-04,  avg # of iterations =  1.1

     total cpu time spent up to now is       11.1 secs

     total energy              =     -62.10444984 Ry
     estimated scf accuracy    <       0.06988059 Ry

     iteration #  5     ecut=    60.00 Ry     beta= 0.80
     Davidson diagonalization with overlap
     ethr =  3.18E-04,  avg # of iterations =  2.0

     total cpu time spent up to now is       11.2 secs

     total energy              =     -62.11253523 Ry
     estimated scf accuracy    <       0.00376182 Ry

     iteration #  6     ecut=    60.00 Ry     beta= 0.80
     Davidson diagonalization with overlap
     ethr =  1.71E-05,  avg # of iterations =  4.7

     total cpu time spent up to now is       11.3 secs

     total energy              =     -62.11286796 Ry
     estimated scf accuracy    <       0.00071603 Ry

     iteration #  7     ecut=    60.00 Ry     beta= 0.80
     Davidson diagonalization with overlap
     ethr =  3.25E-06,  avg # of iterations =  2.3

     total cpu time spent up to now is       11.4 secs

     total energy              =     -62.11206375 Ry
     estimated scf accuracy    <       0.00434425 Ry

     iteration #  8     ecut=    60.00 Ry     beta= 0.80
     Davidson diagonalization with overlap
     ethr =  3.25E-06,  avg # of iterations =  2.2

     total cpu time spent up to now is       11.5 secs

     total energy              =     -62.11274147 Ry
     estimated scf accuracy    <       0.00807488 Ry

     iteration #  9     ecut=    60.00 Ry     beta= 0.80
     Davidson diagonalization with overlap
     ethr =  3.25E-06,  avg # of iterations =  1.9

     total cpu time spent up to now is       11.7 secs

     total energy              =     -62.11311359 Ry
     estimated scf accuracy    <       0.00020436 Ry

     iteration # 10     ecut=    60.00 Ry     beta= 0.80
     Davidson diagonalization with overlap
     ethr =  9.29E-07,  avg # of iterations =  1.1

     total cpu time spent up to now is       11.8 secs

     total energy              =     -62.11311660 Ry
     estimated scf accuracy    <       0.00002120 Ry

     iteration # 11     ecut=    60.00 Ry     beta= 0.80
     Davidson diagonalization with overlap
     ethr =  9.64E-08,  avg # of iterations =  2.8

     total cpu time spent up to now is       11.9 secs

     total energy              =     -62.11312151 Ry
     estimated scf accuracy    <       0.00001657 Ry

     iteration # 12     ecut=    60.00 Ry     beta= 0.80
     Davidson diagonalization with overlap
     ethr =  7.53E-08,  avg # of iterations =  1.0

     total cpu time spent up to now is       12.0 secs

     total energy              =     -62.11312069 Ry
     estimated scf accuracy    <       0.00000691 Ry

     iteration # 13     ecut=    60.00 Ry     beta= 0.80
     Davidson diagonalization with overlap
     ethr =  3.14E-08,  avg # of iterations =  1.0

     total cpu time spent up to now is       12.1 secs

     total energy              =     -62.11312127 Ry
     estimated scf accuracy    <       0.00000005 Ry

     iteration # 14     ecut=    60.00 Ry     beta= 0.80
     Davidson diagonalization with overlap
     ethr =  2.48E-10,  avg # of iterations =  3.2

     total cpu time spent up to now is       12.2 secs

     total energy              =     -62.11312128 Ry
     estimated scf accuracy    <       0.00000002 Ry

     iteration # 15     ecut=    60.00 Ry     beta= 0.80
     Davidson diagonalization with overlap
     ethr =  8.11E-11,  avg # of iterations =  1.5

     total cpu time spent up to now is       12.3 secs

     End of self-consistent calculation

          k = 0.0000 0.0000 0.0000 (  3621 PWs)   bands (ev):

   -38.0125 -37.8917  -7.6376  -1.0869   3.2594   4.1668   4.1668   5.5555
     5.5555   6.8997   9.9863  10.0764  10.3125  10.3970  10.3970

          k =-0.4169-0.2407 0.0786 (  3601 PWs)   bands (ev):

   -37.9951 -37.9048  -6.8009  -0.4286   0.0836   2.4258   3.9317   4.4922
     6.4872   7.9307   9.4513   9.8576   9.9247  11.2275  11.5733

          k = 0.8338 0.4814-0.1572 (  3598 PWs)   bands (ev):

   -37.9698 -37.9293  -4.8607  -3.5376   1.6587   1.7216   2.3236   4.4334
     5.5666   7.1415   7.7019   9.9798  11.1644  12.9022  13.7885

          k =-0.4169 0.2407 0.1572 (  3612 PWs)   bands (ev):

   -37.9951 -37.9049  -6.8011  -0.4335   0.0799   2.4185   3.9293   4.6127
     6.4604   8.0283   8.5813   9.9544  10.5541  11.0867  12.8144

          k = 0.8338 0.9628-0.0786 (  3597 PWs)   bands (ev):

   -37.9686 -37.9287  -5.2181  -1.9758  -1.1345   1.3493   4.3331   4.8479
     5.5855   8.4937   8.6655   8.7905  10.1158  10.8397  12.3987

          k = 0.4169 0.7221 0.0000 (  3581 PWs)   bands (ev):

   -37.9675 -37.9271  -5.2179  -1.9770  -1.1341   1.3874   4.3410   4.8101
     5.3554   8.5258   8.6573   8.8410  10.8067  11.5449  11.7998

          k = 0.8338-0.4814-0.3143 (  3596 PWs)   bands (ev):

   -37.9690 -37.9271  -4.8629  -3.5335   1.6477   1.7320   2.2782   4.3609
     5.5880   7.7668   7.9777   9.6789  10.6737  11.6722  12.3111

          k =-0.0000 0.0000 0.2357 (  3615 PWs)   bands (ev):

   -38.0112 -37.8895  -7.6378  -1.1184   3.5210   4.1617   4.1617   5.5589
     5.5589   6.9090   8.0730  10.3118  10.4921  10.4921  12.2311

          k = 1.2508 0.7221 0.0000 (  3605 PWs)   bands (ev):

   -37.9943 -37.9051  -6.8011  -0.4531   0.0611   2.4236   4.1911   4.6068
     6.4953   7.9575   8.3318   9.7860   9.8961  11.0851  11.7594

          k = 0.8338 0.4814 0.0786 (  3586 PWs)   bands (ev):

   -37.9670 -37.9282  -4.8618  -3.5356   1.6532   1.7262   2.3019   4.4008
     5.5519   7.4717   7.8304  10.0948  10.3660  12.3193  13.3899

          k = 1.2508-0.7221-0.2357 (  3610 PWs)   bands (ev):

   -37.9946 -37.9038  -6.8012  -0.4583   0.0583   2.4162   4.1371   4.8224
     6.4987   7.7092   8.0561  10.0115  10.1720  11.0499  12.3775

          k = 0.8338-0.9628-0.1572 (  3596 PWs)   bands (ev):

   -37.9683 -37.9288  -5.2182  -1.9746  -1.1350   1.3130   4.3291   4.8787
     5.8567   8.5626   8.5992   8.6967   9.6728  10.2210  13.3266

          k = 0.0000-0.0000-0.4715 (  3620 PWs)   bands (ev):

   -38.0091 -37.8914  -7.6380  -1.1486   3.8458   4.1566   4.1566   5.5622
     5.5622   6.9491   7.1426  10.3176  10.6083  10.6083  12.3650

     the Fermi energy is     8.7492 ev

!    total energy              =     -62.11312128 Ry
     estimated scf accuracy    <          2.2E-10 Ry
     smearing contrib. (-TS)   =       0.00053982 Ry
     internal energy E=F+TS    =     -62.11366109 Ry

     The total energy is F=E-TS. E is the sum of the following terms:
     one-electron contribution =      -9.30084843 Ry
     hartree contribution      =      12.49858331 Ry
     xc contribution           =     -20.27388769 Ry
     ewald contribution        =     -45.03750828 Ry

     convergence has been achieved in  15 iterations

     Forces acting on atoms (cartesian axes, Ry/au):

     atom    1 type  1   force =    -0.00000000   -0.00000000    0.43706660
     atom    2 type  1   force =    -0.00000000   -0.00000000   -0.43706660
     atom    3 type  1   force =    -0.00000000   -0.00000000    0.00311038
     atom    4 type  1   force =     0.00000000    0.00000000   -0.00311038
     atom    5 type  2   force =    -0.00000000    0.00000000    0.00856845
     atom    6 type  2   force =     0.00000000   -0.00000000   -0.00856845
     The non-local contrib.  to forces
     atom    1 type  1   force =    -0.00000000   -0.00000000    0.36195944
     atom    2 type  1   force =     0.00000000   -0.00000000   -0.36195944
     atom    3 type  1   force =    -0.00000000   -0.00000000    0.06392784
     atom    4 type  1   force =     0.00000000    0.00000000   -0.06392784
     atom    5 type  2   force =    -0.00000000   -0.00000000   -0.02500675
     atom    6 type  2   force =    -0.00000000    0.00000000    0.02500675
     The ionic contribution  to forces
     atom    1 type  1   force =    -0.00000000   -0.00000000    3.99812449
     atom    2 type  1   force =    -0.00000000    0.00000000   -3.99812449
     atom    3 type  1   force =     0.00000000   -0.00000000   -1.33709864
     atom    4 type  1   force =    -0.00000000    0.00000000    1.33709864
     atom    5 type  2   force =     0.00000000   -0.00000000   -1.06443169
     atom    6 type  2   force =    -0.00000000    0.00000000    1.06443169
     The local contribution  to forces
     atom    1 type  1   force =     0.00000000    0.00000000   -3.89239169
     atom    2 type  1   force =    -0.00000000   -0.00000000    3.89239169
     atom    3 type  1   force =    -0.00000000    0.00000000    1.27907906
     atom    4 type  1   force =     0.00000000   -0.00000000   -1.27907906
     atom    5 type  2   force =    -0.00000000    0.00000000    1.09800003
     atom    6 type  2   force =     0.00000000   -0.00000000   -1.09800003
     The core correction contribution to forces
     atom    1 type  1   force =     0.00000000    0.00000000   -0.03061523
     atom    2 type  1   force =     0.00000000   -0.00000000    0.03061523
     atom    3 type  1   force =     0.00000000    0.00000000   -0.00280435
     atom    4 type  1   force =     0.00000000   -0.00000000    0.00280435
     atom    5 type  2   force =     0.00000000    0.00000000    0.00000000
     atom    6 type  2   force =     0.00000000    0.00000000    0.00000000
     The Hubbard contrib.    to forces
     atom    1 type  1   force =     0.00000000    0.00000000    0.00000000
     atom    2 type  1   force =     0.00000000    0.00000000    0.00000000
     atom    3 type  1   force =     0.00000000    0.00000000    0.00000000
     atom    4 type  1   force =     0.00000000    0.00000000    0.00000000
     atom    5 type  2   force =     0.00000000    0.00000000    0.00000000
     atom    6 type  2   force =     0.00000000    0.00000000    0.00000000
     The SCF correction term to forces
     atom    1 type  1   force =     0.00000000   -0.00000000   -0.00001041
     atom    2 type  1   force =    -0.00000000    0.00000000    0.00001041
     atom    3 type  1   force =    -0.00000000   -0.00000000    0.00000647
     atom    4 type  1   force =     0.00000000    0.00000000   -0.00000647
     atom    5 type  2   force =    -0.00000000   -0.00000000    0.00000685
     atom    6 type  2   force =     0.00000000    0.00000000   -0.00000685

     Total force =     0.618240     Total SCF correction =     0.000020


     Computing stress (Cartesian axis) and pressure

          total   stress  (Ry/bohr**3)                   (kbar)     P=      498.35
   0.00345630   0.00000000  -0.00000000          508.44        0.00       -0.00
   0.00000000   0.00345630   0.00000000            0.00      508.44        0.00
  -0.00000000   0.00000000   0.00325057           -0.00        0.00      478.18

     Energy error            =      1.5E-01 Ry
     Gradient error          =      4.4E-01 Ry/Bohr
     Cell gradient error     =      2.2E+01 kbar

     number of scf cycles    =   5
     number of bfgs steps    =   4

     enthalpy           old  =     -60.1928971948 Ry
     enthalpy           new  =     -60.3429687403 Ry

     CASE: enthalpy          _new < enthalpy          _old

     new trust radius        =       0.3391912230 bohr
ibrav =      5
 celldm(1) =     12.12620050
 celldm(4) =      0.83194861
Input lattice vectors:
     0.30198075    -0.17434867     0.98168309
    -0.00000000     0.34869734     0.98168309
    -0.30198075    -0.17434867     0.98168309
New lattice vectors in INITIAL alat:
     0.30198075    -0.17434867     0.98168309
     0.00000000     0.34869734     0.98168309
    -0.30198075    -0.17434867     0.98168309
New lattice vectors in NEW alat (for information only):
     0.28987186    -0.16735760     0.94231934
     0.00000000     0.33471519     0.94231934
    -0.28987186    -0.16735760     0.94231934
Discrepancy in bohr =     0.000000    0.000000    0.000000
     new conv_thr            =       0.0000000087 Ry

     new unit-cell volume =    489.07457 a.u.^3 (    72.47337 Ang^3 )
     density =      2.89210 g/cm^3

CELL_PARAMETERS (alat= 11.63996142)
   0.301980752  -0.174348669   0.981683087
   0.000000000   0.348697337   0.981683087
  -0.301980752  -0.174348669   0.981683087

ATOMIC_POSITIONS (crystal)
Si            0.0546498127        0.0546498127        0.0546498127
Si            0.9453501873        0.9453501873        0.9453501873
Si            0.3110162710        0.3110162710        0.3110162710
Si            0.6889837290        0.6889837290        0.6889837290
Li            0.1931264479        0.1931264479        0.1931264479
Li            0.8068735521        0.8068735521        0.8068735521



     Writing config-only to output data dir ./output/SiLi.save/
     NEW-OLD atomic charge density approx. for the potential
     extrapolated charge   20.57379, renormalised to   22.00000

     total cpu time spent up to now is       12.8 secs

     Self-consistent Calculation

     iteration #  1     ecut=    60.00 Ry     beta= 0.80
     Davidson diagonalization with overlap
     ethr =  1.00E-06,  avg # of iterations = 12.9

     total cpu time spent up to now is       13.1 secs

     total energy              =     -62.01243529 Ry
     estimated scf accuracy    <       0.13211736 Ry

     iteration #  2     ecut=    60.00 Ry     beta= 0.80
     Davidson diagonalization with overlap
     ethr =  6.01E-04,  avg # of iterations =  4.5

     total cpu time spent up to now is       13.3 secs

     total energy              =     -61.98077908 Ry
     estimated scf accuracy    <       2.56406361 Ry

     iteration #  3     ecut=    60.00 Ry     beta= 0.80
     Davidson diagonalization with overlap
     ethr =  6.01E-04,  avg # of iterations =  2.9

     total cpu time spent up to now is       13.4 secs

     total energy              =     -62.15463919 Ry
     estimated scf accuracy    <       0.16883557 Ry

     iteration #  4     ecut=    60.00 Ry     beta= 0.80
     Davidson diagonalization with overlap
     ethr =  6.01E-04,  avg # of iterations =  1.4

     total cpu time spent up to now is       13.5 secs

     total energy              =     -62.16163081 Ry
     estimated scf accuracy    <       0.01382771 Ry

     iteration #  5     ecut=    60.00 Ry     beta= 0.80
     Davidson diagonalization with overlap
     ethr =  6.29E-05,  avg # of iterations =  4.7

     total cpu time spent up to now is       13.6 secs

     total energy              =     -62.16295143 Ry
     estimated scf accuracy    <       0.00156042 Ry

     iteration #  6     ecut=    60.00 Ry     beta= 0.80
     Davidson diagonalization with overlap
     ethr =  7.09E-06,  avg # of iterations =  3.5

     total cpu time spent up to now is       13.8 secs

     total energy              =     -62.16305608 Ry
     estimated scf accuracy    <       0.00033461 Ry

     iteration #  7     ecut=    60.00 Ry     beta= 0.80
     Davidson diagonalization with overlap
     ethr =  1.52E-06,  avg # of iterations =  2.8

     total cpu time spent up to now is       13.9 secs

     total energy              =     -62.16311664 Ry
     estimated scf accuracy    <       0.00006810 Ry

     iteration #  8     ecut=    60.00 Ry     beta= 0.80
     Davidson diagonalization with overlap
     ethr =  3.10E-07,  avg # of iterations =  1.2

     total cpu time spent up to now is       14.0 secs

     total energy              =     -62.16312261 Ry
     estimated scf accuracy    <       0.00000060 Ry

     iteration #  9     ecut=    60.00 Ry     beta= 0.80
     Davidson diagonalization with overlap
     ethr =  2.75E-09,  avg # of iterations =  4.2

     total cpu time spent up to now is       14.1 secs

     total energy              =     -62.16312338 Ry
     estimated scf accuracy    <       0.00000395 Ry

     iteration # 10     ecut=    60.00 Ry     beta= 0.80
     Davidson diagonalization with overlap
     ethr =  2.75E-09,  avg # of iterations =  1.5

     total cpu time spent up to now is       14.2 secs

     total energy              =     -62.16312352 Ry
     estimated scf accuracy    <       0.00000033 Ry

     iteration # 11     ecut=    60.00 Ry     beta= 0.80
     Davidson diagonalization with overlap
     ethr =  1.51E-09,  avg # of iterations =  1.0

     total cpu time spent up to now is       14.3 secs

     total energy              =     -62.16312350 Ry
     estimated scf accuracy    <       0.00000012 Ry

     iteration # 12     ecut=    60.00 Ry     beta= 0.80
     Davidson diagonalization with overlap
     ethr =  5.32E-10,  avg # of iterations =  1.6

     total cpu time spent up to now is       14.4 secs

     End of self-consistent calculation

          k = 0.0000 0.0000 0.0000 (  3621 PWs)   bands (ev):

   -37.0267 -36.8938  -6.8069  -0.3520   3.9463   4.9669   4.9669   6.1270
     6.1270   7.4864  10.7558  10.7595  10.7595  11.0170  11.4351

          k =-0.4139-0.2390 0.0849 (  3601 PWs)   bands (ev):

   -37.0083 -36.9094  -5.9783   0.2950   0.8083   3.1627   4.6176   5.0419
     7.0062   8.4668  10.0722  10.2986  11.1163  12.1636  12.1846

          k = 0.8279 0.4780-0.1698 (  3598 PWs)   bands (ev):

   -36.9805 -36.9360  -4.0272  -2.8029   2.2882   2.3978   3.0590   5.0270
     6.0378   7.9098   8.1222  10.7173  12.2193  14.6124  14.7710

          k =-0.4139 0.2390 0.1698 (  3612 PWs)   bands (ev):

   -37.0087 -36.9095  -5.9785   0.2863   0.8015   3.1428   4.6362   5.1820
     6.9167   8.6793   9.3899  10.4273  11.4157  12.0196  13.2121

          k = 0.8279 0.9559-0.0849 (  3597 PWs)   bands (ev):

   -36.9802 -36.9362  -4.4017  -1.2152  -0.4179   1.9600   4.9017   5.5579
     6.0713   9.0795   9.2809   9.4009  11.1787  11.7714  13.8375

          k = 0.4139 0.7170 0.0000 (  3581 PWs)   bands (ev):

   -36.9795 -36.9354  -4.4015  -1.2180  -0.4162   2.0294   4.9219   5.4834
     5.7728   9.1077   9.3007   9.4149  11.7491  12.6328  13.3271

          k = 0.8279-0.4780-0.3396 (  3596 PWs)   bands (ev):

   -36.9807 -36.9353  -4.0326  -2.7929   2.3001   2.3685   2.9718   4.9234
     6.1268   8.5798   8.6524  10.5155  11.9089  12.0437  13.3908

          k =-0.0000-0.0000 0.2547 (  3615 PWs)   bands (ev):

   -37.0263 -36.8934  -6.8074  -0.4094   4.3190   4.9521   4.9521   6.1348
     6.1348   7.5160   9.0486  10.8052  10.9302  10.9302  13.2034

          k = 1.2418 0.7170 0.0000 (  3605 PWs)   bands (ev):

   -37.0084 -36.9095  -5.9786   0.2468   0.7702   3.1566   4.9640   5.2089
     7.0552   8.5166   9.3189  10.3631  10.5583  11.7312  12.1677

          k = 0.8279 0.4780 0.0849 (  3586 PWs)   bands (ev):

   -36.9795 -36.9357  -4.0299  -2.7979   2.2923   2.3831   3.0183   4.9870
     6.0326   8.2910   8.3566  10.9830  11.3332  12.8008  15.1333

          k = 1.2418-0.7170-0.2547 (  3610 PWs)   bands (ev):

   -37.0087 -36.9093  -5.9788   0.2370   0.7666   3.1368   4.8724   5.5236
     6.9893   8.5705   8.7309  10.5491  11.0095  11.7221  12.7324

          k = 0.8279-0.9559-0.1698 (  3596 PWs)   bands (ev):

[...]
     atom    5 type  2   force =    -0.00000000    0.00000000   -0.00000262
     atom    6 type  2   force =    -0.00000000   -0.00000000    0.00000262

     Total force =     0.001280     Total SCF correction =     0.000009


     Computing stress (Cartesian axis) and pressure

          total   stress  (Ry/bohr**3)                   (kbar)     P=      499.92
   0.00340057  -0.00000000   0.00000000          500.24       -0.00        0.00
   0.00000000   0.00340057   0.00000000            0.00      500.24        0.00
   0.00000000   0.00000000   0.00339395            0.00        0.00      499.27

     Energy error            =      5.5E-06 Ry
     Gradient error          =      6.8E-04 Ry/Bohr
     Cell gradient error     =      7.3E-01 kbar
ibrav =      5
 celldm(1) =     12.82320722
 celldm(4) =      0.86908153
Input lattice vectors:
     0.28185814    -0.16273088     1.05248071
     0.00000000     0.32546175     1.05248071
    -0.28185814    -0.16273088     1.05248071
New lattice vectors in INITIAL alat:
     0.28185814    -0.16273088     1.05248071
     0.00000000     0.32546175     1.05248071
    -0.28185814    -0.16273088     1.05248071
New lattice vectors in NEW alat (for information only):
     0.25585003    -0.14771508     0.95536434
     0.00000000     0.29543017     0.95536434
    -0.25585003    -0.14771508     0.95536434
Discrepancy in bohr =     0.000000    0.000000    0.000000

     bfgs converged in  35 scf cycles and  33 bfgs steps
     (criteria: energy <  1.0E-03 Ry, force <  5.0E-03 Ry/Bohr, cell <  2.0E+00 kbar)

     End of BFGS Geometry Optimization

     Final enthalpy           =     -60.7540839995 Ry

     File ./output/SiLi.bfgs deleted, as requested
Begin final coordinates
     new unit-cell volume =    456.79419 a.u.^3 (    67.68991 Ang^3 )
     density =      3.09647 g/cm^3

CELL_PARAMETERS (alat= 11.63996142)
   0.281858145  -0.162730876   1.052480711
   0.000000000   0.325461751   1.052480711
  -0.281858145  -0.162730876   1.052480711

ATOMIC_POSITIONS (crystal)
Si            0.0797833950        0.0797833950        0.0797833950
Si            0.9202166050        0.9202166050        0.9202166050
Si            0.3067821230        0.3067821230        0.3067821230
Si            0.6932178770        0.6932178770        0.6932178770
Li            0.1941745033        0.1941745033        0.1941745033
Li            0.8058254967        0.8058254967        0.8058254967
End final coordinates



     Writing config-only to output data dir ./output/SiLi.save/

     Final scf calculation at the relaxed structure.
     The G-vectors are recalculated for the final unit cell
     Results may differ from those at the preceding step.

     Parallelization info
     --------------------
     sticks:   dense  smooth     PW     G-vecs:    dense   smooth      PW
     Min          97      97     29                 1787     1787     301
     Max          98      98     30                 1788     1788     303
     Sum        1553    1553    473                28597    28597    4833

     Using Slab Decomposition



     bravais-lattice index     =            5
     lattice parameter (alat)  =      11.6400  a.u.
     unit-cell volume          =     456.7942 (a.u.)^3
     number of atoms/cell      =            6
     number of atomic types    =            2
     number of electrons       =        22.00
     number of Kohn-Sham states=           15
     kinetic-energy cutoff     =      60.0000  Ry
     charge density cutoff     =     240.0000  Ry
     scf convergence threshold =      1.0E-10
     mixing beta               =       0.8000
     number of iterations used =            8  plain     mixing
     press convergence thresh. =      2.0E+00
     Exchange-correlation= PBE
                           (   1   4   3   4   0   0   0)

     celldm(1)=  11.639961  celldm(2)=   0.000000  celldm(3)=   0.000000
     celldm(4)=   0.821166  celldm(5)=   0.000000  celldm(6)=   0.000000

     crystal axes: (cart. coord. in units of alat)
               a(1) = (   0.281858  -0.162731   1.052481 )  
               a(2) = (   0.000000   0.325462   1.052481 )  
               a(3) = (  -0.281858  -0.162731   1.052481 )  

     reciprocal axes: (cart. coord. in units 2 pi/alat)
               b(1) = (  1.773942 -1.024186  0.316712 )  
               b(2) = (  0.000000  2.048372  0.316712 )  
               b(3) = ( -1.773942 -1.024186  0.316712 )  


     PseudoPot. # 1 for Si read from file:
     ../pseudo/Si_ONCV_PBE_sr.upf
     MD5 check sum: e543d271109d17c80368dfa7c482276d
     Pseudo is Norm-conserving + core correction, Zval =  4.0
     Generated using ONCVPSP code by D. R. Hamann
     Using radial grid of 1510 points,  6 beta functions with: 
                l(1) =   0
                l(2) =   0
                l(3) =   1
                l(4) =   1
                l(5) =   2
                l(6) =   2

     PseudoPot. # 2 for Li read from file:
     ../pseudo/Li_ONCV_PBE_sr.upf
     MD5 check sum: 50ff420e78310ffa21704f3361e624a4
     Pseudo is Norm-conserving, Zval =  3.0
     Generated using ONCVPSP code by D. R. Hamann
     Using radial grid of 1944 points,  4 beta functions with: 
                l(1) =   0
                l(2) =   0
                l(3) =   1
                l(4) =   1

     atomic species   valence    mass     pseudopotential
        Si             4.00    28.08550     Si( 1.00)
        Li             3.00     6.94100     Li( 1.00)

     12 Sym. Ops., with inversion, found



   Cartesian axes

     site n.     atom                  positions (alat units)
         1           Si  tau(   1) = (  -0.0000000  -0.0000000   0.2519115  )
         2           Si  tau(   2) = (  -0.0000000  -0.0000000   2.9055307  )
         3           Si  tau(   3) = (  -0.0000000  -0.0000000   0.9686468  )
         4           Si  tau(   4) = (   0.0000000  -0.0000000   2.1887953  )
         5           Li  tau(   5) = (   0.0000000  -0.0000000   0.6130948  )
         6           Li  tau(   6) = (   0.0000000  -0.0000000   2.5443474  )

     number of k points=    13  Marzari-Vanderbilt smearing, width (Ry)=  0.0100
                       cart. coord. in units 2pi/alat
        k(    1) = (   0.0000000   0.0000000   0.0000000), wk =   0.0312500
        k(    2) = (  -0.4434855  -0.2560465   0.0791780), wk =   0.1875000
        k(    3) = (   0.8869710   0.5120929  -0.1583560), wk =   0.0937500
        k(    4) = (  -0.4434855   0.2560465   0.1583560), wk =   0.1875000
        k(    5) = (   0.8869710   1.0241859  -0.0791780), wk =   0.3750000
        k(    6) = (   0.4434855   0.7681394   0.0000000), wk =   0.1875000
        k(    7) = (   0.8869710  -0.5120929  -0.3167121), wk =   0.0937500
        k(    8) = (  -0.0000000  -0.0000000   0.2375340), wk =   0.0625000
        k(    9) = (   1.3304565   0.7681394   0.0000000), wk =   0.1875000
        k(   10) = (   0.8869710   0.5120929   0.0791780), wk =   0.1875000
        k(   11) = (   1.3304565  -0.7681394  -0.2375340), wk =   0.1875000
        k(   12) = (   0.8869710  -1.0241859  -0.1583560), wk =   0.1875000
        k(   13) = (   0.0000000   0.0000000  -0.4750681), wk =   0.0312500

     Dense  grid:    28597 G-vectors     FFT dimensions: (  64,  64,  64)

     Estimated max dynamical RAM per process >      12.88 MB

     Estimated total dynamical RAM >     405.18 MB

     Initial potential from superposition of free atoms

     starting charge      21.9884, renormalised to      22.0000
     Starting wfcs are   20 randomized atomic wfcs

     total cpu time spent up to now is       65.3 secs

     Self-consistent Calculation

     iteration #  1     ecut=    60.00 Ry     beta= 0.80
     Davidson diagonalization with overlap
     c_bands:  2 eigenvalues not converged
     c_bands:  1 eigenvalues not converged
     c_bands:  2 eigenvalues not converged
     ethr =  1.00E-06,  avg # of iterations = 19.2

     total cpu time spent up to now is       65.7 secs

     total energy              =     -62.25459901 Ry
     estimated scf accuracy    <       0.13686169 Ry

     iteration #  2     ecut=    60.00 Ry     beta= 0.80
     Davidson diagonalization with overlap
     ethr =  6.22E-04,  avg # of iterations =  3.1

     total cpu time spent up to now is       65.8 secs

     total energy              =     -62.21480901 Ry
     estimated scf accuracy    <       0.50440251 Ry

     iteration #  3     ecut=    60.00 Ry     beta= 0.80
     Davidson diagonalization with overlap
     ethr =  6.22E-04,  avg # of iterations =  2.5

     total cpu time spent up to now is       66.0 secs

     total energy              =     -62.30858647 Ry
     estimated scf accuracy    <       0.00705882 Ry

     iteration #  4     ecut=    60.00 Ry     beta= 0.80
     Davidson diagonalization with overlap
     ethr =  3.21E-05,  avg # of iterations =  2.2

     total cpu time spent up to now is       66.1 secs

     total energy              =     -62.31016656 Ry
     estimated scf accuracy    <       0.00037710 Ry

     iteration #  5     ecut=    60.00 Ry     beta= 0.80
     Davidson diagonalization with overlap
     ethr =  1.71E-06,  avg # of iterations =  4.8

     total cpu time spent up to now is       66.2 secs

     total energy              =     -62.31026151 Ry
     estimated scf accuracy    <       0.00003736 Ry

     iteration #  6     ecut=    60.00 Ry     beta= 0.80
     Davidson diagonalization with overlap
     ethr =  1.70E-07,  avg # of iterations =  2.7

     total cpu time spent up to now is       66.3 secs

     total energy              =     -62.31027001 Ry
     estimated scf accuracy    <       0.00000112 Ry

     iteration #  7     ecut=    60.00 Ry     beta= 0.80
     Davidson diagonalization with overlap
     ethr =  5.10E-09,  avg # of iterations =  3.5

     total cpu time spent up to now is       66.4 secs

     total energy              =     -62.31027039 Ry
     estimated scf accuracy    <       0.00000012 Ry

     iteration #  8     ecut=    60.00 Ry     beta= 0.80
     Davidson diagonalization with overlap
     ethr =  5.51E-10,  avg # of iterations =  2.3

     total cpu time spent up to now is       66.5 secs

     total energy              =     -62.31027042 Ry
     estimated scf accuracy    <          8.0E-09 Ry

     iteration #  9     ecut=    60.00 Ry     beta= 0.80
     Davidson diagonalization with overlap
     ethr =  3.65E-11,  avg # of iterations =  2.8

     total cpu time spent up to now is       66.7 secs

     End of self-consistent calculation

          k = 0.0000 0.0000 0.0000 (  3547 PWs)   bands (ev):

   -35.6103 -35.4155  -5.1139  -1.0731   3.0184   8.6318   8.6318   8.8388
     8.8388   9.1397   9.8066  11.5151  11.5151  12.7313  13.5651

          k =-0.4435-0.2560 0.0792 (  3580 PWs)   bands (ev):

   -35.5843 -35.4394  -4.1389  -0.1949   3.2793   4.0019   6.2324   6.5917
     8.5807   9.2660   9.7898   9.8807  12.5231  13.0163  13.6862

          k = 0.8870 0.5121-0.1584 (  3600 PWs)   bands (ev):

   -35.5428 -35.4779  -1.3539  -1.1730   1.9606   3.1839   5.3561   5.4778
     7.0880   8.1728   8.4751  10.0651  11.5013  13.3043  13.8279

          k =-0.4435 0.2560 0.1584 (  3588 PWs)   bands (ev):

   -35.5847 -35.4393  -4.1391  -0.2086   3.2307   4.2016   6.1798   6.6003
     8.3158   8.7913   9.6277  10.8588  12.3979  13.8107  14.0404

          k = 0.8870 1.0242-0.0792 (  3588 PWs)   bands (ev):

   -35.5424 -35.4779  -2.2129   1.1985   1.4512   1.9847   4.9689   5.4903
     5.8833   8.6917   9.4906  10.5580  12.5697  13.1738  14.1020

          k = 0.4435 0.7681 0.0000 (  3588 PWs)   bands (ev):

   -35.5426 -35.4777  -2.2138   1.2029   1.4438   2.0536   5.0062   5.2934
     5.6599   8.8346   9.9029  11.0389  12.5193  13.6707  13.6736

          k = 0.8870-0.5121-0.3167 (  3568 PWs)   bands (ev):

   -35.5419 -35.4776  -1.3692  -1.1581   2.0020   3.0175   5.2809   5.6557
     7.8855   7.8925   9.0021   9.0613  11.7077  12.1443  12.9122

          k =-0.0000-0.0000 0.2375 (  3552 PWs)   bands (ev):

   -35.6110 -35.4149  -5.1141  -1.1198   3.3736   7.3523   8.6414   8.6414
     8.7878   8.7878  11.7129  11.7129  11.8238  12.7592  13.5726

          k = 1.3305 0.7681 0.0000 (  3578 PWs)   bands (ev):

   -35.5844 -35.4391  -4.1382  -0.2618   3.3711   4.3996   6.2187   6.3702
     8.0206   9.0926   9.3337  10.2614  12.6910  13.1560  14.3604

          k = 0.8870 0.5121 0.0792 (  3593 PWs)   bands (ev):

   -35.5427 -35.4778  -1.3616  -1.1656   1.9800   3.1019   5.3174   5.5485
     7.4005   8.1243   8.7327   9.4953  11.6133  12.5212  14.0030

          k = 1.3305-0.7681-0.2375 (  3584 PWs)   bands (ev):

   -35.5845 -35.4393  -4.1384  -0.2744   3.3260   4.6664   6.1672   6.3824
     7.4582   8.8869   9.7156  10.7515  12.3988  13.2040  14.2488

          k = 0.8870-1.0242-0.1584 (  3598 PWs)   bands (ev):

   -35.5426 -35.4781  -2.2121   1.1933   1.4583   1.9231   4.9438   5.5914
     6.2972   8.3138   9.5185   9.7635  12.7919  13.0901  14.6631

          k = 0.0000 0.0000-0.4751 (  3546 PWs)   bands (ev):

   -35.6103 -35.4153  -5.1142  -1.1639   3.8719   6.2892   8.6851   8.6851
     8.7040   8.7040  11.9684  11.9684  12.7819  13.2740  13.5012

     the Fermi energy is     9.7923 ev

!    total energy              =     -62.31027043 Ry
     estimated scf accuracy    <          4.3E-11 Ry
     smearing contrib. (-TS)   =      -0.00021537 Ry
     internal energy E=F+TS    =     -62.31005506 Ry

     The total energy is F=E-TS. E is the sum of the following terms:
     one-electron contribution =       3.15254536 Ry
     hartree contribution      =       7.65700371 Ry
     xc contribution           =     -20.20156413 Ry
     ewald contribution        =     -52.91804000 Ry

     convergence has been achieved in   9 iterations

     Forces acting on atoms (cartesian axes, Ry/au):

     atom    1 type  1   force =     0.00000000    0.00000000    0.00001935
     atom    2 type  1   force =    -0.00000000   -0.00000000   -0.00001935
     atom    3 type  1   force =    -0.00000000   -0.00000000   -0.00057550
     atom    4 type  1   force =     0.00000000   -0.00000000    0.00057550
     atom    5 type  2   force =     0.00000000    0.00000000    0.00067934
     atom    6 type  2   force =    -0.00000000    0.00000000   -0.00067934
     The non-local contrib.  to forces
     atom    1 type  1   force =    -0.00000000   -0.00000000   -0.07753997
     atom    2 type  1   force =     0.00000000   -0.00000000    0.07753997
     atom    3 type  1   force =     0.00000000   -0.00000000    0.05296573
     atom    4 type  1   force =    -0.00000000   -0.00000000   -0.05296573
     atom    5 type  2   force =     0.00000000   -0.00000000    0.01632390
     atom    6 type  2   force =    -0.00000000   -0.00000000   -0.01632390
     The ionic contribution  to forces
     atom    1 type  1   force =     0.00000000   -0.00000000    1.06722061
     atom    2 type  1   force =     0.00000000    0.00000000   -1.06722061
     atom    3 type  1   force =    -0.00000000   -0.00000000   -0.19474457
     atom    4 type  1   force =    -0.00000000    0.00000000    0.19474457
     atom    5 type  2   force =    -0.00000000   -0.00000000   -0.54428065
     atom    6 type  2   force =    -0.00000000    0.00000000    0.54428065
     The local contribution  to forces
     atom    1 type  1   force =    -0.00000000    0.00000000   -0.99129072
     atom    2 type  1   force =    -0.00000000   -0.00000000    0.99129072
     atom    3 type  1   force =     0.00000000    0.00000000    0.14518749
     atom    4 type  1   force =     0.00000000   -0.00000000   -0.14518749
     atom    5 type  2   force =    -0.00000000    0.00000000    0.52863708
     atom    6 type  2   force =    -0.00000000   -0.00000000   -0.52863708
     The core correction contribution to forces
     atom    1 type  1   force =     0.00000000    0.00000000    0.00163459
     atom    2 type  1   force =    -0.00000000   -0.00000000   -0.00163459
     atom    3 type  1   force =     0.00000000    0.00000000   -0.00398644
     atom    4 type  1   force =     0.00000000   -0.00000000    0.00398644
     atom    5 type  2   force =     0.00000000    0.00000000    0.00000000
     atom    6 type  2   force =     0.00000000    0.00000000    0.00000000
     The Hubbard contrib.    to forces
     atom    1 type  1   force =     0.00000000    0.00000000    0.00000000
     atom    2 type  1   force =     0.00000000    0.00000000    0.00000000
     atom    3 type  1   force =     0.00000000    0.00000000    0.00000000
     atom    4 type  1   force =     0.00000000    0.00000000    0.00000000
     atom    5 type  2   force =     0.00000000    0.00000000    0.00000000
     atom    6 type  2   force =     0.00000000    0.00000000    0.00000000
     The SCF correction term to forces
     atom    1 type  1   force =    -0.00000000   -0.00000000   -0.00000516
     atom    2 type  1   force =     0.00000000    0.00000000    0.00000516
     atom    3 type  1   force =    -0.00000000    0.00000000    0.00000229
     atom    4 type  1   force =     0.00000000   -0.00000000   -0.00000229
     atom    5 type  2   force =    -0.00000000    0.00000000   -0.00000099
     atom    6 type  2   force =     0.00000000   -0.00000000    0.00000099

     Total force =     0.001259     Total SCF correction =     0.000008


     Computing stress (Cartesian axis) and pressure

          total   stress  (Ry/bohr**3)                   (kbar)     P=      506.39
   0.00338808  -0.00000000   0.00000000          498.40       -0.00        0.00
   0.00000000   0.00338808   0.00000000            0.00      498.40        0.00
   0.00000000   0.00000000   0.00355089            0.00        0.00      522.35


     Writing all to output data dir ./output/SiLi.save/

     init_run     :      0.90s CPU      1.02s WALL (       2 calls)
     electrons    :     44.91s CPU     47.41s WALL (      36 calls)
     update_pot   :      5.45s CPU      5.52s WALL (      34 calls)
     forces       :      3.29s CPU      3.35s WALL (      36 calls)
     stress       :      8.72s CPU      8.87s WALL (      36 calls)

     Called by init_run:
     wfcinit      :      0.11s CPU      0.11s WALL (       2 calls)
     potinit      :      0.15s CPU      0.16s WALL (       2 calls)
     hinit0       :      0.62s CPU      0.71s WALL (       2 calls)

     Called by electrons:
     c_bands      :     36.45s CPU     38.38s WALL (     350 calls)
     sum_band     :      5.21s CPU      5.38s WALL (     350 calls)
     v_of_rho     :      3.10s CPU      3.15s WALL (     383 calls)
     mix_rho      :      0.17s CPU      0.19s WALL (     350 calls)

     Called by c_bands:
     init_us_2    :      0.45s CPU      0.49s WALL (    5418 calls)
     init_us_2:cp :      0.44s CPU      0.49s WALL (    5418 calls)
     cegterg      :     34.23s CPU     35.23s WALL (    2450 calls)

     Called by *egterg:
     cdiaghg      :      2.68s CPU      2.75s WALL (   10534 calls)
     h_psi        :     29.58s CPU     30.45s WALL (   10807 calls)
     g_psi        :      0.06s CPU      0.07s WALL (    8343 calls)

     Called by h_psi:
     h_psi:calbec :      1.56s CPU      1.62s WALL (   10807 calls)
     vloc_psi     :     26.84s CPU     27.63s WALL (   10807 calls)
     add_vuspsi   :      1.10s CPU      1.13s WALL (   10807 calls)

     General routines
     calbec       :      1.83s CPU      1.90s WALL (   12067 calls)
     fft          :      1.59s CPU      1.71s WALL (    4731 calls)
     ffts         :      0.07s CPU      0.07s WALL (     350 calls)
     fftw         :     27.43s CPU     28.23s WALL (  251816 calls)

     Parallel routines

     PWSCF        :   1m 3.75s CPU   1m 7.06s WALL


   This run was terminated on:  18: 9:47   5Feb2025            

=------------------------------------------------------------------------------=
   JOB DONE.
=------------------------------------------------------------------------------=
