
     Program PWSCF v.7.2 starts on 10Jan2025 at 22: 9: 6 

     This program is part of the open-source Quantum ESPRESSO suite
     for quantum simulation of materials; please cite
         "P. Giannozzi et al., J. Phys.:Condens. Matter 21 395502 (2009);
         "P. Giannozzi et al., J. Phys.:Condens. Matter 29 465901 (2017);
         "P. Giannozzi et al., J. Chem. Phys. 152 154105 (2020);
          URL http://www.quantum-espresso.org", 
     in publications or presentations arising from this work. More details at
     http://www.quantum-espresso.org/quote

     Parallel version (MPI & OpenMP), running on       8 processor cores
     Number of MPI processes:                 8
     Threads/MPI process:                     1

     MPI processes distributed on     1 nodes
     482176 MiB available memory on the printing compute node when the environment starts

     Waiting for input...
     Reading input from standard input

     Current dimensions of program PWSCF are:
     Max number of different atomic species (ntypx) = 10
     Max number of k-points (npk) =  40000
     Max angular momentum in pseudopotentials (lmaxx) =  4

     R & G space division:  proc/nbgrp/npool/nimage =       8
     Subspace diagonalization in iterative solution of the eigenvalue problem:
     a serial algorithm will be used


     Parallelization info
     --------------------
     sticks:   dense  smooth     PW     G-vecs:    dense   smooth      PW
     Min         189     189     55                 3541     3541     566
     Max         191     191     57                 3542     3542     567
     Sum        1519    1519    451                28329    28329    4533

     Using Slab Decomposition



     bravais-lattice index     =            4
     lattice parameter (alat)  =       7.4212  a.u.
     unit-cell volume          =     209.5102 (a.u.)^3
     number of atoms/cell      =            3
     number of atomic types    =            2
     number of electrons       =        11.00
     number of Kohn-Sham states=           10
     kinetic-energy cutoff     =     100.0000  Ry
     charge density cutoff     =     400.0000  Ry
     scf convergence threshold =      1.0E-08
     mixing beta               =       0.7000
     number of iterations used =            8  plain     mixing
     energy convergence thresh.=      1.0E-04
     force convergence thresh. =      1.0E-03
     press convergence thresh. =      1.0E+00
     Exchange-correlation= PBE
                           (   1   4   3   4   0   0   0)
     nstep                     =           50


     celldm(1)=   7.421183  celldm(2)=   0.000000  celldm(3)=   0.591909
     celldm(4)=   0.000000  celldm(5)=   0.000000  celldm(6)=   0.000000

     crystal axes: (cart. coord. in units of alat)
               a(1) = (   1.000000   0.000000   0.000000 )  
               a(2) = (  -0.500000   0.866025   0.000000 )  
               a(3) = (   0.000000   0.000000   0.591909 )  

     reciprocal axes: (cart. coord. in units 2 pi/alat)
               b(1) = (  1.000000  0.577350 -0.000000 )  
               b(2) = (  0.000000  1.154701  0.000000 )  
               b(3) = (  0.000000 -0.000000  1.689449 )  


     PseudoPot. # 1 for Si read from file:
     ../pseudo/Si_ONCV_PBE_sr.upf
     MD5 check sum: e543d271109d17c80368dfa7c482276d
     Pseudo is Norm-conserving + core correction, Zval =  4.0
     Generated using ONCVPSP code by D. R. Hamann
     Using radial grid of 1510 points,  6 beta functions with: 
                l(1) =   0
                l(2) =   0
                l(3) =   1
                l(4) =   1
                l(5) =   2
                l(6) =   2

     PseudoPot. # 2 for Li read from file:
     ../pseudo/Li_ONCV_PBE_sr.upf
     MD5 check sum: 50ff420e78310ffa21704f3361e624a4
     Pseudo is Norm-conserving, Zval =  3.0
     Generated using ONCVPSP code by D. R. Hamann
     Using radial grid of 1944 points,  4 beta functions with: 
                l(1) =   0
                l(2) =   0
                l(3) =   1
                l(4) =   1

     atomic species   valence    mass     pseudopotential
        Si             4.00    28.08550     Si( 1.00)
        Li             3.00     6.94100     Li( 1.00)

     24 Sym. Ops., with inversion, found



   Cartesian axes

     site n.     atom                  positions (alat units)
         1           Si  tau(   1) = (  -0.0000000   0.5773503   0.0000000  )
         2           Si  tau(   2) = (   0.5000000   0.2886751   0.0000000  )
         3           Li  tau(   3) = (   0.0000000   0.0000000   0.2959545  )

     number of k points=    70  Marzari-Vanderbilt smearing, width (Ry)=  0.0200
                       cart. coord. in units 2pi/alat
        k(    1) = (   0.0000000   0.0000000   0.0000000), wk =   0.0026042
        k(    2) = (   0.0000000   0.0000000   0.1407874), wk =   0.0052083
        k(    3) = (   0.0000000   0.0000000   0.2815748), wk =   0.0052083
        k(    4) = (   0.0000000   0.0000000   0.4223621), wk =   0.0052083
        k(    5) = (   0.0000000   0.0000000   0.5631495), wk =   0.0052083
        k(    6) = (   0.0000000   0.0000000   0.7039369), wk =   0.0052083
        k(    7) = (   0.0000000   0.0000000  -0.8447243), wk =   0.0026042
        k(    8) = (   0.0000000   0.1443376   0.0000000), wk =   0.0156250
        k(    9) = (   0.0000000   0.1443376   0.1407874), wk =   0.0312500
        k(   10) = (   0.0000000   0.1443376   0.2815748), wk =   0.0312500
        k(   11) = (   0.0000000   0.1443376   0.4223621), wk =   0.0312500
        k(   12) = (   0.0000000   0.1443376   0.5631495), wk =   0.0312500
        k(   13) = (   0.0000000   0.1443376   0.7039369), wk =   0.0312500
        k(   14) = (   0.0000000   0.1443376  -0.8447243), wk =   0.0156250
        k(   15) = (   0.0000000   0.2886751   0.0000000), wk =   0.0156250
        k(   16) = (   0.0000000   0.2886751   0.1407874), wk =   0.0312500
        k(   17) = (   0.0000000   0.2886751   0.2815748), wk =   0.0312500
        k(   18) = (   0.0000000   0.2886751   0.4223621), wk =   0.0312500
        k(   19) = (   0.0000000   0.2886751   0.5631495), wk =   0.0312500
        k(   20) = (   0.0000000   0.2886751   0.7039369), wk =   0.0312500
        k(   21) = (   0.0000000   0.2886751  -0.8447243), wk =   0.0156250
        k(   22) = (   0.0000000   0.4330127   0.0000000), wk =   0.0156250
        k(   23) = (   0.0000000   0.4330127   0.1407874), wk =   0.0312500
        k(   24) = (   0.0000000   0.4330127   0.2815748), wk =   0.0312500
        k(   25) = (   0.0000000   0.4330127   0.4223621), wk =   0.0312500
        k(   26) = (   0.0000000   0.4330127   0.5631495), wk =   0.0312500
        k(   27) = (   0.0000000   0.4330127   0.7039369), wk =   0.0312500
        k(   28) = (   0.0000000   0.4330127  -0.8447243), wk =   0.0156250
        k(   29) = (   0.0000000  -0.5773503   0.0000000), wk =   0.0078125
        k(   30) = (   0.0000000  -0.5773503   0.1407874), wk =   0.0156250
        k(   31) = (   0.0000000  -0.5773503   0.2815748), wk =   0.0156250
        k(   32) = (   0.0000000  -0.5773503   0.4223621), wk =   0.0156250
        k(   33) = (   0.0000000  -0.5773503   0.5631495), wk =   0.0156250
        k(   34) = (   0.0000000  -0.5773503   0.7039369), wk =   0.0156250
        k(   35) = (   0.0000000  -0.5773503  -0.8447243), wk =   0.0078125
        k(   36) = (   0.1250000   0.2165064   0.0000000), wk =   0.0156250
        k(   37) = (   0.1250000   0.2165064   0.1407874), wk =   0.0312500
        k(   38) = (   0.1250000   0.2165064   0.2815748), wk =   0.0312500
        k(   39) = (   0.1250000   0.2165064   0.4223621), wk =   0.0312500
        k(   40) = (   0.1250000   0.2165064   0.5631495), wk =   0.0312500
        k(   41) = (   0.1250000   0.2165064   0.7039369), wk =   0.0312500
        k(   42) = (   0.1250000   0.2165064  -0.8447243), wk =   0.0156250
        k(   43) = (   0.1250000   0.3608439   0.0000000), wk =   0.0312500
        k(   44) = (   0.1250000   0.3608439   0.1407874), wk =   0.0625000
        k(   45) = (   0.1250000   0.3608439   0.2815748), wk =   0.0625000
        k(   46) = (   0.1250000   0.3608439   0.4223621), wk =   0.0625000
        k(   47) = (   0.1250000   0.3608439   0.5631495), wk =   0.0625000
        k(   48) = (   0.1250000   0.3608439   0.7039369), wk =   0.0625000
        k(   49) = (   0.1250000   0.3608439  -0.8447243), wk =   0.0312500
        k(   50) = (   0.1250000   0.5051815   0.0000000), wk =   0.0312500
        k(   51) = (   0.1250000   0.5051815   0.1407874), wk =   0.0625000
        k(   52) = (   0.1250000   0.5051815   0.2815748), wk =   0.0625000
        k(   53) = (   0.1250000   0.5051815   0.4223621), wk =   0.0625000
        k(   54) = (   0.1250000   0.5051815   0.5631495), wk =   0.0625000
        k(   55) = (   0.1250000   0.5051815   0.7039369), wk =   0.0625000
        k(   56) = (   0.1250000   0.5051815  -0.8447243), wk =   0.0312500
        k(   57) = (   0.2500000   0.4330127   0.0000000), wk =   0.0156250
        k(   58) = (   0.2500000   0.4330127   0.1407874), wk =   0.0312500
        k(   59) = (   0.2500000   0.4330127   0.2815748), wk =   0.0312500
        k(   60) = (   0.2500000   0.4330127   0.4223621), wk =   0.0312500
        k(   61) = (   0.2500000   0.4330127   0.5631495), wk =   0.0312500
        k(   62) = (   0.2500000   0.4330127   0.7039369), wk =   0.0312500
        k(   63) = (   0.2500000   0.4330127  -0.8447243), wk =   0.0156250
        k(   64) = (   0.2500000   0.5773503   0.0000000), wk =   0.0156250
        k(   65) = (   0.2500000   0.5773503   0.1407874), wk =   0.0312500
        k(   66) = (   0.2500000   0.5773503   0.2815748), wk =   0.0312500
        k(   67) = (   0.2500000   0.5773503   0.4223621), wk =   0.0312500
        k(   68) = (   0.2500000   0.5773503   0.5631495), wk =   0.0312500
        k(   69) = (   0.2500000   0.5773503   0.7039369), wk =   0.0312500
        k(   70) = (   0.2500000   0.5773503  -0.8447243), wk =   0.0156250

     Dense  grid:    28329 G-vectors     FFT dimensions: (  48,  48,  27)

     Estimated max dynamical RAM per process >      20.44 MB

     Estimated total dynamical RAM >     163.49 MB

     Initial potential from superposition of free atoms

     starting charge      10.9942, renormalised to      11.0000
     Starting wfcs are   10 randomized atomic wfcs

     total cpu time spent up to now is        1.5 secs

     Self-consistent Calculation

     iteration #  1     ecut=   100.00 Ry     beta= 0.70
     Davidson diagonalization with overlap
     ethr =  1.00E-02,  avg # of iterations =  6.1

     Threshold (ethr) on eigenvalues was too large:
     Diagonalizing with lowered threshold

     Davidson diagonalization with overlap
     ethr =  1.14E-04,  avg # of iterations =  4.4

     total cpu time spent up to now is        3.1 secs

     total energy              =     -31.23471880 Ry
     estimated scf accuracy    <       0.01252419 Ry

     iteration #  2     ecut=   100.00 Ry     beta= 0.70
     Davidson diagonalization with overlap
     ethr =  1.14E-04,  avg # of iterations =  1.0

     total cpu time spent up to now is        3.6 secs

     total energy              =     -31.23494715 Ry
     estimated scf accuracy    <       0.00089856 Ry

     iteration #  3     ecut=   100.00 Ry     beta= 0.70
     Davidson diagonalization with overlap
     ethr =  8.17E-06,  avg # of iterations =  3.0

     total cpu time spent up to now is        4.2 secs

     total energy              =     -31.23497951 Ry
     estimated scf accuracy    <       0.00001969 Ry

     iteration #  4     ecut=   100.00 Ry     beta= 0.70
     Davidson diagonalization with overlap
     ethr =  1.79E-07,  avg # of iterations =  3.2

     total cpu time spent up to now is        4.8 secs

     total energy              =     -31.23498336 Ry
     estimated scf accuracy    <       0.00000039 Ry

     iteration #  5     ecut=   100.00 Ry     beta= 0.70
     Davidson diagonalization with overlap
     ethr =  3.50E-09,  avg # of iterations =  2.9

     total cpu time spent up to now is        5.4 secs

     End of self-consistent calculation

          k = 0.0000 0.0000 0.0000 (  3511 PWs)   bands (ev):

   -34.5117  -3.0666   7.0485   7.0485   7.9608   9.5554   9.5554  16.5185
    21.2311  23.4881

          k = 0.0000 0.0000 0.1408 (  3536 PWs)   bands (ev):

   -34.5046  -2.8902   7.2149   7.2149   8.1284   9.7364   9.7364  15.6176
    20.0121  25.5219

          k = 0.0000 0.0000 0.2816 (  3554 PWs)   bands (ev):

   -34.4850  -2.3627   7.7116   7.7116   8.6219  10.2786  10.2786  13.2949
    19.2056  25.3055

          k = 0.0000 0.0000 0.4224 (  3554 PWs)   bands (ev):

   -34.4582  -1.4897   8.5289   8.5289   9.4086  10.5580  11.1786  11.1786
    18.8024  22.7048

          k = 0.0000 0.0000 0.5631 (  3536 PWs)   bands (ev):

   -34.4313  -0.2828   7.9001   9.6352   9.6352  10.4097  12.4259  12.4259
    18.4999  18.7949

          k = 0.0000 0.0000 0.7039 (  3536 PWs)   bands (ev):

   -34.4115   1.2237   5.4941  10.9059  10.9059  11.4190  13.9735  13.9735
    16.4838  16.4839

          k = 0.0000 0.0000-0.8447 (  3578 PWs)   bands (ev):

   -34.4043   2.5465   3.8679  11.6849  11.6849  11.9137  15.2230  15.2230
    15.3568  15.3569

          k = 0.0000 0.1443 0.0000 (  3529 PWs)   bands (ev):

   -34.5115  -2.9147   5.2382   6.5350   8.8620  10.4384  10.5897  16.9785
    21.3891  23.4260

          k = 0.0000 0.1443 0.1408 (  3533 PWs)   bands (ev):

   -34.5043  -2.7378   5.4113   6.7043   9.0249  10.6162  10.7437  16.0359
    20.2056  25.3031

          k = 0.0000 0.1443 0.2816 (  3531 PWs)   bands (ev):

   -34.4848  -2.2089   5.9279   7.2101   9.4997  11.1480  11.1722  13.6947
    19.4892  23.0995

          k = 0.0000 0.1443 0.4224 (  3538 PWs)   bands (ev):

   -34.4580  -1.3336   6.7779   8.0440  10.0905  10.8389  12.0283  12.1993
    19.0622  20.2280

          k = 0.0000 0.1443 0.5631 (  3528 PWs)   bands (ev):

   -34.4311  -0.1234   7.8605   8.1104   9.1788  11.2858  13.0333  13.2382
    17.5098  18.2848

          k = 0.0000 0.1443 0.7039 (  3539 PWs)   bands (ev):

   -34.4114   1.3891   5.6348   9.3791  10.5036  11.8047  13.9622  14.6684
    15.9659  15.9726

          k = 0.0000 0.1443-0.8447 (  3560 PWs)   bands (ev):

   -34.4041   2.7335   3.9929  10.7659  11.0443  11.3519  14.6235  14.6875
    15.4384  15.9071

          k = 0.0000 0.2887 0.0000 (  3516 PWs)   bands (ev):

   -34.5109  -2.4689   3.2259   5.7965   8.8719  12.2837  12.9770  18.2453
    21.8579  23.0520

          k = 0.0000 0.2887 0.1408 (  3524 PWs)   bands (ev):

   -34.5038  -2.2906   3.4010   5.9679   9.0144  12.4582  13.0783  17.1384
    20.8377  24.0522

          k = 0.0000 0.2887 0.2816 (  3531 PWs)   bands (ev):

   -34.4843  -1.7575   3.9240   6.4804   9.4157  12.9790  13.1926  14.7930
    20.1794  21.6560

          k = 0.0000 0.2887 0.4224 (  3528 PWs)   bands (ev):

   -34.4575  -0.8752   4.7866   7.3271   9.8439  11.6561  13.8351  14.1380
    18.2837  20.6151

          k = 0.0000 0.2887 0.5631 (  3542 PWs)   bands (ev):

   -34.4307   0.3453   5.9643   8.4300   8.4854  11.1914  13.9224  14.9727
    16.6829  17.5840

          k = 0.0000 0.2887 0.7039 (  3541 PWs)   bands (ev):

   -34.4110   1.8757   6.0316   7.5259   9.8598  10.8651  13.5538  14.9325
    16.1812  16.6225

          k = 0.0000 0.2887-0.8447 (  3544 PWs)   bands (ev):

   -34.4038   3.2893   4.3585   8.9829   9.4851  10.7835  13.7356  13.9248
    15.7721  17.5267

          k = 0.0000 0.4330 0.0000 (  3526 PWs)   bands (ev):

   -34.5103  -1.7928   1.5774   5.3017   8.7842  14.6153  15.4011  19.3911
    20.4501  22.4709

          k = 0.0000 0.4330 0.1408 (  3533 PWs)   bands (ev):

   -34.5032  -1.6119   1.7515   5.4739   8.9090  14.7865  15.3875  18.3200
    20.6043  21.6775

          k = 0.0000 0.4330 0.2816 (  3528 PWs)   bands (ev):

   -34.4837  -1.0708   2.2713   5.9892   9.2582  14.6920  15.2949  16.4188
    19.6491  21.0030

          k = 0.0000 0.4330 0.4224 (  3539 PWs)   bands (ev):

   -34.4571  -0.1749   3.1291   6.8413   9.6869  12.3343  15.2808  16.1110
    17.9303  19.8714

          k = 0.0000 0.4330 0.5631 (  3549 PWs)   bands (ev):

   -34.4303   1.0657   4.3067   8.0100   9.0480  10.6412  13.6059  16.5892
    17.4140  17.7445

          k = 0.0000 0.4330 0.7039 (  3552 PWs)   bands (ev):

   -34.4107   2.6297   5.7122   6.8813   9.4073   9.5077  13.1527  14.4640
    16.6909  18.8003

          k = 0.0000 0.4330-0.8447 (  3546 PWs)   bands (ev):

   -34.4035   4.1879   4.9008   7.1998   8.1013  10.3702  13.1711  13.4124
    16.1809  19.6818

          k = 0.0000-0.5774 0.0000 (  3532 PWs)   bands (ev):

   -34.5100  -1.3047   0.7611   5.1321   8.7467  17.1272  17.1289  17.5826
    18.5843  23.2864

          k = 0.0000-0.5774 0.1408 (  3540 PWs)   bands (ev):

   -34.5029  -1.1205   0.9324   5.3046   8.8653  16.8421  17.2951  17.7483
    18.4554  21.0461

          k = 0.0000-0.5774 0.2816 (  3530 PWs)   bands (ev):

   -34.4835  -0.5693   1.4436   5.8206   9.1982  15.2892  17.4617  17.7718
    18.2437  19.7813

          k = 0.0000-0.5774 0.4224 (  3548 PWs)   bands (ev):

   -34.4569   0.3444   2.2862   6.6742   9.6374  12.6711  15.2111  18.3047
    18.9437  19.0626

          k = 0.0000-0.5774 0.5631 (  3538 PWs)   bands (ev):

   -34.4302   1.6133   3.4412   7.8458   9.7371   9.9552  13.3565  16.6546
    18.0199  20.1858

          k = 0.0000-0.5774 0.7039 (  3546 PWs)   bands (ev):

   -34.4106   3.2266   4.8533   7.4294   8.6534   9.2499  13.0086  14.2926
    16.9362  21.5328

          k = 0.0000-0.5774-0.8447 (  3548 PWs)   bands (ev):

   -34.4034   5.0819   5.2648   5.9954   7.4439  10.2248  12.9803  13.2361
    16.3726  22.4754

          k = 0.1250 0.2165 0.0000 (  3528 PWs)   bands (ev):

   -34.5111  -2.6146   3.7851   5.7804   9.4922  10.8111  12.7969  17.8305
    21.7027  23.1220

          k = 0.1250 0.2165 0.1408 (  3524 PWs)   bands (ev):

   -34.5039  -2.4368   3.9619   5.9451   9.6605  10.9426  12.9479  16.7829
    20.6198  23.9607

          k = 0.1250 0.2165 0.2816 (  3543 PWs)   bands (ev):

   -34.4844  -1.9052   4.4903   6.4355  10.1556  11.2673  13.3813  14.3627
    20.0581  21.8493

          k = 0.1250 0.2165 0.4224 (  3533 PWs)   bands (ev):

   -34.4577  -1.0253   5.3633   7.2310  10.7685  10.9302  12.7693  13.9972
    19.0827  19.3094

          k = 0.1250 0.2165 0.5631 (  3539 PWs)   bands (ev):

   -34.4308   0.1916   6.5669   7.9524   8.7803  11.7494  13.3714  14.3785
    17.2095  17.3223

          k = 0.1250 0.2165 0.7039 (  3538 PWs)   bands (ev):

   -34.4111   1.7159   5.9114   8.0714   9.7159  11.4391  14.2716  14.7000
    15.0250  17.1557

          k = 0.1250 0.2165-0.8447 (  3558 PWs)   bands (ev):

   -34.4039   3.1051   4.2399   9.7062   9.9012  10.5033  13.8904  14.7520
    15.8031  16.3613

          k = 0.1250 0.3608 0.0000 (  3508 PWs)   bands (ev):

   -34.5104  -2.0371   2.1571   5.0754   9.7110  12.3569  15.4030  18.8990
    21.4414  22.3167

          k = 0.1250 0.3608 0.1408 (  3518 PWs)   bands (ev):

   -34.5033  -1.8575   2.3351   5.2362   9.8576  12.4770  15.4971  17.8463
    20.9697  21.7031

          k = 0.1250 0.3608 0.2816 (  3537 PWs)   bands (ev):

   -34.4839  -1.3203   2.8671   5.7145  10.2712  12.7349  15.2073  15.8739
    20.3396  21.1316

          k = 0.1250 0.3608 0.4224 (  3538 PWs)   bands (ev):

   -34.4572  -0.4312   3.7467   6.4913  10.6983  11.9605  14.0595  15.5204
    18.4238  19.4554

          k = 0.1250 0.3608 0.5631 (  3552 PWs)   bands (ev):

   -34.4305   0.7995   4.9598   7.4535   9.1104  11.5756  13.8689  15.0720
    16.5316  18.6903

          k = 0.1250 0.3608 0.7039 (  3550 PWs)   bands (ev):

   -34.4108   2.3473   6.2933   6.6704   8.9048  10.3504  13.8628  14.5444
    15.8946  18.3683

          k = 0.1250 0.3608-0.8447 (  3548 PWs)   bands (ev):

   -34.4036   3.8358   4.7136   8.1132   8.5068   9.7022  13.2334  14.6232
    16.3814  17.7563

          k = 0.1250 0.5052 0.0000 (  3529 PWs)   bands (ev):

   -34.5100  -1.3278   0.8699   4.7172   9.6728  14.5890  17.1323  18.2068
    20.4905  23.1478

          k = 0.1250 0.5052 0.1408 (  3534 PWs)   bands (ev):

   -34.5029  -1.1450   1.0458   4.8767   9.8038  14.6840  17.1009  18.1765
    19.5050  21.7699

          k = 0.1250 0.5052 0.2816 (  3532 PWs)   bands (ev):

   -34.4835  -0.5982   1.5714   5.3514  10.1715  14.6169  16.2222  17.4930
    18.4145  20.0998

          k = 0.1250 0.5052 0.4224 (  3540 PWs)   bands (ev):

   -34.4569   0.3077   2.4394   6.1252  10.6298  12.6426  15.1604  16.3763
    18.5754  18.9359

          k = 0.1250 0.5052 0.5631 (  3551 PWs)   bands (ev):

   -34.4302   1.5640   3.6343   7.1388   9.8064  10.8139  13.5858  16.1803
    17.0353  19.3803

          k = 0.1250 0.5052 0.7039 (  3550 PWs)   bands (ev):

   -34.4106   3.1548   5.1117   7.2812   8.2487   9.4020  13.5018  14.3631
    17.1634  19.5852

          k = 0.1250 0.5052-0.8447 (  3544 PWs)   bands (ev):

   -34.4034   4.8589   5.2761   6.5281   7.4219   9.3389  12.8879  14.4011
    16.8396  19.8944

          k = 0.2500 0.4330 0.0000 (  3518 PWs)   bands (ev):

   -34.5100  -1.3497   0.9873   4.3669  11.1910  12.5555  17.1362  18.2444
    21.8474  23.0469

          k = 0.2500 0.4330 0.1408 (  3532 PWs)   bands (ev):

   -34.5029  -1.1682   1.1686   4.5168  11.3485  12.6504  17.1197  18.1834
    19.6832  22.6178

          k = 0.2500 0.4330 0.2816 (  3529 PWs)   bands (ev):

   -34.4835  -0.6253   1.7108   4.9615  11.7938  12.8362  15.9532  17.4269
    18.3327  20.8920

          k = 0.2500 0.4330 0.4224 (  3542 PWs)   bands (ev):

   -34.4569   0.2739   2.6091   5.6814  12.1290  12.3176  14.4267  15.5159
    18.3222  18.9838

          k = 0.2500 0.4330 0.5631 (  3551 PWs)   bands (ev):

   -34.4302   1.5197   3.8544   6.6083   9.8135  11.5771  14.5098  14.8452
    16.1864  19.5574

          k = 0.2500 0.4330 0.7039 (  3557 PWs)   bands (ev):

   -34.4106   3.0933   5.4323   6.9865   8.0460   9.4550  13.5981  15.6879
    16.0098  19.7972

          k = 0.2500 0.4330-0.8447 (  3554 PWs)   bands (ev):

   -34.4034   4.7175   5.2877   7.2404   7.3996   8.3832  12.8066  15.8674
    17.4499  18.1086

          k = 0.2500 0.5774 0.0000 (  3532 PWs)   bands (ev):

   -34.5098  -0.7279   0.1830   4.1201  11.5901  13.8666  15.1046  20.7887
    20.9714  23.3924

          k = 0.2500 0.5774 0.1408 (  3528 PWs)   bands (ev):

   -34.5027  -0.5444   0.3641   4.2665  11.7282  13.9786  15.2038  19.7477
    19.8917  22.2943

          k = 0.2500 0.5774 0.2816 (  3548 PWs)   bands (ev):

   -34.4833   0.0047   0.9056   4.7010  12.0985  14.1190  15.4594  17.2451
    17.5594  21.1495

          k = 0.2500 0.5774 0.4224 (  3551 PWs)   bands (ev):

   -34.4568   0.9147   1.8023   5.4049  12.3521  12.9087  14.9996  16.0415
    16.3215  18.4665

          k = 0.2500 0.5774 0.5631 (  3545 PWs)   bands (ev):

   -34.4301   2.1782   3.0443   6.3234  10.4253  11.0122  14.4577  15.6486
    17.1015  17.1760

          k = 0.2500 0.5774 0.7039 (  3549 PWs)   bands (ev):

   -34.4105   3.7837   4.6119   7.2586   7.9524   8.8041  13.4114  15.8016
    17.5386  18.5892

          k = 0.2500 0.5774-0.8447 (  3544 PWs)   bands (ev):

   -34.4033   5.6323   5.8040   6.2676   6.6816   7.9693  12.6553  16.2031
    18.1776  19.4849

     the Fermi energy is    11.7237 ev

!    total energy              =     -31.23498350 Ry
     estimated scf accuracy    <          3.4E-09 Ry
     smearing contrib. (-TS)   =      -0.00004778 Ry
     internal energy E=F+TS    =     -31.23493572 Ry

     The total energy is F=E-TS. E is the sum of the following terms:
     one-electron contribution =       4.41291794 Ry
     hartree contribution      =       2.91380589 Ry
     xc contribution           =     -10.13327047 Ry
     ewald contribution        =     -28.42838907 Ry

     convergence has been achieved in   5 iterations

     Forces acting on atoms (cartesian axes, Ry/au):

     atom    1 type  1   force =     0.00000000    0.00000000    0.00000000
     atom    2 type  1   force =    -0.00000000   -0.00000000    0.00000000
     atom    3 type  2   force =     0.00000000    0.00000000   -0.00000000
     The non-local contrib.  to forces
     atom    1 type  1   force =     0.00000000   -0.00000000    0.00000000
     atom    2 type  1   force =     0.00000000    0.00000000    0.00000000
     atom    3 type  2   force =     0.00000000    0.00000000   -0.00000000
     The ionic contribution  to forces
     atom    1 type  1   force =     0.00000010   -0.00000006    0.00000000
     atom    2 type  1   force =    -0.00000010    0.00000006    0.00000000
     atom    3 type  2   force =    -0.00000000   -0.00000000   -0.00000000
     The local contribution  to forces
     atom    1 type  1   force =    -0.00000001    0.00000000    0.00000000
     atom    2 type  1   force =     0.00000001   -0.00000000    0.00000000
     atom    3 type  2   force =    -0.00000000    0.00000000   -0.00000000
     The core correction contribution to forces
     atom    1 type  1   force =    -0.00000000    0.00000000   -0.00000000
     atom    2 type  1   force =     0.00000000   -0.00000000   -0.00000000
     atom    3 type  2   force =     0.00000000    0.00000000    0.00000000
     The Hubbard contrib.    to forces
     atom    1 type  1   force =     0.00000000    0.00000000    0.00000000
     atom    2 type  1   force =     0.00000000    0.00000000    0.00000000
     atom    3 type  2   force =     0.00000000    0.00000000    0.00000000
     The SCF correction term to forces
     atom    1 type  1   force =     0.00000000   -0.00000000   -0.00000000
     atom    2 type  1   force =    -0.00000000    0.00000000    0.00000000
     atom    3 type  2   force =    -0.00000000   -0.00000000    0.00000000

     Total force =     0.000000     Total SCF correction =     0.000000


     Computing stress (Cartesian axis) and pressure

          total   stress  (Ry/bohr**3)                   (kbar)     P=      514.61
   0.00345253  -0.00000000   0.00000000          507.88       -0.00        0.00
  -0.00000000   0.00345253  -0.00000000           -0.00      507.88       -0.00
   0.00000000  -0.00000000   0.00358974            0.00       -0.00      528.07


     BFGS Geometry Optimization
     Energy error            =      0.0E+00 Ry
     Gradient error          =      2.2E-24 Ry/Bohr
     Cell gradient error     =      2.8E+01 kbar

     number of scf cycles    =   1
     number of bfgs steps    =   0

     enthalpy           new  =     -30.5228729045 Ry

     new trust radius        =       0.0138089916 bohr
ibrav =      4
 celldm(1) =      7.43112748
 celldm(3) =      0.59393671
Input lattice vectors:
     1.00133999    -0.00000000     0.00000000
    -0.50066999     0.86718587    -0.00000000
     0.00000000    -0.00000000     0.59473258
New lattice vectors in INITIAL alat:
     1.00133999     0.00000000     0.00000000
    -0.50066999     0.86718587     0.00000000
     0.00000000     0.00000000     0.59473258
New lattice vectors in NEW alat (for information only):
     1.00000000     0.00000000     0.00000000
    -0.50000000     0.86602540     0.00000000
     0.00000000     0.00000000     0.59393671
Discrepancy in bohr =     0.000000    0.000000    0.000000
     new conv_thr            =       0.0000000100 Ry

     new unit-cell volume =    211.07410 a.u.^3 (    31.27795 Ang^3 )
     density =      3.35060 g/cm^3

CELL_PARAMETERS (alat=  7.42118320)
   1.001339986   0.000000000   0.000000000
  -0.500669993   0.867185866   0.000000000
   0.000000000   0.000000000   0.594732578

ATOMIC_POSITIONS (crystal)
Si            0.3333333300        0.6666666700        0.0000000000
Si            0.6666666700        0.3333333300        0.0000000000
Li            0.0000000000        0.0000000000        0.5000000000



     Writing config-only to output data dir ./output/SiLi.save/
     NEW-OLD atomic charge density approx. for the potential
     extrapolated charge   11.08146, renormalised to   11.00000

     total cpu time spent up to now is        6.9 secs

     Self-consistent Calculation

     iteration #  1     ecut=   100.00 Ry     beta= 0.70
     Davidson diagonalization with overlap
     ethr =  1.00E-06,  avg # of iterations =  3.3

     total cpu time spent up to now is        7.6 secs

     total energy              =     -31.24035299 Ry
     estimated scf accuracy    <       0.00001186 Ry

     iteration #  2     ecut=   100.00 Ry     beta= 0.70
     Davidson diagonalization with overlap
     ethr =  1.08E-07,  avg # of iterations =  2.8

     total cpu time spent up to now is        8.2 secs

     total energy              =     -31.24038737 Ry
     estimated scf accuracy    <       0.00000610 Ry

     iteration #  3     ecut=   100.00 Ry     beta= 0.70
     Davidson diagonalization with overlap
     ethr =  5.54E-08,  avg # of iterations =  1.1

     total cpu time spent up to now is        8.7 secs

     total energy              =     -31.24038693 Ry
     estimated scf accuracy    <       0.00000131 Ry

     iteration #  4     ecut=   100.00 Ry     beta= 0.70
     Davidson diagonalization with overlap
     ethr =  1.19E-08,  avg # of iterations =  2.0

     total cpu time spent up to now is        9.2 secs

     total energy              =     -31.24038693 Ry
     estimated scf accuracy    <       0.00000012 Ry

     iteration #  5     ecut=   100.00 Ry     beta= 0.70
     Davidson diagonalization with overlap
     ethr =  1.10E-09,  avg # of iterations =  2.1

     total cpu time spent up to now is        9.8 secs

     End of self-consistent calculation

          k = 0.0000 0.0000 0.0000 (  3511 PWs)   bands (ev):

   -34.6084  -3.1054   6.9910   6.9910   7.8918   9.4982   9.4982  16.4071
    20.9464  23.2799

          k = 0.0000 0.0000 0.1401 (  3536 PWs)   bands (ev):

   -34.6015  -2.9306   7.1556   7.1556   8.0582   9.6775   9.6775  15.4861
    19.7919  25.2832

          k = 0.0000 0.0000 0.2802 (  3554 PWs)   bands (ev):

   -34.5827  -2.4083   7.6468   7.6468   8.5485  10.2143  10.2143  13.1476
    19.0329  25.0499

          k = 0.0000 0.0000 0.4204 (  3554 PWs)   bands (ev):

   -34.5570  -1.5438   8.4544   8.4544   9.3308  10.4196  11.1052  11.1052
    18.6502  21.4543

          k = 0.0000 0.0000 0.5605 (  3536 PWs)   bands (ev):

   -34.5312  -0.3493   7.7798   9.5459   9.5459  10.3284  12.3394  12.3394
    18.3589  18.6621

          k = 0.0000 0.0000 0.7006 (  3536 PWs)   bands (ev):

   -34.5123   1.1391   5.3967  10.7941  10.7941  11.3388  13.8683  13.8683
    16.3834  16.3834

          k = 0.0000 0.0000-0.8407 (  3578 PWs)   bands (ev):

   -34.5053   2.4273   3.8068  11.5509  11.5509  11.8372  15.0924  15.0924
    15.2818  15.2818

          k = 0.0000 0.1441 0.0000 (  3529 PWs)   bands (ev):

   -34.6081  -2.9535   5.1825   6.4799   8.7972  10.3779  10.5224  16.8703
    21.1041  23.2250

          k = 0.0000 0.1441 0.1401 (  3533 PWs)   bands (ev):

   -34.6013  -2.7784   5.3540   6.6474   8.9586  10.5538  10.6747  15.9034
    19.9913  25.0807

          k = 0.0000 0.1441 0.2802 (  3531 PWs)   bands (ev):

   -34.5825  -2.2546   5.8656   7.1477   9.4289  11.0803  11.0967  13.5464
    19.3230  22.8853

          k = 0.0000 0.1441 0.4204 (  3538 PWs)   bands (ev):

   -34.5568  -1.3879   6.7076   7.9721   9.9985  10.7217  11.9513  12.1080
    18.9139  20.0468

          k = 0.0000 0.1441 0.5605 (  3528 PWs)   bands (ev):

   -34.5310  -0.1900   7.7653   8.0042   9.0924  11.1983  12.9363  13.1476
    17.3634  18.1495

          k = 0.0000 0.1441 0.7006 (  3539 PWs)   bands (ev):

   -34.5121   1.3045   5.5368   9.2827  10.3949  11.7068  13.8467  14.5588
    15.8617  15.8640

          k = 0.0000 0.1441-0.8407 (  3560 PWs)   bands (ev):

   -34.5052   2.6138   3.9317  10.6304  10.9707  11.2196  14.5447  14.5569
    15.3539  15.7740

          k = 0.0000 0.2883 0.0000 (  3516 PWs)   bands (ev):

   -34.6075  -2.5081   3.1746   5.7440   8.8045  12.2177  12.8989  18.1445
    21.5721  22.8838

          k = 0.0000 0.2883 0.1401 (  3524 PWs)   bands (ev):

   -34.6007  -2.3315   3.3481   5.9136   8.9454  12.3903  12.9980  16.9976
    20.6440  23.8934

          k = 0.0000 0.2883 0.2802 (  3531 PWs)   bands (ev):

   -34.5820  -1.8036   3.8662   6.4207   9.3419  12.9056  13.0959  14.6455
    20.0184  21.4586

          k = 0.0000 0.2883 0.4204 (  3528 PWs)   bands (ev):

   -34.5564  -0.9298   4.7206   7.2580   9.7555  11.5239  13.7520  14.0337
    18.1168  20.4689

          k = 0.0000 0.2883 0.5605 (  3542 PWs)   bands (ev):

   -34.5307   0.2784   5.8868   8.3118   8.4021  11.0945  13.7978  14.8741
    16.5566  17.4495

          k = 0.0000 0.2883 0.7006 (  3541 PWs)   bands (ev):

   -34.5118   1.7913   5.9326   7.4319   9.7546  10.7618  13.4262  14.8244
    16.0788  16.5090

          k = 0.0000 0.2883-0.8407 (  3544 PWs)   bands (ev):

   -34.5049   3.1677   4.2971   8.8495   9.4149  10.6534  13.6567  13.7912
    15.6799  17.3891

          k = 0.0000 0.4324 0.0000 (  3526 PWs)   bands (ev):

   -34.6069  -1.8322   1.5290   5.2506   8.7130  14.5430  15.3151  19.2960
    20.3604  22.3474

          k = 0.0000 0.4324 0.1401 (  3533 PWs)   bands (ev):

   -34.6001  -1.6530   1.7014   5.4211   8.8364  14.7122  15.2968  18.1723
    20.5121  21.4885

          k = 0.0000 0.4324 0.2802 (  3528 PWs)   bands (ev):

   -34.5815  -1.1171   2.2163   5.9310   9.1816  14.5591  15.2148  16.2825
    19.4615  20.8985

          k = 0.0000 0.4324 0.4204 (  3539 PWs)   bands (ev):

   -34.5559  -0.2299   3.0659   6.7738   9.6022  12.1880  15.1378  16.0198
    17.7963  19.7092

          k = 0.0000 0.4324 0.5605 (  3549 PWs)   bands (ev):

   -34.5303   0.9986   4.2319   7.9284   8.9329  10.5329  13.4629  16.4595
    17.3037  17.6345

          k = 0.0000 0.4324 0.7006 (  3552 PWs)   bands (ev):

   -34.5115   2.5458   5.6219   6.7752   9.3042   9.4072  13.0208  14.3568
    16.5866  18.6792

          k = 0.0000 0.4324-0.8407 (  3546 PWs)   bands (ev):

   -34.5046   4.0627   4.8390   7.0714   8.0334  10.2415  13.0929  13.2770
    16.0832  19.5394

          k = 0.0000-0.5766 0.0000 (  3532 PWs)   bands (ev):

   -34.6067  -1.3438   0.7133   5.0815   8.6740  17.0391  17.0542  17.4967
    18.4871  22.9941

          k = 0.0000-0.5766 0.1401 (  3540 PWs)   bands (ev):

   -34.5999  -1.1614   0.8829   5.2522   8.7913  16.7380  17.2180  17.6607
    18.3493  20.8284

          k = 0.0000-0.5766 0.2802 (  3530 PWs)   bands (ev):

   -34.5813  -0.6155   1.3892   5.7629   9.1206  15.1410  17.3082  17.6867
    18.1509  19.6417

          k = 0.0000-0.5766 0.4204 (  3548 PWs)   bands (ev):

   -34.5557   0.2896   2.2236   6.6072   9.5539  12.5197  15.0487  18.1905
    18.8312  18.9610

          k = 0.0000-0.5766 0.5605 (  3538 PWs)   bands (ev):

   -34.5301   1.5466   3.3668   7.7648   9.6451   9.8203  13.2120  16.5166
    17.9085  20.0708

          k = 0.0000-0.5766 0.7006 (  3546 PWs)   bands (ev):

   -34.5113   3.1444   4.7616   7.3149   8.5612   9.1474  12.8755  14.1855
    16.8297  21.3965

          k = 0.0000-0.5766-0.8407 (  3548 PWs)   bands (ev):

   -34.5044   4.9490   5.2029   5.8752   7.3768  10.0965  12.9024  13.1002
    16.2724  22.3123

          k = 0.1248 0.2162 0.0000 (  3528 PWs)   bands (ev):

   -34.6077  -2.6537   3.7331   5.7260   9.4283  10.7415  12.7251  17.7277
    21.4173  22.9524

          k = 0.1248 0.2162 0.1401 (  3524 PWs)   bands (ev):

   -34.6009  -2.4776   3.9082   5.8890   9.5951  10.8710  12.8744  16.6455
    20.4189  23.8271

          k = 0.1248 0.2162 0.2802 (  3543 PWs)   bands (ev):

   -34.5821  -1.9511   4.4316   6.3740  10.0855  11.1876  13.3024  14.2095
    19.9030  21.6380

          k = 0.1248 0.2162 0.4204 (  3533 PWs)   bands (ev):

   -34.5565  -1.0798   5.2965   7.1602  10.6456  10.8527  12.6612  13.9074
    18.9043  19.1628

          k = 0.1248 0.2162 0.5605 (  3539 PWs)   bands (ev):

   -34.5308   0.1248   6.4888   7.8525   8.6743  11.6599  13.2677  14.2652
    17.0760  17.1890

          k = 0.1248 0.2162 0.7006 (  3538 PWs)   bands (ev):

   -34.5119   1.6314   5.8125   7.9790   9.6091  11.3314  14.1546  14.5868
    14.9190  17.0458

          k = 0.1248 0.2162-0.8407 (  3558 PWs)   bands (ev):

   -34.5050   2.9841   4.1786   9.5688   9.8303  10.3762  13.8098  14.6230
    15.7149  16.2148

          k = 0.1248 0.3604 0.0000 (  3508 PWs)   bands (ev):

   -34.6071  -2.0766   2.1087   5.0214   9.6434  12.2829  15.3226  18.8072
    21.3340  22.0298

          k = 0.1248 0.3604 0.1401 (  3518 PWs)   bands (ev):

   -34.6003  -1.8987   2.2850   5.1804   9.7885  12.4009  15.4141  17.7017
    20.8276  21.5580

          k = 0.1248 0.3604 0.2802 (  3537 PWs)   bands (ev):

   -34.5816  -1.3667   2.8121   5.6535  10.1972  12.6493  15.0605  15.7666
    20.1536  21.0116

          k = 0.1248 0.3604 0.4204 (  3538 PWs)   bands (ev):

   -34.5561  -0.4861   3.6834   6.4215  10.6065  11.8367  13.9503  15.3950
    18.2785  19.2992

          k = 0.1248 0.3604 0.5605 (  3552 PWs)   bands (ev):

   -34.5304   0.7324   4.8849   7.3693   8.9880  11.4747  13.7394  14.9623
    16.3985  18.5766

          k = 0.1248 0.3604 0.7006 (  3550 PWs)   bands (ev):

   -34.5116   2.2630   6.1989   6.5734   8.7995  10.2389  13.7524  14.4285
    15.7847  18.2429

          k = 0.1248 0.3604-0.8407 (  3548 PWs)   bands (ev):

   -34.5046   3.7122   4.6519   7.9797   8.4387   9.5770  13.1526  14.4897
    16.2887  17.6054

          k = 0.1248 0.5045 0.0000 (  3529 PWs)   bands (ev):

   -34.6067  -1.3674   0.8234   4.6635   9.6022  14.5109  17.0507  18.1148
    20.3881  22.8577

          k = 0.1248 0.5045 0.1401 (  3534 PWs)   bands (ev):

   -34.5999  -1.1864   0.9977   4.8213   9.7317  14.6031  17.0091  18.0775
    19.3467  21.5842

          k = 0.1248 0.5045 0.2802 (  3532 PWs)   bands (ev):

   -34.5813  -0.6448   1.5182   5.2909  10.0952  14.5076  16.0902  17.3473
    18.3026  19.9469

          k = 0.1248 0.5045 0.4204 (  3540 PWs)   bands (ev):

   -34.5557   0.2525   2.3778   6.0559  10.5451  12.4964  15.0059  16.2695
    18.4395  18.8161

          k = 0.1248 0.5045 0.5605 (  3551 PWs)   bands (ev):

   -34.5301   1.4968   3.5610   7.0568   9.6794  10.7066  13.4501  16.0535
    16.9226  19.2647

          k = 0.1248 0.5045 0.7006 (  3550 PWs)   bands (ev):

   -34.5113   3.0716   5.0222   7.1738   8.1486   9.2909  13.3933  14.2421
    17.0575  19.4510

          k = 0.1248 0.5045-0.8407 (  3544 PWs)   bands (ev):

   -34.5044   4.7301   5.2141   6.4017   7.3553   9.2137  12.8073  14.2651
    16.7423  19.7414

          k = 0.2497 0.4324 0.0000 (  3518 PWs)   bands (ev):

   -34.6067  -1.3898   0.9423   4.3109  11.1234  12.4772  17.0535  18.1542
    21.7243  22.7581

          k = 0.2497 0.4324 0.1401 (  3532 PWs)   bands (ev):

   -34.5999  -1.2100   1.1219   4.4592  11.2794  12.5703  17.0276  18.0842
    19.4962  22.4095

          k = 0.2497 0.4324 0.2802 (  3529 PWs)   bands (ev):

   -34.5813  -0.6723   1.6590   4.8990  11.7196  12.7482  15.7974  17.2849
    18.2180  20.7365

          k = 0.2497 0.4324 0.4204 (  3542 PWs)   bands (ev):

   -34.5557   0.2183   2.5489   5.6105  12.0015  12.2302  14.3059  15.3620
    18.1866  18.8561

          k = 0.2497 0.4324 0.5605 (  3551 PWs)   bands (ev):

   -34.5301   1.4520   3.7826   6.5252   9.6840  11.4556  14.4050  14.7302
    16.0504  19.4457

          k = 0.2497 0.4324 0.7006 (  3557 PWs)   bands (ev):

   -34.5113   3.0093   5.3456   6.8865   7.9354   9.3395  13.5025  15.5600
    15.8987  19.6545

          k = 0.2497 0.4324-0.8407 (  3554 PWs)   bands (ev):

   -34.5044   4.5903   5.2254   7.1042   7.3337   8.2670  12.7238  15.7376
    17.3561  17.9469

          k = 0.2497 0.5766 0.0000 (  3532 PWs)   bands (ev):

   -34.6065  -0.7685   0.1396   4.0634  11.5190  13.7916  15.0218  20.6815
    20.8606  23.2577

          k = 0.2497 0.5766 0.1401 (  3528 PWs)   bands (ev):

   -34.5997  -0.5867   0.3189   4.2082  11.6555  13.9013  15.1195  19.5730
    19.7389  22.1554

          k = 0.2497 0.5766 0.2802 (  3548 PWs)   bands (ev):

   -34.5811  -0.0429   0.8554   4.6380  12.0204  14.0268  15.3696  17.0721
    17.3836  20.9679

          k = 0.2497 0.5766 0.4204 (  3551 PWs)   bands (ev):

   -34.5556   0.8586   1.7436   5.3336  12.2559  12.7705  14.8565  15.9363
    16.2046  18.3060

          k = 0.2497 0.5766 0.5605 (  3545 PWs)   bands (ev):

   -34.5300   2.1103   2.9738   6.2402  10.2916  10.8868  14.3491  15.5296
    16.9777  17.0663

          k = 0.2497 0.5766 0.7006 (  3549 PWs)   bands (ev):

   -34.5112   3.7004   4.5259   7.1612   7.8373   8.6887  13.3163  15.6765
    17.4273  18.4714

          k = 0.2497 0.5766-0.8407 (  3544 PWs)   bands (ev):

   -34.5043   5.4985   5.7412   6.1381   6.6170   7.8540  12.5718  16.0717
    18.0812  19.3254

     the Fermi energy is    11.6217 ev

!    total energy              =     -31.24038695 Ry
     estimated scf accuracy    <          1.1E-09 Ry
     smearing contrib. (-TS)   =       0.00002791 Ry
     internal energy E=F+TS    =     -31.24041486 Ry

     The total energy is F=E-TS. E is the sum of the following terms:
     one-electron contribution =       4.31713286 Ry
     hartree contribution      =       2.92064806 Ry
     xc contribution           =     -10.12025399 Ry
     ewald contribution        =     -28.35794179 Ry

     convergence has been achieved in   5 iterations

     Forces acting on atoms (cartesian axes, Ry/au):

     atom    1 type  1   force =    -0.00000000    0.00000000   -0.00000000
     atom    2 type  1   force =     0.00000000   -0.00000000    0.00000000
     atom    3 type  2   force =     0.00000000    0.00000000    0.00000000
     The non-local contrib.  to forces
     atom    1 type  1   force =     0.00000000    0.00000000    0.00000000
     atom    2 type  1   force =     0.00000000    0.00000000    0.00000000
     atom    3 type  2   force =     0.00000000    0.00000000    0.00000000
     The ionic contribution  to forces
     atom    1 type  1   force =     0.00000010   -0.00000006    0.00000000
     atom    2 type  1   force =    -0.00000010    0.00000006    0.00000000
     atom    3 type  2   force =    -0.00000000   -0.00000000    0.00000000
     The local contribution  to forces
     atom    1 type  1   force =    -0.00000001    0.00000000    0.00000000
     atom    2 type  1   force =     0.00000001   -0.00000000    0.00000000
     atom    3 type  2   force =    -0.00000000    0.00000000   -0.00000000
     The core correction contribution to forces
     atom    1 type  1   force =    -0.00000000    0.00000000    0.00000000
     atom    2 type  1   force =     0.00000000   -0.00000000   -0.00000000
     atom    3 type  2   force =     0.00000000    0.00000000    0.00000000
     The Hubbard contrib.    to forces
     atom    1 type  1   force =     0.00000000    0.00000000    0.00000000
     atom    2 type  1   force =     0.00000000    0.00000000    0.00000000
     atom    3 type  2   force =     0.00000000    0.00000000    0.00000000
     The SCF correction term to forces
     atom    1 type  1   force =    -0.00000000    0.00000000    0.00000000
     atom    2 type  1   force =     0.00000000   -0.00000000    0.00000000
     atom    3 type  2   force =    -0.00000000   -0.00000000   -0.00000000

     Total force =     0.000000     Total SCF correction =     0.000000


     Computing stress (Cartesian axis) and pressure

          total   stress  (Ry/bohr**3)                   (kbar)     P=      494.71
   0.00335424   0.00000000  -0.00000000          493.43        0.00       -0.00
   0.00000000   0.00335424  -0.00000000            0.00      493.43       -0.00
   0.00000000   0.00000000   0.00338039            0.00        0.00      497.27

     Energy error            =      8.8E-05 Ry
     Gradient error          =      1.6E-24 Ry/Bohr
     Cell gradient error     =      6.6E+00 kbar

     number of scf cycles    =   2
     number of bfgs steps    =   1

     enthalpy           old  =     -30.5228729045 Ry
     enthalpy           new  =     -30.5229606789 Ry

     CASE: enthalpy          _new < enthalpy          _old

     new trust radius        =       0.0025463752 bohr
ibrav =      4
 celldm(1) =      7.42461525
 celldm(3) =      0.59435543
Input lattice vectors:
     1.00046247     0.00000000     0.00000000
    -0.50023123     0.86642591    -0.00000000
    -0.00000000    -0.00000000     0.59463030
New lattice vectors in INITIAL alat:
     1.00046247     0.00000000     0.00000000
    -0.50023123     0.86642591     0.00000000
     0.00000000     0.00000000     0.59463030
New lattice vectors in NEW alat (for information only):
     1.00000000     0.00000000     0.00000000
    -0.50000000     0.86602540     0.00000000
     0.00000000     0.00000000     0.59435543
Discrepancy in bohr =     0.000000    0.000000    0.000000
     new conv_thr            =            1.0E-10 Ry

     new unit-cell volume =    210.66808 a.u.^3 (    31.21779 Ang^3 )
     density =      3.35706 g/cm^3

CELL_PARAMETERS (alat=  7.42118320)
   1.000462467   0.000000000   0.000000000
  -0.500231233   0.866425912   0.000000000
   0.000000000   0.000000000   0.594630304

ATOMIC_POSITIONS (crystal)
Si            0.3333333300        0.6666666700       -0.0000000000
Si            0.6666666700        0.3333333300        0.0000000000
Li            0.0000000000        0.0000000000        0.5000000000



     Writing config-only to output data dir ./output/SiLi.save/
     NEW-OLD atomic charge density approx. for the potential
     extrapolated charge   10.97881, renormalised to   11.00000

     total cpu time spent up to now is       11.2 secs

     Self-consistent Calculation

     iteration #  1     ecut=   100.00 Ry     beta= 0.70
     Davidson diagonalization with overlap
     ethr =  1.00E-06,  avg # of iterations =  2.0

     Threshold (ethr) on eigenvalues was too large:
     Diagonalizing with lowered threshold

     Davidson diagonalization with overlap
     ethr =  6.29E-09,  avg # of iterations =  3.4

     total cpu time spent up to now is       12.4 secs

     total energy              =     -31.23901438 Ry
     estimated scf accuracy    <       0.00000069 Ry

     iteration #  2     ecut=   100.00 Ry     beta= 0.70
     Davidson diagonalization with overlap
     ethr =  6.30E-09,  avg # of iterations =  2.8

     total cpu time spent up to now is       13.0 secs

     total energy              =     -31.23901661 Ry
     estimated scf accuracy    <       0.00000044 Ry

     iteration #  3     ecut=   100.00 Ry     beta= 0.70
     Davidson diagonalization with overlap
     ethr =  3.98E-09,  avg # of iterations =  1.0

     total cpu time spent up to now is       13.5 secs

     total energy              =     -31.23901658 Ry
     estimated scf accuracy    <       0.00000010 Ry

     iteration #  4     ecut=   100.00 Ry     beta= 0.70
     Davidson diagonalization with overlap
     ethr =  9.06E-10,  avg # of iterations =  1.9

     total cpu time spent up to now is       14.0 secs

     total energy              =     -31.23901658 Ry
     estimated scf accuracy    <       0.00000001 Ry

     iteration #  5     ecut=   100.00 Ry     beta= 0.70
     Davidson diagonalization with overlap
     ethr =  1.10E-10,  avg # of iterations =  2.0

     total cpu time spent up to now is       14.5 secs

     End of self-consistent calculation

          k = 0.0000 0.0000 0.0000 (  3511 PWs)   bands (ev):

   -34.5831  -3.0936   7.0142   7.0142   7.9332   9.5216   9.5216  16.4387
    20.9638  23.3139

          k = 0.0000 0.0000 0.1401 (  3536 PWs)   bands (ev):

   -34.5762  -2.9189   7.1788   7.1788   8.0996   9.7009   9.7009  15.5099
    19.8250  25.3098

          k = 0.0000 0.0000 0.2803 (  3554 PWs)   bands (ev):

   -34.5574  -2.3965   7.6701   7.6701   8.5897  10.2379  10.2379  13.1641
    19.0740  25.1018

          k = 0.0000 0.0000 0.4204 (  3554 PWs)   bands (ev):

   -34.5316  -1.5320   8.4778   8.4778   9.3717  10.4338  11.1290  11.1290
    18.6914  21.4798

          k = 0.0000 0.0000 0.5606 (  3536 PWs)   bands (ev):

   -34.5058  -0.3375   7.7932   9.5694   9.5694  10.3685  12.3636  12.3636
    18.3982  18.6871

          k = 0.0000 0.0000 0.7007 (  3536 PWs)   bands (ev):

   -34.4868   1.1509   5.4099  10.8178  10.8178  11.3772  13.8929  13.8929
    16.4081  16.4081

          k = 0.0000 0.0000-0.8409 (  3578 PWs)   bands (ev):

   -34.4798   2.4384   3.8206  11.5747  11.5747  11.8742  15.1171  15.1171
    15.3063  15.3063

          k = 0.0000 0.1443 0.0000 (  3529 PWs)   bands (ev):

   -34.5829  -2.9416   5.2078   6.5016   8.8294  10.4033  10.5531  16.9025
    21.1219  23.2600

          k = 0.0000 0.1443 0.1401 (  3533 PWs)   bands (ev):

   -34.5760  -2.7664   5.3793   6.6691   8.9908  10.5793  10.7053  15.9272
    20.0254  25.1095

          k = 0.0000 0.1443 0.2803 (  3531 PWs)   bands (ev):

   -34.5572  -2.2426   5.8910   7.1696   9.4610  11.1059  11.1267  13.5639
    19.3643  22.9181

          k = 0.0000 0.1443 0.4204 (  3538 PWs)   bands (ev):

   -34.5314  -1.3758   6.7330   7.9941  10.0238  10.7456  11.9771  12.1358
    18.9531  20.0796

          k = 0.0000 0.1443 0.5606 (  3528 PWs)   bands (ev):

   -34.5056  -0.1779   7.7850   8.0238   9.1146  11.2314  12.9640  13.1737
    17.3929  18.1733

          k = 0.0000 0.1443 0.7007 (  3539 PWs)   bands (ev):

   -34.4866   1.3167   5.5502   9.3086  10.4174  11.7381  13.8726  14.5847
    15.8852  15.8929

          k = 0.0000 0.1443-0.8409 (  3560 PWs)   bands (ev):

   -34.4797   2.6252   3.9457  10.6538  11.0024  11.2425  14.5674  14.5830
    15.3811  15.8003

          k = 0.0000 0.2885 0.0000 (  3516 PWs)   bands (ev):

   -34.5823  -2.4954   3.1966   5.7640   8.8337  12.2465  12.9362  18.1777
    21.5908  22.9251

          k = 0.0000 0.2885 0.1401 (  3524 PWs)   bands (ev):

   -34.5754  -2.3188   3.3701   5.9337   8.9745  12.4192  13.0349  17.0215
    20.6812  23.9355

          k = 0.0000 0.2885 0.2803 (  3531 PWs)   bands (ev):

   -34.5567  -1.7908   3.8882   6.4409   9.3705  12.9346  13.1282  14.6680
    20.0560  21.4945

          k = 0.0000 0.2885 0.4204 (  3528 PWs)   bands (ev):

   -34.5310  -0.9170   4.7427   7.2784   9.7799  11.5456  13.7811  14.0665
    18.1466  20.5114

          k = 0.0000 0.2885 0.5606 (  3542 PWs)   bands (ev):

   -34.5052   0.2914   5.9088   8.3270   8.4228  11.1231  13.8258  14.9031
    16.5890  17.4721

          k = 0.0000 0.2885 0.7007 (  3541 PWs)   bands (ev):

   -34.4863   1.8043   5.9466   7.4546   9.7757  10.7873  13.4537  14.8462
    16.1093  16.5381

          k = 0.0000 0.2885-0.8409 (  3544 PWs)   bands (ev):

   -34.4794   3.1801   4.3116   8.8706   9.4408  10.6750  13.6776  13.8184
    15.7097  17.4183

          k = 0.0000 0.4328 0.0000 (  3526 PWs)   bands (ev):

   -34.5817  -1.8185   1.5482   5.2697   8.7417  14.5757  15.3560  19.3315
    20.4037  22.3989

          k = 0.0000 0.4328 0.1401 (  3533 PWs)   bands (ev):

   -34.5748  -1.6392   1.7206   5.4403   8.8650  14.7449  15.3359  18.1989
    20.5553  21.5250

          k = 0.0000 0.4328 0.2803 (  3528 PWs)   bands (ev):

   -34.5561  -1.1032   2.2355   5.9503   9.2094  14.5852  15.2475  16.3136
    19.4912  20.9403

          k = 0.0000 0.4328 0.4204 (  3539 PWs)   bands (ev):

   -34.5305  -0.2158   3.0851   6.7933   9.6277  12.2083  15.1654  16.0524
    17.8317  19.7331

          k = 0.0000 0.4328 0.5606 (  3549 PWs)   bands (ev):

   -34.5048   1.0129   4.2510   7.9481   8.9500  10.5571  13.4893  16.4839
    17.3372  17.6647

          k = 0.0000 0.4328 0.7007 (  3552 PWs)   bands (ev):

   -34.4860   2.5603   5.6400   6.7919   9.3244   9.4285  13.0491  14.3773
    16.6177  18.7124

          k = 0.0000 0.4328-0.8409 (  3546 PWs)   bands (ev):

   -34.4790   4.0771   4.8544   7.0895   8.0557  10.2622  13.1128  13.3044
    16.1148  19.5721

          k = 0.0000-0.5771 0.0000 (  3532 PWs)   bands (ev):

   -34.5814  -1.3293   0.7311   5.1003   8.7026  17.0817  17.0869  17.5393
    18.5273  23.0171

          k = 0.0000-0.5771 0.1401 (  3540 PWs)   bands (ev):

   -34.5746  -1.1467   0.9007   5.2711   8.8197  16.7751  17.2507  17.7033
    18.3872  20.8618

          k = 0.0000-0.5771 0.2803 (  3530 PWs)   bands (ev):

   -34.5559  -0.6007   1.4069   5.7819   9.1483  15.1652  17.3358  17.7191
    18.1937  19.6761

          k = 0.0000-0.5771 0.4204 (  3548 PWs)   bands (ev):

   -34.5303   0.3047   2.2412   6.6264   9.5798  12.5394  15.0730  18.2200
    18.8654  19.0039

          k = 0.0000-0.5771 0.5606 (  3538 PWs)   bands (ev):

   -34.5047   1.5621   3.3841   7.7843   9.6669   9.8384  13.2388  16.5379
    17.9400  20.1140

          k = 0.0000-0.5771 0.7007 (  3546 PWs)   bands (ev):

   -34.4858   3.1604   4.7784   7.3322   8.5804   9.1673  12.9039  14.2057
    16.8611  21.4400

          k = 0.0000-0.5771-0.8409 (  3548 PWs)   bands (ev):

   -34.4789   4.9663   5.2188   5.8900   7.3976  10.1170  12.9219  13.1277
    16.3047  22.3562

          k = 0.1249 0.2164 0.0000 (  3528 PWs)   bands (ev):

   -34.5824  -2.6412   3.7562   5.7460   9.4603  10.7685  12.7597  17.7605
    21.4356  22.9927

          k = 0.1249 0.2164 0.1401 (  3524 PWs)   bands (ev):

   -34.5756  -2.4651   3.9314   5.9090   9.6271  10.8978  12.9088  16.6692
    20.4550  23.8725

          k = 0.1249 0.2164 0.2803 (  3543 PWs)   bands (ev):

   -34.5568  -1.9386   4.4550   6.3941  10.1177  11.2133  13.3362  14.2282
    19.9442  21.6697

          k = 0.1249 0.2164 0.4204 (  3533 PWs)   bands (ev):

   -34.5311  -1.0672   5.3200   7.1802  10.6627  10.8850  12.6869  13.9392
    18.9360  19.1944

          k = 0.1249 0.2164 0.5606 (  3539 PWs)   bands (ev):

   -34.5053   0.1375   6.5126   7.8683   8.6932  11.6916  13.2950  14.2926
    17.0989  17.2232

          k = 0.1249 0.2164 0.7007 (  3538 PWs)   bands (ev):

   -34.4864   1.6441   5.8263   8.0031   9.6298  11.3588  14.1814  14.6158
    14.9409  17.0767

          k = 0.1249 0.2164-0.8409 (  3558 PWs)   bands (ev):

   -34.4795   2.9962   4.1930   9.5917   9.8575  10.3969  13.8314  14.6496
    15.7440  16.2457

          k = 0.1249 0.3607 0.0000 (  3508 PWs)   bands (ev):

   -34.5818  -2.0632   2.1291   5.0402   9.6740  12.3140  15.3613  18.8419
    21.3804  22.0496

          k = 0.1249 0.3607 0.1401 (  3518 PWs)   bands (ev):

   -34.5750  -1.8853   2.3054   5.1993   9.8189  12.4319  15.4519  17.7266
    20.8666  21.6027

          k = 0.1249 0.3607 0.2803 (  3537 PWs)   bands (ev):

   -34.5563  -1.3532   2.8326   5.6723  10.2271  12.6788  15.0834  15.8004
    20.1852  21.0530

          k = 0.1249 0.3607 0.4204 (  3538 PWs)   bands (ev):

   -34.5307  -0.4725   3.7041   6.4401  10.6316  11.8603  13.9798  15.4234
    18.3108  19.3276

          k = 0.1249 0.3607 0.5606 (  3552 PWs)   bands (ev):

   -34.5049   0.7462   4.9058   7.3871   9.0051  11.5022  13.7664  14.9924
    16.4205  18.6132

          k = 0.1249 0.3607 0.7007 (  3550 PWs)   bands (ev):

   -34.4861   2.2769   6.2155   6.5928   8.8188  10.2622  13.7776  14.4529
    15.8158  18.2752

          k = 0.1249 0.3607-0.8409 (  3548 PWs)   bands (ev):

   -34.4791   3.7257   4.6670   8.0001   8.4618   9.5964  13.1732  14.5176
    16.3198  17.6393

          k = 0.1249 0.5049 0.0000 (  3529 PWs)   bands (ev):

   -34.5814  -1.3529   0.8415   4.6817   9.6322  14.5468  17.0879  18.1566
    20.4272  22.8798

          k = 0.1249 0.5049 0.1401 (  3534 PWs)   bands (ev):

   -34.5746  -1.1718   1.0158   4.8396   9.7616  14.6387  17.0437  18.1172
    19.3760  21.6233

          k = 0.1249 0.5049 0.2803 (  3532 PWs)   bands (ev):

   -34.5559  -0.6300   1.5364   5.3091  10.1244  14.5374  16.1178  17.3757
    18.3408  19.9835

          k = 0.1249 0.5049 0.4204 (  3540 PWs)   bands (ev):

   -34.5303   0.2675   2.3960   6.0740  10.5721  12.5170  15.0313  16.3025
    18.4662  18.8532

          k = 0.1249 0.5049 0.5606 (  3551 PWs)   bands (ev):

   -34.5047   1.5121   3.5792   7.0746   9.6976  10.7295  13.4776  16.0756
    16.9553  19.3037

          k = 0.1249 0.5049 0.7007 (  3550 PWs)   bands (ev):

   -34.4858   3.0872   5.0401   7.1905   8.1666   9.3119  13.4174  14.2676
    17.0892  19.4885

          k = 0.1249 0.5049-0.8409 (  3544 PWs)   bands (ev):

   -34.4789   4.7460   5.2300   6.4187   7.3760   9.2329  12.8273  14.2935
    16.7748  19.7783

          k = 0.2499 0.4328 0.0000 (  3518 PWs)   bands (ev):

   -34.5814  -1.3753   0.9609   4.3286  11.1572  12.5085  17.0910  18.1954
    21.7581  22.7796

          k = 0.2499 0.4328 0.1401 (  3532 PWs)   bands (ev):

   -34.5746  -1.1955   1.1405   4.4768  11.3132  12.6013  17.0628  18.1228
    19.5227  22.4459

          k = 0.2499 0.4328 0.2803 (  3529 PWs)   bands (ev):

   -34.5559  -0.6576   1.6778   4.9164  11.7532  12.7773  15.8208  17.3138
    18.2557  20.7796

          k = 0.2499 0.4328 0.4204 (  3542 PWs)   bands (ev):

   -34.5303   0.2331   2.5678   5.6275  12.0222  12.2618  14.3339  15.3878
    18.2126  18.8910

          k = 0.2499 0.4328 0.5606 (  3551 PWs)   bands (ev):

   -34.5047   1.4672   3.8019   6.5415   9.7020  11.4793  14.4309  14.7628
    16.0745  19.4855

          k = 0.2499 0.4328 0.7007 (  3557 PWs)   bands (ev):

   -34.4858   3.0247   5.3653   6.9015   7.9531   9.3607  13.5225  15.5890
    15.9332  19.6898

          k = 0.2499 0.4328-0.8409 (  3554 PWs)   bands (ev):

   -34.4789   4.6057   5.2414   7.1245   7.3541   8.2830  12.7443  15.7659
    17.3891  17.9844

          k = 0.2499 0.5771 0.0000 (  3532 PWs)   bands (ev):

   -34.5812  -0.7529   0.1567   4.0807  11.5525  13.8296  15.0534  20.7178
    20.9033  23.3051

          k = 0.2499 0.5771 0.1401 (  3528 PWs)   bands (ev):

   -34.5744  -0.5711   0.3361   4.2255  11.6888  13.9389  15.1509  19.6004
    19.7678  22.2082

          k = 0.2499 0.5771 0.2803 (  3548 PWs)   bands (ev):

   -34.5558  -0.0271   0.8727   4.6549  12.0529  14.0606  15.4003  17.0988
    17.4081  20.9895

          k = 0.2499 0.5771 0.4204 (  3551 PWs)   bands (ev):

   -34.5302   0.8747   1.7611   5.3502  12.2843  12.7928  14.8823  15.9663
    16.2417  18.3280

          k = 0.2499 0.5771 0.5606 (  3545 PWs)   bands (ev):

   -34.5046   2.1267   2.9916   6.2561  10.3108  10.9081  14.3754  15.5564
    17.0082  17.1058

          k = 0.2499 0.5771 0.7007 (  3549 PWs)   bands (ev):

   -34.4857   3.7174   4.5439   7.1761   7.8555   8.7085  13.3361  15.7076
    17.4606  18.5113

          k = 0.2499 0.5771-0.8409 (  3544 PWs)   bands (ev):

   -34.4788   5.5165   5.7581   6.1557   6.6358   7.8693  12.5922  16.1007
    18.1157  19.3642

     the Fermi energy is    11.6500 ev

!    total energy              =     -31.23901658 Ry
     estimated scf accuracy    <          1.8E-11 Ry
     smearing contrib. (-TS)   =       0.00003460 Ry
     internal energy E=F+TS    =     -31.23905117 Ry

     The total energy is F=E-TS. E is the sum of the following terms:
     one-electron contribution =       4.34168959 Ry
     hartree contribution      =       2.91892250 Ry
     xc contribution           =     -10.12354380 Ry
     ewald contribution        =     -28.37611946 Ry

     convergence has been achieved in   5 iterations

     Forces acting on atoms (cartesian axes, Ry/au):

     atom    1 type  1   force =    -0.00000000   -0.00000000    0.00000000
     atom    2 type  1   force =     0.00000000    0.00000000   -0.00000000
     atom    3 type  2   force =    -0.00000000   -0.00000000    0.00000000
     The non-local contrib.  to forces
     atom    1 type  1   force =     0.00000000    0.00000000    0.00000000
     atom    2 type  1   force =     0.00000000    0.00000000    0.00000000
     atom    3 type  2   force =     0.00000000    0.00000000    0.00000000
     The ionic contribution  to forces
     atom    1 type  1   force =     0.00000010   -0.00000006   -0.00000000
     atom    2 type  1   force =    -0.00000010    0.00000006   -0.00000000
     atom    3 type  2   force =    -0.00000000   -0.00000000    0.00000000
     The local contribution  to forces
     atom    1 type  1   force =    -0.00000001    0.00000000    0.00000000
     atom    2 type  1   force =     0.00000001   -0.00000000    0.00000000
     atom    3 type  2   force =    -0.00000000    0.00000000   -0.00000000
     The core correction contribution to forces
     atom    1 type  1   force =    -0.00000000    0.00000000   -0.00000000
     atom    2 type  1   force =     0.00000000   -0.00000000    0.00000000
     atom    3 type  2   force =     0.00000000    0.00000000    0.00000000
     The Hubbard contrib.    to forces
     atom    1 type  1   force =     0.00000000    0.00000000    0.00000000
     atom    2 type  1   force =     0.00000000    0.00000000    0.00000000
     atom    3 type  2   force =     0.00000000    0.00000000    0.00000000
     The SCF correction term to forces
     atom    1 type  1   force =     0.00000000   -0.00000000   -0.00000000
     atom    2 type  1   force =    -0.00000000    0.00000000   -0.00000000
     atom    3 type  2   force =    -0.00000000    0.00000000   -0.00000000

     Total force =     0.000000     Total SCF correction =     0.000000


     Computing stress (Cartesian axis) and pressure

          total   stress  (Ry/bohr**3)                   (kbar)     P=      499.57
   0.00339294   0.00000000  -0.00000000          499.12        0.00       -0.00
   0.00000000   0.00339294   0.00000000            0.00      499.12        0.00
  -0.00000000   0.00000000   0.00340215           -0.00        0.00      500.47

     Energy error            =      9.7E-06 Ry
     Gradient error          =      3.2E-24 Ry/Bohr
     Cell gradient error     =      8.8E-01 kbar
ibrav =      4
 celldm(1) =      7.42461525
 celldm(3) =      0.59435543
Input lattice vectors:
     1.00046247     0.00000000     0.00000000
    -0.50023123     0.86642591     0.00000000
     0.00000000     0.00000000     0.59463030
New lattice vectors in INITIAL alat:
     1.00046247     0.00000000     0.00000000
    -0.50023123     0.86642591     0.00000000
     0.00000000     0.00000000     0.59463030
New lattice vectors in NEW alat (for information only):
     1.00000000     0.00000000     0.00000000
    -0.50000000     0.86602540     0.00000000
     0.00000000     0.00000000     0.59435543
Discrepancy in bohr =     0.000000    0.000000    0.000000

     bfgs converged in   3 scf cycles and   2 bfgs steps
     (criteria: energy <  1.0E-04 Ry, force <  1.0E-03 Ry/Bohr, cell <  1.0E+00 kbar)

     End of BFGS Geometry Optimization

     Final enthalpy           =     -30.5229703384 Ry

     File ./output/SiLi.bfgs deleted, as requested
Begin final coordinates
     new unit-cell volume =    210.66808 a.u.^3 (    31.21779 Ang^3 )
     density =      3.35706 g/cm^3

CELL_PARAMETERS (alat=  7.42118320)
   1.000462467   0.000000000   0.000000000
  -0.500231233   0.866425912   0.000000000
   0.000000000   0.000000000   0.594630304

ATOMIC_POSITIONS (crystal)
Si            0.3333333300        0.6666666700       -0.0000000000
Si            0.6666666700        0.3333333300        0.0000000000
Li            0.0000000000        0.0000000000        0.5000000000
End final coordinates



     Writing config-only to output data dir ./output/SiLi.save/

     Final scf calculation at the relaxed structure.
     The G-vectors are recalculated for the final unit cell
     Results may differ from those at the preceding step.

     Parallelization info
     --------------------
     sticks:   dense  smooth     PW     G-vecs:    dense   smooth      PW
     Min         189     189     55                 3554     3554     566
     Max         191     191     57                 3555     3555     567
     Sum        1519    1519    451                28439    28439    4533

     Using Slab Decomposition



     bravais-lattice index     =            4
     lattice parameter (alat)  =       7.4212  a.u.
     unit-cell volume          =     210.6681 (a.u.)^3
     number of atoms/cell      =            3
     number of atomic types    =            2
     number of electrons       =        11.00
     number of Kohn-Sham states=           10
     kinetic-energy cutoff     =     100.0000  Ry
     charge density cutoff     =     400.0000  Ry
     scf convergence threshold =      1.0E-10
     mixing beta               =       0.7000
     number of iterations used =            8  plain     mixing
     press convergence thresh. =      1.0E+00
     Exchange-correlation= PBE
                           (   1   4   3   4   0   0   0)

     celldm(1)=   7.421183  celldm(2)=   0.000000  celldm(3)=   0.591909
     celldm(4)=   0.000000  celldm(5)=   0.000000  celldm(6)=   0.000000

     crystal axes: (cart. coord. in units of alat)
               a(1) = (   1.000462   0.000000   0.000000 )  
               a(2) = (  -0.500231   0.866426   0.000000 )  
               a(3) = (   0.000000   0.000000   0.594630 )  

     reciprocal axes: (cart. coord. in units 2 pi/alat)
               b(1) = (  0.999538  0.577083 -0.000000 )  
               b(2) = (  0.000000  1.154167  0.000000 )  
               b(3) = (  0.000000 -0.000000  1.681717 )  


     PseudoPot. # 1 for Si read from file:
     ../pseudo/Si_ONCV_PBE_sr.upf
     MD5 check sum: e543d271109d17c80368dfa7c482276d
     Pseudo is Norm-conserving + core correction, Zval =  4.0
     Generated using ONCVPSP code by D. R. Hamann
     Using radial grid of 1510 points,  6 beta functions with: 
                l(1) =   0
                l(2) =   0
                l(3) =   1
                l(4) =   1
                l(5) =   2
                l(6) =   2

     PseudoPot. # 2 for Li read from file:
     ../pseudo/Li_ONCV_PBE_sr.upf
     MD5 check sum: 50ff420e78310ffa21704f3361e624a4
     Pseudo is Norm-conserving, Zval =  3.0
     Generated using ONCVPSP code by D. R. Hamann
     Using radial grid of 1944 points,  4 beta functions with: 
                l(1) =   0
                l(2) =   0
                l(3) =   1
                l(4) =   1

     atomic species   valence    mass     pseudopotential
        Si             4.00    28.08550     Si( 1.00)
        Li             3.00     6.94100     Li( 1.00)

     24 Sym. Ops., with inversion, found



   Cartesian axes

     site n.     atom                  positions (alat units)
         1           Si  tau(   1) = (  -0.0000000   0.5776173  -0.0000000  )
         2           Si  tau(   2) = (   0.5002312   0.2888086   0.0000000  )
         3           Li  tau(   3) = (   0.0000000   0.0000000   0.2973152  )

     number of k points=    70  Marzari-Vanderbilt smearing, width (Ry)=  0.0200
                       cart. coord. in units 2pi/alat
        k(    1) = (   0.0000000   0.0000000   0.0000000), wk =   0.0026042
        k(    2) = (   0.0000000   0.0000000   0.1401431), wk =   0.0052083
        k(    3) = (   0.0000000   0.0000000   0.2802862), wk =   0.0052083
        k(    4) = (   0.0000000   0.0000000   0.4204293), wk =   0.0052083
        k(    5) = (   0.0000000   0.0000000   0.5605724), wk =   0.0052083
        k(    6) = (   0.0000000   0.0000000   0.7007155), wk =   0.0052083
        k(    7) = (   0.0000000   0.0000000  -0.8408586), wk =   0.0026042
        k(    8) = (   0.0000000   0.1442708   0.0000000), wk =   0.0156250
        k(    9) = (   0.0000000   0.1442708   0.1401431), wk =   0.0312500
        k(   10) = (   0.0000000   0.1442708   0.2802862), wk =   0.0312500
        k(   11) = (   0.0000000   0.1442708   0.4204293), wk =   0.0312500
        k(   12) = (   0.0000000   0.1442708   0.5605724), wk =   0.0312500
        k(   13) = (   0.0000000   0.1442708   0.7007155), wk =   0.0312500
        k(   14) = (   0.0000000   0.1442708  -0.8408586), wk =   0.0156250
        k(   15) = (   0.0000000   0.2885417   0.0000000), wk =   0.0156250
        k(   16) = (   0.0000000   0.2885417   0.1401431), wk =   0.0312500
        k(   17) = (   0.0000000   0.2885417   0.2802862), wk =   0.0312500
        k(   18) = (   0.0000000   0.2885417   0.4204293), wk =   0.0312500
        k(   19) = (   0.0000000   0.2885417   0.5605724), wk =   0.0312500
        k(   20) = (   0.0000000   0.2885417   0.7007155), wk =   0.0312500
        k(   21) = (   0.0000000   0.2885417  -0.8408586), wk =   0.0156250
        k(   22) = (   0.0000000   0.4328125   0.0000000), wk =   0.0156250
        k(   23) = (   0.0000000   0.4328125   0.1401431), wk =   0.0312500
        k(   24) = (   0.0000000   0.4328125   0.2802862), wk =   0.0312500
        k(   25) = (   0.0000000   0.4328125   0.4204293), wk =   0.0312500
        k(   26) = (   0.0000000   0.4328125   0.5605724), wk =   0.0312500
        k(   27) = (   0.0000000   0.4328125   0.7007155), wk =   0.0312500
        k(   28) = (   0.0000000   0.4328125  -0.8408586), wk =   0.0156250
        k(   29) = (   0.0000000  -0.5770834   0.0000000), wk =   0.0078125
        k(   30) = (   0.0000000  -0.5770834   0.1401431), wk =   0.0156250
        k(   31) = (   0.0000000  -0.5770834   0.2802862), wk =   0.0156250
        k(   32) = (   0.0000000  -0.5770834   0.4204293), wk =   0.0156250
        k(   33) = (   0.0000000  -0.5770834   0.5605724), wk =   0.0156250
        k(   34) = (   0.0000000  -0.5770834   0.7007155), wk =   0.0156250
        k(   35) = (   0.0000000  -0.5770834  -0.8408586), wk =   0.0078125
        k(   36) = (   0.1249422   0.2164063   0.0000000), wk =   0.0156250
        k(   37) = (   0.1249422   0.2164063   0.1401431), wk =   0.0312500
        k(   38) = (   0.1249422   0.2164063   0.2802862), wk =   0.0312500
        k(   39) = (   0.1249422   0.2164063   0.4204293), wk =   0.0312500
        k(   40) = (   0.1249422   0.2164063   0.5605724), wk =   0.0312500
        k(   41) = (   0.1249422   0.2164063   0.7007155), wk =   0.0312500
        k(   42) = (   0.1249422   0.2164063  -0.8408586), wk =   0.0156250
        k(   43) = (   0.1249422   0.3606771   0.0000000), wk =   0.0312500
        k(   44) = (   0.1249422   0.3606771   0.1401431), wk =   0.0625000
        k(   45) = (   0.1249422   0.3606771   0.2802862), wk =   0.0625000
        k(   46) = (   0.1249422   0.3606771   0.4204293), wk =   0.0625000
        k(   47) = (   0.1249422   0.3606771   0.5605724), wk =   0.0625000
        k(   48) = (   0.1249422   0.3606771   0.7007155), wk =   0.0625000
        k(   49) = (   0.1249422   0.3606771  -0.8408586), wk =   0.0312500
        k(   50) = (   0.1249422   0.5049480   0.0000000), wk =   0.0312500
        k(   51) = (   0.1249422   0.5049480   0.1401431), wk =   0.0625000
        k(   52) = (   0.1249422   0.5049480   0.2802862), wk =   0.0625000
        k(   53) = (   0.1249422   0.5049480   0.4204293), wk =   0.0625000
        k(   54) = (   0.1249422   0.5049480   0.5605724), wk =   0.0625000
        k(   55) = (   0.1249422   0.5049480   0.7007155), wk =   0.0625000
        k(   56) = (   0.1249422   0.5049480  -0.8408586), wk =   0.0312500
        k(   57) = (   0.2498844   0.4328125   0.0000000), wk =   0.0156250
        k(   58) = (   0.2498844   0.4328125   0.1401431), wk =   0.0312500
        k(   59) = (   0.2498844   0.4328125   0.2802862), wk =   0.0312500
        k(   60) = (   0.2498844   0.4328125   0.4204293), wk =   0.0312500
        k(   61) = (   0.2498844   0.4328125   0.5605724), wk =   0.0312500
        k(   62) = (   0.2498844   0.4328125   0.7007155), wk =   0.0312500
        k(   63) = (   0.2498844   0.4328125  -0.8408586), wk =   0.0156250
        k(   64) = (   0.2498844   0.5770834   0.0000000), wk =   0.0156250
        k(   65) = (   0.2498844   0.5770834   0.1401431), wk =   0.0312500
        k(   66) = (   0.2498844   0.5770834   0.2802862), wk =   0.0312500
        k(   67) = (   0.2498844   0.5770834   0.4204293), wk =   0.0312500
        k(   68) = (   0.2498844   0.5770834   0.5605724), wk =   0.0312500
        k(   69) = (   0.2498844   0.5770834   0.7007155), wk =   0.0312500
        k(   70) = (   0.2498844   0.5770834  -0.8408586), wk =   0.0156250

     Dense  grid:    28439 G-vectors     FFT dimensions: (  48,  48,  30)

     Estimated max dynamical RAM per process >      20.52 MB

     Estimated total dynamical RAM >     164.17 MB

     Initial potential from superposition of free atoms

     starting charge      10.9942, renormalised to      11.0000
     Starting wfcs are   10 randomized atomic wfcs

     total cpu time spent up to now is       16.1 secs

     Self-consistent Calculation

     iteration #  1     ecut=   100.00 Ry     beta= 0.70
     Davidson diagonalization with overlap
     c_bands:  1 eigenvalues not converged
     c_bands:  1 eigenvalues not converged
     c_bands:  2 eigenvalues not converged
     c_bands:  1 eigenvalues not converged
     c_bands:  1 eigenvalues not converged
     c_bands:  1 eigenvalues not converged
     c_bands:  2 eigenvalues not converged
     c_bands:  1 eigenvalues not converged
     c_bands:  1 eigenvalues not converged
     c_bands:  1 eigenvalues not converged
     c_bands:  2 eigenvalues not converged
     c_bands:  1 eigenvalues not converged
     c_bands:  1 eigenvalues not converged
     c_bands:  1 eigenvalues not converged
     c_bands:  2 eigenvalues not converged
     c_bands:  1 eigenvalues not converged
     c_bands:  1 eigenvalues not converged
     c_bands:  1 eigenvalues not converged
     c_bands:  1 eigenvalues not converged
     c_bands:  1 eigenvalues not converged
     c_bands:  2 eigenvalues not converged
     c_bands:  1 eigenvalues not converged
     c_bands:  1 eigenvalues not converged
     c_bands:  1 eigenvalues not converged
     c_bands:  2 eigenvalues not converged
     c_bands:  2 eigenvalues not converged
     c_bands:  1 eigenvalues not converged
     ethr =  1.00E-06,  avg # of iterations = 18.7

     total cpu time spent up to now is       18.3 secs

     total energy              =     -31.23881236 Ry
     estimated scf accuracy    <       0.01257747 Ry

     iteration #  2     ecut=   100.00 Ry     beta= 0.70
     Davidson diagonalization with overlap
     ethr =  1.14E-04,  avg # of iterations =  1.1

     total cpu time spent up to now is       18.7 secs

     total energy              =     -31.23898999 Ry
     estimated scf accuracy    <       0.00089362 Ry

     iteration #  3     ecut=   100.00 Ry     beta= 0.70
     Davidson diagonalization with overlap
     ethr =  8.12E-06,  avg # of iterations =  1.2

     total cpu time spent up to now is       19.2 secs

     total energy              =     -31.23901433 Ry
     estimated scf accuracy    <       0.00001784 Ry

     iteration #  4     ecut=   100.00 Ry     beta= 0.70
     Davidson diagonalization with overlap
     ethr =  1.62E-07,  avg # of iterations =  2.3

     total cpu time spent up to now is       19.8 secs

     total energy              =     -31.23901670 Ry
     estimated scf accuracy    <       0.00000048 Ry

     iteration #  5     ecut=   100.00 Ry     beta= 0.70
     Davidson diagonalization with overlap
     ethr =  4.32E-09,  avg # of iterations =  2.4

     total cpu time spent up to now is       20.3 secs

     total energy              =     -31.23901681 Ry
     estimated scf accuracy    <          3.0E-09 Ry

     iteration #  6     ecut=   100.00 Ry     beta= 0.70
     Davidson diagonalization with overlap
     ethr =  2.69E-11,  avg # of iterations =  4.0

     total cpu time spent up to now is       21.0 secs

     total energy              =     -31.23901682 Ry
     estimated scf accuracy    <          4.3E-10 Ry

     iteration #  7     ecut=   100.00 Ry     beta= 0.70
     Davidson diagonalization with overlap
     ethr =  3.94E-12,  avg # of iterations =  1.3

     total cpu time spent up to now is       21.5 secs

     End of self-consistent calculation

          k = 0.0000 0.0000 0.0000 (  3537 PWs)   bands (ev):

   -34.5831  -3.0936   7.0141   7.0141   7.9332   9.5216   9.5216  16.4387
    20.9638  23.3139

          k = 0.0000 0.0000 0.1401 (  3542 PWs)   bands (ev):

   -34.5762  -2.9189   7.1788   7.1788   8.0996   9.7009   9.7009  15.5099
    19.8250  25.3098

          k = 0.0000 0.0000 0.2803 (  3560 PWs)   bands (ev):

   -34.5574  -2.3965   7.6701   7.6701   8.5897  10.2379  10.2379  13.1640
    19.0740  24.6115

          k = 0.0000 0.0000 0.4204 (  3554 PWs)   bands (ev):

   -34.5316  -1.5320   8.4778   8.4778   9.3717  10.4338  11.1290  11.1290
    18.6914  21.4798

          k = 0.0000 0.0000 0.5606 (  3584 PWs)   bands (ev):

   -34.5057  -0.3375   7.7932   9.5694   9.5694  10.3685  12.3636  12.3636
    18.3982  18.6871

          k = 0.0000 0.0000 0.7007 (  3554 PWs)   bands (ev):

   -34.4868   1.1509   5.4099  10.8177  10.8177  11.3772  13.8929  13.8929
    16.4081  16.4081

          k = 0.0000 0.0000-0.8409 (  3578 PWs)   bands (ev):

   -34.4798   2.4384   3.8206  11.5747  11.5747  11.8742  15.1171  15.1171
    15.3062  15.3062

          k = 0.0000 0.1443 0.0000 (  3555 PWs)   bands (ev):

   -34.5828  -2.9416   5.2078   6.5016   8.8294  10.4033  10.5531  16.9025
    21.1219  23.2600

          k = 0.0000 0.1443 0.1401 (  3555 PWs)   bands (ev):

   -34.5760  -2.7664   5.3793   6.6691   8.9908  10.5793  10.7053  15.9272
    20.0254  25.1098

          k = 0.0000 0.1443 0.2803 (  3550 PWs)   bands (ev):

   -34.5572  -2.2426   5.8909   7.1695   9.4610  11.1059  11.1267  13.5638
    19.3643  22.9181

          k = 0.0000 0.1443 0.4204 (  3556 PWs)   bands (ev):

   -34.5314  -1.3758   6.7330   7.9940  10.0238  10.7456  11.9771  12.1358
    18.9531  20.0796

          k = 0.0000 0.1443 0.5606 (  3547 PWs)   bands (ev):

   -34.5056  -0.1779   7.7850   8.0238   9.1146  11.2314  12.9640  13.1737
    17.3930  18.1733

          k = 0.0000 0.1443 0.7007 (  3564 PWs)   bands (ev):

   -34.4866   1.3167   5.5502   9.3086  10.4174  11.7381  13.8726  14.5847
    15.8852  15.8929

          k = 0.0000 0.1443-0.8409 (  3574 PWs)   bands (ev):

   -34.4797   2.6252   3.9457  10.6538  11.0024  11.2425  14.5674  14.5830
    15.3811  15.8003

          k = 0.0000 0.2885 0.0000 (  3534 PWs)   bands (ev):

   -34.5822  -2.4954   3.1966   5.7640   8.8337  12.2465  12.9362  18.1777
    21.5908  22.9251

          k = 0.0000 0.2885 0.1401 (  3549 PWs)   bands (ev):

   -34.5754  -2.3188   3.3701   5.9337   8.9745  12.4192  13.0349  17.0215
    20.6812  23.9358

          k = 0.0000 0.2885 0.2803 (  3550 PWs)   bands (ev):

   -34.5566  -1.7908   3.8882   6.4409   9.3705  12.9346  13.1282  14.6680
    20.0561  21.4945

          k = 0.0000 0.2885 0.4204 (  3555 PWs)   bands (ev):

   -34.5310  -0.9170   4.7427   7.2784   9.7799  11.5456  13.7811  14.0665
    18.1466  20.5118

          k = 0.0000 0.2885 0.5606 (  3562 PWs)   bands (ev):

   -34.5052   0.2914   5.9088   8.3270   8.4228  11.1231  13.8258  14.9031
    16.5890  17.4721

          k = 0.0000 0.2885 0.7007 (  3566 PWs)   bands (ev):

   -34.4863   1.8043   5.9466   7.4546   9.7757  10.7873  13.4537  14.8462
    16.1093  16.5381

          k = 0.0000 0.2885-0.8409 (  3564 PWs)   bands (ev):

   -34.4793   3.1801   4.3116   8.8706   9.4408  10.6750  13.6776  13.8184
    15.7097  17.4183

          k = 0.0000 0.4328 0.0000 (  3544 PWs)   bands (ev):

   -34.5816  -1.8185   1.5481   5.2697   8.7417  14.5757  15.3560  19.3315
    20.4037  22.3400

          k = 0.0000 0.4328 0.1401 (  3544 PWs)   bands (ev):

   -34.5748  -1.6392   1.7206   5.4403   8.8650  14.7449  15.3359  18.1989
    20.5553  21.5250

          k = 0.0000 0.4328 0.2803 (  3552 PWs)   bands (ev):

   -34.5561  -1.1032   2.2355   5.9503   9.2094  14.5852  15.2475  16.3136
    19.4912  20.9404

          k = 0.0000 0.4328 0.4204 (  3556 PWs)   bands (ev):

   -34.5305  -0.2158   3.0851   6.7933   9.6277  12.2083  15.1654  16.0524
    17.8317  19.7331

          k = 0.0000 0.4328 0.5606 (  3566 PWs)   bands (ev):

   -34.5048   1.0129   4.2510   7.9481   8.9500  10.5571  13.4893  16.4839
    17.3372  17.6647

          k = 0.0000 0.4328 0.7007 (  3572 PWs)   bands (ev):

   -34.4859   2.5603   5.6400   6.7919   9.3244   9.4285  13.0491  14.3773
    16.6177  18.7124

          k = 0.0000 0.4328-0.8409 (  3574 PWs)   bands (ev):

   -34.4790   4.0771   4.8544   7.0895   8.0557  10.2622  13.1128  13.3044
    16.1148  19.5721

          k = 0.0000-0.5771 0.0000 (  3552 PWs)   bands (ev):

   -34.5814  -1.3293   0.7311   5.1003   8.7026  17.0817  17.0869  17.5393
    18.5273  23.0171

          k = 0.0000-0.5771 0.1401 (  3556 PWs)   bands (ev):

   -34.5746  -1.1468   0.9007   5.2711   8.8197  16.7751  17.2507  17.7033
    18.3872  20.8618

          k = 0.0000-0.5771 0.2803 (  3562 PWs)   bands (ev):

   -34.5559  -0.6007   1.4069   5.7819   9.1483  15.1652  17.3358  17.7191
    18.1937  19.6761

          k = 0.0000-0.5771 0.4204 (  3556 PWs)   bands (ev):

   -34.5303   0.3047   2.2412   6.6264   9.5798  12.5394  15.0730  18.2200
    18.8654  19.0039

          k = 0.0000-0.5771 0.5606 (  3554 PWs)   bands (ev):

   -34.5047   1.5621   3.3841   7.7843   9.6669   9.8384  13.2388  16.5379
    17.9400  20.1140

          k = 0.0000-0.5771 0.7007 (  3566 PWs)   bands (ev):

   -34.4858   3.1604   4.7784   7.3321   8.5804   9.1673  12.9039  14.2057
    16.8611  21.4403

          k = 0.0000-0.5771-0.8409 (  3556 PWs)   bands (ev):

   -34.4789   4.9663   5.2188   5.8900   7.3976  10.1170  12.9219  13.1277
    16.3047  21.9378

          k = 0.1249 0.2164 0.0000 (  3546 PWs)   bands (ev):

   -34.5824  -2.6412   3.7562   5.7460   9.4603  10.7685  12.7597  17.7605
    21.4356  22.9927

          k = 0.1249 0.2164 0.1401 (  3539 PWs)   bands (ev):

   -34.5756  -2.4651   3.9314   5.9090   9.6271  10.8978  12.9088  16.6692
    20.4550  23.8725

          k = 0.1249 0.2164 0.2803 (  3557 PWs)   bands (ev):

   -34.5568  -1.9386   4.4549   6.3941  10.1177  11.2133  13.3362  14.2282
    19.9442  21.6697

          k = 0.1249 0.2164 0.4204 (  3557 PWs)   bands (ev):

   -34.5311  -1.0672   5.3200   7.1802  10.6627  10.8850  12.6869  13.9392
    18.9359  19.1944

          k = 0.1249 0.2164 0.5606 (  3557 PWs)   bands (ev):

   -34.5053   0.1375   6.5126   7.8683   8.6932  11.6916  13.2950  14.2926
    17.0989  17.2232

          k = 0.1249 0.2164 0.7007 (  3562 PWs)   bands (ev):

   -34.4864   1.6441   5.8263   8.0031   9.6298  11.3588  14.1814  14.6158
    14.9409  17.0767

          k = 0.1249 0.2164-0.8409 (  3574 PWs)   bands (ev):

   -34.4794   2.9962   4.1929   9.5917   9.8575  10.3969  13.8314  14.6496
    15.7440  16.2457

          k = 0.1249 0.3607 0.0000 (  3536 PWs)   bands (ev):

   -34.5818  -2.0632   2.1290   5.0402   9.6740  12.3140  15.3613  18.8419
    21.3804  22.0496

          k = 0.1249 0.3607 0.1401 (  3539 PWs)   bands (ev):

   -34.5750  -1.8853   2.3054   5.1993   9.8189  12.4319  15.4519  17.7266
    20.8666  21.6027

          k = 0.1249 0.3607 0.2803 (  3552 PWs)   bands (ev):

   -34.5563  -1.3532   2.8326   5.6723  10.2270  12.6788  15.0834  15.8004
    20.1852  21.0523

          k = 0.1249 0.3607 0.4204 (  3561 PWs)   bands (ev):

   -34.5306  -0.4725   3.7040   6.4401  10.6316  11.8603  13.9798  15.4234
    18.3108  19.3276

          k = 0.1249 0.3607 0.5606 (  3558 PWs)   bands (ev):

   -34.5049   0.7462   4.9058   7.3871   9.0051  11.5021  13.7664  14.9924
    16.4205  18.6132

          k = 0.1249 0.3607 0.7007 (  3561 PWs)   bands (ev):

   -34.4860   2.2769   6.2154   6.5928   8.8188  10.2622  13.7776  14.4529
    15.8158  18.2752

          k = 0.1249 0.3607-0.8409 (  3566 PWs)   bands (ev):

   -34.4791   3.7257   4.6670   8.0001   8.4618   9.5964  13.1732  14.5176
    16.3198  17.6393

          k = 0.1249 0.5049 0.0000 (  3541 PWs)   bands (ev):

   -34.5814  -1.3529   0.8415   4.6817   9.6322  14.5468  17.0879  18.1566
    20.4272  22.8798

          k = 0.1249 0.5049 0.1401 (  3550 PWs)   bands (ev):

   -34.5746  -1.1718   1.0158   4.8396   9.7616  14.6387  17.0437  18.1172
    19.3760  21.6233

          k = 0.1249 0.5049 0.2803 (  3562 PWs)   bands (ev):

   -34.5559  -0.6301   1.5364   5.3091  10.1244  14.5374  16.1178  17.3757
    18.3408  19.9835

          k = 0.1249 0.5049 0.4204 (  3557 PWs)   bands (ev):

   -34.5303   0.2675   2.3960   6.0740  10.5721  12.5170  15.0313  16.3025
    18.4662  18.8532

          k = 0.1249 0.5049 0.5606 (  3573 PWs)   bands (ev):

   -34.5047   1.5121   3.5792   7.0746   9.6976  10.7295  13.4776  16.0756
    16.9553  19.3037

          k = 0.1249 0.5049 0.7007 (  3569 PWs)   bands (ev):

   -34.4858   3.0872   5.0401   7.1905   8.1666   9.3118  13.4174  14.2676
    17.0892  19.4885

          k = 0.1249 0.5049-0.8409 (  3556 PWs)   bands (ev):

   -34.4789   4.7460   5.2300   6.4187   7.3760   9.2329  12.8273  14.2935
    16.7748  19.7783

          k = 0.2499 0.4328 0.0000 (  3542 PWs)   bands (ev):

   -34.5814  -1.3753   0.9608   4.3286  11.1572  12.5085  17.0910  18.1954
    21.7582  22.7796

          k = 0.2499 0.4328 0.1401 (  3546 PWs)   bands (ev):

   -34.5746  -1.1955   1.1405   4.4768  11.3132  12.6013  17.0628  18.1228
    19.5227  22.4459

          k = 0.2499 0.4328 0.2803 (  3551 PWs)   bands (ev):

   -34.5559  -0.6576   1.6778   4.9164  11.7532  12.7773  15.8208  17.3138
    18.2557  20.7796

          k = 0.2499 0.4328 0.4204 (  3560 PWs)   bands (ev):

   -34.5303   0.2331   2.5678   5.6275  12.0222  12.2618  14.3338  15.3878
    18.2126  18.8910

          k = 0.2499 0.4328 0.5606 (  3573 PWs)   bands (ev):

   -34.5047   1.4671   3.8019   6.5415   9.7020  11.4793  14.4309  14.7628
    16.0745  19.4855

          k = 0.2499 0.4328 0.7007 (  3572 PWs)   bands (ev):

   -34.4858   3.0247   5.3653   6.9015   7.9531   9.3606  13.5225  15.5890
    15.9332  19.6897

          k = 0.2499 0.4328-0.8409 (  3558 PWs)   bands (ev):

   -34.4789   4.6057   5.2414   7.1244   7.3541   8.2830  12.7443  15.7659
    17.3891  17.9844

          k = 0.2499 0.5771 0.0000 (  3550 PWs)   bands (ev):

   -34.5812  -0.7529   0.1567   4.0807  11.5525  13.8296  15.0534  20.7178
    20.9032  23.3051

          k = 0.2499 0.5771 0.1401 (  3550 PWs)   bands (ev):

   -34.5744  -0.5711   0.3361   4.2255  11.6888  13.9389  15.1509  19.6004
    19.7678  22.2082

          k = 0.2499 0.5771 0.2803 (  3562 PWs)   bands (ev):

   -34.5557  -0.0271   0.8727   4.6549  12.0529  14.0606  15.4003  17.0988
    17.4081  20.9895

          k = 0.2499 0.5771 0.4204 (  3573 PWs)   bands (ev):

   -34.5302   0.8747   1.7611   5.3502  12.2843  12.7928  14.8823  15.9663
    16.2417  18.3280

          k = 0.2499 0.5771 0.5606 (  3567 PWs)   bands (ev):

   -34.5045   2.1267   2.9916   6.2561  10.3108  10.9081  14.3754  15.5564
    17.0082  17.1057

          k = 0.2499 0.5771 0.7007 (  3574 PWs)   bands (ev):

   -34.4857   3.7173   4.5439   7.1761   7.8555   8.7085  13.3361  15.7076
    17.4606  18.5113

          k = 0.2499 0.5771-0.8409 (  3560 PWs)   bands (ev):

   -34.4788   5.5165   5.7581   6.1557   6.6358   7.8693  12.5922  16.1007
    18.1157  19.3642

     the Fermi energy is    11.6500 ev

!    total energy              =     -31.23901682 Ry
     estimated scf accuracy    <          1.3E-11 Ry
     smearing contrib. (-TS)   =       0.00003461 Ry
     internal energy E=F+TS    =     -31.23905143 Ry

     The total energy is F=E-TS. E is the sum of the following terms:
     one-electron contribution =       4.34168905 Ry
     hartree contribution      =       2.91892348 Ry
     xc contribution           =     -10.12354449 Ry
     ewald contribution        =     -28.37611946 Ry

     convergence has been achieved in   7 iterations

     Forces acting on atoms (cartesian axes, Ry/au):

     atom    1 type  1   force =     0.00000000    0.00000000    0.00000000
     atom    2 type  1   force =    -0.00000000   -0.00000000   -0.00000000
     atom    3 type  2   force =     0.00000000    0.00000000    0.00000000
     The non-local contrib.  to forces
     atom    1 type  1   force =     0.00000000    0.00000000    0.00000000
     atom    2 type  1   force =     0.00000000   -0.00000000    0.00000000
     atom    3 type  2   force =     0.00000000    0.00000000    0.00000000
     The ionic contribution  to forces
     atom    1 type  1   force =     0.00000010   -0.00000006   -0.00000000
     atom    2 type  1   force =    -0.00000010    0.00000006   -0.00000000
     atom    3 type  2   force =    -0.00000000   -0.00000000    0.00000000
     The local contribution  to forces
     atom    1 type  1   force =    -0.00000001    0.00000000    0.00000000
     atom    2 type  1   force =     0.00000001   -0.00000000   -0.00000000
     atom    3 type  2   force =    -0.00000000    0.00000000    0.00000000
     The core correction contribution to forces
     atom    1 type  1   force =    -0.00000000    0.00000000   -0.00000000
     atom    2 type  1   force =     0.00000000   -0.00000000   -0.00000000
     atom    3 type  2   force =     0.00000000    0.00000000    0.00000000
     The Hubbard contrib.    to forces
     atom    1 type  1   force =     0.00000000    0.00000000    0.00000000
     atom    2 type  1   force =     0.00000000    0.00000000    0.00000000
     atom    3 type  2   force =     0.00000000    0.00000000    0.00000000
     The SCF correction term to forces
     atom    1 type  1   force =    -0.00000000    0.00000000    0.00000000
     atom    2 type  1   force =     0.00000000   -0.00000000    0.00000000
     atom    3 type  2   force =    -0.00000000   -0.00000000    0.00000000

     Total force =     0.000000     Total SCF correction =     0.000000


     Computing stress (Cartesian axis) and pressure

          total   stress  (Ry/bohr**3)                   (kbar)     P=      499.57
   0.00339295  -0.00000000   0.00000000          499.12       -0.00        0.00
  -0.00000000   0.00339295   0.00000000           -0.00      499.12        0.00
   0.00000000   0.00000000   0.00340214            0.00        0.00      500.47


     Writing all to output data dir ./output/SiLi.save/

     init_run     :      1.11s CPU      1.76s WALL (       2 calls)
     electrons    :     13.67s CPU     15.38s WALL (       4 calls)
     update_pot   :      0.62s CPU      0.65s WALL (       2 calls)
     forces       :      0.85s CPU      0.91s WALL (       4 calls)
     stress       :      3.39s CPU      3.55s WALL (       4 calls)

     Called by init_run:
     wfcinit      :      0.36s CPU      0.38s WALL (       2 calls)
     potinit      :      0.30s CPU      0.74s WALL (       2 calls)
     hinit0       :      0.42s CPU      0.53s WALL (       2 calls)

     Called by electrons:
     c_bands      :     11.82s CPU     13.06s WALL (      24 calls)
     sum_band     :      1.67s CPU      1.79s WALL (      24 calls)
     v_of_rho     :      0.22s CPU      0.99s WALL (      26 calls)
     mix_rho      :      0.02s CPU      0.04s WALL (      24 calls)

     Called by c_bands:
     init_us_2    :      0.46s CPU      0.51s WALL (    4060 calls)
     init_us_2:cp :      0.46s CPU      0.50s WALL (    4060 calls)
     cegterg      :     10.82s CPU     11.24s WALL (    1680 calls)

     Called by *egterg:
     cdiaghg      :      0.83s CPU      0.86s WALL (    6711 calls)
     h_psi        :      9.14s CPU      9.50s WALL (    7131 calls)
     g_psi        :      0.05s CPU      0.05s WALL (    5311 calls)

     Called by h_psi:
     h_psi:calbec :      0.66s CPU      0.68s WALL (    7131 calls)
     vloc_psi     :      7.97s CPU      8.29s WALL (    7131 calls)
     add_vuspsi   :      0.47s CPU      0.48s WALL (    7131 calls)

     General routines
     calbec       :      0.85s CPU      0.88s WALL (    8531 calls)
     fft          :      0.50s CPU      1.46s WALL (     360 calls)
     ffts         :      0.02s CPU      0.04s WALL (      24 calls)
     fftw         :      8.12s CPU      8.43s WALL (  113782 calls)

     Parallel routines

     PWSCF        :     19.90s CPU     22.83s WALL


   This run was terminated on:  22: 9:29  10Jan2025            

=------------------------------------------------------------------------------=
   JOB DONE.
=------------------------------------------------------------------------------=
