
     Program PWSCF v.7.2 starts on 27Dec2024 at 15: 1:35 

     This program is part of the open-source Quantum ESPRESSO suite
     for quantum simulation of materials; please cite
         "P. Giannozzi et al., J. Phys.:Condens. Matter 21 395502 (2009);
         "P. Giannozzi et al., J. Phys.:Condens. Matter 29 465901 (2017);
         "P. Giannozzi et al., J. Chem. Phys. 152 154105 (2020);
          URL http://www.quantum-espresso.org", 
     in publications or presentations arising from this work. More details at
     http://www.quantum-espresso.org/quote

     Parallel version (MPI & OpenMP), running on       8 processor cores
     Number of MPI processes:                 8
     Threads/MPI process:                     1

     MPI processes distributed on     1 nodes
     482346 MiB available memory on the printing compute node when the environment starts

     Waiting for input...
     Reading input from standard input

     Current dimensions of program PWSCF are:
     Max number of different atomic species (ntypx) = 10
     Max number of k-points (npk) =  40000
     Max angular momentum in pseudopotentials (lmaxx) =  4

     R & G space division:  proc/nbgrp/npool/nimage =       8
     Subspace diagonalization in iterative solution of the eigenvalue problem:
     a serial algorithm will be used


     Parallelization info
     --------------------
     sticks:   dense  smooth     PW     G-vecs:    dense   smooth      PW
     Min         136     136     38                 9660     9660    1454
     Max         137     137     39                 9669     9669    1461
     Sum        1093    1093    305                77301    77301   11665

     Using Slab Decomposition



     bravais-lattice index     =            6
     lattice parameter (alat)  =       6.5545  a.u.
     unit-cell volume          =     799.0369 (a.u.)^3
     number of atoms/cell      =            6
     number of atomic types    =            2
     number of electrons       =        20.00
     number of Kohn-Sham states=           14
     kinetic-energy cutoff     =      80.0000  Ry
     charge density cutoff     =     320.0000  Ry
     scf convergence threshold =      1.0E-08
     mixing beta               =       0.7000
     number of iterations used =            8  plain     mixing
     energy convergence thresh.=      1.0E-04
     force convergence thresh. =      1.0E-03
     press convergence thresh. =      1.0E+00
     Exchange-correlation= PBE
                           (   1   4   3   4   0   0   0)
     nstep                     =           50


     celldm(1)=   6.554538  celldm(2)=   0.000000  celldm(3)=   2.837531
     celldm(4)=   0.000000  celldm(5)=   0.000000  celldm(6)=   0.000000

     crystal axes: (cart. coord. in units of alat)
               a(1) = (   1.000000   0.000000   0.000000 )  
               a(2) = (   0.000000   1.000000   0.000000 )  
               a(3) = (   0.000000   0.000000   2.837531 )  

     reciprocal axes: (cart. coord. in units 2 pi/alat)
               b(1) = (  1.000000  0.000000  0.000000 )  
               b(2) = (  0.000000  1.000000  0.000000 )  
               b(3) = (  0.000000  0.000000  0.352419 )  


     PseudoPot. # 1 for Si read from file:
     ../pseudo/Si_ONCV_PBE_sr.upf
     MD5 check sum: e543d271109d17c80368dfa7c482276d
     Pseudo is Norm-conserving + core correction, Zval =  4.0
     Generated using ONCVPSP code by D. R. Hamann
     Using radial grid of 1510 points,  6 beta functions with: 
                l(1) =   0
                l(2) =   0
                l(3) =   1
                l(4) =   1
                l(5) =   2
                l(6) =   2

     PseudoPot. # 2 for Li read from file:
     ../pseudo/Li_ONCV_PBE_sr.upf
     MD5 check sum: 50ff420e78310ffa21704f3361e624a4
     Pseudo is Norm-conserving, Zval =  3.0
     Generated using ONCVPSP code by D. R. Hamann
     Using radial grid of 1944 points,  4 beta functions with: 
                l(1) =   0
                l(2) =   0
                l(3) =   1
                l(4) =   1

     atomic species   valence    mass     pseudopotential
        Si             4.00    28.08550     Si( 1.00)
        Li             3.00     6.94100     Li( 1.00)

     16 Sym. Ops., with inversion, found ( 8 have fractional translation)



   Cartesian axes

     site n.     atom                  positions (alat units)
         1           Si  tau(   1) = (   0.0000000   0.0000000   0.0000000  )
         2           Si  tau(   2) = (   0.5000000   0.5000000   1.4187655  )
         3           Li  tau(   3) = (   0.0000000   0.5000000   1.0275338  )
         4           Li  tau(   4) = (   0.0000000   0.5000000   2.4462993  )
         5           Li  tau(   5) = (   0.5000000   0.0000000   0.3912317  )
         6           Li  tau(   6) = (   0.5000000   0.0000000   1.8099972  )

     number of k points=    30  Marzari-Vanderbilt smearing, width (Ry)=  0.0200
                       cart. coord. in units 2pi/alat
        k(    1) = (   0.0000000   0.0000000   0.0000000), wk =   0.0082305
        k(    2) = (   0.0000000   0.0000000   0.1174730), wk =   0.0164609
        k(    3) = (   0.0000000   0.1111111   0.0000000), wk =   0.0329218
        k(    4) = (   0.0000000   0.1111111   0.1174730), wk =   0.0658436
        k(    5) = (   0.0000000   0.2222222   0.0000000), wk =   0.0329218
        k(    6) = (   0.0000000   0.2222222   0.1174730), wk =   0.0658436
        k(    7) = (   0.0000000   0.3333333   0.0000000), wk =   0.0329218
        k(    8) = (   0.0000000   0.3333333   0.1174730), wk =   0.0658436
        k(    9) = (   0.0000000   0.4444444   0.0000000), wk =   0.0329218
        k(   10) = (   0.0000000   0.4444444   0.1174730), wk =   0.0658436
        k(   11) = (   0.1111111   0.1111111   0.0000000), wk =   0.0329218
        k(   12) = (   0.1111111   0.1111111   0.1174730), wk =   0.0658436
        k(   13) = (   0.1111111   0.2222222   0.0000000), wk =   0.0658436
        k(   14) = (   0.1111111   0.2222222   0.1174730), wk =   0.1316872
        k(   15) = (   0.1111111   0.3333333   0.0000000), wk =   0.0658436
        k(   16) = (   0.1111111   0.3333333   0.1174730), wk =   0.1316872
        k(   17) = (   0.1111111   0.4444444   0.0000000), wk =   0.0658436
        k(   18) = (   0.1111111   0.4444444   0.1174730), wk =   0.1316872
        k(   19) = (   0.2222222   0.2222222   0.0000000), wk =   0.0329218
        k(   20) = (   0.2222222   0.2222222   0.1174730), wk =   0.0658436
        k(   21) = (   0.2222222   0.3333333   0.0000000), wk =   0.0658436
        k(   22) = (   0.2222222   0.3333333   0.1174730), wk =   0.1316872
        k(   23) = (   0.2222222   0.4444444   0.0000000), wk =   0.0658436
        k(   24) = (   0.2222222   0.4444444   0.1174730), wk =   0.1316872
        k(   25) = (   0.3333333   0.3333333   0.0000000), wk =   0.0329218
        k(   26) = (   0.3333333   0.3333333   0.1174730), wk =   0.0658436
        k(   27) = (   0.3333333   0.4444444   0.0000000), wk =   0.0658436
        k(   28) = (   0.3333333   0.4444444   0.1174730), wk =   0.1316872
        k(   29) = (   0.4444444   0.4444444   0.0000000), wk =   0.0329218
        k(   30) = (   0.4444444   0.4444444   0.1174730), wk =   0.0658436

     Dense  grid:    77301 G-vectors     FFT dimensions: (  40,  40, 108)

     Estimated max dynamical RAM per process >      27.66 MB

     Estimated total dynamical RAM >     221.29 MB

     Initial potential from superposition of free atoms

     starting charge      19.9805, renormalised to      20.0000
     Starting wfcs are   16 randomized atomic wfcs

     total cpu time spent up to now is        3.3 secs

     Self-consistent Calculation

     iteration #  1     ecut=    80.00 Ry     beta= 0.70
     Davidson diagonalization with overlap
     ethr =  1.00E-02,  avg # of iterations =  4.3

     Threshold (ethr) on eigenvalues was too large:
     Diagonalizing with lowered threshold

     Davidson diagonalization with overlap
     ethr =  8.22E-04,  avg # of iterations =  1.7

     total cpu time spent up to now is        5.8 secs

     total energy              =     -74.22645686 Ry
     estimated scf accuracy    <       0.15460205 Ry

     iteration #  2     ecut=    80.00 Ry     beta= 0.70
     Davidson diagonalization with overlap
     ethr =  7.73E-04,  avg # of iterations =  2.1

     total cpu time spent up to now is        6.7 secs

     total energy              =     -74.25887425 Ry
     estimated scf accuracy    <       0.03499746 Ry

     iteration #  3     ecut=    80.00 Ry     beta= 0.70
     Davidson diagonalization with overlap
     ethr =  1.75E-04,  avg # of iterations =  2.2

     total cpu time spent up to now is        7.6 secs

     total energy              =     -74.26657699 Ry
     estimated scf accuracy    <       0.00098783 Ry

     iteration #  4     ecut=    80.00 Ry     beta= 0.70
     Davidson diagonalization with overlap
     c_bands:  1 eigenvalues not converged
     ethr =  4.94E-06,  avg # of iterations =  5.0

     total cpu time spent up to now is        8.7 secs

     total energy              =     -74.26673057 Ry
     estimated scf accuracy    <       0.00006157 Ry

     iteration #  5     ecut=    80.00 Ry     beta= 0.70
     Davidson diagonalization with overlap
     ethr =  3.08E-07,  avg # of iterations =  3.2

     total cpu time spent up to now is        9.6 secs

     total energy              =     -74.26673962 Ry
     estimated scf accuracy    <       0.00000179 Ry

     iteration #  6     ecut=    80.00 Ry     beta= 0.70
     Davidson diagonalization with overlap
     ethr =  8.94E-09,  avg # of iterations =  3.6

     total cpu time spent up to now is       10.5 secs

     total energy              =     -74.26674048 Ry
     estimated scf accuracy    <       0.00000042 Ry

     iteration #  7     ecut=    80.00 Ry     beta= 0.70
     Davidson diagonalization with overlap
     ethr =  2.11E-09,  avg # of iterations =  2.0

     total cpu time spent up to now is       11.3 secs

     total energy              =     -74.26674052 Ry
     estimated scf accuracy    <       0.00000002 Ry

     iteration #  8     ecut=    80.00 Ry     beta= 0.70
     Davidson diagonalization with overlap
     ethr =  9.67E-11,  avg # of iterations =  3.7

     total cpu time spent up to now is       12.2 secs

     End of self-consistent calculation

          k = 0.0000 0.0000 0.0000 (  9721 PWs)   bands (ev):

   -43.7702 -43.7680 -43.7654 -43.7632  -5.7329  -5.6003  -0.4513   1.6223
     2.2434   4.0637   4.0637   4.2971   4.2971   6.0242

          k = 0.0000 0.0000 0.1175 (  9653 PWs)   bands (ev):

   -43.7698 -43.7688 -43.7646 -43.7636  -5.7015  -5.6353  -0.1636   0.6445
     3.5324   4.1112   4.1112   4.2404   4.2404   5.1542

          k = 0.0000 0.1111 0.0000 (  9661 PWs)   bands (ev):

   -43.7698 -43.7677 -43.7653 -43.7632  -5.6281  -5.4967  -0.3628   1.6398
     2.3641   3.2172   3.4449   4.1581   4.3843   6.0969

          k = 0.0000 0.1111 0.1175 (  9664 PWs)   bands (ev):

   -43.7695 -43.7685 -43.7646 -43.7636  -5.5969  -5.5313  -0.0788   0.7158
     3.2618   3.3781   3.6032   4.2039   4.3299   5.2025

          k = 0.0000 0.2222 0.0000 (  9669 PWs)   bands (ev):

   -43.7688 -43.7670 -43.7651 -43.7633  -5.3284  -5.2028  -0.1229   1.3931
     1.9446   2.0593   2.7957   4.4222   4.6239   6.1023

          k = 0.0000 0.2222 0.1175 (  9667 PWs)   bands (ev):

   -43.7685 -43.7676 -43.7645 -43.7636  -5.2987  -5.2357   0.1368   0.8407
     1.8190   2.0110   3.7482   4.4625   4.5770   5.2811

          k = 0.0000 0.3333 0.0000 (  9644 PWs)   bands (ev):

   -43.7673 -43.7661 -43.7649 -43.7637  -4.8946  -4.7894   0.0065   0.2596
     0.9303   1.8778   3.3943   4.7860   4.9362   5.3636

          k = 0.0000 0.3333 0.1175 (  9671 PWs)   bands (ev):

   -43.7671 -43.7665 -43.7645 -43.7639  -4.8698  -4.8164   0.0455   0.3009
     0.9746   1.5414   3.8035   4.8155   4.9034   5.2352

          k = 0.0000 0.4444 0.0000 (  9640 PWs)   bands (ev):

   -43.7659 -43.7652 -43.7651 -43.7644  -4.4987  -4.4519  -0.5346  -0.5212
     1.1351   1.6065   4.1466   4.7511   5.0970   5.1555

          k = 0.0000 0.4444 0.1175 (  9651 PWs)   bands (ev):

   -43.7659 -43.7653 -43.7649 -43.7644  -4.4875  -4.4632  -0.5691  -0.5088
     1.2759   1.5654   3.8758   4.4014   5.1086   5.1439

          k = 0.1111 0.1111 0.0000 (  9663 PWs)   bands (ev):

   -43.7694 -43.7675 -43.7652 -43.7632  -5.5235  -5.3933  -0.2737   1.6664
     2.4866   3.1555   3.4538   3.4716   3.6180   6.1691

          k = 0.1111 0.1111 0.1175 (  9656 PWs)   bands (ev):

   -43.7691 -43.7682 -43.7645 -43.7636  -5.4926  -5.4276   0.0067   0.7884
     3.2219   3.3675   3.5010   3.5789   3.6735   5.2526

          k = 0.1111 0.2222 0.0000 (  9662 PWs)   bands (ev):

   -43.7684 -43.7668 -43.7649 -43.7633  -5.2249  -5.1004  -0.0311   1.4859
     2.0373   2.0739   2.9123   3.6106   3.7993   6.1518

          k = 0.1111 0.2222 0.1175 (  9669 PWs)   bands (ev):

   -43.7681 -43.7673 -43.7644 -43.7636  -5.1953  -5.1331   0.2267   0.9242
     1.8996   2.0824   3.6501   3.7290   3.8610   5.3171

          k = 0.1111 0.3333 0.0000 (  9655 PWs)   bands (ev):

   -43.7670 -43.7659 -43.7647 -43.7636  -4.7931  -4.6889   0.1181   0.3732
     1.0031   1.8962   3.5055   3.9764   4.1587   5.4846

          k = 0.1111 0.3333 0.1175 (  9662 PWs)   bands (ev):

   -43.7668 -43.7662 -43.7644 -43.7638  -4.7684  -4.7157   0.1599   0.4167
     1.0371   1.5831   3.8318   4.0262   4.1971   5.2851

          k = 0.1111 0.4444 0.0000 (  9655 PWs)   bands (ev):

   -43.7657 -43.7650 -43.7649 -43.7642  -4.4000  -4.3536  -0.4156  -0.4004
     1.1909   1.6435   4.1456   4.2831   4.5598   4.9397

          k = 0.1111 0.4444 0.1175 (  9660 PWs)   bands (ev):

   -43.7656 -43.7651 -43.7648 -43.7642  -4.3888  -4.3650  -0.4493  -0.3898
     1.3277   1.6038   3.9260   4.2258   4.5035   4.6772

          k = 0.2222 0.2222 0.0000 (  9657 PWs)   bands (ev):

   -43.7674 -43.7661 -43.7646 -43.7633  -4.9296  -4.8107   0.2220   1.6795
     1.8495   2.1196   2.5573   2.5685   3.2656   6.1196

          k = 0.2222 0.2222 0.1175 (  9673 PWs)   bands (ev):

   -43.7672 -43.7666 -43.7641 -43.7635  -4.9013  -4.8419   0.4652   1.1105
     1.9252   2.0836   2.5317   2.5525   4.0450   5.3305

          k = 0.2222 0.3333 0.0000 (  9644 PWs)   bands (ev):

   -43.7662 -43.7653 -43.7643 -43.7635  -4.5049  -4.4055   0.4336   0.6962
     1.1983   1.8847   2.6527   2.7824   3.8364   5.9593

          k = 0.2222 0.3333 0.1175 (  9641 PWs)   bands (ev):

   -43.7660 -43.7656 -43.7640 -43.7636  -4.4811  -4.4312   0.4864   0.7479
     1.1822   1.6650   2.6660   2.7570   4.2450   5.3100

          k = 0.2222 0.4444 0.0000 (  9637 PWs)   bands (ev):

   -43.7650 -43.7646 -43.7644 -43.7639  -4.1216  -4.0776  -0.0701  -0.0499
     1.3365   1.7264   2.9959   3.0721   4.5949   5.2799

          k = 0.2222 0.4444 0.1175 (  9643 PWs)   bands (ev):

   -43.7650 -43.7646 -43.7643 -43.7639  -4.1108  -4.0885  -0.1014  -0.0445
     1.4549   1.6929   3.0042   3.0510   4.4498   4.8954

          k = 0.3333 0.3333 0.0000 (  9625 PWs)   bands (ev):

   -43.7652 -43.7646 -43.7640 -43.7634  -4.0946  -4.0120   0.8351   1.0358
     1.2459   1.3500   1.8611   2.1044   4.2458   5.9668

          k = 0.3333 0.3333 0.1175 (  9628 PWs)   bands (ev):

   -43.7651 -43.7648 -43.7638 -43.7635  -4.0746  -4.0332   0.8965   1.0920
     1.1553   1.3187   1.8993   2.0240   4.5697   5.3700

          k = 0.3333 0.4444 0.0000 (  9648 PWs)   bands (ev):

   -43.7643 -43.7640 -43.7638 -43.7636  -3.7323  -3.6961   0.4497   0.4762
     1.4296   1.6037   1.9912   2.0263   4.5064   4.9505

          k = 0.3333 0.4444 0.1175 (  9632 PWs)   bands (ev):

   -43.7642 -43.7641 -43.7638 -43.7636  -3.7232  -3.7050   0.4241   0.4744
     1.4623   1.6157   1.9768   2.0500   4.7370   5.0629

          k = 0.4444 0.4444 0.0000 (  9668 PWs)   bands (ev):

   -43.7637 -43.7636 -43.7635 -43.7635  -3.4025  -3.3870   0.9244   0.9695
     0.9898   1.0153   1.8638   1.9387   3.9242   4.0275

          k = 0.4444 0.4444 0.1175 (  9654 PWs)   bands (ev):

   -43.7637 -43.7636 -43.7635 -43.7635  -3.3984  -3.3906   0.9204   0.9445
     1.0022   1.0134   1.8737   1.9089   4.1421   4.1880

     the Fermi energy is     2.1141 ev

!    total energy              =     -74.26674053 Ry
     estimated scf accuracy    <          2.3E-09 Ry
     smearing contrib. (-TS)   =       0.00134869 Ry
     internal energy E=F+TS    =     -74.26808921 Ry

     The total energy is F=E-TS. E is the sum of the following terms:
     one-electron contribution =     -36.82541974 Ry
     hartree contribution      =      16.97738456 Ry
     xc contribution           =     -19.54717712 Ry
     ewald contribution        =     -34.87287692 Ry

     convergence has been achieved in   8 iterations

     Forces acting on atoms (cartesian axes, Ry/au):

     atom    1 type  1   force =     0.00000000    0.00000000    0.00000000
     atom    2 type  1   force =     0.00000000    0.00000000   -0.00000000
     atom    3 type  2   force =     0.00000000    0.00000000   -0.08313970
     atom    4 type  2   force =     0.00000000    0.00000000   -0.08313970
     atom    5 type  2   force =     0.00000000    0.00000000    0.08313970
     atom    6 type  2   force =     0.00000000    0.00000000    0.08313970
     The non-local contrib.  to forces
     atom    1 type  1   force =     0.00000000    0.00000000    0.00000000
     atom    2 type  1   force =     0.00000000    0.00000000   -0.00000000
     atom    3 type  2   force =     0.00000000    0.00000000   -0.09343487
     atom    4 type  2   force =     0.00000000    0.00000000   -0.09343487
     atom    5 type  2   force =     0.00000000    0.00000000    0.09343487
     atom    6 type  2   force =     0.00000000    0.00000000    0.09343487
     The ionic contribution  to forces
     atom    1 type  1   force =     0.00000000   -0.00000000   -0.00000000
     atom    2 type  1   force =     0.00000000    0.00000000    0.00000000
     atom    3 type  2   force =    -0.00000000    0.00000000   -1.06417335
     atom    4 type  2   force =    -0.00000000   -0.00000000   -1.06417335
     atom    5 type  2   force =    -0.00000000   -0.00000000    1.06417335
     atom    6 type  2   force =    -0.00000000   -0.00000000    1.06417335
     The local contribution  to forces
     atom    1 type  1   force =    -0.00000000   -0.00000000    0.00000000
     atom    2 type  1   force =     0.00000000   -0.00000000   -0.00000000
     atom    3 type  2   force =    -0.00000000   -0.00000000    1.07449291
     atom    4 type  2   force =    -0.00000000    0.00000000    1.07449291
     atom    5 type  2   force =     0.00000000    0.00000000   -1.07449291
     atom    6 type  2   force =     0.00000000    0.00000000   -1.07449291
     The core correction contribution to forces
     atom    1 type  1   force =    -0.00000000    0.00000000    0.00000000
     atom    2 type  1   force =    -0.00000000   -0.00000000   -0.00000000
     atom    3 type  2   force =     0.00000000    0.00000000    0.00000000
     atom    4 type  2   force =     0.00000000    0.00000000    0.00000000
     atom    5 type  2   force =     0.00000000    0.00000000    0.00000000
     atom    6 type  2   force =     0.00000000    0.00000000    0.00000000
     The Hubbard contrib.    to forces
     atom    1 type  1   force =     0.00000000    0.00000000    0.00000000
     atom    2 type  1   force =     0.00000000    0.00000000    0.00000000
     atom    3 type  2   force =     0.00000000    0.00000000    0.00000000
     atom    4 type  2   force =     0.00000000    0.00000000    0.00000000
     atom    5 type  2   force =     0.00000000    0.00000000    0.00000000
     atom    6 type  2   force =     0.00000000    0.00000000    0.00000000
     The SCF correction term to forces
     atom    1 type  1   force =    -0.00000000   -0.00000000   -0.00000000
     atom    2 type  1   force =    -0.00000000    0.00000000   -0.00000000
     atom    3 type  2   force =     0.00000000   -0.00000000   -0.00002439
     atom    4 type  2   force =     0.00000000    0.00000000   -0.00002439
     atom    5 type  2   force =    -0.00000000   -0.00000000    0.00002439
     atom    6 type  2   force =     0.00000000   -0.00000000    0.00002439

     Total force =     0.166279     Total SCF correction =     0.000049


     Computing stress (Cartesian axis) and pressure

          total   stress  (Ry/bohr**3)                   (kbar)     P=       72.30
   0.00038073   0.00000000   0.00000000           56.01        0.00        0.00
   0.00000000   0.00038073   0.00000000            0.00       56.01        0.00
   0.00000000   0.00000000   0.00071307            0.00        0.00      104.90


     BFGS Geometry Optimization
     Energy error            =      0.0E+00 Ry
     Gradient error          =      8.3E-02 Ry/Bohr
     Cell gradient error     =      4.4E+02 kbar

     number of scf cycles    =   1
     number of bfgs steps    =   0

     enthalpy           new  =     -71.5508693874 Ry

     new trust radius        =       0.4265815098 bohr
ibrav =      6
 celldm(1) =      6.05996443
 celldm(3) =      2.86303061
Input lattice vectors:
     0.92454490     0.00000000     0.00000000
     0.00000000     0.92454490     0.00000000
     0.00000000     0.00000000     2.64700034
New lattice vectors in INITIAL alat:
     0.92454490     0.00000000     0.00000000
     0.00000000     0.92454490     0.00000000
     0.00000000     0.00000000     2.64700034
New lattice vectors in NEW alat (for information only):
     1.00000000     0.00000000     0.00000000
     0.00000000     1.00000000     0.00000000
     0.00000000     0.00000000     2.86303061
Discrepancy in bohr =     0.000000    0.000000    0.000000
     new conv_thr            =       0.0000000100 Ry

     new unit-cell volume =    637.14197 a.u.^3 (    94.41470 Ang^3 )
     density =      1.47623 g/cm^3

CELL_PARAMETERS (alat=  6.55453775)
   0.924544896   0.000000000   0.000000000
   0.000000000   0.924544896   0.000000000
   0.000000000   0.000000000   2.647000339

ATOMIC_POSITIONS (crystal)
Si            0.0000000000        0.0000000000        0.0000000000
Si            0.5000000000        0.5000000000        0.5000000000
Li            0.0000000000        0.5000000000        0.3576523120
Li            0.0000000000        0.5000000000        0.8576523120
Li            0.5000000000        0.0000000000        0.1423476880
Li            0.5000000000        0.0000000000        0.6423476880



     Writing config-only to output data dir ./output/SiLi.save/
     NEW-OLD atomic charge density approx. for the potential

     negative rho (up, down):  1.611E-07 0.000E+00
     extrapolated charge   14.92304, renormalised to   20.00000

     total cpu time spent up to now is       15.9 secs

     Self-consistent Calculation

     iteration #  1     ecut=    80.00 Ry     beta= 0.70
     Davidson diagonalization with overlap
     ethr =  1.00E-06,  avg # of iterations = 11.1

     total cpu time spent up to now is       18.5 secs

     total energy              =     -73.77744993 Ry
     estimated scf accuracy    <       0.27497381 Ry

     iteration #  2     ecut=    80.00 Ry     beta= 0.70
     Davidson diagonalization with overlap
     ethr =  1.37E-03,  avg # of iterations =  2.9

     total cpu time spent up to now is       19.6 secs

     total energy              =     -74.16038556 Ry
     estimated scf accuracy    <       0.31289887 Ry

     iteration #  3     ecut=    80.00 Ry     beta= 0.70
     Davidson diagonalization with overlap
     ethr =  1.37E-03,  avg # of iterations =  1.2

     total cpu time spent up to now is       20.3 secs

     total energy              =     -74.16582799 Ry
     estimated scf accuracy    <       0.04426404 Ry

     iteration #  4     ecut=    80.00 Ry     beta= 0.70
     Davidson diagonalization with overlap
     ethr =  2.21E-04,  avg # of iterations =  2.1

     total cpu time spent up to now is       21.1 secs

     total energy              =     -74.16822434 Ry
     estimated scf accuracy    <       0.00447228 Ry

     iteration #  5     ecut=    80.00 Ry     beta= 0.70
     Davidson diagonalization with overlap
     ethr =  2.24E-05,  avg # of iterations =  3.0

     total cpu time spent up to now is       22.0 secs

     total energy              =     -74.16916296 Ry
     estimated scf accuracy    <       0.00001007 Ry

     iteration #  6     ecut=    80.00 Ry     beta= 0.70
     Davidson diagonalization with overlap
     ethr =  5.03E-08,  avg # of iterations =  5.6

     total cpu time spent up to now is       23.3 secs

     total energy              =     -74.16918584 Ry
     estimated scf accuracy    <       0.00000981 Ry

     iteration #  7     ecut=    80.00 Ry     beta= 0.70
     Davidson diagonalization with overlap
     ethr =  4.90E-08,  avg # of iterations =  1.9

     total cpu time spent up to now is       24.1 secs

     total energy              =     -74.16918718 Ry
     estimated scf accuracy    <       0.00000019 Ry

     iteration #  8     ecut=    80.00 Ry     beta= 0.70
     Davidson diagonalization with overlap
     ethr =  9.65E-10,  avg # of iterations =  2.4

     total cpu time spent up to now is       25.0 secs

     total energy              =     -74.16918718 Ry
     estimated scf accuracy    <       0.00000005 Ry

     iteration #  9     ecut=    80.00 Ry     beta= 0.70
     Davidson diagonalization with overlap
     ethr =  2.40E-10,  avg # of iterations =  3.2

     total cpu time spent up to now is       25.9 secs

     End of self-consistent calculation

          k = 0.0000 0.0000 0.0000 (  9721 PWs)   bands (ev):

   -42.2860 -42.2809 -42.2713 -42.2663  -5.0330  -4.8728   0.4371   2.9012
     3.4114   6.0692   6.0692   6.4119   6.4119   7.8691

          k = 0.0000 0.0000 0.1259 (  9653 PWs)   bands (ev):

   -42.2850 -42.2826 -42.2696 -42.2673  -4.9954  -4.9154   0.7687   1.7018
     4.9720   6.1374   6.1374   6.3253   6.3253   6.8534

          k = 0.0000 0.1202 0.0000 (  9661 PWs)   bands (ev):

   -42.2849 -42.2801 -42.2710 -42.2663  -4.9007  -4.7401   0.5296   2.9101
     3.5526   4.9865   5.2960   6.1917   6.5257   8.0286

          k = 0.0000 0.1202 0.1259 (  9664 PWs)   bands (ev):

   -42.2839 -42.2817 -42.2695 -42.2673  -4.8631  -4.7829   0.8581   1.7790
     4.9743   5.0861   5.2413   6.2579   6.4422   6.9381

          k = 0.0000 0.2404 0.0000 (  9669 PWs)   bands (ev):

   -42.2819 -42.2779 -42.2706 -42.2667  -4.5164  -4.3573   0.7703   2.5780
     3.5189   3.5876   3.9801   6.5400   6.8434   8.1206

          k = 0.0000 0.2404 0.1259 (  9667 PWs)   bands (ev):

   -42.2811 -42.2791 -42.2694 -42.2674  -4.4792  -4.3994   1.0750   1.8930
     3.3240   3.5089   5.1882   6.5993   6.7702   7.0534

          k = 0.0000 0.3605 0.0000 (  9644 PWs)   bands (ev):

   -42.2778 -42.2750 -42.2704 -42.2677  -3.9353  -3.7917   0.8497   1.2376
     2.2746   3.2888   4.6378   6.8198   7.0376   7.2723

          k = 0.0000 0.3605 0.1259 (  9671 PWs)   bands (ev):

   -42.2774 -42.2757 -42.2697 -42.2681  -3.9022  -3.8288   0.9464   1.2318
     2.2899   2.8734   5.1534   6.9762   7.0827   7.2196

          k = 0.0000 0.4807 0.0000 (  9640 PWs)   bands (ev):

   -42.2739 -42.2721 -42.2714 -42.2696  -3.3547  -3.2826   0.2052   0.2174
     2.3886   2.9305   5.4388   6.1154   7.4905   7.5864

          k = 0.0000 0.4807 0.1259 (  9651 PWs)   bands (ev):

   -42.2739 -42.2724 -42.2711 -42.2696  -3.3380  -3.2999   0.1687   0.2395
     2.5333   2.8806   5.1777   5.8273   7.5093   7.5674

          k = 0.1202 0.1202 0.0000 (  9663 PWs)   bands (ev):

   -42.2838 -42.2793 -42.2708 -42.2664  -4.7685  -4.6075   0.6242   2.9366
     3.6942   4.9113   5.2845   5.3584   5.4608   8.1795

          k = 0.1202 0.1202 0.1259 (  9656 PWs)   bands (ev):

   -42.2829 -42.2808 -42.2694 -42.2672  -4.7308  -4.6504   0.9500   1.8600
     5.0003   5.0377   5.3100   5.3393   5.4140   7.0312

          k = 0.1202 0.2404 0.0000 (  9662 PWs)   bands (ev):

   -42.2809 -42.2772 -42.2703 -42.2666  -4.3845  -4.2248   0.8734   2.6932
     3.5942   3.6310   4.1124   5.4501   5.7454   8.2161

          k = 0.1202 0.2404 0.1259 (  9669 PWs)   bands (ev):

   -42.2802 -42.2784 -42.2691 -42.2673  -4.3472  -4.2672   1.1777   1.9959
     3.4099   3.5961   5.2396   5.5117   5.7261   7.1365

          k = 0.1202 0.3605 0.0000 (  9655 PWs)   bands (ev):

   -42.2770 -42.2744 -42.2700 -42.2675  -3.8044  -3.6600   0.9837   1.3772
     2.3544   3.3047   4.7578   5.8977   6.2406   6.9491

          k = 0.1202 0.3605 0.1259 (  9662 PWs)   bands (ev):

   -42.2766 -42.2751 -42.2694 -42.2679  -3.7709  -3.6975   1.0847   1.3752
     2.3568   2.9163   5.2109   5.9523   6.2543   7.1473

          k = 0.1202 0.4807 0.0000 (  9655 PWs)   bands (ev):

   -42.2732 -42.2716 -42.2708 -42.2693  -3.2255  -3.1529   0.3493   0.3650
     2.4474   2.9706   5.5027   6.0680   6.5877   6.7037

          k = 0.1202 0.4807 0.1259 (  9660 PWs)   bands (ev):

   -42.2732 -42.2718 -42.2706 -42.2693  -3.2084  -3.1705   0.3140   0.3847
     2.5896   2.9225   5.2504   5.8060   6.6731   6.6840

          k = 0.2404 0.2404 0.0000 (  9657 PWs)   bands (ev):

   -42.2782 -42.2752 -42.2696 -42.2667  -4.0020  -3.8430   1.1521   2.9180
     3.2851   3.7693   4.1621   4.1661   4.5208   8.1822

          k = 0.2404 0.2404 0.1259 (  9673 PWs)   bands (ev):

   -42.2776 -42.2762 -42.2686 -42.2672  -3.9647  -3.8854   1.4454   2.2260
     3.3877   3.6268   4.1228   4.1473   5.5609   7.1534

          k = 0.2404 0.3605 0.0000 (  9644 PWs)   bands (ev):

   -42.2748 -42.2727 -42.2691 -42.2671  -3.4259  -3.2815   1.3615   1.7783
     2.5724   3.2598   4.2518   4.4487   5.2000   7.2792

          k = 0.2404 0.3605 0.1259 (  9641 PWs)   bands (ev):

   -42.2744 -42.2733 -42.2685 -42.2675  -3.3920  -3.3194   1.4800   1.7886
     2.5071   2.9886   4.2683   4.4019   5.7656   7.1381

          k = 0.2404 0.4807 0.0000 (  9637 PWs)   bands (ev):

   -42.2715 -42.2704 -42.2695 -42.2684  -2.8540  -2.7814   0.7708   0.7969
     2.5993   3.0568   4.6891   4.7932   6.1040   6.7841

          k = 0.2404 0.4807 0.1259 (  9643 PWs)   bands (ev):

   -42.2714 -42.2705 -42.2694 -42.2685  -2.8365  -2.7993   0.7390   0.8092
     2.7245   3.0161   4.6610   4.7543   6.0078   6.5126

          k = 0.3605 0.3605 0.0000 (  9625 PWs)   bands (ev):

   -42.2719 -42.2706 -42.2682 -42.2670  -2.8602  -2.7288   1.8287   2.2190
     2.5678   2.6288   3.3148   3.5546   5.6181   7.5857

          k = 0.3605 0.3605 0.1259 (  9628 PWs)   bands (ev):

   -42.2717 -42.2711 -42.2678 -42.2672  -2.8289  -2.7633   1.9724   2.3181
     2.3373   2.5583   3.3556   3.4767   6.0655   7.1263

          k = 0.3605 0.4807 0.0000 (  9648 PWs)   bands (ev):

   -42.2694 -42.2688 -42.2681 -42.2676  -2.3086  -2.2429   1.4197   1.4616
     2.6934   2.9225   3.4563   3.4780   5.8747   6.4255

          k = 0.3605 0.4807 0.1259 (  9632 PWs)   bands (ev):

   -42.2694 -42.2690 -42.2680 -42.2676  -2.2922  -2.2591   1.3953   1.4633
     2.7224   2.9289   3.4192   3.5204   6.1731   6.5505

          k = 0.4807 0.4807 0.0000 (  9668 PWs)   bands (ev):

   -42.2678 -42.2677 -42.2674 -42.2672  -1.8008  -1.7686   2.0302   2.1062
     2.1813   2.2132   3.2109   3.2879   5.0681   5.2115

          k = 0.4807 0.4807 0.1259 (  9654 PWs)   bands (ev):

   -42.2678 -42.2677 -42.2673 -42.2673  -1.7921  -1.7760   2.0422   2.1188
     2.1431   2.1945   3.2060   3.2402   5.3562   5.4165

     the Fermi energy is     3.6040 ev

!    total energy              =     -74.16918720 Ry
     estimated scf accuracy    <          5.8E-09 Ry
     smearing contrib. (-TS)   =      -0.00002106 Ry
     internal energy E=F+TS    =     -74.16916614 Ry

     The total energy is F=E-TS. E is the sum of the following terms:
     one-electron contribution =     -32.10396829 Ry
     hartree contribution      =      15.75353149 Ry
     xc contribution           =     -19.84930444 Ry
     ewald contribution        =     -37.96942490 Ry

     convergence has been achieved in   9 iterations

     Forces acting on atoms (cartesian axes, Ry/au):

     atom    1 type  1   force =     0.00000000    0.00000000    0.00000000
     atom    2 type  1   force =     0.00000000    0.00000000    0.00000000
     atom    3 type  2   force =     0.00000000    0.00000000   -0.13278372
     atom    4 type  2   force =     0.00000000    0.00000000   -0.13278372
     atom    5 type  2   force =     0.00000000    0.00000000    0.13278372
     atom    6 type  2   force =     0.00000000    0.00000000    0.13278372
     The non-local contrib.  to forces
     atom    1 type  1   force =     0.00000000    0.00000000    0.00000000
     atom    2 type  1   force =     0.00000000    0.00000000    0.00000000
     atom    3 type  2   force =     0.00000000    0.00000000   -0.07968753
     atom    4 type  2   force =     0.00000000    0.00000000   -0.07968753
     atom    5 type  2   force =     0.00000000    0.00000000    0.07968753
     atom    6 type  2   force =     0.00000000    0.00000000    0.07968753
     The ionic contribution  to forces
     atom    1 type  1   force =    -0.00000000   -0.00000000   -0.00000000
     atom    2 type  1   force =    -0.00000000   -0.00000000    0.00000000
     atom    3 type  2   force =    -0.00000000    0.00000000   -1.14251331
     atom    4 type  2   force =     0.00000000   -0.00000000   -1.14251331
     atom    5 type  2   force =     0.00000000    0.00000000    1.14251331
     atom    6 type  2   force =     0.00000000    0.00000000    1.14251331
     The local contribution  to forces
     atom    1 type  1   force =     0.00000000    0.00000000   -0.00000000
     atom    2 type  1   force =     0.00000000    0.00000000    0.00000000
     atom    3 type  2   force =     0.00000000   -0.00000000    1.08936542
     atom    4 type  2   force =     0.00000000    0.00000000    1.08936542
     atom    5 type  2   force =    -0.00000000    0.00000000   -1.08936542
     atom    6 type  2   force =    -0.00000000   -0.00000000   -1.08936542
     The core correction contribution to forces
     atom    1 type  1   force =    -0.00000000    0.00000000   -0.00000000
     atom    2 type  1   force =     0.00000000    0.00000000   -0.00000000
     atom    3 type  2   force =     0.00000000    0.00000000    0.00000000
     atom    4 type  2   force =     0.00000000    0.00000000    0.00000000
     atom    5 type  2   force =     0.00000000    0.00000000    0.00000000
     atom    6 type  2   force =     0.00000000    0.00000000    0.00000000
     The Hubbard contrib.    to forces
     atom    1 type  1   force =     0.00000000    0.00000000    0.00000000
     atom    2 type  1   force =     0.00000000    0.00000000    0.00000000
     atom    3 type  2   force =     0.00000000    0.00000000    0.00000000
     atom    4 type  2   force =     0.00000000    0.00000000    0.00000000
     atom    5 type  2   force =     0.00000000    0.00000000    0.00000000
     atom    6 type  2   force =     0.00000000    0.00000000    0.00000000
     The SCF correction term to forces
     atom    1 type  1   force =    -0.00000000   -0.00000000   -0.00000000
     atom    2 type  1   force =     0.00000000   -0.00000000    0.00000000
     atom    3 type  2   force =     0.00000000    0.00000000    0.00005170
     atom    4 type  2   force =     0.00000000   -0.00000000    0.00005170
     atom    5 type  2   force =     0.00000000   -0.00000000   -0.00005170
     atom    6 type  2   force =     0.00000000   -0.00000000   -0.00005170

     Total force =     0.265567     Total SCF correction =     0.000103


     Computing stress (Cartesian axis) and pressure

          total   stress  (Ry/bohr**3)                   (kbar)     P=      186.16
   0.00107826   0.00000000   0.00000000          158.62        0.00        0.00
   0.00000000   0.00107826   0.00000000            0.00      158.62        0.00
   0.00000000   0.00000000   0.00163999            0.00        0.00      241.25

     Energy error            =      4.5E-01 Ry
     Gradient error          =      1.3E-01 Ry/Bohr
     Cell gradient error     =      3.4E+02 kbar

     number of scf cycles    =   2
     number of bfgs steps    =   1

     enthalpy           old  =     -71.5508693874 Ry
     enthalpy           new  =     -72.0035856445 Ry

     CASE: enthalpy          _new < enthalpy          _old

     new trust radius        =       0.6180163684 bohr
ibrav =      6
 celldm(1) =      5.31810444
 celldm(3) =      2.95679139
Input lattice vectors:
     0.81136224     0.00000000     0.00000000
     0.00000000     0.81136224     0.00000000
     0.00000000     0.00000000     2.39902889
New lattice vectors in INITIAL alat:
     0.81136224     0.00000000     0.00000000
     0.00000000     0.81136224     0.00000000
     0.00000000     0.00000000     2.39902889
New lattice vectors in NEW alat (for information only):
     1.00000000     0.00000000     0.00000000
     0.00000000     1.00000000     0.00000000
     0.00000000     0.00000000     2.95679139
Discrepancy in bohr =     0.000000    0.000000    0.000000
     new conv_thr            =       0.0000000100 Ry

     new unit-cell volume =    444.72472 a.u.^3 (    65.90140 Ang^3 )
     density =      2.11494 g/cm^3

CELL_PARAMETERS (alat=  6.55453775)
   0.811362241   0.000000000   0.000000000
   0.000000000   0.811362241   0.000000000
   0.000000000   0.000000000   2.399028890

ATOMIC_POSITIONS (crystal)
Si            0.0000000000        0.0000000000        0.0000000000
Si            0.5000000000        0.5000000000        0.5000000000
Li            0.0000000000        0.5000000000        0.3438485580
Li            0.0000000000        0.5000000000        0.8438485580
Li            0.5000000000        0.0000000000        0.1561514420
Li            0.5000000000        0.0000000000        0.6561514420



     Writing config-only to output data dir ./output/SiLi.save/
     NEW-OLD atomic charge density approx. for the potential

     negative rho (up, down):  5.798E-02 0.000E+00
     extrapolated charge   11.35510, renormalised to   20.00000

     total cpu time spent up to now is       29.5 secs

     Self-consistent Calculation

     iteration #  1     ecut=    80.00 Ry     beta= 0.70
     Davidson diagonalization with overlap
     c_bands:  1 eigenvalues not converged
     ethr =  1.00E-06,  avg # of iterations = 13.0

     total cpu time spent up to now is       32.5 secs

     total energy              =     -73.06902185 Ry
     estimated scf accuracy    <       1.94009365 Ry

     iteration #  2     ecut=    80.00 Ry     beta= 0.70
     Davidson diagonalization with overlap
     ethr =  9.70E-03,  avg # of iterations =  2.0

     total cpu time spent up to now is       33.4 secs

     total energy              =     -73.88334850 Ry
     estimated scf accuracy    <       0.37978211 Ry

     iteration #  3     ecut=    80.00 Ry     beta= 0.70
     Davidson diagonalization with overlap
     ethr =  1.90E-03,  avg # of iterations =  1.8

     total cpu time spent up to now is       34.2 secs

     total energy              =     -73.91479627 Ry
     estimated scf accuracy    <       0.03094917 Ry

     iteration #  4     ecut=    80.00 Ry     beta= 0.70
     Davidson diagonalization with overlap
     ethr =  1.55E-04,  avg # of iterations =  2.1

     total cpu time spent up to now is       34.9 secs

     total energy              =     -73.91717558 Ry
     estimated scf accuracy    <       0.00136706 Ry

     iteration #  5     ecut=    80.00 Ry     beta= 0.70
     Davidson diagonalization with overlap
     ethr =  6.84E-06,  avg # of iterations =  4.9

     total cpu time spent up to now is       35.9 secs

     total energy              =     -73.91742092 Ry
     estimated scf accuracy    <       0.00002144 Ry

     iteration #  6     ecut=    80.00 Ry     beta= 0.70
     Davidson diagonalization with overlap
     ethr =  1.07E-07,  avg # of iterations =  3.2

     total cpu time spent up to now is       36.8 secs

     total energy              =     -73.91742592 Ry
     estimated scf accuracy    <       0.00000087 Ry

     iteration #  7     ecut=    80.00 Ry     beta= 0.70
     Davidson diagonalization with overlap
     ethr =  4.33E-09,  avg # of iterations =  2.7

     total cpu time spent up to now is       37.6 secs

     total energy              =     -73.91742617 Ry
     estimated scf accuracy    <       0.00000004 Ry

     iteration #  8     ecut=    80.00 Ry     beta= 0.70
     Davidson diagonalization with overlap
     ethr =  1.78E-10,  avg # of iterations =  2.8

     total cpu time spent up to now is       38.5 secs

     End of self-consistent calculation

          k = 0.0000 0.0000 0.0000 (  9721 PWs)   bands (ev):

   -39.4029 -39.3907 -39.3111 -39.2994  -3.5584  -3.4369   2.5161   5.2377
     5.9084  10.6549  10.6549  11.1160  11.3139  11.3139

          k = 0.0000 0.0000 0.1389 (  9653 PWs)   bands (ev):

   -39.4001 -39.3941 -39.3079 -39.3020  -3.5297  -3.4691   2.8787   3.9135
     7.6822   9.8959  10.7769  10.7769  11.1267  11.1267

          k = 0.0000 0.1369 0.0000 (  9661 PWs)   bands (ev):

   -39.3974 -39.3860 -39.3111 -39.3001  -3.3739  -3.2480   2.6062   5.2719
     6.0491   8.8881   9.3465  10.8363  11.4837  11.7333

          k = 0.0000 0.1369 0.1389 (  9664 PWs)   bands (ev):

   -39.3948 -39.3891 -39.3081 -39.3026  -3.3443  -3.2814   2.9681   3.9973
     7.7477   8.9536   9.2259  10.2438  10.9558  11.3017

          k = 0.0000 0.2739 0.0000 (  9669 PWs)   bands (ev):

   -39.3826 -39.3730 -39.3122 -39.3030  -2.8279  -2.6906   2.8234   5.0505
     6.4464   6.7450   6.9770  11.1336  11.3654  11.9723

          k = 0.0000 0.2739 0.1389 (  9667 PWs)   bands (ev):

   -39.3806 -39.3755 -39.3098 -39.3049  -2.7959  -2.7270   3.1688   4.1193
     6.6186   6.8021   7.9804  10.2328  11.4764  11.8077

          k = 0.0000 0.4108 0.0000 (  9644 PWs)   bands (ev):

   -39.3625 -39.3552 -39.3164 -39.3095  -1.9542  -1.8089   2.7940   3.4944
     5.2285   6.1280   7.1194   9.4901  12.1752  12.6827

          k = 0.0000 0.4108 0.1389 (  9671 PWs)   bands (ev):

   -39.3614 -39.3565 -39.3152 -39.3105  -1.9212  -1.8469   2.9860   3.3528
     5.1969   5.6400   7.8051   9.7047  12.2668  12.5563

          k = 0.0000 0.5478 0.0000 (  9640 PWs)   bands (ev):

   -39.3422 -39.3367 -39.3262 -39.3208  -0.9285  -0.8293   1.8672   1.8838
     5.1151   5.7120   7.8745   8.5613  11.7571  13.0276

          k = 0.0000 0.5478 0.1389 (  9651 PWs)   bands (ev):

   -39.3420 -39.3369 -39.3260 -39.3209  -0.9067  -0.8534   1.8496   1.9046
     5.2352   5.6356   7.6810   8.4546  13.0729  13.2177

          k = 0.1369 0.1369 0.0000 (  9663 PWs)   bands (ev):

   -39.3921 -39.3814 -39.3110 -39.3007  -3.1893  -3.0584   2.7030   5.3294
     6.1896   8.8755   9.1645   9.2877   9.8421  12.1865

          k = 0.1369 0.1369 0.1389 (  9656 PWs)   bands (ev):

   -39.3897 -39.3844 -39.3082 -39.3031  -3.1586  -3.0932   3.0651   4.0907
     7.8208   8.9319   9.2281   9.2487   9.6344  10.5644

          k = 0.1369 0.2739 0.0000 (  9662 PWs)   bands (ev):

   -39.3778 -39.3689 -39.3117 -39.3032  -2.6428  -2.4992   2.9429   5.2036
     6.5739   6.7923   7.1409   9.4195  10.0844  11.1850

          k = 0.1369 0.2739 0.1389 (  9669 PWs)   bands (ev):

   -39.3759 -39.3713 -39.3094 -39.3050  -2.6093  -2.5375   3.2922   4.2522
     6.7260   6.9223   8.0795   9.5018   9.8610  10.7343

          k = 0.1369 0.4108 0.0000 (  9655 PWs)   bands (ev):

   -39.3585 -39.3519 -39.3153 -39.3090  -1.7682  -1.6149   2.9688   3.6879
     5.3277   6.1719   7.2586   9.6126   9.9684  10.8709

          k = 0.1369 0.4108 0.1389 (  9662 PWs)   bands (ev):

   -39.3575 -39.3532 -39.3141 -39.3099  -1.7332  -1.6553   3.1689   3.5491
     5.2812   5.6992   7.8982   9.7153  10.2155  10.9217

          k = 0.1369 0.5478 0.0000 (  9655 PWs)   bands (ev):

   -39.3392 -39.3343 -39.3241 -39.3194  -0.7400  -0.6339   2.0690   2.0758
     5.1864   5.7754   8.0008   8.6969  10.5834  11.2734

          k = 0.1369 0.5478 0.1389 (  9660 PWs)   bands (ev):

   -39.3390 -39.3345 -39.3240 -39.3195  -0.7163  -0.6599   2.0456   2.1021
     5.3098   5.7014   7.7840   8.5386  11.0354  11.4334

          k = 0.2739 0.2739 0.0000 (  9657 PWs)   bands (ev):

   -39.3651 -39.3579 -39.3111 -39.3043  -2.0949  -1.9349   3.2562   5.4970
     6.5816   6.8828   7.4336   7.4688   7.8565  10.8693

          k = 0.2739 0.2739 0.1389 (  9673 PWs)   bands (ev):

   -39.3634 -39.3599 -39.3092 -39.3058  -2.0578  -1.9779   3.6064   4.5613
     6.7369   7.0899   7.4335   7.4636   8.7351  10.8167

          k = 0.2739 0.4108 0.0000 (  9644 PWs)   bands (ev):

   -39.3480 -39.3430 -39.3127 -39.3081  -1.2184  -1.0431   3.4571   4.2529
     5.6210   6.1947   7.4982   7.6119   8.5758   9.9357

          k = 0.2739 0.4108 0.1389 (  9641 PWs)   bands (ev):

   -39.3471 -39.3442 -39.3117 -39.3089  -1.1781  -1.0902   3.6864   4.1228
     5.4884   5.8234   7.5081   7.8473   9.1524  10.4637

          k = 0.2739 0.5478 0.0000 (  9637 PWs)   bands (ev):

   -39.3314 -39.3280 -39.3191 -39.3159  -0.1847  -0.0592   2.6422   2.6650
     5.3745   5.9201   8.0284   8.1913   9.5528   9.6235

          k = 0.2739 0.5478 0.1389 (  9643 PWs)   bands (ev):

   -39.3313 -39.3283 -39.3190 -39.3160  -0.1557  -0.0909   2.6228   2.6862
     5.4934   5.8568   7.7383   8.1509   9.6790   9.8272

          k = 0.4108 0.4108 0.0000 (  9625 PWs)   bands (ev):

   -39.3345 -39.3314 -39.3114 -39.3086  -0.3407  -0.1418   4.0405   4.9743
     5.2620   5.9037   6.3222   6.5355   8.4000  10.1835

          k = 0.4108 0.4108 0.1389 (  9628 PWs)   bands (ev):

   -39.3338 -39.3322 -39.3106 -39.3092  -0.2950  -0.1959   4.3010   4.9042
     5.1406   5.5643   6.3656   6.4753   9.1624  10.7564

          k = 0.4108 0.5478 0.0000 (  9648 PWs)   bands (ev):

   -39.3220 -39.3204 -39.3140 -39.3125   0.6927   0.8410   3.5382   3.6062
     5.5560   5.8894   6.4555   6.6863   8.7600   9.7257

          k = 0.4108 0.5478 0.1389 (  9632 PWs)   bands (ev):

   -39.3219 -39.3206 -39.3138 -39.3126   0.7285   0.8032   3.5355   3.6150
     5.5606   5.8677   6.4237   6.6631   9.1904   9.8341

          k = 0.5478 0.5478 0.0000 (  9668 PWs)   bands (ev):

   -39.3147 -39.3142 -39.3118 -39.3116   1.6975   1.8104   4.4209   4.5051
     4.8309   4.9593   6.0753   6.1616   7.5525   7.8759

          k = 0.5478 0.5478 0.1389 (  9654 PWs)   bands (ev):

   -39.3146 -39.3143 -39.3117 -39.3116   1.7289   1.7858   4.4946   4.6007
     4.7338   4.7847   6.0200   6.0493   8.0670   8.1986

     the Fermi energy is     6.7892 ev

!    total energy              =     -73.91742617 Ry
     estimated scf accuracy    <          2.4E-10 Ry
     smearing contrib. (-TS)   =      -0.00041403 Ry
     internal energy E=F+TS    =     -73.91701214 Ry

     The total energy is F=E-TS. E is the sum of the following terms:
     one-electron contribution =     -23.21442746 Ry
     hartree contribution      =      13.60761091 Ry
     xc contribution           =     -20.40409137 Ry
     ewald contribution        =     -43.90610422 Ry

     convergence has been achieved in   8 iterations

     Forces acting on atoms (cartesian axes, Ry/au):

     atom    1 type  1   force =     0.00000000    0.00000000    0.00000000
     atom    2 type  1   force =     0.00000000    0.00000000    0.00000000
     atom    3 type  2   force =     0.00000000    0.00000000   -0.21299055
     atom    4 type  2   force =     0.00000000    0.00000000   -0.21299055
     atom    5 type  2   force =     0.00000000    0.00000000    0.21299055
     atom    6 type  2   force =     0.00000000    0.00000000    0.21299055
     The non-local contrib.  to forces
     atom    1 type  1   force =     0.00000000    0.00000000    0.00000000
     atom    2 type  1   force =     0.00000000    0.00000000    0.00000000
     atom    3 type  2   force =     0.00000000    0.00000000   -0.04510512
     atom    4 type  2   force =     0.00000000    0.00000000   -0.04510512
     atom    5 type  2   force =     0.00000000    0.00000000    0.04510512
     atom    6 type  2   force =     0.00000000    0.00000000    0.04510512
     The ionic contribution  to forces
     atom    1 type  1   force =    -0.00000000   -0.00000000   -0.00000000
     atom    2 type  1   force =    -0.00000000   -0.00000000   -0.00000000
     atom    3 type  2   force =     0.00000000   -0.00000000   -1.04838799
     atom    4 type  2   force =    -0.00000000    0.00000000   -1.04838799
     atom    5 type  2   force =     0.00000000   -0.00000000    1.04838799
     atom    6 type  2   force =     0.00000000    0.00000000    1.04838799
     The local contribution  to forces
     atom    1 type  1   force =     0.00000000    0.00000000   -0.00000000
     atom    2 type  1   force =     0.00000000    0.00000000   -0.00000000
     atom    3 type  2   force =    -0.00000000    0.00000000    0.88050618
     atom    4 type  2   force =    -0.00000000    0.00000000    0.88050618
     atom    5 type  2   force =     0.00000000    0.00000000   -0.88050618
     atom    6 type  2   force =     0.00000000    0.00000000   -0.88050618
     The core correction contribution to forces
     atom    1 type  1   force =    -0.00000000    0.00000000   -0.00000000
     atom    2 type  1   force =     0.00000000    0.00000000   -0.00000000
     atom    3 type  2   force =     0.00000000    0.00000000    0.00000000
     atom    4 type  2   force =     0.00000000    0.00000000    0.00000000
     atom    5 type  2   force =     0.00000000    0.00000000    0.00000000
     atom    6 type  2   force =     0.00000000    0.00000000    0.00000000
     The Hubbard contrib.    to forces
     atom    1 type  1   force =     0.00000000    0.00000000    0.00000000
     atom    2 type  1   force =     0.00000000    0.00000000    0.00000000
     atom    3 type  2   force =     0.00000000    0.00000000    0.00000000
     atom    4 type  2   force =     0.00000000    0.00000000    0.00000000
     atom    5 type  2   force =     0.00000000    0.00000000    0.00000000
     atom    6 type  2   force =     0.00000000    0.00000000    0.00000000
     The SCF correction term to forces
     atom    1 type  1   force =    -0.00000000   -0.00000000    0.00000000
     atom    2 type  1   force =     0.00000000    0.00000000   -0.00000000
     atom    3 type  2   force =    -0.00000000    0.00000000   -0.00000361
     atom    4 type  2   force =     0.00000000    0.00000000   -0.00000361
     atom    5 type  2   force =     0.00000000   -0.00000000    0.00000361
     atom    6 type  2   force =     0.00000000   -0.00000000    0.00000361

     Total force =     0.425981     Total SCF correction =     0.000007


     Computing stress (Cartesian axis) and pressure

          total   stress  (Ry/bohr**3)                   (kbar)     P=      523.32
   0.00301063   0.00000000   0.00000000          442.88        0.00        0.00
   0.00000000   0.00301063   0.00000000            0.00      442.88        0.00
   0.00000000   0.00000000   0.00465119            0.00        0.00      684.21

     Energy error            =      4.0E-01 Ry
     Gradient error          =      2.1E-01 Ry/Bohr
     Cell gradient error     =      1.8E+02 kbar

     number of scf cycles    =   3
     number of bfgs steps    =   2

     enthalpy           old  =     -72.0035856445 Ry
     enthalpy           new  =     -72.4058375695 Ry

     CASE: enthalpy          _new < enthalpy          _old

     new trust radius        =       0.3937818741 bohr
ibrav =      6
 celldm(1) =      4.82158420
 celldm(3) =      3.16158684
Input lattice vectors:
     0.73561010     0.00000000     0.00000000
     0.00000000     0.73561010     0.00000000
     0.00000000     0.00000000     2.32569523
New lattice vectors in INITIAL alat:
     0.73561010     0.00000000     0.00000000
     0.00000000     0.73561010     0.00000000
     0.00000000     0.00000000     2.32569523
New lattice vectors in NEW alat (for information only):
     1.00000000     0.00000000     0.00000000
     0.00000000     1.00000000     0.00000000
     0.00000000     0.00000000     3.16158684
Discrepancy in bohr =     0.000000    0.000000    0.000000
     new conv_thr            =       0.0000000100 Ry

     new unit-cell volume =    354.38423 a.u.^3 (    52.51432 Ang^3 )
     density =      2.65408 g/cm^3

CELL_PARAMETERS (alat=  6.55453775)
   0.735610105   0.000000000   0.000000000
   0.000000000   0.735610105   0.000000000
   0.000000000   0.000000000   2.325695225

ATOMIC_POSITIONS (crystal)
Si            0.0000000000        0.0000000000        0.0000000000
Si            0.5000000000        0.5000000000        0.5000000000
Li            0.0000000000        0.5000000000        0.3240989837
Li            0.0000000000        0.5000000000        0.8240989837
Li            0.5000000000        0.0000000000        0.1759010163
Li            0.5000000000        0.0000000000        0.6759010163



     Writing config-only to output data dir ./output/SiLi.save/
     NEW-OLD atomic charge density approx. for the potential

     negative rho (up, down):  1.475E-02 0.000E+00
     extrapolated charge   14.90651, renormalised to   20.00000

     total cpu time spent up to now is       42.1 secs

     Self-consistent Calculation

     iteration #  1     ecut=    80.00 Ry     beta= 0.70
     Davidson diagonalization with overlap
     c_bands:  2 eigenvalues not converged
     c_bands:  1 eigenvalues not converged
     ethr =  1.00E-06,  avg # of iterations = 13.4

     total cpu time spent up to now is       45.0 secs

     total energy              =     -73.61698139 Ry
     estimated scf accuracy    <       0.44450975 Ry

     iteration #  2     ecut=    80.00 Ry     beta= 0.70
     Davidson diagonalization with overlap
     ethr =  2.22E-03,  avg # of iterations =  2.0

     total cpu time spent up to now is       45.9 secs

     total energy              =     -73.80395771 Ry
     estimated scf accuracy    <       0.05364143 Ry

     iteration #  3     ecut=    80.00 Ry     beta= 0.70
     Davidson diagonalization with overlap
     ethr =  2.68E-04,  avg # of iterations =  1.5

     total cpu time spent up to now is       46.6 secs

     total energy              =     -73.80496477 Ry
     estimated scf accuracy    <       0.00445601 Ry

     iteration #  4     ecut=    80.00 Ry     beta= 0.70
     Davidson diagonalization with overlap
     ethr =  2.23E-05,  avg # of iterations =  3.1

     total cpu time spent up to now is       47.5 secs

     total energy              =     -73.80530328 Ry
     estimated scf accuracy    <       0.00085663 Ry

     iteration #  5     ecut=    80.00 Ry     beta= 0.70
     Davidson diagonalization with overlap
     ethr =  4.28E-06,  avg # of iterations =  3.1

     total cpu time spent up to now is       48.4 secs

     total energy              =     -73.80551017 Ry
     estimated scf accuracy    <       0.00002514 Ry

     iteration #  6     ecut=    80.00 Ry     beta= 0.70
     Davidson diagonalization with overlap
     ethr =  1.26E-07,  avg # of iterations =  3.0

     total cpu time spent up to now is       49.2 secs

     total energy              =     -73.80551601 Ry
     estimated scf accuracy    <       0.00000023 Ry

     iteration #  7     ecut=    80.00 Ry     beta= 0.70
     Davidson diagonalization with overlap
     ethr =  1.15E-09,  avg # of iterations =  3.9

     total cpu time spent up to now is       50.1 secs

     total energy              =     -73.80551614 Ry
     estimated scf accuracy    <       0.00000002 Ry

     iteration #  8     ecut=    80.00 Ry     beta= 0.70
     Davidson diagonalization with overlap
     ethr =  1.25E-10,  avg # of iterations =  2.1

     total cpu time spent up to now is       50.9 secs

     End of self-consistent calculation

          k = 0.0000 0.0000 0.0000 (  9721 PWs)   bands (ev):

   -37.1044 -37.0934 -36.7310 -36.7208  -2.5089  -2.4726   4.4356   6.1648
     8.4410  13.0806  15.3612  15.3612  16.4207  16.4207

          k = 0.0000 0.0000 0.1433 (  9653 PWs)   bands (ev):

   -37.1017 -37.0962 -36.7284 -36.7233  -2.4998  -2.4816   4.7096   5.4741
     9.6365  11.7437  15.5365  15.5365  16.0585  16.0585

          k = 0.0000 0.1510 0.0000 (  9661 PWs)   bands (ev):

   -37.0867 -37.0764 -36.7357 -36.7261  -2.2653  -2.2354   4.5331   6.2904
     8.5288  12.3461  12.5450  14.9669  15.5964  16.6407

          k = 0.0000 0.1510 0.1433 (  9664 PWs)   bands (ev):

   -37.0842 -37.0790 -36.7332 -36.7284  -2.2578  -2.2428   4.8110   5.5872
     9.7101  11.5880  12.7078  13.5642  15.7693  16.2870

          k = 0.0000 0.3021 0.0000 (  9669 PWs)   bands (ev):

   -37.0382 -37.0291 -36.7516 -36.7432  -1.5406  -1.5292   4.7785   6.5411
     8.7625   9.4225   9.8380  13.5345  15.0413  16.2935

          k = 0.0000 0.3021 0.1433 (  9667 PWs)   bands (ev):

   -37.0364 -37.0310 -36.7499 -36.7447  -1.5379  -1.5320   5.0594   5.8477
     9.4448   9.5952  10.0675  12.2867  15.3054  16.4584

          k = 0.0000 0.4531 0.0000 (  9644 PWs)   bands (ev):

   -36.9704 -36.9621 -36.7830 -36.7751  -0.3743  -0.3606   4.7824   5.6912
     7.5343   7.8819   9.2073  11.3384  15.5462  17.4129

          k = 0.0000 0.4531 0.1433 (  9671 PWs)   bands (ev):

   -36.9697 -36.9629 -36.7824 -36.7756  -0.3713  -0.3642   4.9828   5.4463
     7.4824   7.6468   9.8316  11.3261  14.3387  17.5594

          k = 0.0000 0.6042 0.0000 (  9640 PWs)   bands (ev):

   -36.8977 -36.8893 -36.8326 -36.8243   1.1308   1.1542   3.4760   3.5616
     7.2439   7.7690   9.5814  10.0293  14.6908  14.7939

          k = 0.0000 0.6042 0.1433 (  9651 PWs)   bands (ev):

   -36.8976 -36.8894 -36.8325 -36.8243   1.1362   1.1479   3.5004   3.5435
     7.3268   7.6578   9.4769  10.0806  14.7015  15.9314

          k = 0.1510 0.1510 0.0000 (  9663 PWs)   bands (ev):

   -37.0698 -37.0601 -36.7397 -36.7308  -2.0208  -1.9985   4.6378   6.4305
     8.6237  12.0745  12.6410  12.7579  14.4174  15.4049

          k = 0.1510 0.1510 0.1433 (  9656 PWs)   bands (ev):

   -37.0674 -37.0626 -36.7374 -36.7329  -2.0152  -2.0040   4.9209   5.7105
     9.7947  11.5031  12.7462  12.9090  13.8757  13.8966

          k = 0.1510 0.3021 0.0000 (  9662 PWs)   bands (ev):

   -37.0232 -37.0149 -36.7537 -36.7461  -1.2938  -1.2930   4.9078   6.7311
     8.8746   9.5673  10.0084  13.0713  13.6596  14.1729

          k = 0.1510 0.3021 0.1433 (  9669 PWs)   bands (ev):

   -37.0215 -37.0168 -36.7520 -36.7477  -1.2940  -1.2930   5.1976   6.0061
     9.5694   9.7609  10.2076  12.3536  13.3349  14.4297

          k = 0.1510 0.4531 0.0000 (  9655 PWs)   bands (ev):

   -36.9585 -36.9510 -36.7822 -36.7752  -0.1391  -0.1100   4.9808   5.9377
     7.6783   8.0085   9.3584  11.4624  13.5482  15.2177

          k = 0.1510 0.4531 0.1433 (  9662 PWs)   bands (ev):

   -36.9577 -36.9518 -36.7816 -36.7758  -0.1324  -0.1178   5.1947   5.6823
     7.6093   7.7660   9.9725  11.5062  13.5075  15.2185

          k = 0.1510 0.6042 0.0000 (  9655 PWs)   bands (ev):

   -36.8894 -36.8820 -36.8282 -36.8209   1.3673   1.4087   3.7285   3.7958
     7.3488   7.8971   9.7673  10.2138  13.8170  14.4535

          k = 0.1510 0.6042 0.1433 (  9660 PWs)   bands (ev):

   -36.8893 -36.8821 -36.8281 -36.8209   1.3770   1.3977   3.7493   3.7828
     7.4415   7.7840   9.6226  10.2473  14.1730  15.1022

          k = 0.3021 0.3021 0.0000 (  9657 PWs)   bands (ev):

   -36.9823 -36.9758 -36.7622 -36.7565  -0.5898  -0.5598   5.2554   7.2047
     9.1741   9.8625  10.0503  10.1156  11.7915  13.1517

          k = 0.3021 0.3021 0.1433 (  9673 PWs)   bands (ev):

   -36.9807 -36.9775 -36.7607 -36.7578  -0.5828  -0.5678   5.5640   6.4176
     9.8292   9.9162  10.1700  10.3320  11.6139  13.4473

          k = 0.3021 0.4531 0.0000 (  9644 PWs)   bands (ev):

   -36.9261 -36.9210 -36.7822 -36.7776   0.5608   0.6348   5.5296   6.6626
     8.1142   8.3190   9.7023  10.6912  11.7153  12.2125

          k = 0.3021 0.4531 0.1433 (  9641 PWs)   bands (ev):

   -36.9253 -36.9218 -36.7816 -36.7782   0.5781   0.6150   5.7868   6.3685
     7.9566   8.1131   9.9967  10.9090  11.9591  12.8589

          k = 0.3021 0.6042 0.0000 (  9637 PWs)   bands (ev):

   -36.8678 -36.8628 -36.8177 -36.8129   2.0691   2.1640   4.4756   4.4889
     7.6359   8.2164  10.1729  10.6302  11.8887  13.1772

          k = 0.3021 0.6042 0.1433 (  9643 PWs)   bands (ev):

   -36.8676 -36.8629 -36.8177 -36.8129   2.0912   2.1387   4.4823   4.4948
     7.7470   8.1116   9.8807  10.4999  12.6338  13.2866

          k = 0.4531 0.4531 0.0000 (  9625 PWs)   bands (ev):

   -36.8830 -36.8801 -36.7887 -36.7865   1.7052   1.8456   6.1886   7.7805
     7.8040   8.6605   8.8299   9.1257  10.8415  11.7806

          k = 0.4531 0.4531 0.1433 (  9628 PWs)   bands (ev):

   -36.8823 -36.8808 -36.7882 -36.7871   1.7376   1.8076   6.4890   7.2445
     8.0064   8.5193   8.7118   8.8734  11.8451  12.6973

          k = 0.4531 0.6042 0.0000 (  9648 PWs)   bands (ev):

   -36.8408 -36.8386 -36.8080 -36.8061   3.2096   3.3872   5.6000   5.6574
     8.0253   8.5152   9.1506   9.6203  11.4273  12.0182

          k = 0.4531 0.6042 0.1433 (  9632 PWs)   bands (ev):

   -36.8407 -36.8387 -36.8080 -36.8061   3.2510   3.3397   5.6217   5.6666
     8.0779   8.4376   9.0624   9.4324  11.9073  12.4776

          k = 0.6042 0.6042 0.0000 (  9668 PWs)   bands (ev):

   -36.8183 -36.8177 -36.8067 -36.8066   4.6974   4.9277   6.7291   6.7857
     7.2192   7.8621   8.4819   8.6301   9.9385  10.6413

          k = 0.6042 0.6042 0.1433 (  9654 PWs)   bands (ev):

   -36.8181 -36.8179 -36.8067 -36.8066   4.7563   4.8722   6.8447   6.9655
     7.0931   7.4620   8.4366   8.4911  10.6884  10.9867

     the Fermi energy is     9.5191 ev

!    total energy              =     -73.80551615 Ry
     estimated scf accuracy    <          7.8E-11 Ry
     smearing contrib. (-TS)   =      -0.00192256 Ry
     internal energy E=F+TS    =     -73.80359358 Ry

     The total energy is F=E-TS. E is the sum of the following terms:
     one-electron contribution =     -16.71561782 Ry
     hartree contribution      =      12.24585942 Ry
     xc contribution           =     -20.79716612 Ry
     ewald contribution        =     -48.53666906 Ry

     convergence has been achieved in   8 iterations

     Forces acting on atoms (cartesian axes, Ry/au):

     atom    1 type  1   force =     0.00000000    0.00000000    0.00000000
     atom    2 type  1   force =     0.00000000    0.00000000    0.00000000
     atom    3 type  2   force =     0.00000000    0.00000000   -0.19536548
     atom    4 type  2   force =     0.00000000    0.00000000   -0.19536548
     atom    5 type  2   force =     0.00000000    0.00000000    0.19536548
     atom    6 type  2   force =     0.00000000    0.00000000    0.19536548
     The non-local contrib.  to forces
     atom    1 type  1   force =     0.00000000    0.00000000   -0.00000000
     atom    2 type  1   force =     0.00000000    0.00000000   -0.00000000
     atom    3 type  2   force =     0.00000000    0.00000000   -0.06331480
     atom    4 type  2   force =     0.00000000    0.00000000   -0.06331480
     atom    5 type  2   force =     0.00000000    0.00000000    0.06331480
     atom    6 type  2   force =     0.00000000    0.00000000    0.06331480
     The ionic contribution  to forces
     atom    1 type  1   force =     0.00000000    0.00000000   -0.00000000
     atom    2 type  1   force =    -0.00000000   -0.00000000    0.00000000
     atom    3 type  2   force =     0.00000000   -0.00000000   -0.48399020
     atom    4 type  2   force =     0.00000000   -0.00000000   -0.48399020
     atom    5 type  2   force =    -0.00000000    0.00000000    0.48399020
     atom    6 type  2   force =     0.00000000    0.00000000    0.48399020
     The local contribution  to forces
     atom    1 type  1   force =    -0.00000000    0.00000000   -0.00000000
     atom    2 type  1   force =     0.00000000   -0.00000000   -0.00000000
     atom    3 type  2   force =     0.00000000   -0.00000000    0.35194423
     atom    4 type  2   force =    -0.00000000   -0.00000000    0.35194423
     atom    5 type  2   force =    -0.00000000    0.00000000   -0.35194423
     atom    6 type  2   force =    -0.00000000   -0.00000000   -0.35194423
     The core correction contribution to forces
     atom    1 type  1   force =    -0.00000000    0.00000000   -0.00000000
     atom    2 type  1   force =     0.00000000    0.00000000   -0.00000000
     atom    3 type  2   force =     0.00000000    0.00000000    0.00000000
     atom    4 type  2   force =     0.00000000    0.00000000    0.00000000
     atom    5 type  2   force =     0.00000000    0.00000000    0.00000000
     atom    6 type  2   force =     0.00000000    0.00000000    0.00000000
     The Hubbard contrib.    to forces
     atom    1 type  1   force =     0.00000000    0.00000000    0.00000000
     atom    2 type  1   force =     0.00000000    0.00000000    0.00000000
     atom    3 type  2   force =     0.00000000    0.00000000    0.00000000
     atom    4 type  2   force =     0.00000000    0.00000000    0.00000000
     atom    5 type  2   force =     0.00000000    0.00000000    0.00000000
     atom    6 type  2   force =     0.00000000    0.00000000    0.00000000
     The SCF correction term to forces
     atom    1 type  1   force =    -0.00000000    0.00000000   -0.00000000
     atom    2 type  1   force =     0.00000000   -0.00000000    0.00000000
     atom    3 type  2   force =    -0.00000000   -0.00000000   -0.00000471
     atom    4 type  2   force =     0.00000000    0.00000000   -0.00000471
     atom    5 type  2   force =     0.00000000   -0.00000000    0.00000471
     atom    6 type  2   force =    -0.00000000   -0.00000000    0.00000471

     Total force =     0.390731     Total SCF correction =     0.000009


     Computing stress (Cartesian axis) and pressure

          total   stress  (Ry/bohr**3)                   (kbar)     P=      833.71
   0.00473970   0.00000000   0.00000000          697.23        0.00        0.00
   0.00000000   0.00473970   0.00000000            0.00      697.23        0.00
   0.00000000   0.00000000   0.00752299            0.00        0.00     1106.67

     Energy error            =      2.0E-01 Ry
     Gradient error          =      2.0E-01 Ry/Bohr
     Cell gradient error     =      6.1E+02 kbar

     number of scf cycles    =   4
     number of bfgs steps    =   3

     enthalpy           old  =     -72.4058375695 Ry
     enthalpy           new  =     -72.6009886454 Ry

     CASE: enthalpy          _new < enthalpy          _old

     new trust radius        =       0.4136907625 bohr
ibrav =      6
 celldm(1) =      4.47597747
 celldm(3) =      3.55173207
Input lattice vectors:
     0.68288225     0.00000000     0.00000000
     0.00000000     0.68288225     0.00000000
     0.00000000     0.00000000     2.42541478
New lattice vectors in INITIAL alat:
     0.68288225     0.00000000     0.00000000
     0.00000000     0.68288225     0.00000000
     0.00000000     0.00000000     2.42541478
New lattice vectors in NEW alat (for information only):
     1.00000000     0.00000000     0.00000000
     0.00000000     1.00000000     0.00000000
     0.00000000     0.00000000     3.55173207
Discrepancy in bohr =     0.000000    0.000000    0.000000
     new conv_thr            =       0.0000000100 Ry

     new unit-cell volume =    318.49592 a.u.^3 (    47.19623 Ang^3 )
     density =      2.95315 g/cm^3

CELL_PARAMETERS (alat=  6.55453775)
   0.682882247   0.000000000   0.000000000
   0.000000000   0.682882247   0.000000000
   0.000000000   0.000000000   2.425414776

ATOMIC_POSITIONS (crystal)
Si            0.0000000000        0.0000000000        0.0000000000
Si            0.5000000000        0.5000000000        0.5000000000
Li            0.0000000000        0.5000000000        0.2969607890
Li            0.0000000000        0.5000000000        0.7969607890
Li            0.5000000000        0.0000000000        0.2030392110
Li            0.5000000000        0.0000000000        0.7030392110



     Writing config-only to output data dir ./output/SiLi.save/
     NEW-OLD atomic charge density approx. for the potential

     negative rho (up, down):  1.958E-03 0.000E+00
     extrapolated charge   17.74858, renormalised to   20.00000

     total cpu time spent up to now is       54.4 secs

     Self-consistent Calculation

     iteration #  1     ecut=    80.00 Ry     beta= 0.70
     Davidson diagonalization with overlap
     c_bands:  2 eigenvalues not converged
     ethr =  1.00E-06,  avg # of iterations = 14.2

     total cpu time spent up to now is       57.4 secs

     total energy              =     -73.70117783 Ry
     estimated scf accuracy    <       0.19617186 Ry

     iteration #  2     ecut=    80.00 Ry     beta= 0.70
     Davidson diagonalization with overlap
     ethr =  9.81E-04,  avg # of iterations =  3.4

     total cpu time spent up to now is       58.5 secs

     total energy              =     -73.77769718 Ry
     estimated scf accuracy    <       0.51267997 Ry

     iteration #  3     ecut=    80.00 Ry     beta= 0.70
     Davidson diagonalization with overlap
     ethr =  9.81E-04,  avg # of iterations =  2.1

     total cpu time spent up to now is       59.2 secs

     total energy              =     -73.83286625 Ry
     estimated scf accuracy    <       0.02152377 Ry

     iteration #  4     ecut=    80.00 Ry     beta= 0.70
     Davidson diagonalization with overlap
     ethr =  1.08E-04,  avg # of iterations =  2.9

     total cpu time spent up to now is       60.1 secs

     total energy              =     -73.83860066 Ry
     estimated scf accuracy    <       0.00118424 Ry

     iteration #  5     ecut=    80.00 Ry     beta= 0.70
     Davidson diagonalization with overlap
     ethr =  5.92E-06,  avg # of iterations =  2.7

     total cpu time spent up to now is       60.9 secs

     total energy              =     -73.83863585 Ry
     estimated scf accuracy    <       0.00018194 Ry

     iteration #  6     ecut=    80.00 Ry     beta= 0.70
     Davidson diagonalization with overlap
     ethr =  9.10E-07,  avg # of iterations =  2.6

     total cpu time spent up to now is       61.7 secs

     total energy              =     -73.83867564 Ry
     estimated scf accuracy    <       0.00000051 Ry

     iteration #  7     ecut=    80.00 Ry     beta= 0.70
     Davidson diagonalization with overlap
     ethr =  2.53E-09,  avg # of iterations =  4.1

     total cpu time spent up to now is       62.6 secs

     total energy              =     -73.83867598 Ry
     estimated scf accuracy    <       0.00000024 Ry

     iteration #  8     ecut=    80.00 Ry     beta= 0.70
     Davidson diagonalization with overlap
     ethr =  1.22E-09,  avg # of iterations =  2.1

     total cpu time spent up to now is       63.4 secs

     End of self-consistent calculation

          k = 0.0000 0.0000 0.0000 (  9721 PWs)   bands (ev):

   -36.6684 -36.6655 -35.4556 -35.4533  -2.3483  -2.1625   5.1337   5.2366
    10.9112  15.0171  15.5395  19.4981  19.4981  20.0832

          k = 0.0000 0.0000 0.1374 (  9653 PWs)   bands (ev):

   -36.6677 -36.6663 -35.4550 -35.4539  -2.3031  -2.2103   5.1564   5.2075
    11.4610  12.9938  19.6963  19.6963  20.3058  20.3058

          k = 0.0000 0.1627 0.0000 (  9661 PWs)   bands (ev):

   -36.6222 -36.6194 -35.4814 -35.4791  -2.0468  -1.8677   5.3058   5.4725
    10.9067  14.4795  14.9761  16.2283  17.5045  19.4738

          k = 0.0000 0.1627 0.1374 (  9664 PWs)   bands (ev):

   -36.6216 -36.6201 -35.4809 -35.4795  -2.0032  -1.9136   5.3419   5.4246
    11.4551  12.9240  15.4858  16.1271  19.0241  19.7003

          k = 0.0000 0.3254 0.0000 (  9669 PWs)   bands (ev):

   -36.4924 -36.4892 -35.5600 -35.5569  -1.1476  -0.9891   5.7977   6.1500
    10.8166  11.6009  11.8938  14.6358  16.6845  17.8308

          k = 0.0000 0.3254 0.1374 (  9667 PWs)   bands (ev):

   -36.4921 -36.4895 -35.5598 -35.5571  -1.1088  -1.0295   5.8711   6.0453
    11.1183  11.7341  11.9205  13.5116  17.0338  18.1708

          k = 0.0000 0.4881 0.0000 (  9644 PWs)   bands (ev):

   -36.3026 -36.2980 -35.6923 -35.6875   0.3324   0.4549   6.3806   6.9501
     8.4457   8.6167  10.9283  12.3506  16.7144  16.8139

          k = 0.0000 0.4881 0.1374 (  9671 PWs)   bands (ev):

   -36.3025 -36.2981 -35.6922 -35.6876   0.3624   0.4243   6.4944   6.7781
     8.4791   8.5771  11.3038  12.1918  15.6665  16.7617

          k = 0.0000 0.6508 0.0000 (  9640 PWs)   bands (ev):

   -36.0849 -36.0791 -35.8725 -35.8666   2.3456   2.4208   4.8805   4.9546
     8.1996   8.5576  10.5485  10.5737  15.5780  15.5976

          k = 0.0000 0.6508 0.1374 (  9651 PWs)   bands (ev):

   -36.0849 -36.0791 -35.8725 -35.8666   2.3628   2.4036   4.8942   4.9425
     8.2681   8.4562  10.4422  10.6928  15.5237  16.5980

          k = 0.1627 0.1627 0.0000 (  9663 PWs)   bands (ev):

   -36.5779 -36.5754 -35.5047 -35.5027  -1.7451  -1.5739   5.4765   5.7153
    10.9162  14.1559  15.0224  15.3882  17.2065  17.4050

          k = 0.1627 0.1627 0.1374 (  9656 PWs)   bands (ev):

   -36.5773 -36.5760 -35.5042 -35.5032  -1.7033  -1.6177   5.5274   5.6455
    11.4704  12.8934  15.3799  15.4164  16.7057  17.2137

          k = 0.1627 0.3254 0.0000 (  9662 PWs)   bands (ev):

   -36.4538 -36.4512 -35.5767 -35.5743  -0.8450  -0.6984   5.9659   6.4132
    10.8844  11.7950  12.0284  14.7604  15.9097  16.6959

          k = 0.1627 0.3254 0.1374 (  9669 PWs)   bands (ev):

   -36.4535 -36.4515 -35.5765 -35.5745  -0.8090  -0.7357   6.0576   6.2775
    11.2417  11.9404  12.0034  13.6728  15.9183  16.6888

          k = 0.1627 0.4881 0.0000 (  9655 PWs)   bands (ev):

   -36.2731 -36.2692 -35.6990 -35.6950   0.6360   0.7403   6.5705   7.2484
     8.6578   8.8509  11.0406  12.4707  15.6189  16.8894

          k = 0.1627 0.4881 0.1374 (  9662 PWs)   bands (ev):

   -36.2730 -36.2693 -35.6990 -35.6950   0.6616   0.7144   6.7044   7.0385
     8.6923   8.8059  11.4358  12.3749  15.1688  16.4253

          k = 0.1627 0.6508 0.0000 (  9655 PWs)   bands (ev):

   -36.0670 -36.0619 -35.8672 -35.8620   2.6491   2.6993   5.1746   5.2244
     8.3439   8.7882  10.7472  10.7706  15.0900  15.4126

          k = 0.1627 0.6508 0.1374 (  9660 PWs)   bands (ev):

   -36.0670 -36.0619 -35.8672 -35.8620   2.6598   2.6888   5.1818   5.2198
     8.4313   8.6640  10.6076  10.8981  15.2363  16.3238

          k = 0.3254 0.3254 0.0000 (  9657 PWs)   bands (ev):

   -36.3463 -36.3445 -35.6291 -35.6279   0.0572   0.1674   6.4502   7.1729
    11.0287  11.8323  12.2226  12.4345  14.5431  15.1466

          k = 0.3254 0.3254 0.1374 (  9673 PWs)   bands (ev):

   -36.3458 -36.3450 -35.6288 -35.6282   0.0846   0.1397   6.5913   6.9418
    11.4243  11.7540  12.4349  12.5848  13.8794  14.6168

          k = 0.3254 0.4881 0.0000 (  9644 PWs)   bands (ev):

   -36.1919 -36.1896 -35.7225 -35.7203   1.5403   1.5895   7.1035   8.1261
     9.2548   9.5165  11.2758  12.6340  12.9973  15.3510

          k = 0.3254 0.4881 0.1374 (  9641 PWs)   bands (ev):

   -36.1918 -36.1898 -35.7225 -35.7204   1.5525   1.5775   7.2958   7.7865
     9.2931   9.4606  11.6090  12.6680  13.3036  15.2885

          k = 0.3254 0.6508 0.0000 (  9637 PWs)   bands (ev):

   -36.0192 -36.0159 -35.8559 -35.8526   3.5255   3.5510   6.0205   6.0418
     8.7438   9.3893  11.2610  11.3203  13.6289  14.9318

          k = 0.3254 0.6508 0.1374 (  9643 PWs)   bands (ev):

   -36.0192 -36.0159 -35.8559 -35.8526   3.5297   3.5463   6.0224   6.0464
     8.8787   9.2252  10.9796  11.3968  14.2799  15.4830

          k = 0.4881 0.4881 0.0000 (  9625 PWs)   bands (ev):

   -36.0782 -36.0774 -35.7707 -35.7703   2.9812   3.0234   7.8383   9.3942
    10.0255  10.0660  10.1455  11.2024  12.3473  13.0810

          k = 0.4881 0.4881 0.1374 (  9628 PWs)   bands (ev):

   -36.0780 -36.0776 -35.7706 -35.7704   2.9912   3.0123   8.1023   8.8106
    10.0268  10.0997  10.3052  10.8555  13.1785  14.0937

          k = 0.4881 0.6508 0.0000 (  9648 PWs)   bands (ev):

   -35.9574 -35.9560 -35.8504 -35.8491   4.8699   5.0198   7.2926   7.3969
     9.3087   9.9960  11.1403  11.4485  12.6014  13.7983

          k = 0.4881 0.6508 0.1374 (  9632 PWs)   bands (ev):

   -35.9574 -35.9560 -35.8504 -35.8491   4.9046   4.9795   7.3285   7.3840
     9.4675   9.8785  10.8639  11.1196  13.6422  14.0904

          k = 0.6508 0.6508 0.0000 (  9668 PWs)   bands (ev):

   -35.9005 -35.9003 -35.8632 -35.8632   6.6693   6.9409   8.5265   8.8171
     8.9747   9.8453  10.1251  10.2341  11.8963  13.1391

          k = 0.6508 0.6508 0.1374 (  9654 PWs)   bands (ev):

   -35.9005 -35.9004 -35.8632 -35.8632   6.7327   6.8680   8.6380   8.8613
     9.0112   9.5612   9.9385  10.1758  12.6799  13.3128

     the Fermi energy is    10.9724 ev

!    total energy              =     -73.83867603 Ry
     estimated scf accuracy    <          2.6E-09 Ry
     smearing contrib. (-TS)   =      -0.00182303 Ry
     internal energy E=F+TS    =     -73.83685300 Ry

     The total energy is F=E-TS. E is the sum of the following terms:
     one-electron contribution =     -14.44519703 Ry
     hartree contribution      =      11.97809509 Ry
     xc contribution           =     -20.92460005 Ry
     ewald contribution        =     -50.44515101 Ry

     convergence has been achieved in   8 iterations

     Forces acting on atoms (cartesian axes, Ry/au):

     atom    1 type  1   force =     0.00000000    0.00000000    0.00000000
     atom    2 type  1   force =     0.00000000    0.00000000    0.00000000
     atom    3 type  2   force =     0.00000000    0.00000000   -0.03762554
     atom    4 type  2   force =     0.00000000    0.00000000   -0.03762554
     atom    5 type  2   force =     0.00000000    0.00000000    0.03762554
     atom    6 type  2   force =     0.00000000    0.00000000    0.03762554
     The non-local contrib.  to forces
     atom    1 type  1   force =     0.00000000    0.00000000   -0.00000000
     atom    2 type  1   force =     0.00000000    0.00000000   -0.00000000
     atom    3 type  2   force =     0.00000000    0.00000000   -0.14097943
     atom    4 type  2   force =     0.00000000    0.00000000   -0.14097943
     atom    5 type  2   force =     0.00000000    0.00000000    0.14097943
     atom    6 type  2   force =     0.00000000    0.00000000    0.14097943
     The ionic contribution  to forces
     atom    1 type  1   force =     0.00000000    0.00000000   -0.00000000
     atom    2 type  1   force =     0.00000000    0.00000000    0.00000000
     atom    3 type  2   force =     0.00000000    0.00000000    0.52796332
     atom    4 type  2   force =     0.00000000    0.00000000    0.52796332
     atom    5 type  2   force =     0.00000000    0.00000000   -0.52796332
     atom    6 type  2   force =     0.00000000    0.00000000   -0.52796332
     The local contribution  to forces
     atom    1 type  1   force =     0.00000000    0.00000000   -0.00000000
     atom    2 type  1   force =    -0.00000000   -0.00000000   -0.00000000
     atom    3 type  2   force =    -0.00000000   -0.00000000   -0.42457655
     atom    4 type  2   force =    -0.00000000   -0.00000000   -0.42457655
     atom    5 type  2   force =    -0.00000000    0.00000000    0.42457655
     atom    6 type  2   force =    -0.00000000    0.00000000    0.42457655
     The core correction contribution to forces
     atom    1 type  1   force =    -0.00000000    0.00000000   -0.00000000
     atom    2 type  1   force =     0.00000000    0.00000000   -0.00000000
     atom    3 type  2   force =     0.00000000    0.00000000    0.00000000
     atom    4 type  2   force =     0.00000000    0.00000000    0.00000000
     atom    5 type  2   force =     0.00000000    0.00000000    0.00000000
[...]
                l(1) =   0
                l(2) =   0
                l(3) =   1
                l(4) =   1
                l(5) =   2
                l(6) =   2

     PseudoPot. # 2 for Li read from file:
     ../pseudo/Li_ONCV_PBE_sr.upf
     MD5 check sum: 50ff420e78310ffa21704f3361e624a4
     Pseudo is Norm-conserving, Zval =  3.0
     Generated using ONCVPSP code by D. R. Hamann
     Using radial grid of 1944 points,  4 beta functions with: 
                l(1) =   0
                l(2) =   0
                l(3) =   1
                l(4) =   1

     atomic species   valence    mass     pseudopotential
        Si             4.00    28.08550     Si( 1.00)
        Li             3.00     6.94100     Li( 1.00)

     16 Sym. Ops., with inversion, found ( 8 have fractional translation)



   Cartesian axes

     site n.     atom                  positions (alat units)
         1           Si  tau(   1) = (   0.0000000   0.0000000  -0.0000000  )
         2           Si  tau(   2) = (   0.3919120   0.3919120   1.0645128  )
         3           Li  tau(   3) = (   0.0000000   0.3919120   0.5322660  )
         4           Li  tau(   4) = (   0.0000000   0.3919120   1.5967788  )
         5           Li  tau(   5) = (   0.3919120   0.0000000   0.5322468  )
         6           Li  tau(   6) = (   0.3919120   0.0000000   1.5967597  )

     number of k points=    30  Marzari-Vanderbilt smearing, width (Ry)=  0.0200
                       cart. coord. in units 2pi/alat
        k(    1) = (   0.0000000   0.0000000   0.0000000), wk =   0.0082305
        k(    2) = (   0.0000000   0.0000000   0.1565661), wk =   0.0164609
        k(    3) = (   0.0000000   0.1417552   0.0000000), wk =   0.0329218
        k(    4) = (   0.0000000   0.1417552   0.1565661), wk =   0.0658436
        k(    5) = (   0.0000000   0.2835103   0.0000000), wk =   0.0329218
        k(    6) = (   0.0000000   0.2835103   0.1565661), wk =   0.0658436
        k(    7) = (   0.0000000   0.4252655   0.0000000), wk =   0.0329218
        k(    8) = (   0.0000000   0.4252655   0.1565661), wk =   0.0658436
        k(    9) = (   0.0000000   0.5670207   0.0000000), wk =   0.0329218
        k(   10) = (   0.0000000   0.5670207   0.1565661), wk =   0.0658436
        k(   11) = (   0.1417552   0.1417552   0.0000000), wk =   0.0329218
        k(   12) = (   0.1417552   0.1417552   0.1565661), wk =   0.0658436
        k(   13) = (   0.1417552   0.2835103   0.0000000), wk =   0.0658436
        k(   14) = (   0.1417552   0.2835103   0.1565661), wk =   0.1316872
        k(   15) = (   0.1417552   0.4252655   0.0000000), wk =   0.0658436
        k(   16) = (   0.1417552   0.4252655   0.1565661), wk =   0.1316872
        k(   17) = (   0.1417552   0.5670207   0.0000000), wk =   0.0658436
        k(   18) = (   0.1417552   0.5670207   0.1565661), wk =   0.1316872
        k(   19) = (   0.2835103   0.2835103   0.0000000), wk =   0.0329218
        k(   20) = (   0.2835103   0.2835103   0.1565661), wk =   0.0658436
        k(   21) = (   0.2835103   0.4252655   0.0000000), wk =   0.0658436
        k(   22) = (   0.2835103   0.4252655   0.1565661), wk =   0.1316872
        k(   23) = (   0.2835103   0.5670207   0.0000000), wk =   0.0658436
        k(   24) = (   0.2835103   0.5670207   0.1565661), wk =   0.1316872
        k(   25) = (   0.4252655   0.4252655   0.0000000), wk =   0.0329218
        k(   26) = (   0.4252655   0.4252655   0.1565661), wk =   0.0658436
        k(   27) = (   0.4252655   0.5670207   0.0000000), wk =   0.0658436
        k(   28) = (   0.4252655   0.5670207   0.1565661), wk =   0.1316872
        k(   29) = (   0.5670207   0.5670207   0.0000000), wk =   0.0329218
        k(   30) = (   0.5670207   0.5670207   0.1565661), wk =   0.0658436

     Dense  grid:    35679 G-vectors     FFT dimensions: (  30,  30,  80)

     Estimated max dynamical RAM per process >      19.03 MB

     Estimated total dynamical RAM >     152.25 MB

     Initial potential from superposition of free atoms

     starting charge      19.9805, renormalised to      20.0000
     Starting wfcs are   16 randomized atomic wfcs

     total cpu time spent up to now is      224.4 secs

     Self-consistent Calculation

     iteration #  1     ecut=    80.00 Ry     beta= 0.70
     Davidson diagonalization with overlap
     c_bands:  2 eigenvalues not converged
     c_bands:  1 eigenvalues not converged
     c_bands:  1 eigenvalues not converged
     c_bands:  2 eigenvalues not converged
     c_bands:  2 eigenvalues not converged
     c_bands:  1 eigenvalues not converged
     c_bands:  1 eigenvalues not converged
     c_bands:  1 eigenvalues not converged
     ethr =  1.00E-06,  avg # of iterations = 17.8

     total cpu time spent up to now is      225.6 secs

     total energy              =     -74.18312324 Ry
     estimated scf accuracy    <       0.14799935 Ry

     iteration #  2     ecut=    80.00 Ry     beta= 0.70
     Davidson diagonalization with overlap
     ethr =  7.40E-04,  avg # of iterations =  2.0

     total cpu time spent up to now is      226.0 secs

     total energy              =     -74.21133374 Ry
     estimated scf accuracy    <       0.01783190 Ry

     iteration #  3     ecut=    80.00 Ry     beta= 0.70
     Davidson diagonalization with overlap
     ethr =  8.92E-05,  avg # of iterations =  2.0

     total cpu time spent up to now is      226.3 secs

     total energy              =     -74.21459370 Ry
     estimated scf accuracy    <       0.00038324 Ry

     iteration #  4     ecut=    80.00 Ry     beta= 0.70
     Davidson diagonalization with overlap
     ethr =  1.92E-06,  avg # of iterations =  4.3

     total cpu time spent up to now is      226.7 secs

     total energy              =     -74.21462250 Ry
     estimated scf accuracy    <       0.00001517 Ry

     iteration #  5     ecut=    80.00 Ry     beta= 0.70
     Davidson diagonalization with overlap
     ethr =  7.59E-08,  avg # of iterations =  2.7

     total cpu time spent up to now is      227.0 secs

     total energy              =     -74.21462598 Ry
     estimated scf accuracy    <       0.00000108 Ry

     iteration #  6     ecut=    80.00 Ry     beta= 0.70
     Davidson diagonalization with overlap
     ethr =  5.40E-09,  avg # of iterations =  2.2

     total cpu time spent up to now is      227.4 secs

     total energy              =     -74.21462628 Ry
     estimated scf accuracy    <       0.00000006 Ry

     iteration #  7     ecut=    80.00 Ry     beta= 0.70
     Davidson diagonalization with overlap
     ethr =  3.24E-10,  avg # of iterations =  2.4

     total cpu time spent up to now is      227.7 secs

     total energy              =     -74.21462630 Ry
     estimated scf accuracy    <          2.2E-10 Ry

     iteration #  8     ecut=    80.00 Ry     beta= 0.70
     Davidson diagonalization with overlap
     ethr =  1.10E-12,  avg # of iterations =  4.1

     total cpu time spent up to now is      228.1 secs

     total energy              =     -74.21462630 Ry
     estimated scf accuracy    <          2.6E-10 Ry

     iteration #  9     ecut=    80.00 Ry     beta= 0.70
     Davidson diagonalization with overlap
     ethr =  1.10E-12,  avg # of iterations =  2.0

     total cpu time spent up to now is      228.4 secs

     End of self-consistent calculation

          k = 0.0000 0.0000 0.0000 (  4471 PWs)   bands (ev):

   -37.8176 -37.8146 -36.8858 -36.8852  -2.3157  -2.1929   4.2330   5.0697
    12.6178  13.1986  13.1986  15.4863  15.4864  15.8511

          k = 0.0000 0.0000 0.1566 (  4476 PWs)   bands (ev):

   -37.8168 -37.8154 -36.8857 -36.8854  -2.2846  -2.2232   4.4065   4.8181
    13.4723  13.4723  13.4898  14.2904  14.2904  15.3630

          k = 0.0000 0.1418 0.0000 (  4473 PWs)   bands (ev):

   -37.7875 -37.7847 -36.9117 -36.9111  -2.0804  -1.9833   4.3539   5.2784
    11.0397  12.1873  12.8117  13.4171  14.2316  16.0925

          k = 0.0000 0.1418 0.1566 (  4461 PWs)   bands (ev):

   -37.7868 -37.7854 -36.9116 -36.9113  -2.0557  -2.0071   4.5447   4.9988
    11.2475  11.7971  13.6339  13.6899  14.5049  14.9846

          k = 0.0000 0.2835 0.0000 (  4453 PWs)   bands (ev):

   -37.7016 -37.6991 -36.9871 -36.9864  -1.3812  -1.3600   4.7167   5.8763
     8.1499   9.1762  12.0001  12.7212  14.0652  15.5869

          k = 0.0000 0.2835 0.1566 (  4456 PWs)   bands (ev):

   -37.7009 -37.6997 -36.9869 -36.9866  -1.3756  -1.3651   4.9539   5.5212
     8.3364   8.8218  12.5831  13.9461  14.1163  14.3348

          k = 0.0000 0.4253 0.0000 (  4450 PWs)   bands (ev):

   -37.5717 -37.5697 -37.1049 -37.1041  -0.3473  -0.2487   5.3185   5.5806
     6.3426   6.6850  10.3197  12.8670  14.0807  14.7064

          k = 0.0000 0.4253 0.1566 (  4439 PWs)   bands (ev):

   -37.5712 -37.5702 -37.1047 -37.1043  -0.3241  -0.2748   5.5282   5.8223
     5.9928   6.4167  10.6993  12.1494  14.2259  15.3697

          k = 0.0000 0.5670 0.0000 (  4446 PWs)   bands (ev):

   -37.4155 -37.4140 -37.2533 -37.2522   0.9313   1.1154   3.6097   4.0202
     6.1245   6.8804  10.1031  11.6716  13.2255  13.8508

          k = 0.0000 0.5670 0.1566 (  4447 PWs)   bands (ev):

   -37.4151 -37.4143 -37.2530 -37.2525   0.9754   1.0675   3.6748   3.8757
     6.4595   6.9201   9.6833  10.4221  14.8305  15.7658

          k = 0.1418 0.1418 0.0000 (  4467 PWs)   bands (ev):

   -37.7590 -37.7563 -36.9357 -36.9351  -1.8456  -1.7746   4.4707   5.4841
    10.9313  11.4795  11.8950  12.4231  13.4705  14.0700

          k = 0.1418 0.1418 0.1566 (  4461 PWs)   bands (ev):

   -37.7583 -37.7569 -36.9356 -36.9353  -1.8274  -1.7918   4.6788   5.1757
    11.1987  11.5727  11.7791  11.9469  13.9352  15.6064

          k = 0.1418 0.2835 0.0000 (  4452 PWs)   bands (ev):

   -37.6775 -37.6751 -37.0058 -37.0052  -1.1541  -1.1477   4.8210   6.0687
     8.2839   9.3113  11.6748  11.7487  12.4372  14.0779

          k = 0.1418 0.2835 0.1566 (  4463 PWs)   bands (ev):

   -37.6769 -37.6757 -37.0057 -37.0053  -1.1525  -1.1493   5.0751   5.6843
     8.4779   8.9711  11.6698  11.6971  13.8361  14.3800

          k = 0.1418 0.4253 0.0000 (  4440 PWs)   bands (ev):

   -37.5545 -37.5526 -37.1158 -37.1150  -0.1461  -0.0181   5.4013   5.7436
     6.5416   6.8294  10.3022  12.1978  12.5039  14.2951

          k = 0.1418 0.4253 0.1566 (  4446 PWs)   bands (ev):

   -37.5541 -37.5531 -37.1156 -37.1152  -0.1161  -0.0523   5.6359   5.9832
     6.1472   6.5832  10.5094  11.5131  13.7965  14.1999

          k = 0.1418 0.5670 0.0000 (  4443 PWs)   bands (ev):

   -37.4072 -37.4057 -37.2547 -37.2536   1.1283   1.3364   3.7956   4.2341
     6.1785   6.9296  10.2717  11.8868  12.5424  12.5761

          k = 0.1418 0.5670 0.1566 (  4454 PWs)   bands (ev):

   -37.4068 -37.4061 -37.2544 -37.2539   1.1781   1.2822   3.8613   4.0754
     6.5298   6.9959   9.6929  10.3706  14.0627  14.1394

          k = 0.2835 0.2835 0.0000 (  4444 PWs)   bands (ev):

   -37.6089 -37.6068 -37.0609 -37.0602  -0.5423  -0.4543   5.1328   6.5963
     8.2933   9.1824   9.3001  11.0012  11.0103  12.8625

          k = 0.2835 0.2835 0.1566 (  4452 PWs)   bands (ev):

   -37.6084 -37.6073 -37.0607 -37.0604  -0.5215  -0.4775   5.4296   6.1418
     8.5874   9.2129   9.2717   9.4782  13.1579  13.9081

          k = 0.2835 0.4253 0.0000 (  4455 PWs)   bands (ev):

   -37.5062 -37.5045 -37.1482 -37.1474   0.4508   0.6655   5.6457   6.1989
     7.0834   7.1672   9.5942  10.3037  11.0442  12.7455

          k = 0.2835 0.4253 0.1566 (  4449 PWs)   bands (ev):

   -37.5058 -37.5049 -37.1480 -37.1476   0.5001   0.6069   5.9255   6.4575
     6.5418   7.0690   9.5239   9.5706  12.4558  13.7480

          k = 0.2835 0.5670 0.0000 (  4442 PWs)   bands (ev):

   -37.3844 -37.3831 -37.2599 -37.2590   1.7101   1.9875   4.3427   4.8602
     6.3291   7.0274  10.3452  10.8061  10.9690  12.5292

          k = 0.2835 0.5670 0.1566 (  4454 PWs)   bands (ev):

   -37.3840 -37.3834 -37.2597 -37.2592   1.7762   1.9151   4.4060   4.6567
     6.7171   7.1660   9.5080   9.7397  12.5587  12.8334

          k = 0.4253 0.4253 0.0000 (  4436 PWs)   bands (ev):

   -37.4351 -37.4337 -37.2011 -37.2003   1.4169   1.7629   6.0385   6.4891
     7.3476   7.3681   7.7363   9.1916  10.6500  11.5746

          k = 0.4253 0.4253 0.1566 (  4435 PWs)   bands (ev):

   -37.4347 -37.4340 -37.2009 -37.2005   1.4940   1.6657   6.2668   6.8811
     6.9488   7.4557   7.6396   8.1315  11.7145  12.8987

          k = 0.4253 0.5670 0.0000 (  4453 PWs)   bands (ev):

   -37.3528 -37.3517 -37.2715 -37.2706   2.6403   3.0139   5.1992   5.8097
     6.5453   7.0658   8.2468   9.0166  11.3283  11.7645

          k = 0.4253 0.5670 0.1566 (  4451 PWs)   bands (ev):

   -37.3525 -37.3520 -37.2713 -37.2708   2.7305   2.9187   5.2438   5.5431
     6.9353   7.2147   8.1539   8.4875  11.7224  12.4641

          k = 0.5670 0.5670 0.0000 (  4454 PWs)   bands (ev):

   -37.3198 -37.3188 -37.2915 -37.2906   3.7774   4.1120   6.0055   6.4598
     6.7813   6.9356   6.9767   7.4204   9.9075  10.6508

          k = 0.5670 0.5670 0.1566 (  4445 PWs)   bands (ev):

   -37.3195 -37.3191 -37.2913 -37.2908   3.8814   4.0584   6.0071   6.4313
     6.5701   6.8073   7.0147   7.3692  10.9102  11.2663

     the Fermi energy is     8.9515 ev

!    total energy              =     -74.21462630 Ry
     estimated scf accuracy    <          5.0E-12 Ry
     smearing contrib. (-TS)   =       0.00019239 Ry
     internal energy E=F+TS    =     -74.21481869 Ry

     The total energy is F=E-TS. E is the sum of the following terms:
     one-electron contribution =     -18.76792765 Ry
     hartree contribution      =      12.81675247 Ry
     xc contribution           =     -20.57486586 Ry
     ewald contribution        =     -47.68877765 Ry

     convergence has been achieved in   9 iterations

     Forces acting on atoms (cartesian axes, Ry/au):

     atom    1 type  1   force =     0.00000000    0.00000000    0.00000000
     atom    2 type  1   force =     0.00000000    0.00000000    0.00000000
     atom    3 type  2   force =     0.00000000    0.00000000   -0.00000960
     atom    4 type  2   force =     0.00000000    0.00000000   -0.00000960
     atom    5 type  2   force =     0.00000000    0.00000000    0.00000960
     atom    6 type  2   force =     0.00000000    0.00000000    0.00000960
     The non-local contrib.  to forces
     atom    1 type  1   force =     0.00000000    0.00000000    0.00000000
     atom    2 type  1   force =     0.00000000    0.00000000    0.00000000
     atom    3 type  2   force =     0.00000000    0.00000000   -0.00001078
     atom    4 type  2   force =     0.00000000    0.00000000   -0.00001078
     atom    5 type  2   force =     0.00000000    0.00000000    0.00001078
     atom    6 type  2   force =     0.00000000    0.00000000    0.00001078
     The ionic contribution  to forces
     atom    1 type  1   force =    -0.00000000   -0.00000000   -0.00000000
     atom    2 type  1   force =     0.00000000    0.00000000    0.00000000
     atom    3 type  2   force =    -0.00000000    0.00000000    0.00002971
     atom    4 type  2   force =    -0.00000000    0.00000000    0.00002971
     atom    5 type  2   force =     0.00000000   -0.00000000   -0.00002971
     atom    6 type  2   force =     0.00000000   -0.00000000   -0.00002971
     The local contribution  to forces
     atom    1 type  1   force =     0.00000000   -0.00000000   -0.00000000
     atom    2 type  1   force =    -0.00000000   -0.00000000   -0.00000000
     atom    3 type  2   force =     0.00000000    0.00000000   -0.00002853
     atom    4 type  2   force =     0.00000000    0.00000000   -0.00002853
     atom    5 type  2   force =     0.00000000    0.00000000    0.00002853
     atom    6 type  2   force =     0.00000000    0.00000000    0.00002853
     The core correction contribution to forces
     atom    1 type  1   force =     0.00000000    0.00000000   -0.00000000
     atom    2 type  1   force =    -0.00000000   -0.00000000   -0.00000000
     atom    3 type  2   force =     0.00000000    0.00000000    0.00000000
     atom    4 type  2   force =     0.00000000    0.00000000    0.00000000
     atom    5 type  2   force =     0.00000000    0.00000000    0.00000000
     atom    6 type  2   force =     0.00000000    0.00000000    0.00000000
     The Hubbard contrib.    to forces
     atom    1 type  1   force =     0.00000000    0.00000000    0.00000000
     atom    2 type  1   force =     0.00000000    0.00000000    0.00000000
     atom    3 type  2   force =     0.00000000    0.00000000    0.00000000
     atom    4 type  2   force =     0.00000000    0.00000000    0.00000000
     atom    5 type  2   force =     0.00000000    0.00000000    0.00000000
     atom    6 type  2   force =     0.00000000    0.00000000    0.00000000
     The SCF correction term to forces
     atom    1 type  1   force =     0.00000000   -0.00000000   -0.00000000
     atom    2 type  1   force =    -0.00000000   -0.00000000   -0.00000000
     atom    3 type  2   force =     0.00000000   -0.00000000    0.00000000
     atom    4 type  2   force =     0.00000000   -0.00000000    0.00000000
     atom    5 type  2   force =    -0.00000000   -0.00000000   -0.00000000
     atom    6 type  2   force =     0.00000000   -0.00000000   -0.00000000

     Total force =     0.000019     Total SCF correction =     0.000000


     Computing stress (Cartesian axis) and pressure

          total   stress  (Ry/bohr**3)                   (kbar)     P=      499.64
   0.00339680   0.00000000   0.00000000          499.69        0.00        0.00
   0.00000000   0.00339680   0.00000000            0.00      499.69        0.00
   0.00000000   0.00000000   0.00339589            0.00        0.00      499.55


     Writing all to output data dir ./output/SiLi.save/

     init_run     :      2.09s CPU      3.67s WALL (       2 calls)
     electrons    :    136.41s CPU    155.16s WALL (      23 calls)
     update_pot   :     16.34s CPU     16.53s WALL (      21 calls)
     forces       :     10.41s CPU     10.59s WALL (      23 calls)
     stress       :     40.75s CPU     42.86s WALL (      23 calls)

     Called by init_run:
     wfcinit      :      0.74s CPU      2.00s WALL (       2 calls)
     potinit      :      0.55s CPU      0.75s WALL (       2 calls)
     hinit0       :      0.71s CPU      0.76s WALL (       2 calls)

     Called by electrons:
     c_bands      :    117.98s CPU    133.24s WALL (     179 calls)
     sum_band     :     16.01s CPU     18.53s WALL (     179 calls)
     v_of_rho     :      2.45s CPU      3.31s WALL (     196 calls)
     mix_rho      :      0.19s CPU      0.29s WALL (     179 calls)

     Called by c_bands:
     init_us_2    :      3.75s CPU      4.19s WALL (   12180 calls)
     init_us_2:cp :      3.73s CPU      4.17s WALL (   12180 calls)
     cegterg      :    108.99s CPU    122.19s WALL (    5370 calls)

     Called by *egterg:
     cdiaghg      :      4.52s CPU      4.74s WALL (   22181 calls)
     h_psi        :     92.31s CPU    106.13s WALL (   23051 calls)
     g_psi        :      0.58s CPU      0.60s WALL (   17621 calls)

     Called by h_psi:
     h_psi:calbec :      6.84s CPU      7.56s WALL (   23051 calls)
     vloc_psi     :     78.92s CPU     91.64s WALL (   23051 calls)
     add_vuspsi   :      6.19s CPU      6.55s WALL (   23051 calls)

     General routines
     calbec       :      8.29s CPU      9.04s WALL (   26501 calls)
     fft          :      1.99s CPU      3.17s WALL (    2539 calls)
     ffts         :      0.08s CPU      0.15s WALL (     179 calls)
     fftw         :     81.54s CPU     94.53s WALL (  515746 calls)

     Parallel routines

     PWSCF        :   3m26.42s CPU   3m49.70s WALL


   This run was terminated on:  15: 5:25  27Dec2024            

=------------------------------------------------------------------------------=
   JOB DONE.
=------------------------------------------------------------------------------=
