
     Program PWSCF v.7.2 starts on 10Jan2025 at 22: 9:19 

     This program is part of the open-source Quantum ESPRESSO suite
     for quantum simulation of materials; please cite
         "P. Giannozzi et al., J. Phys.:Condens. Matter 21 395502 (2009);
         "P. Giannozzi et al., J. Phys.:Condens. Matter 29 465901 (2017);
         "P. Giannozzi et al., J. Chem. Phys. 152 154105 (2020);
          URL http://www.quantum-espresso.org", 
     in publications or presentations arising from this work. More details at
     http://www.quantum-espresso.org/quote

     Parallel version (MPI & OpenMP), running on       8 processor cores
     Number of MPI processes:                 8
     Threads/MPI process:                     1

     MPI processes distributed on     1 nodes
     481494 MiB available memory on the printing compute node when the environment starts

     Waiting for input...
     Reading input from standard input

     Current dimensions of program PWSCF are:
     Max number of different atomic species (ntypx) = 10
     Max number of k-points (npk) =  40000
     Max angular momentum in pseudopotentials (lmaxx) =  4

     R & G space division:  proc/nbgrp/npool/nimage =       8
     Subspace diagonalization in iterative solution of the eigenvalue problem:
     a serial algorithm will be used


     Parallelization info
     --------------------
     sticks:   dense  smooth     PW     G-vecs:    dense   smooth      PW
     Min         187     187     54                 3488     3488     560
     Max         189     189     56                 3489     3489     561
     Sum        1507    1507    439                27909    27909    4485

     Using Slab Decomposition



     bravais-lattice index     =            4
     lattice parameter (alat)  =       7.3814  a.u.
     unit-cell volume          =     206.6139 (a.u.)^3
     number of atoms/cell      =            3
     number of atomic types    =            2
     number of electrons       =        11.00
     number of Kohn-Sham states=           10
     kinetic-energy cutoff     =     100.0000  Ry
     charge density cutoff     =     400.0000  Ry
     scf convergence threshold =      1.0E-08
     mixing beta               =       0.7000
     number of iterations used =            8  plain     mixing
     energy convergence thresh.=      1.0E-04
     force convergence thresh. =      1.0E-03
     press convergence thresh. =      1.0E+00
     Exchange-correlation= PBE
                           (   1   4   3   4   0   0   0)
     nstep                     =           50


     celldm(1)=   7.381407  celldm(2)=   0.000000  celldm(3)=   0.593214
     celldm(4)=   0.000000  celldm(5)=   0.000000  celldm(6)=   0.000000

     crystal axes: (cart. coord. in units of alat)
               a(1) = (   1.000000   0.000000   0.000000 )  
               a(2) = (  -0.500000   0.866025   0.000000 )  
               a(3) = (   0.000000   0.000000   0.593214 )  

     reciprocal axes: (cart. coord. in units 2 pi/alat)
               b(1) = (  1.000000  0.577350 -0.000000 )  
               b(2) = (  0.000000  1.154701  0.000000 )  
               b(3) = (  0.000000 -0.000000  1.685732 )  


     PseudoPot. # 1 for Si read from file:
     ../pseudo/Si_ONCV_PBE_sr.upf
     MD5 check sum: e543d271109d17c80368dfa7c482276d
     Pseudo is Norm-conserving + core correction, Zval =  4.0
     Generated using ONCVPSP code by D. R. Hamann
     Using radial grid of 1510 points,  6 beta functions with: 
                l(1) =   0
                l(2) =   0
                l(3) =   1
                l(4) =   1
                l(5) =   2
                l(6) =   2

     PseudoPot. # 2 for Li read from file:
     ../pseudo/Li_ONCV_PBE_sr.upf
     MD5 check sum: 50ff420e78310ffa21704f3361e624a4
     Pseudo is Norm-conserving, Zval =  3.0
     Generated using ONCVPSP code by D. R. Hamann
     Using radial grid of 1944 points,  4 beta functions with: 
                l(1) =   0
                l(2) =   0
                l(3) =   1
                l(4) =   1

     atomic species   valence    mass     pseudopotential
        Si             4.00    28.08550     Si( 1.00)
        Li             3.00     6.94100     Li( 1.00)

     24 Sym. Ops., with inversion, found



   Cartesian axes

     site n.     atom                  positions (alat units)
         1           Si  tau(   1) = (  -0.0000000   0.5773503   0.2966070  )
         2           Si  tau(   2) = (   0.5000000   0.2886751   0.2966070  )
         3           Li  tau(   3) = (   0.0000000   0.0000000   0.0000000  )

     number of k points=    70  Marzari-Vanderbilt smearing, width (Ry)=  0.0200
                       cart. coord. in units 2pi/alat
        k(    1) = (   0.0000000   0.0000000   0.0000000), wk =   0.0026042
        k(    2) = (   0.0000000   0.0000000   0.1404777), wk =   0.0052083
        k(    3) = (   0.0000000   0.0000000   0.2809554), wk =   0.0052083
        k(    4) = (   0.0000000   0.0000000   0.4214330), wk =   0.0052083
        k(    5) = (   0.0000000   0.0000000   0.5619107), wk =   0.0052083
        k(    6) = (   0.0000000   0.0000000   0.7023884), wk =   0.0052083
        k(    7) = (   0.0000000   0.0000000  -0.8428661), wk =   0.0026042
        k(    8) = (   0.0000000   0.1443376   0.0000000), wk =   0.0156250
        k(    9) = (   0.0000000   0.1443376   0.1404777), wk =   0.0312500
        k(   10) = (   0.0000000   0.1443376   0.2809554), wk =   0.0312500
        k(   11) = (   0.0000000   0.1443376   0.4214330), wk =   0.0312500
        k(   12) = (   0.0000000   0.1443376   0.5619107), wk =   0.0312500
        k(   13) = (   0.0000000   0.1443376   0.7023884), wk =   0.0312500
        k(   14) = (   0.0000000   0.1443376  -0.8428661), wk =   0.0156250
        k(   15) = (   0.0000000   0.2886751   0.0000000), wk =   0.0156250
        k(   16) = (   0.0000000   0.2886751   0.1404777), wk =   0.0312500
        k(   17) = (   0.0000000   0.2886751   0.2809554), wk =   0.0312500
        k(   18) = (   0.0000000   0.2886751   0.4214330), wk =   0.0312500
        k(   19) = (   0.0000000   0.2886751   0.5619107), wk =   0.0312500
        k(   20) = (   0.0000000   0.2886751   0.7023884), wk =   0.0312500
        k(   21) = (   0.0000000   0.2886751  -0.8428661), wk =   0.0156250
        k(   22) = (   0.0000000   0.4330127   0.0000000), wk =   0.0156250
        k(   23) = (   0.0000000   0.4330127   0.1404777), wk =   0.0312500
        k(   24) = (   0.0000000   0.4330127   0.2809554), wk =   0.0312500
        k(   25) = (   0.0000000   0.4330127   0.4214330), wk =   0.0312500
        k(   26) = (   0.0000000   0.4330127   0.5619107), wk =   0.0312500
        k(   27) = (   0.0000000   0.4330127   0.7023884), wk =   0.0312500
        k(   28) = (   0.0000000   0.4330127  -0.8428661), wk =   0.0156250
        k(   29) = (   0.0000000  -0.5773503   0.0000000), wk =   0.0078125
        k(   30) = (   0.0000000  -0.5773503   0.1404777), wk =   0.0156250
        k(   31) = (   0.0000000  -0.5773503   0.2809554), wk =   0.0156250
        k(   32) = (   0.0000000  -0.5773503   0.4214330), wk =   0.0156250
        k(   33) = (   0.0000000  -0.5773503   0.5619107), wk =   0.0156250
        k(   34) = (   0.0000000  -0.5773503   0.7023884), wk =   0.0156250
        k(   35) = (   0.0000000  -0.5773503  -0.8428661), wk =   0.0078125
        k(   36) = (   0.1250000   0.2165064   0.0000000), wk =   0.0156250
        k(   37) = (   0.1250000   0.2165064   0.1404777), wk =   0.0312500
        k(   38) = (   0.1250000   0.2165064   0.2809554), wk =   0.0312500
        k(   39) = (   0.1250000   0.2165064   0.4214330), wk =   0.0312500
        k(   40) = (   0.1250000   0.2165064   0.5619107), wk =   0.0312500
        k(   41) = (   0.1250000   0.2165064   0.7023884), wk =   0.0312500
        k(   42) = (   0.1250000   0.2165064  -0.8428661), wk =   0.0156250
        k(   43) = (   0.1250000   0.3608439   0.0000000), wk =   0.0312500
        k(   44) = (   0.1250000   0.3608439   0.1404777), wk =   0.0625000
        k(   45) = (   0.1250000   0.3608439   0.2809554), wk =   0.0625000
        k(   46) = (   0.1250000   0.3608439   0.4214330), wk =   0.0625000
        k(   47) = (   0.1250000   0.3608439   0.5619107), wk =   0.0625000
        k(   48) = (   0.1250000   0.3608439   0.7023884), wk =   0.0625000
        k(   49) = (   0.1250000   0.3608439  -0.8428661), wk =   0.0312500
        k(   50) = (   0.1250000   0.5051815   0.0000000), wk =   0.0312500
        k(   51) = (   0.1250000   0.5051815   0.1404777), wk =   0.0625000
        k(   52) = (   0.1250000   0.5051815   0.2809554), wk =   0.0625000
        k(   53) = (   0.1250000   0.5051815   0.4214330), wk =   0.0625000
        k(   54) = (   0.1250000   0.5051815   0.5619107), wk =   0.0625000
        k(   55) = (   0.1250000   0.5051815   0.7023884), wk =   0.0625000
        k(   56) = (   0.1250000   0.5051815  -0.8428661), wk =   0.0312500
        k(   57) = (   0.2500000   0.4330127   0.0000000), wk =   0.0156250
        k(   58) = (   0.2500000   0.4330127   0.1404777), wk =   0.0312500
        k(   59) = (   0.2500000   0.4330127   0.2809554), wk =   0.0312500
        k(   60) = (   0.2500000   0.4330127   0.4214330), wk =   0.0312500
        k(   61) = (   0.2500000   0.4330127   0.5619107), wk =   0.0312500
        k(   62) = (   0.2500000   0.4330127   0.7023884), wk =   0.0312500
        k(   63) = (   0.2500000   0.4330127  -0.8428661), wk =   0.0156250
        k(   64) = (   0.2500000   0.5773503   0.0000000), wk =   0.0156250
        k(   65) = (   0.2500000   0.5773503   0.1404777), wk =   0.0312500
        k(   66) = (   0.2500000   0.5773503   0.2809554), wk =   0.0312500
        k(   67) = (   0.2500000   0.5773503   0.4214330), wk =   0.0312500
        k(   68) = (   0.2500000   0.5773503   0.5619107), wk =   0.0312500
        k(   69) = (   0.2500000   0.5773503   0.7023884), wk =   0.0312500
        k(   70) = (   0.2500000   0.5773503  -0.8428661), wk =   0.0156250

     Dense  grid:    27909 G-vectors     FFT dimensions: (  48,  48,  27)

     Estimated max dynamical RAM per process >      20.34 MB

     Estimated total dynamical RAM >     162.72 MB

     Initial potential from superposition of free atoms

     starting charge      10.9942, renormalised to      11.0000
     Starting wfcs are   10 randomized atomic wfcs

     total cpu time spent up to now is        1.3 secs

     Self-consistent Calculation

     iteration #  1     ecut=   100.00 Ry     beta= 0.70
     Davidson diagonalization with overlap
     ethr =  1.00E-02,  avg # of iterations =  6.3

     Threshold (ethr) on eigenvalues was too large:
     Diagonalizing with lowered threshold

     Davidson diagonalization with overlap
     ethr =  1.16E-04,  avg # of iterations =  4.0

     total cpu time spent up to now is        3.0 secs

     total energy              =     -31.22424307 Ry
     estimated scf accuracy    <       0.01279034 Ry

     iteration #  2     ecut=   100.00 Ry     beta= 0.70
     Davidson diagonalization with overlap
     ethr =  1.16E-04,  avg # of iterations =  1.1

     total cpu time spent up to now is        3.6 secs

     total energy              =     -31.22448817 Ry
     estimated scf accuracy    <       0.00090952 Ry

     iteration #  3     ecut=   100.00 Ry     beta= 0.70
     Davidson diagonalization with overlap
     ethr =  8.27E-06,  avg # of iterations =  3.2

     total cpu time spent up to now is        4.2 secs

     total energy              =     -31.22452199 Ry
     estimated scf accuracy    <       0.00002137 Ry

     iteration #  4     ecut=   100.00 Ry     beta= 0.70
     Davidson diagonalization with overlap
     ethr =  1.94E-07,  avg # of iterations =  2.6

     total cpu time spent up to now is        4.8 secs

     total energy              =     -31.22452596 Ry
     estimated scf accuracy    <       0.00000039 Ry

     iteration #  5     ecut=   100.00 Ry     beta= 0.70
     Davidson diagonalization with overlap
     ethr =  3.56E-09,  avg # of iterations =  3.0

     total cpu time spent up to now is        5.4 secs

     End of self-consistent calculation

          k = 0.0000 0.0000 0.0000 (  3499 PWs)   bands (ev):

   -34.3252  -2.9838   7.2022   7.2022   8.2188   9.7103   9.7103  16.7443
    21.4615  23.7737

          k = 0.0000 0.0000 0.1405 (  3488 PWs)   bands (ev):

   -34.3178  -2.8065   7.3696   7.3696   8.3868   9.8924   9.8924  15.8109
    20.2975  25.7807

          k = 0.0000 0.0000 0.2810 (  3488 PWs)   bands (ev):

   -34.2976  -2.2764   7.8693   7.8693   8.8812  10.4380  10.4380  13.4551
    19.5127  25.7116

          k = 0.0000 0.0000 0.4214 (  3488 PWs)   bands (ev):

   -34.2699  -1.3991   8.6917   8.6917   9.6682  10.7014  11.3437  11.3437
    19.1005  23.1069

          k = 0.0000 0.0000 0.5619 (  3488 PWs)   bands (ev):

   -34.2421  -0.1862   8.0305   9.8058   9.8058  10.6663  12.5991  12.5991
    18.7822  18.9942

          k = 0.0000 0.0000 0.7024 (  3500 PWs)   bands (ev):

   -34.2217   1.3286   5.6124  11.0883  11.0883  11.6662  14.1579  14.1579
    16.6656  16.6657

          k = 0.0000 0.0000-0.8429 (  3482 PWs)   bands (ev):

   -34.2142   2.6637   3.9726  11.8786  11.8786  12.1518  15.4205  15.4205
    15.5254  15.5254

          k = 0.0000 0.1443 0.0000 (  3481 PWs)   bands (ev):

   -34.3250  -2.8306   5.4019   6.6797   9.0680  10.6060  10.7897  17.2053
    21.6214  23.7134

          k = 0.0000 0.1443 0.1405 (  3489 PWs)   bands (ev):

   -34.3176  -2.6528   5.5758   6.8500   9.2317  10.7848  10.9441  16.2300
    20.4936  25.5670

          k = 0.0000 0.1443 0.2810 (  3504 PWs)   bands (ev):

   -34.2974  -2.1213   6.0950   7.3590   9.7079  11.3199  11.3726  13.8603
    19.7945  23.3781

          k = 0.0000 0.1443 0.4214 (  3490 PWs)   bands (ev):

   -34.2697  -1.2416   6.9495   8.1982  10.2734  11.0240  12.2057  12.3943
    19.3472  20.4903

          k = 0.0000 0.1443 0.5619 (  3486 PWs)   bands (ev):

   -34.2420  -0.0253   8.0159   8.2651   9.3412  11.5077  13.2308  13.4233
    17.7385  18.4788

          k = 0.0000 0.1443 0.7024 (  3486 PWs)   bands (ev):

   -34.2216   1.4956   5.7545   9.5662  10.6785  12.0215  14.1584  14.8619
    16.1436  16.1798

          k = 0.0000 0.1443-0.8429 (  3496 PWs)   bands (ev):

   -34.2141   2.8529   4.0986  10.9579  11.2519  11.5398  14.7846  14.8920
    15.6271  16.1138

          k = 0.0000 0.2887 0.0000 (  3464 PWs)   bands (ev):

   -34.3243  -2.3810   3.3701   5.9313   9.0636  12.4723  13.2176  18.4744
    22.0959  23.3587

          k = 0.0000 0.2887 0.1405 (  3469 PWs)   bands (ev):

   -34.3169  -2.2017   3.5462   6.1038   9.2061  12.6478  13.3177  17.3367
    21.1325  24.3571

          k = 0.0000 0.2887 0.2810 (  3492 PWs)   bands (ev):

   -34.2968  -1.6658   4.0718   6.6194   9.6064  13.1718  13.4156  14.9849
    20.4624  21.9438

          k = 0.0000 0.2887 0.4214 (  3486 PWs)   bands (ev):

   -34.2692  -0.7789   4.9385   7.4715  10.0194  11.8373  14.0332  14.3666
    18.5246  20.9174

          k = 0.0000 0.2887 0.5619 (  3491 PWs)   bands (ev):

   -34.2415   0.4480   6.1211   8.5691   8.6381  11.3933  14.1346  15.1774
    16.9180  17.7714

          k = 0.0000 0.2887 0.7024 (  3496 PWs)   bands (ev):

   -34.2212   1.9871   6.1551   7.6945  10.0251  11.0529  13.7643  15.1030
    16.3959  16.8353

          k = 0.0000 0.2887-0.8429 (  3496 PWs)   bands (ev):

   -34.2137   3.4154   4.4671   9.1617   9.6592  10.9633  13.8870  14.1369
    15.9786  17.7513

          k = 0.0000 0.4330 0.0000 (  3456 PWs)   bands (ev):

   -34.3236  -1.6989   1.7051   5.4307   8.9750  14.8277  15.6647  19.6301
    20.7288  22.8558

          k = 0.0000 0.4330 0.1405 (  3486 PWs)   bands (ev):

   -34.3163  -1.5169   1.8799   5.6040   9.0994  14.9999  15.6438  18.5358
    20.8836  21.9670

          k = 0.0000 0.4330 0.2810 (  3486 PWs)   bands (ev):

   -34.2962  -0.9728   2.4022   6.1224   9.4467  14.8990  15.5114  16.6524
    19.8997  21.2813

          k = 0.0000 0.4330 0.4214 (  3492 PWs)   bands (ev):

   -34.2687  -0.0719   3.2638   6.9799   9.8664  12.5142  15.4995  16.3319
    18.1851  20.0789

          k = 0.0000 0.4330 0.5619 (  3502 PWs)   bands (ev):

   -34.2411   1.1757   4.4464   8.1568   9.1963  10.8247  13.8180  16.7843
    17.6484  17.9610

          k = 0.0000 0.4330 0.7024 (  3501 PWs)   bands (ev):

   -34.2208   2.7487   5.8536   7.0234   9.5668   9.6717  13.3695  14.6271
    16.9103  19.0384

          k = 0.0000 0.4330-0.8429 (  3494 PWs)   bands (ev):

   -34.2134   4.3257   5.0137   7.3600   8.2548  10.5450  13.3164  13.6269
    16.3998  19.9271

          k = 0.0000-0.5774 0.0000 (  3488 PWs)   bands (ev):

   -34.3233  -1.2065   0.8809   5.2592   8.9377  17.3430  17.4012  17.8556
    18.8497  23.5508

          k = 0.0000-0.5774 0.1405 (  3484 PWs)   bands (ev):

   -34.3160  -1.0212   1.0529   5.4327   9.0558  17.0944  17.5101  18.0222
    18.7126  21.3311

          k = 0.0000-0.5774 0.2810 (  3472 PWs)   bands (ev):

   -34.2960  -0.4666   1.5662   5.9519   9.3866  15.4924  17.6866  17.9895
    18.5206  20.0343

          k = 0.0000-0.5774 0.4214 (  3500 PWs)   bands (ev):

   -34.2685   0.4527   2.4121   6.8109   9.8189  12.8506  15.4207  18.5208
    19.1839  19.3447

          k = 0.0000-0.5774 0.5619 (  3496 PWs)   bands (ev):

   -34.2409   1.7294   3.5714   7.9908   9.9002  10.1185  13.5715  16.8363
    18.2450  20.4756

          k = 0.0000-0.5774 0.7024 (  3504 PWs)   bands (ev):

   -34.2207   3.3526   4.9883   7.5780   8.8021   9.4075  13.2267  14.4536
    17.1586  21.8347

          k = 0.0000-0.5774-0.8429 (  3488 PWs)   bands (ev):

   -34.2132   5.2393   5.3805   6.1333   7.5895  10.3979  13.1235  13.4510
    16.5967  22.7926

          k = 0.1250 0.2165 0.0000 (  3471 PWs)   bands (ev):

   -34.3245  -2.5279   3.9360   5.9159   9.6967  10.9916  13.0202  18.0587
    21.9388  23.4260

          k = 0.1250 0.2165 0.1405 (  3482 PWs)   bands (ev):

   -34.3171  -2.3492   4.1138   6.0814   9.8660  11.1232  13.1710  16.9789
    20.9126  24.2740

          k = 0.1250 0.2165 0.2810 (  3490 PWs)   bands (ev):

   -34.2970  -1.8148   4.6450   6.5743  10.3641  11.4456  13.6033  14.5381
    20.3573  22.1212

          k = 0.1250 0.2165 0.4214 (  3491 PWs)   bands (ev):

   -34.2694  -0.9304   5.5229   7.3736  10.9209  11.1433  12.9608  14.2139
    19.3384  19.5518

          k = 0.1250 0.2165 0.5619 (  3489 PWs)   bands (ev):

   -34.2417   0.2928   6.7333   8.0864   8.9340  11.9650  13.5696  14.5820
    17.3980  17.5699

          k = 0.1250 0.2165 0.7024 (  3491 PWs)   bands (ev):

   -34.2213   1.8256   6.0338   8.2467   9.8799  11.6395  14.4734  14.9112
    15.1953  17.3762

          k = 0.1250 0.2165-0.8429 (  3494 PWs)   bands (ev):

   -34.2138   3.2289   4.3476   9.8965  10.0826  10.6768  14.0461  14.9587
    16.0040  16.5982

          k = 0.1250 0.3608 0.0000 (  3468 PWs)   bands (ev):

   -34.3238  -1.9453   2.2912   5.2042   9.9099  12.5618  15.6520  19.1318
    21.7452  22.5606

          k = 0.1250 0.3608 0.1405 (  3475 PWs)   bands (ev):

   -34.3165  -1.7647   2.4702   5.3657  10.0567  12.6819  15.7434  18.0519
    21.2503  22.0148

          k = 0.1250 0.3608 0.2810 (  3483 PWs)   bands (ev):

   -34.2964  -1.2246   3.0051   5.8463  10.4696  12.9369  15.4031  16.1080
    20.6004  21.4180

          k = 0.1250 0.3608 0.4214 (  3489 PWs)   bands (ev):

   -34.2689  -0.3306   3.8894   6.6266  10.8799  12.1476  14.2719  15.7355
    18.6675  19.6850

          k = 0.1250 0.3608 0.5619 (  3502 PWs)   bands (ev):

   -34.2412   0.9067   5.1087   7.5908   9.2614  11.7737  14.0778  15.2878
    16.7151  18.9430

          k = 0.1250 0.3608 0.7024 (  3499 PWs)   bands (ev):

   -34.2209   2.4634   6.4283   6.8221   9.0601  10.5307  14.0508  14.7344
    16.1157  18.6042

          k = 0.1250 0.3608-0.8429 (  3490 PWs)   bands (ev):

   -34.2135   3.9686   4.8252   8.2876   8.6650   9.8685  13.3840  14.8389
    16.5950  18.0122

          k = 0.1250 0.5052 0.0000 (  3477 PWs)   bands (ev):

   -34.3233  -1.2296   0.9908   4.8430   9.8702  14.8220  17.3738  18.4783
    20.7525  23.4059

          k = 0.1250 0.5052 0.1405 (  3479 PWs)   bands (ev):

   -34.3160  -1.0457   1.1676   5.0032  10.0009  14.9164  17.3338  18.4402
    19.7405  22.0726

          k = 0.1250 0.5052 0.2810 (  3479 PWs)   bands (ev):

   -34.2960  -0.4956   1.6958   5.4802  10.3670  14.8328  16.4351  17.7182
    18.6753  20.3701

          k = 0.1250 0.5052 0.4214 (  3493 PWs)   bands (ev):

   -34.2685   0.4157   2.5679   6.2576  10.8176  12.8247  15.3727  16.6058
    18.7879  19.1929

          k = 0.1250 0.5052 0.5619 (  3500 PWs)   bands (ev):

   -34.2409   1.6793   3.7683   7.2756   9.9662  10.9903  13.7997  16.3616
    17.2665  19.6473

          k = 0.1250 0.5052 0.7024 (  3501 PWs)   bands (ev):

   -34.2207   3.2796   5.2518   7.4236   8.3946   9.5692  13.6827  14.5616
    17.3866  19.8532

          k = 0.1250 0.5052-0.8429 (  3508 PWs)   bands (ev):

   -34.2132   5.0071   5.3924   6.6809   7.5658   9.5033  13.0354  14.6206
    17.0632  20.1677

          k = 0.2500 0.4330 0.0000 (  3472 PWs)   bands (ev):

   -34.3233  -1.2515   1.1097   4.4905  11.4075  12.7637  17.3799  18.5121
    22.0911  23.3016

          k = 0.2500 0.4330 0.1405 (  3473 PWs)   bands (ev):

   -34.3160  -1.0689   1.2921   4.6408  11.5657  12.8575  17.3560  18.4415
    19.9160  22.9164

          k = 0.2500 0.4330 0.2810 (  3481 PWs)   bands (ev):

   -34.2960  -0.5228   1.8375   5.0868  12.0122  13.0366  16.1556  17.6528
    18.5921  21.1995

          k = 0.2500 0.4330 0.4214 (  3490 PWs)   bands (ev):

   -34.2685   0.3815   2.7410   5.8086  12.3028  12.5319  14.6360  15.7294
    18.5311  19.2324

          k = 0.2500 0.4330 0.5619 (  3498 PWs)   bands (ev):

   -34.2409   1.6343   3.9936   6.7373   9.9734  11.7646  14.7002  15.0772
    16.3831  19.8275

          k = 0.2500 0.4330 0.7024 (  3492 PWs)   bands (ev):

   -34.2207   3.2171   5.5808   7.1162   8.1960   9.6257  13.7524  15.9072
    16.2501  20.0585

          k = 0.2500 0.4330-0.8429 (  3492 PWs)   bands (ev):

   -34.2132   4.8621   5.4046   7.4157   7.5419   8.5262  12.9577  16.0837
    17.6745  18.3895

          k = 0.2500 0.5774 0.0000 (  3478 PWs)   bands (ev):

   -34.3232  -0.6235   0.2970   4.2420  11.8065  14.1092  15.3163  21.0379
    21.2559  23.7165

          k = 0.2500 0.5774 0.1405 (  3481 PWs)   bands (ev):

   -34.3158  -0.4389   0.4791   4.3888  11.9445  14.2200  15.4155  19.9812
    20.1233  22.6480

          k = 0.2500 0.5774 0.2810 (  3489 PWs)   bands (ev):

   -34.2958   0.1135   1.0238   4.8243  12.3130  14.3480  15.6698  17.4724
    17.7767  22.8879

          k = 0.2500 0.5774 0.4214 (  3486 PWs)   bands (ev):

   -34.2684   1.0290   1.9257   5.5298  12.5534  13.0968  15.2073  16.2548
    16.5783  18.6631

          k = 0.2500 0.5774 0.5619 (  3487 PWs)   bands (ev):

   -34.2408   2.3002   3.1746   6.4502  10.5941  11.1881  14.6512  15.8522
    17.3263  17.4427

          k = 0.2500 0.5774 0.7024 (  3505 PWs)   bands (ev):

   -34.2206   3.9154   4.7511   7.3863   8.1066   8.9676  13.5644  16.0309
    17.7728  18.8623

          k = 0.2500 0.5774-0.8429 (  3498 PWs)   bands (ev):

   -34.2131   5.7946   5.9261   6.4246   6.8149   8.1088  12.8065  16.4237
    18.4117  19.7717

     the Fermi energy is    11.9268 ev

!    total energy              =     -31.22452611 Ry
     estimated scf accuracy    <          3.2E-09 Ry
     smearing contrib. (-TS)   =      -0.00005160 Ry
     internal energy E=F+TS    =     -31.22447451 Ry

     The total energy is F=E-TS. E is the sum of the following terms:
     one-electron contribution =       4.59215728 Ry
     hartree contribution      =       2.90130940 Ry
     xc contribution           =     -10.15736006 Ry
     ewald contribution        =     -28.56058113 Ry

     convergence has been achieved in   5 iterations

     Forces acting on atoms (cartesian axes, Ry/au):

     atom    1 type  1   force =     0.00000000    0.00000000   -0.00000000
     atom    2 type  1   force =     0.00000000    0.00000000    0.00000000
     atom    3 type  2   force =     0.00000000   -0.00000000    0.00000000
     The non-local contrib.  to forces
     atom    1 type  1   force =     0.00000000   -0.00000000    0.00000000
     atom    2 type  1   force =     0.00000000    0.00000000    0.00000000
     atom    3 type  2   force =     0.00000000    0.00000000    0.00000000
     The ionic contribution  to forces
     atom    1 type  1   force =     0.00000010   -0.00000006   -0.00000000
     atom    2 type  1   force =    -0.00000010    0.00000006   -0.00000000
     atom    3 type  2   force =    -0.00000000   -0.00000000    0.00000000
     The local contribution  to forces
     atom    1 type  1   force =    -0.00000001    0.00000000    0.00000000
     atom    2 type  1   force =     0.00000001   -0.00000000    0.00000000
     atom    3 type  2   force =    -0.00000000    0.00000000    0.00000000
     The core correction contribution to forces
     atom    1 type  1   force =    -0.00000000    0.00000000    0.00000000
     atom    2 type  1   force =     0.00000000   -0.00000000    0.00000000
     atom    3 type  2   force =     0.00000000    0.00000000    0.00000000
     The Hubbard contrib.    to forces
     atom    1 type  1   force =     0.00000000    0.00000000    0.00000000
     atom    2 type  1   force =     0.00000000    0.00000000    0.00000000
     atom    3 type  2   force =     0.00000000    0.00000000    0.00000000
     The SCF correction term to forces
     atom    1 type  1   force =    -0.00000000    0.00000000    0.00000000
     atom    2 type  1   force =     0.00000000   -0.00000000    0.00000000
     atom    3 type  2   force =     0.00000000    0.00000000   -0.00000000

     Total force =     0.000000     Total SCF correction =     0.000000


     Computing stress (Cartesian axis) and pressure

          total   stress  (Ry/bohr**3)                   (kbar)     P=      551.67
   0.00371789  -0.00000000   0.00000000          546.92       -0.00        0.00
  -0.00000000   0.00371789   0.00000000           -0.00      546.92        0.00
   0.00000000   0.00000000   0.00381475            0.00        0.00      561.17


     BFGS Geometry Optimization
     Energy error            =      0.0E+00 Ry
     Gradient error          =      6.4E-25 Ry/Bohr
     Cell gradient error     =      6.1E+01 kbar

     number of scf cycles    =   1
     number of bfgs steps    =   0

     enthalpy           new  =     -30.5222596065 Ry

     new trust radius        =       0.0298850728 bohr
ibrav =      4
 celldm(1) =      7.44026645
 celldm(3) =      0.59463919
Input lattice vectors:
     1.00797395    -0.00000000     0.00000000
    -0.50398697     0.87293105     0.00000000
     0.00000000     0.00000000     0.59938081
New lattice vectors in INITIAL alat:
     1.00797395     0.00000000     0.00000000
    -0.50398697     0.87293105     0.00000000
     0.00000000     0.00000000     0.59938081
New lattice vectors in NEW alat (for information only):
     1.00000000     0.00000000     0.00000000
    -0.50000000     0.86602540     0.00000000
     0.00000000     0.00000000     0.59463919
Discrepancy in bohr =     0.000000    0.000000    0.000000
     new conv_thr            =       0.0000000100 Ry

     new unit-cell volume =    212.10438 a.u.^3 (    31.43063 Ang^3 )
     density =      3.33433 g/cm^3

CELL_PARAMETERS (alat=  7.38140748)
   1.007973950   0.000000000   0.000000000
  -0.503986975   0.872931047   0.000000000
   0.000000000   0.000000000   0.599380815

ATOMIC_POSITIONS (crystal)
Si            0.3333333300        0.6666666700        0.5000000000
Si            0.6666666700        0.3333333300        0.5000000000
Li            0.0000000000       -0.0000000000        0.0000000000



     Writing config-only to output data dir ./output/SiLi.save/
     NEW-OLD atomic charge density approx. for the potential
     extrapolated charge   11.28459, renormalised to   11.00000

     total cpu time spent up to now is        7.0 secs

     Self-consistent Calculation

     iteration #  1     ecut=   100.00 Ry     beta= 0.70
     Davidson diagonalization with overlap
     ethr =  1.00E-06,  avg # of iterations =  5.6

     total cpu time spent up to now is        8.0 secs

     total energy              =     -31.24341261 Ry
     estimated scf accuracy    <       0.00009504 Ry

     iteration #  2     ecut=   100.00 Ry     beta= 0.70
     Davidson diagonalization with overlap
     ethr =  8.64E-07,  avg # of iterations =  3.1

     total cpu time spent up to now is        8.7 secs

     total energy              =     -31.24381653 Ry
     estimated scf accuracy    <       0.00007738 Ry

     iteration #  3     ecut=   100.00 Ry     beta= 0.70
     Davidson diagonalization with overlap
     ethr =  7.03E-07,  avg # of iterations =  1.0

     total cpu time spent up to now is        9.3 secs

     total energy              =     -31.24381060 Ry
     estimated scf accuracy    <       0.00002067 Ry

     iteration #  4     ecut=   100.00 Ry     beta= 0.70
     Davidson diagonalization with overlap
     ethr =  1.88E-07,  avg # of iterations =  1.0

     total cpu time spent up to now is        9.8 secs

     total energy              =     -31.24380717 Ry
     estimated scf accuracy    <       0.00000580 Ry

     iteration #  5     ecut=   100.00 Ry     beta= 0.70
     Davidson diagonalization with overlap
     ethr =  5.27E-08,  avg # of iterations =  2.0

     total cpu time spent up to now is       10.3 secs

     total energy              =     -31.24380797 Ry
     estimated scf accuracy    <       0.00000006 Ry

     iteration #  6     ecut=   100.00 Ry     beta= 0.70
     Davidson diagonalization with overlap
     ethr =  5.61E-10,  avg # of iterations =  2.5

     total cpu time spent up to now is       10.9 secs

     End of self-consistent calculation

          k = 0.0000 0.0000 0.0000 (  3499 PWs)   bands (ev):

   -34.6725  -3.1317   6.9480   6.9480   7.8313   9.4552   9.4552  16.3326
    20.7985  23.1572

          k = 0.0000 0.0000 0.1390 (  3488 PWs)   bands (ev):

   -34.6658  -2.9578   7.1117   7.1117   7.9972   9.6335   9.6335  15.4069
    19.6646  25.1509

          k = 0.0000 0.0000 0.2781 (  3488 PWs)   bands (ev):

   -34.6474  -2.4379   7.6003   7.6003   8.4859  10.1677  10.1677  13.0658
    18.9229  24.8928

          k = 0.0000 0.0000 0.4171 (  3488 PWs)   bands (ev):

   -34.6223  -1.5776   8.4032   8.4032   9.2663  10.3438  11.0541  11.0541
    18.5498  21.3590

          k = 0.0000 0.0000 0.5561 (  3488 PWs)   bands (ev):

   -34.5970  -0.3891   7.7134   9.4875   9.4875  10.2629  12.2817  12.2817
    18.2651  18.5820

          k = 0.0000 0.0000 0.6952 (  3500 PWs)   bands (ev):

   -34.5785   1.0906   5.3415  10.7246  10.7246  11.2749  13.8014  13.8014
    16.3191  16.3191

          k = 0.0000 0.0000-0.8342 (  3482 PWs)   bands (ev):

   -34.5717   2.3628   3.7684  11.4709  11.4709  11.7761  15.0132  15.0132
    15.2296  15.2296

          k = 0.0000 0.1432 0.0000 (  3481 PWs)   bands (ev):

   -34.6723  -2.9801   5.1391   6.4390   8.7447  10.3319  10.4699  16.7971
    20.9559  23.1051

          k = 0.0000 0.1432 0.1390 (  3489 PWs)   bands (ev):

   -34.6656  -2.8057   5.3097   6.6056   8.9053  10.5070  10.6214  15.8236
    19.8662  24.9545

          k = 0.0000 0.1432 0.2781 (  3504 PWs)   bands (ev):

   -34.6472  -2.2845   5.8190   7.1033   9.3735  11.0307  11.0406  13.4636
    19.2160  22.7606

          k = 0.0000 0.1432 0.4171 (  3490 PWs)   bands (ev):

   -34.6221  -1.4219   6.6569   7.9229   9.9371  10.6500  11.8972  12.0459
    18.8167  19.9381

          k = 0.0000 0.1432 0.5561 (  3486 PWs)   bands (ev):

   -34.5969  -0.2300   7.7057   7.9411   9.0361  11.1344  12.8714  13.0868
    17.2733  18.0690

          k = 0.0000 0.1432 0.6952 (  3486 PWs)   bands (ev):

   -34.5783   1.2558   5.4812   9.2191  10.3276  11.6393  13.7741  14.4890
    15.7927  15.7962

          k = 0.0000 0.1432-0.8342 (  3496 PWs)   bands (ev):

   -34.5716   2.5487   3.8932  10.5499  10.9145  11.1411  14.4769  14.4918
    15.2953  15.6927

          k = 0.0000 0.2864 0.0000 (  3464 PWs)   bands (ev):

   -34.6717  -2.5352   3.1354   5.7054   8.7527  12.1668  12.8367  18.0740
    21.4228  22.7752

          k = 0.0000 0.2864 0.1390 (  3469 PWs)   bands (ev):

   -34.6650  -2.3595   3.3081   5.8741   8.8929  12.3385  12.9350  16.9136
    20.5269  23.7895

          k = 0.0000 0.2864 0.2781 (  3492 PWs)   bands (ev):

   -34.6467  -1.8341   3.8237   6.3785   9.2876  12.8511  13.0278  14.5599
    19.9161  21.3404

          k = 0.0000 0.2864 0.4171 (  3486 PWs)   bands (ev):

   -34.6216  -0.9645   4.6742   7.2112   9.6968  11.4461  13.6928  13.9619
    18.0168  20.3705

          k = 0.0000 0.2864 0.5561 (  3491 PWs)   bands (ev):

   -34.5965   0.2377   5.8350   8.2451   8.3482  11.0292  13.7193  14.8076
    16.4745  17.3700

          k = 0.0000 0.2864 0.6952 (  3496 PWs)   bands (ev):

   -34.5780   1.7420   5.8761   7.3715   9.6900  10.6956  13.3467  14.7582
    16.0094  16.4351

          k = 0.0000 0.2864-0.8342 (  3496 PWs)   bands (ev):

   -34.5712   3.1010   4.2581   8.7714   9.3642  10.5768  13.6050  13.7089
    15.6159  17.3037

          k = 0.0000 0.4296 0.0000 (  3456 PWs)   bands (ev):

   -34.6711  -1.8602   1.4930   5.2133   8.6597  14.4865  15.2467  19.2266
    20.2885  22.1681

          k = 0.0000 0.4296 0.1390 (  3486 PWs)   bands (ev):

   -34.6644  -1.6819   1.6647   5.3830   8.7826  14.6548  15.2273  18.0829
    20.4390  21.3740

          k = 0.0000 0.4296 0.2781 (  3486 PWs)   bands (ev):

   -34.6462  -1.1486   2.1772   5.8902   9.1263  14.4774  15.1545  16.1966
    19.3517  20.8202

          k = 0.0000 0.4296 0.4171 (  3492 PWs)   bands (ev):

   -34.6212  -0.2656   3.0228   6.7284   9.5447  12.1045  15.0507  15.9543
    17.7088  19.6156

          k = 0.0000 0.4296 0.5561 (  3502 PWs)   bands (ev):

   -34.5961   0.9569   4.1833   7.8760   8.8664  10.4651  13.3767  16.3811
    17.2286  17.5617

          k = 0.0000 0.4296 0.6952 (  3501 PWs)   bands (ev):

   -34.5777   2.4958   5.5665   6.7134   9.2411   9.3451  12.9388  14.2918
    16.5160  18.5990

          k = 0.0000 0.4296-0.8342 (  3494 PWs)   bands (ev):

   -34.5709   3.9932   4.7994   6.9977   7.9862  10.1660  13.0422  13.1936
    16.0153  19.4494

          k = 0.0000-0.5728 0.0000 (  3488 PWs)   bands (ev):

   -34.6709  -1.3723   0.6786   5.0447   8.6201  16.9684  16.9964  17.4271
    18.4136  22.8388

          k = 0.0000-0.5728 0.1390 (  3484 PWs)   bands (ev):

   -34.6642  -1.1907   0.8475   5.2145   8.7370  16.6631  17.1592  17.5902
    18.2730  20.7020

          k = 0.0000-0.5728 0.2781 (  3472 PWs)   bands (ev):

   -34.6460  -0.6474   1.3514   5.7225   9.0649  15.0535  17.2155  17.6241
    18.0780  19.5522

          k = 0.0000-0.5728 0.4171 (  3500 PWs)   bands (ev):

   -34.6210   0.2534   2.1819   6.5623   9.4966  12.4340  14.9547  18.1157
    18.7545  18.8836

          k = 0.0000-0.5728 0.5561 (  3496 PWs)   bands (ev):

   -34.5960   1.5043   3.3195   7.7129   9.5865   9.7437  13.1248  16.4364
    17.8340  19.9868

          k = 0.0000-0.5728 0.6952 (  3504 PWs)   bands (ev):

   -34.5776   3.0942   4.7064   7.2489   8.5043   9.0849  12.7928  14.1209
    16.7577  21.3022

          k = 0.0000-0.5728-0.8342 (  3488 PWs)   bands (ev):

   -34.5708   4.8739   5.1629   5.8077   7.3309  10.0214  12.8521  13.0166
    16.2028  22.2047

          k = 0.1240 0.2148 0.0000 (  3471 PWs)   bands (ev):

   -34.6718  -2.6806   3.6927   5.6866   9.3764  10.6901  12.6677  17.6565
    21.2684  22.8431

          k = 0.1240 0.2148 0.1390 (  3482 PWs)   bands (ev):

   -34.6652  -2.5054   3.8671   5.8487   9.5424  10.8187  12.8162  16.5631
    20.2989  23.7319

          k = 0.1240 0.2148 0.2781 (  3490 PWs)   bands (ev):

   -34.6469  -1.9814   4.3880   6.3312  10.0305  11.1322  13.2421  14.1233
    19.8014  21.5156

          k = 0.1240 0.2148 0.4171 (  3491 PWs)   bands (ev):

   -34.6218  -1.1143   5.2488   7.1130  10.5750  10.7940  12.5923  13.8431
    18.7977  19.0715

          k = 0.1240 0.2148 0.5561 (  3489 PWs)   bands (ev):

   -34.5966   0.0843   6.4356   7.7940   8.6110  11.5959  13.1998  14.1926
    16.9969  17.1024

          k = 0.1240 0.2148 0.6952 (  3491 PWs)   bands (ev):

   -34.5781   1.5823   5.7561   7.9185   9.5440  11.2619  14.0805  14.5130
    14.8538  16.9726

          k = 0.1240 0.2148-0.8342 (  3494 PWs)   bands (ev):

   -34.5713   2.9180   4.1398   9.4876   9.7785  10.3016  13.7569  14.5435
    15.6532  16.1238

          k = 0.1240 0.3580 0.0000 (  3468 PWs)   bands (ev):

   -34.6713  -2.1043   2.0719   4.9829   9.5906  12.2266  15.2584  18.7401
    21.2514  21.8794

          k = 0.1240 0.3580 0.1390 (  3475 PWs)   bands (ev):

   -34.6646  -1.9273   2.2474   5.1412   9.7350  12.3438  15.3490  17.6149
    20.7329  21.4599

          k = 0.1240 0.3580 0.2781 (  3483 PWs)   bands (ev):

   -34.6463  -1.3978   2.7720   5.6118  10.1417  12.5884  14.9741  15.6932
    20.0430  20.9243

          k = 0.1240 0.3580 0.4171 (  3489 PWs)   bands (ev):

   -34.6213  -0.5215   3.6393   6.3755  10.5455  11.7618  13.8784  15.3157
    18.1875  19.2055

          k = 0.1240 0.3580 0.5561 (  3502 PWs)   bands (ev):

   -34.5962   0.6910   4.8352   7.3171   8.9181  11.4080  13.6592  14.8897
    16.3202  18.4977

          k = 0.1240 0.3580 0.6952 (  3499 PWs)   bands (ev):

   -34.5778   2.2132   6.1427   6.5141   8.7363  10.1701  13.6824  14.3570
    15.7113  18.1612

          k = 0.1240 0.3580-0.8342 (  3490 PWs)   bands (ev):

   -34.5710   3.6439   4.6125   7.9022   8.3908   9.5040  13.1001  14.4070
    16.2236  17.5104

          k = 0.1240 0.5012 0.0000 (  3477 PWs)   bands (ev):

   -34.6709  -1.3961   0.7891   4.6255   9.5483  14.4494  16.9868  18.0429
    20.3129  22.7042

          k = 0.1240 0.5012 0.1390 (  3479 PWs)   bands (ev):

   -34.6642  -1.2159   0.9625   4.7825   9.6773  14.5405  16.9417  18.0034
    19.2505  21.4689

          k = 0.1240 0.5012 0.2781 (  3479 PWs)   bands (ev):

   -34.6460  -0.6769   1.4807   5.2497  10.0393  14.4347  16.0083  17.2580
    18.2238  19.8497

          k = 0.1240 0.5012 0.4171 (  3493 PWs)   bands (ev):

   -34.6210   0.2161   2.3363   6.0105  10.4865  12.4126  14.9147  16.1965
    18.3559  18.7346

          k = 0.1240 0.5012 0.5561 (  3500 PWs)   bands (ev):

   -34.5960   1.4544   3.5138   7.0055   9.6064  10.6400  13.3668  15.9780
    16.8469  19.1834

          k = 0.1240 0.5012 0.6952 (  3501 PWs)   bands (ev):

   -34.5776   3.0211   4.9673   7.1114   8.0889   9.2238  13.3251  14.1673
    16.9857  19.3614

          k = 0.1240 0.5012-0.8342 (  3508 PWs)   bands (ev):

   -34.5708   4.6577   5.1739   6.3298   7.3099   9.1411  12.7552  14.1809
    16.6741  19.6433

          k = 0.2480 0.4296 0.0000 (  3472 PWs)   bands (ev):

   -34.6709  -1.4186   0.9085   4.2723  11.0685  12.4187  16.9888  18.0834
    21.6424  22.6054

          k = 0.2480 0.4296 0.1390 (  3473 PWs)   bands (ev):

   -34.6642  -1.2397   1.0872   4.4198  11.2237  12.5113  16.9597  18.0107
    19.3886  22.2848

          k = 0.2480 0.4296 0.2781 (  3481 PWs)   bands (ev):

   -34.6460  -0.7045   1.6218   4.8574  11.6616  12.6866  15.7065  17.1971
    18.1383  20.6337

          k = 0.2480 0.4296 0.4171 (  3490 PWs)   bands (ev):

   -34.6210   0.1817   2.5074   5.5651  11.9264  12.1672  14.2296  15.2710
    18.1036  18.7724

          k = 0.2480 0.4296 0.5561 (  3498 PWs)   bands (ev):

   -34.5960   1.4095   3.7353   6.4745   9.6101  11.3816  14.3375  14.6533
    15.9692  19.3657

          k = 0.2480 0.4296 0.6952 (  3492 PWs)   bands (ev):

   -34.5776   2.9587   5.2908   6.8287   7.8706   9.2703  13.4434  15.4794
    15.8223  19.5624

          k = 0.2480 0.4296-0.8342 (  3492 PWs)   bands (ev):

   -34.5708   4.5190   5.1851   7.0254   7.2888   8.2007  12.6704  15.6565
    17.2892  17.8442

          k = 0.2480 0.5728 0.0000 (  3478 PWs)   bands (ev):

   -34.6707  -0.7983   0.1074   4.0247  11.4627  13.7304  14.9611  20.6057
    20.7789  23.1612

          k = 0.2480 0.5728 0.1390 (  3481 PWs)   bands (ev):

   -34.6640  -0.6174   0.2859   4.1688  11.5984  13.8392  15.0581  19.4701
    19.6454  22.0539

          k = 0.2480 0.5728 0.2781 (  3489 PWs)   bands (ev):

   -34.6458  -0.0762   0.8198   4.5964  11.9613  13.9598  15.3059  16.9714
    17.2828  20.8664

          k = 0.2480 0.5728 0.4171 (  3486 PWs)   bands (ev):

   -34.6209   0.8210   1.7039   5.2884  12.1907  12.6892  14.7705  15.8663
    16.1241  18.2144

          k = 0.2480 0.5728 0.5561 (  3487 PWs)   bands (ev):

   -34.5958   2.0667   2.9282   6.1897  10.2148  10.8126  14.2795  15.4548
    16.8982  16.9874

          k = 0.2480 0.5728 0.6952 (  3505 PWs)   bands (ev):

   -34.5775   3.6491   4.4725   7.1046   7.7704   8.6203  13.2576  15.5957
    17.3518  18.3881

          k = 0.2480 0.5728-0.8342 (  3498 PWs)   bands (ev):

   -34.5707   5.4223   5.6999   6.0643   6.5736   7.7885  12.5181  15.9894
    18.0120  19.2231

     the Fermi energy is    11.5539 ev

!    total energy              =     -31.24380799 Ry
     estimated scf accuracy    <          4.9E-10 Ry
     smearing contrib. (-TS)   =       0.00006043 Ry
     internal energy E=F+TS    =     -31.24386842 Ry

     The total energy is F=E-TS. E is the sum of the following terms:
     one-electron contribution =       4.25471449 Ry
     hartree contribution      =       2.92513848 Ry
     xc contribution           =     -10.11182070 Ry
     ewald contribution        =     -28.31190070 Ry

     convergence has been achieved in   6 iterations

     Forces acting on atoms (cartesian axes, Ry/au):

     atom    1 type  1   force =     0.00000000    0.00000000    0.00000000
     atom    2 type  1   force =     0.00000000    0.00000000   -0.00000000
     atom    3 type  2   force =     0.00000000   -0.00000000    0.00000000
     The non-local contrib.  to forces
     atom    1 type  1   force =     0.00000000   -0.00000000    0.00000000
     atom    2 type  1   force =     0.00000000    0.00000000    0.00000000
     atom    3 type  2   force =     0.00000000    0.00000000    0.00000000
     The ionic contribution  to forces
     atom    1 type  1   force =     0.00000010   -0.00000006    0.00000000
     atom    2 type  1   force =    -0.00000010    0.00000006    0.00000000
     atom    3 type  2   force =    -0.00000000   -0.00000000    0.00000000
     The local contribution  to forces
     atom    1 type  1   force =    -0.00000001    0.00000000    0.00000000
     atom    2 type  1   force =     0.00000001   -0.00000000   -0.00000000
     atom    3 type  2   force =    -0.00000000    0.00000000    0.00000000
     The core correction contribution to forces
     atom    1 type  1   force =    -0.00000000    0.00000000   -0.00000000
     atom    2 type  1   force =     0.00000000   -0.00000000   -0.00000000
     atom    3 type  2   force =     0.00000000    0.00000000    0.00000000
     The Hubbard contrib.    to forces
     atom    1 type  1   force =     0.00000000    0.00000000    0.00000000
     atom    2 type  1   force =     0.00000000    0.00000000    0.00000000
     atom    3 type  2   force =     0.00000000    0.00000000    0.00000000
     The SCF correction term to forces
     atom    1 type  1   force =    -0.00000000    0.00000000    0.00000000
     atom    2 type  1   force =     0.00000000   -0.00000000    0.00000000
     atom    3 type  2   force =    -0.00000000   -0.00000000    0.00000000

     Total force =     0.000000     Total SCF correction =     0.000000


     Computing stress (Cartesian axis) and pressure

          total   stress  (Ry/bohr**3)                   (kbar)     P=      482.14
   0.00328222   0.00000000   0.00000000          482.83        0.00        0.00
   0.00000000   0.00328222   0.00000000            0.00      482.83        0.00
   0.00000000  -0.00000000   0.00326808            0.00       -0.00      480.75

     Energy error            =      6.2E-04 Ry
     Gradient error          =      2.2E-24 Ry/Bohr
     Cell gradient error     =      1.9E+01 kbar

     number of scf cycles    =   2
     number of bfgs steps    =   1

     enthalpy           old  =     -30.5222596065 Ry
     enthalpy           new  =     -30.5228798705 Ry

     CASE: enthalpy          _new < enthalpy          _old

     new trust radius        =       0.0070947066 bohr
ibrav =      4
 celldm(1) =      7.42402115
 celldm(3) =      0.59448883
Input lattice vectors:
     1.00577311     0.00000000     0.00000000
    -0.50288655     0.87102506     0.00000000
     0.00000000     0.00000000     0.59792088
New lattice vectors in INITIAL alat:
     1.00577311     0.00000000     0.00000000
    -0.50288655     0.87102506     0.00000000
     0.00000000     0.00000000     0.59792088
New lattice vectors in NEW alat (for information only):
     1.00000000     0.00000000     0.00000000
    -0.50000000     0.86602540     0.00000000
     0.00000000     0.00000000     0.59448883
Discrepancy in bohr =     0.000000    0.000000    0.000000
     new conv_thr            =            1.0E-10 Ry

     new unit-cell volume =    210.66478 a.u.^3 (    31.21730 Ang^3 )
     density =      3.35711 g/cm^3

CELL_PARAMETERS (alat=  7.38140748)
   1.005773108   0.000000000   0.000000000
  -0.502886554   0.871025062   0.000000000
   0.000000000   0.000000000   0.597920883

ATOMIC_POSITIONS (crystal)
Si            0.3333333300        0.6666666700        0.5000000000
Si            0.6666666700        0.3333333300        0.5000000000
Li            0.0000000000       -0.0000000000        0.0000000000



     Writing config-only to output data dir ./output/SiLi.save/
     NEW-OLD atomic charge density approx. for the potential
     extrapolated charge   10.92487, renormalised to   11.00000

     total cpu time spent up to now is       12.3 secs

     Self-consistent Calculation

     iteration #  1     ecut=   100.00 Ry     beta= 0.70
     Davidson diagonalization with overlap
     ethr =  1.00E-06,  avg # of iterations =  2.9

     Threshold (ethr) on eigenvalues was too large:
     Diagonalizing with lowered threshold

     Davidson diagonalization with overlap
     ethr =  6.66E-08,  avg # of iterations =  1.8

     total cpu time spent up to now is       13.5 secs

     total energy              =     -31.23897754 Ry
     estimated scf accuracy    <       0.00000719 Ry

     iteration #  2     ecut=   100.00 Ry     beta= 0.70
     Davidson diagonalization with overlap
     ethr =  6.53E-08,  avg # of iterations =  2.9

     total cpu time spent up to now is       14.1 secs

     total energy              =     -31.23900549 Ry
     estimated scf accuracy    <       0.00000521 Ry

     iteration #  3     ecut=   100.00 Ry     beta= 0.70
     Davidson diagonalization with overlap
     ethr =  4.74E-08,  avg # of iterations =  1.0

     total cpu time spent up to now is       14.6 secs

     total energy              =     -31.23900511 Ry
     estimated scf accuracy    <       0.00000130 Ry

     iteration #  4     ecut=   100.00 Ry     beta= 0.70
     Davidson diagonalization with overlap
     ethr =  1.19E-08,  avg # of iterations =  1.3

     total cpu time spent up to now is       15.1 secs

     total energy              =     -31.23900494 Ry
     estimated scf accuracy    <       0.00000031 Ry

     iteration #  5     ecut=   100.00 Ry     beta= 0.70
     Davidson diagonalization with overlap
     ethr =  2.82E-09,  avg # of iterations =  2.0

     total cpu time spent up to now is       15.7 secs

     total energy              =     -31.23900499 Ry
     estimated scf accuracy    <          2.8E-09 Ry

     iteration #  6     ecut=   100.00 Ry     beta= 0.70
     Davidson diagonalization with overlap
     ethr =  2.53E-11,  avg # of iterations =  2.9

     total cpu time spent up to now is       16.3 secs

     End of self-consistent calculation

          k = 0.0000 0.0000 0.0000 (  3499 PWs)   bands (ev):

   -34.5827  -3.0933   7.0155   7.0155   7.9368   9.5230   9.5230  16.4394
    20.9563  23.3115

          k = 0.0000 0.0000 0.1394 (  3488 PWs)   bands (ev):

   -34.5759  -2.9186   7.1800   7.1800   8.1031   9.7022   9.7022  15.5087
    19.8220  25.3052

          k = 0.0000 0.0000 0.2787 (  3488 PWs)   bands (ev):

   -34.5571  -2.3964   7.6711   7.6711   8.5931  10.2390  10.2390  13.1612
    19.0738  25.1003

          k = 0.0000 0.0000 0.4181 (  3488 PWs)   bands (ev):

   -34.5313  -1.5322   8.4785   8.4785   9.3749  10.4310  11.1299  11.1299
    18.6920  21.4777

          k = 0.0000 0.0000 0.5575 (  3488 PWs)   bands (ev):

   -34.5055  -0.3381   7.7909   9.5697   9.5697  10.3715  12.3640  12.3640
    18.3989  18.6860

          k = 0.0000 0.0000 0.6969 (  3500 PWs)   bands (ev):

   -34.4865   1.1496   5.4083  10.8172  10.8172  11.3800  13.8927  13.8927
    16.4081  16.4081

          k = 0.0000 0.0000-0.8362 (  3482 PWs)   bands (ev):

   -34.4796   2.4358   3.8205  11.5734  11.5734  11.8769  15.1161  15.1161
    15.3071  15.3071

          k = 0.0000 0.1435 0.0000 (  3481 PWs)   bands (ev):

   -34.5825  -2.9412   5.2095   6.5028   8.8318  10.4049  10.5552  16.9033
    21.1144  23.2579

          k = 0.0000 0.1435 0.1394 (  3489 PWs)   bands (ev):

   -34.5756  -2.7661   5.3809   6.6702   8.9932  10.5808  10.7073  15.9259
    20.0228  25.1058

          k = 0.0000 0.1435 0.2787 (  3504 PWs)   bands (ev):

   -34.5569  -2.2425   5.8924   7.1705   9.4631  11.1072  11.1284  13.5611
    19.3644  22.9153

          k = 0.0000 0.1435 0.4181 (  3490 PWs)   bands (ev):

   -34.5312  -1.3760   6.7342   7.9947  10.0241  10.7450  11.9781  12.1366
    18.9535  20.0779

          k = 0.0000 0.1435 0.5575 (  3486 PWs)   bands (ev):

   -34.5053  -0.1785   7.7844   8.0230   9.1147  11.2332  12.9646  13.1742
    17.3920  18.1720

          k = 0.0000 0.1435 0.6969 (  3486 PWs)   bands (ev):

   -34.4864   1.3154   5.5487   9.3090  10.4168  11.7392  13.8723  14.5846
    15.8849  15.8932

          k = 0.0000 0.1435-0.8362 (  3496 PWs)   bands (ev):

   -34.4794   2.6226   3.9456  10.6523  11.0044  11.2411  14.5679  14.5822
    15.3820  15.7994

          k = 0.0000 0.2870 0.0000 (  3464 PWs)   bands (ev):

   -34.5819  -2.4950   3.1980   5.7651   8.8356  12.2484  12.9389  18.1789
    21.5834  22.9251

          k = 0.0000 0.2870 0.1394 (  3469 PWs)   bands (ev):

   -34.5751  -2.3184   3.3714   5.9347   8.9763  12.4210  13.0374  17.0199
    20.6798  23.9361

          k = 0.0000 0.2870 0.2787 (  3492 PWs)   bands (ev):

   -34.5563  -1.7906   3.8894   6.4417   9.3720  12.9362  13.1294  14.6660
    20.0558  21.4927

          k = 0.0000 0.2870 0.4181 (  3486 PWs)   bands (ev):

   -34.5307  -0.9171   4.7436   7.2789   9.7803  11.5441  13.7824  14.0676
    18.1450  20.5122

          k = 0.0000 0.2870 0.5575 (  3491 PWs)   bands (ev):

   -34.5050   0.2909   5.9093   8.3250   8.4228  11.1238  13.8254  14.9038
    16.5892  17.4707

          k = 0.0000 0.2870 0.6969 (  3496 PWs)   bands (ev):

   -34.4861   1.8032   5.9451   7.4545   9.7750  10.7873  13.4532  14.8456
    16.1101  16.5383

          k = 0.0000 0.2870-0.8362 (  3496 PWs)   bands (ev):

   -34.4791   3.1776   4.3116   8.8690   9.4420  10.6735  13.6779  13.8176
    15.7108  17.4177

          k = 0.0000 0.4305 0.0000 (  3456 PWs)   bands (ev):

   -34.5813  -1.8179   1.5492   5.2707   8.7434  14.5779  15.3589  19.3332
    20.4068  22.3328

          k = 0.0000 0.4305 0.1394 (  3486 PWs)   bands (ev):

   -34.5745  -1.6387   1.7216   5.4412   8.8665  14.7470  15.3384  18.1974
    20.5583  21.5236

          k = 0.0000 0.4305 0.2787 (  3486 PWs)   bands (ev):

   -34.5558  -1.1029   2.2363   5.9510   9.2108  14.5842  15.2494  16.3133
    19.4889  20.9427

          k = 0.0000 0.4305 0.4181 (  3492 PWs)   bands (ev):

   -34.5302  -0.2157   3.0856   6.7937   9.6284  12.2060  15.1643  16.0539
    17.8321  19.7308

          k = 0.0000 0.4305 0.5575 (  3502 PWs)   bands (ev):

   -34.5046   1.0126   4.2511   7.9481   8.9484  10.5568  13.4881  16.4828
    17.3381  17.6652

          k = 0.0000 0.4305 0.6969 (  3501 PWs)   bands (ev):

   -34.4857   2.5594   5.6394   6.7906   9.3236   9.4281  13.0485  14.3765
    16.6186  18.7129

          k = 0.0000 0.4305-0.8362 (  3494 PWs)   bands (ev):

   -34.4788   4.0747   4.8544   7.0876   8.0565  10.2606  13.1129  13.3036
    16.1159  19.5718

          k = 0.0000-0.5740 0.0000 (  3488 PWs)   bands (ev):

   -34.5811  -1.3285   0.7319   5.1012   8.7042  17.0848  17.0890  17.5424
    18.5297  23.0101

          k = 0.0000-0.5740 0.1394 (  3484 PWs)   bands (ev):

   -34.5742  -1.1461   0.9015   5.2720   8.8213  16.7768  17.2527  17.7064
    18.3889  20.8589

          k = 0.0000-0.5740 0.2787 (  3472 PWs)   bands (ev):

   -34.5556  -0.6002   1.4076   5.7826   9.1496  15.1634  17.3344  17.7208
    18.1966  19.6762

          k = 0.0000-0.5740 0.4181 (  3500 PWs)   bands (ev):

   -34.5301   0.3049   2.2415   6.6268   9.5806  12.5369  15.0708  18.2202
    18.8664  19.0066

          k = 0.0000-0.5740 0.5575 (  3496 PWs)   bands (ev):

   -34.5044   1.5620   3.3840   7.7842   9.6668   9.8363  13.2376  16.5361
    17.9406  20.1161

          k = 0.0000-0.5740 0.6969 (  3504 PWs)   bands (ev):

   -34.4856   3.1598   4.7776   7.3306   8.5800   9.1666  12.9033  14.2048
    16.8620  21.4416

          k = 0.0000-0.5740-0.8362 (  3488 PWs)   bands (ev):

   -34.4787   4.9640   5.2189   5.8879   7.3983  10.1154  12.9220  13.1268
    16.3059  22.3567

          k = 0.1243 0.2153 0.0000 (  3471 PWs)   bands (ev):

   -34.5821  -2.6408   3.7578   5.7470   9.4627  10.7700  12.7622  17.7617
    21.4282  22.9925

          k = 0.1243 0.2153 0.1394 (  3482 PWs)   bands (ev):

   -34.5752  -2.4648   3.9329   5.9100   9.6294  10.8992  12.9112  16.6677
    20.4532  23.8743

          k = 0.1243 0.2153 0.2787 (  3490 PWs)   bands (ev):

   -34.5565  -1.9384   4.4563   6.3948  10.1199  11.2142  13.3383  14.2255
    19.9447  21.6668

          k = 0.1243 0.2153 0.4181 (  3491 PWs)   bands (ev):

   -34.5308  -1.0674   5.3210   7.1806  10.6608  10.8870  12.6869  13.9406
    18.9342  19.1938

          k = 0.1243 0.2153 0.5575 (  3489 PWs)   bands (ev):

   -34.5051   0.1369   6.5133   7.8670   8.6923  11.6931  13.2953  14.2926
    17.0975  17.2234

          k = 0.1243 0.2153 0.6969 (  3491 PWs)   bands (ev):

   -34.4862   1.6429   5.8248   8.0033   9.6290  11.3590  14.1811  14.6160
    14.9404  17.0773

          k = 0.1243 0.2153-0.8362 (  3494 PWs)   bands (ev):

   -34.4792   2.9937   4.1929   9.5901   9.8589  10.3954  13.8317  14.6489
    15.7451  16.2450

          k = 0.1243 0.3588 0.0000 (  3468 PWs)   bands (ev):

   -34.5815  -2.0627   2.1303   5.0410   9.6760  12.3159  15.3640  18.8436
    21.3833  22.0423

          k = 0.1243 0.3588 0.1394 (  3475 PWs)   bands (ev):

   -34.5747  -1.8848   2.3066   5.2000   9.8209  12.4337  15.4545  17.7250
    20.8671  21.6041

          k = 0.1243 0.3588 0.2787 (  3483 PWs)   bands (ev):

   -34.5560  -1.3529   2.8336   5.6729  10.2288  12.6800  15.0814  15.8015
    20.1832  21.0541

          k = 0.1243 0.3588 0.4181 (  3489 PWs)   bands (ev):

   -34.5304  -0.4725   3.7048   6.4403  10.6320  11.8594  13.9803  15.4231
    18.3104  19.3262

          k = 0.1243 0.3588 0.5575 (  3502 PWs)   bands (ev):

   -34.5047   0.7458   4.9061   7.3867   9.0032  11.5026  13.7657  14.9929
    16.4190  18.6145

          k = 0.1243 0.3588 0.6969 (  3499 PWs)   bands (ev):

   -34.4858   2.2760   6.2145   6.5922   8.8178  10.2616  13.7773  14.4523
    15.8164  18.2755

          k = 0.1243 0.3588-0.8362 (  3490 PWs)   bands (ev):

   -34.4789   3.7233   4.6670   7.9983   8.4627   9.5948  13.1733  14.5169
    16.3210  17.6389

          k = 0.1243 0.5023 0.0000 (  3477 PWs)   bands (ev):

   -34.5811  -1.3522   0.8425   4.6825   9.6340  14.5493  17.0904  18.1595
    20.4292  22.8727

          k = 0.1243 0.5023 0.1394 (  3479 PWs)   bands (ev):

   -34.5742  -1.1711   1.0167   4.8402   9.7633  14.6410  17.0454  18.1195
    19.3746  21.6223

          k = 0.1243 0.5023 0.2787 (  3479 PWs)   bands (ev):

   -34.5556  -0.6296   1.5371   5.3096  10.1259  14.5378  16.1172  17.3747
    18.3424  19.9834

          k = 0.1243 0.5023 0.4181 (  3493 PWs)   bands (ev):

   -34.5300   0.2677   2.3965   6.0742  10.5730  12.5148  15.0295  16.3035
    18.4651  18.8544

          k = 0.1243 0.5023 0.5575 (  3500 PWs)   bands (ev):

   -34.5044   1.5119   3.5792   7.0743   9.6957  10.7291  13.4768  16.0743
    16.9561  19.3052

          k = 0.1243 0.5023 0.6969 (  3501 PWs)   bands (ev):

   -34.4856   3.0865   5.0395   7.1891   8.1657   9.3110  13.4170  14.2670
    17.0901  19.4892

          k = 0.1243 0.5023-0.8362 (  3508 PWs)   bands (ev):

   -34.4787   4.7437   5.2301   6.4167   7.3766   9.2312  12.8274  14.2928
    16.7761  19.7783

          k = 0.2486 0.4305 0.0000 (  3472 PWs)   bands (ev):

   -34.5811  -1.3746   0.9619   4.3291  11.1598  12.5103  17.0935  18.1982
    21.7586  22.7725

          k = 0.2486 0.4305 0.1394 (  3473 PWs)   bands (ev):

   -34.5742  -1.1948   1.1415   4.4773  11.3157  12.6029  17.0646  18.1249
    19.5199  22.4438

          k = 0.2486 0.4305 0.2787 (  3481 PWs)   bands (ev):

   -34.5556  -0.6571   1.6786   4.9167  11.7554  12.7783  15.8187  17.3129
    18.2572  20.7803

          k = 0.2486 0.4305 0.4181 (  3490 PWs)   bands (ev):

   -34.5300   0.2333   2.5684   5.6275  12.0206  12.2633  14.3336  15.3861
    18.2115  18.8916

          k = 0.2486 0.4305 0.5575 (  3498 PWs)   bands (ev):

   -34.5044   1.4669   3.8022   6.5409   9.7001  11.4784  14.4309  14.7635
    16.0732  19.4874

          k = 0.2486 0.4305 0.6969 (  3492 PWs)   bands (ev):

   -34.4856   3.0240   5.3651   6.9002   7.9518   9.3596  13.5220  15.5887
    15.9343  19.6898

          k = 0.2486 0.4305-0.8362 (  3492 PWs)   bands (ev):

   -34.4787   4.6034   5.2415   7.1226   7.3547   8.2812  12.7443  15.7654
    17.3906  17.9841

          k = 0.2486 0.5740 0.0000 (  3478 PWs)   bands (ev):

   -34.5809  -0.7521   0.1576   4.0812  11.5549  13.8325  15.0551  20.7192
    20.9055  23.3073

          k = 0.2486 0.5740 0.1394 (  3481 PWs)   bands (ev):

   -34.5741  -0.5703   0.3370   4.2259  11.6911  13.9416  15.1525  19.5981
    19.7666  22.2110

          k = 0.2486 0.5740 0.2787 (  3489 PWs)   bands (ev):

   -34.5554  -0.0265   0.8734   4.6552  12.0549  14.0623  15.4015  17.0965
    17.4054  20.9861

          k = 0.2486 0.5740 0.4181 (  3486 PWs)   bands (ev):

   -34.5299   0.8750   1.7616   5.3500  12.2850  12.7911  14.8809  15.9669
    16.2429  18.3255

          k = 0.2486 0.5740 0.5575 (  3487 PWs)   bands (ev):

   -34.5043   2.1267   2.9917   6.2555  10.3089  10.9067  14.3753  15.5560
    17.0082  17.1076

          k = 0.2486 0.5740 0.6969 (  3505 PWs)   bands (ev):

   -34.4855   3.7168   4.5435   7.1748   7.8541   8.7073  13.3356  15.7077
    17.4615  18.5129

          k = 0.2486 0.5740-0.8362 (  3498 PWs)   bands (ev):

   -34.4786   5.5144   5.7583   6.1536   6.6363   7.8675  12.5922  16.1003
    18.1173  19.3641

     the Fermi energy is    11.6505 ev

!    total energy              =     -31.23900499 Ry
     estimated scf accuracy    <          2.6E-11 Ry
     smearing contrib. (-TS)   =       0.00003838 Ry
     internal energy E=F+TS    =     -31.23904336 Ry

     The total energy is F=E-TS. E is the sum of the following terms:
     one-electron contribution =       4.34185681 Ry
     hartree contribution      =       2.91891655 Ry
     xc contribution           =     -10.12355955 Ry
     ewald contribution        =     -28.37625717 Ry

     convergence has been achieved in   6 iterations

     Forces acting on atoms (cartesian axes, Ry/au):

     atom    1 type  1   force =    -0.00000000   -0.00000000    0.00000000
     atom    2 type  1   force =    -0.00000000   -0.00000000    0.00000000
     atom    3 type  2   force =    -0.00000000    0.00000000    0.00000000
     The non-local contrib.  to forces
     atom    1 type  1   force =     0.00000000    0.00000000    0.00000000
     atom    2 type  1   force =     0.00000000    0.00000000    0.00000000
     atom    3 type  2   force =     0.00000000   -0.00000000    0.00000000
     The ionic contribution  to forces
     atom    1 type  1   force =     0.00000010   -0.00000006    0.00000000
     atom    2 type  1   force =    -0.00000010    0.00000006    0.00000000
     atom    3 type  2   force =    -0.00000000   -0.00000000    0.00000000
     The local contribution  to forces
     atom    1 type  1   force =    -0.00000001    0.00000000    0.00000000
     atom    2 type  1   force =     0.00000001   -0.00000000    0.00000000
     atom    3 type  2   force =    -0.00000000    0.00000000    0.00000000
     The core correction contribution to forces
     atom    1 type  1   force =    -0.00000000    0.00000000   -0.00000000
     atom    2 type  1   force =     0.00000000   -0.00000000   -0.00000000
     atom    3 type  2   force =     0.00000000    0.00000000    0.00000000
     The Hubbard contrib.    to forces
     atom    1 type  1   force =     0.00000000    0.00000000    0.00000000
     atom    2 type  1   force =     0.00000000    0.00000000    0.00000000
     atom    3 type  2   force =     0.00000000    0.00000000    0.00000000
     The SCF correction term to forces
     atom    1 type  1   force =     0.00000000   -0.00000000    0.00000000
     atom    2 type  1   force =    -0.00000000    0.00000000    0.00000000
     atom    3 type  2   force =    -0.00000000   -0.00000000    0.00000000

     Total force =     0.000000     Total SCF correction =     0.000000


     Computing stress (Cartesian axis) and pressure

          total   stress  (Ry/bohr**3)                   (kbar)     P=      499.58
   0.00339512  -0.00000000   0.00000000          499.44       -0.00        0.00
   0.00000000   0.00339512   0.00000000            0.00      499.44        0.00
   0.00000000  -0.00000000   0.00339799            0.00       -0.00      499.86

     Energy error            =      9.0E-05 Ry
     Gradient error          =      1.3E-24 Ry/Bohr
     Cell gradient error     =      5.6E-01 kbar
ibrav =      4
 celldm(1) =      7.42402115
 celldm(3) =      0.59448883
Input lattice vectors:
     1.00577311     0.00000000     0.00000000
    -0.50288655     0.87102506     0.00000000
     0.00000000     0.00000000     0.59792088
New lattice vectors in INITIAL alat:
     1.00577311     0.00000000     0.00000000
    -0.50288655     0.87102506     0.00000000
     0.00000000     0.00000000     0.59792088
New lattice vectors in NEW alat (for information only):
     1.00000000     0.00000000     0.00000000
    -0.50000000     0.86602540     0.00000000
     0.00000000     0.00000000     0.59448883
Discrepancy in bohr =     0.000000    0.000000    0.000000

     bfgs converged in   3 scf cycles and   2 bfgs steps
     (criteria: energy <  1.0E-04 Ry, force <  1.0E-03 Ry/Bohr, cell <  1.0E+00 kbar)

     End of BFGS Geometry Optimization

     Final enthalpy           =     -30.5229699508 Ry

     File ./output/SiLi.bfgs deleted, as requested
Begin final coordinates
     new unit-cell volume =    210.66478 a.u.^3 (    31.21730 Ang^3 )
     density =      3.35711 g/cm^3

CELL_PARAMETERS (alat=  7.38140748)
   1.005773108   0.000000000   0.000000000
  -0.502886554   0.871025062   0.000000000
   0.000000000   0.000000000   0.597920883

ATOMIC_POSITIONS (crystal)
Si            0.3333333300        0.6666666700        0.5000000000
Si            0.6666666700        0.3333333300        0.5000000000
Li            0.0000000000       -0.0000000000        0.0000000000
End final coordinates



     Writing config-only to output data dir ./output/SiLi.save/

     Final scf calculation at the relaxed structure.
     The G-vectors are recalculated for the final unit cell
     Results may differ from those at the preceding step.

     Parallelization info
     --------------------
     sticks:   dense  smooth     PW     G-vecs:    dense   smooth      PW
     Min         189     189     55                 3554     3554     566
     Max         191     191     57                 3555     3555     567
     Sum        1519    1519    451                28439    28439    4533

     Using Slab Decomposition



     bravais-lattice index     =            4
     lattice parameter (alat)  =       7.3814  a.u.
     unit-cell volume          =     210.6648 (a.u.)^3
     number of atoms/cell      =            3
     number of atomic types    =            2
     number of electrons       =        11.00
     number of Kohn-Sham states=           10
     kinetic-energy cutoff     =     100.0000  Ry
     charge density cutoff     =     400.0000  Ry
     scf convergence threshold =      1.0E-10
     mixing beta               =       0.7000
     number of iterations used =            8  plain     mixing
     press convergence thresh. =      1.0E+00
     Exchange-correlation= PBE
                           (   1   4   3   4   0   0   0)

     celldm(1)=   7.381407  celldm(2)=   0.000000  celldm(3)=   0.593214
     celldm(4)=   0.000000  celldm(5)=   0.000000  celldm(6)=   0.000000

     crystal axes: (cart. coord. in units of alat)
               a(1) = (   1.005773   0.000000   0.000000 )  
               a(2) = (  -0.502887   0.871025   0.000000 )  
               a(3) = (   0.000000   0.000000   0.597921 )  

     reciprocal axes: (cart. coord. in units 2 pi/alat)
               b(1) = (  0.994260  0.574036 -0.000000 )  
               b(2) = (  0.000000  1.148073  0.000000 )  
               b(3) = (  0.000000 -0.000000  1.672462 )  


     PseudoPot. # 1 for Si read from file:
     ../pseudo/Si_ONCV_PBE_sr.upf
     MD5 check sum: e543d271109d17c80368dfa7c482276d
     Pseudo is Norm-conserving + core correction, Zval =  4.0
     Generated using ONCVPSP code by D. R. Hamann
     Using radial grid of 1510 points,  6 beta functions with: 
                l(1) =   0
                l(2) =   0
                l(3) =   1
                l(4) =   1
                l(5) =   2
                l(6) =   2

     PseudoPot. # 2 for Li read from file:
     ../pseudo/Li_ONCV_PBE_sr.upf
     MD5 check sum: 50ff420e78310ffa21704f3361e624a4
     Pseudo is Norm-conserving, Zval =  3.0
     Generated using ONCVPSP code by D. R. Hamann
     Using radial grid of 1944 points,  4 beta functions with: 
                l(1) =   0
                l(2) =   0
                l(3) =   1
                l(4) =   1

     atomic species   valence    mass     pseudopotential
        Si             4.00    28.08550     Si( 1.00)
        Li             3.00     6.94100     Li( 1.00)

     24 Sym. Ops., with inversion, found



   Cartesian axes

     site n.     atom                  positions (alat units)
         1           Si  tau(   1) = (  -0.0000000   0.5806834   0.2989604  )
         2           Si  tau(   2) = (   0.5028866   0.2903417   0.2989604  )
         3           Li  tau(   3) = (   0.0000000  -0.0000000   0.0000000  )

     number of k points=    70  Marzari-Vanderbilt smearing, width (Ry)=  0.0200
                       cart. coord. in units 2pi/alat
        k(    1) = (   0.0000000   0.0000000   0.0000000), wk =   0.0026042
        k(    2) = (   0.0000000   0.0000000   0.1393718), wk =   0.0052083
        k(    3) = (   0.0000000   0.0000000   0.2787437), wk =   0.0052083
        k(    4) = (   0.0000000   0.0000000   0.4181155), wk =   0.0052083
        k(    5) = (   0.0000000   0.0000000   0.5574874), wk =   0.0052083
        k(    6) = (   0.0000000   0.0000000   0.6968592), wk =   0.0052083
        k(    7) = (   0.0000000   0.0000000  -0.8362310), wk =   0.0026042
        k(    8) = (   0.0000000   0.1435091   0.0000000), wk =   0.0156250
        k(    9) = (   0.0000000   0.1435091   0.1393718), wk =   0.0312500
        k(   10) = (   0.0000000   0.1435091   0.2787437), wk =   0.0312500
        k(   11) = (   0.0000000   0.1435091   0.4181155), wk =   0.0312500
        k(   12) = (   0.0000000   0.1435091   0.5574874), wk =   0.0312500
        k(   13) = (   0.0000000   0.1435091   0.6968592), wk =   0.0312500
        k(   14) = (   0.0000000   0.1435091  -0.8362310), wk =   0.0156250
        k(   15) = (   0.0000000   0.2870181   0.0000000), wk =   0.0156250
        k(   16) = (   0.0000000   0.2870181   0.1393718), wk =   0.0312500
        k(   17) = (   0.0000000   0.2870181   0.2787437), wk =   0.0312500
        k(   18) = (   0.0000000   0.2870181   0.4181155), wk =   0.0312500
        k(   19) = (   0.0000000   0.2870181   0.5574874), wk =   0.0312500
        k(   20) = (   0.0000000   0.2870181   0.6968592), wk =   0.0312500
        k(   21) = (   0.0000000   0.2870181  -0.8362310), wk =   0.0156250
        k(   22) = (   0.0000000   0.4305272   0.0000000), wk =   0.0156250
        k(   23) = (   0.0000000   0.4305272   0.1393718), wk =   0.0312500
        k(   24) = (   0.0000000   0.4305272   0.2787437), wk =   0.0312500
        k(   25) = (   0.0000000   0.4305272   0.4181155), wk =   0.0312500
        k(   26) = (   0.0000000   0.4305272   0.5574874), wk =   0.0312500
        k(   27) = (   0.0000000   0.4305272   0.6968592), wk =   0.0312500
        k(   28) = (   0.0000000   0.4305272  -0.8362310), wk =   0.0156250
        k(   29) = (   0.0000000  -0.5740363   0.0000000), wk =   0.0078125
        k(   30) = (   0.0000000  -0.5740363   0.1393718), wk =   0.0156250
        k(   31) = (   0.0000000  -0.5740363   0.2787437), wk =   0.0156250
        k(   32) = (   0.0000000  -0.5740363   0.4181155), wk =   0.0156250
        k(   33) = (   0.0000000  -0.5740363   0.5574874), wk =   0.0156250
        k(   34) = (   0.0000000  -0.5740363   0.6968592), wk =   0.0156250
        k(   35) = (   0.0000000  -0.5740363  -0.8362310), wk =   0.0078125
        k(   36) = (   0.1242825   0.2152636   0.0000000), wk =   0.0156250
        k(   37) = (   0.1242825   0.2152636   0.1393718), wk =   0.0312500
        k(   38) = (   0.1242825   0.2152636   0.2787437), wk =   0.0312500
        k(   39) = (   0.1242825   0.2152636   0.4181155), wk =   0.0312500
        k(   40) = (   0.1242825   0.2152636   0.5574874), wk =   0.0312500
        k(   41) = (   0.1242825   0.2152636   0.6968592), wk =   0.0312500
        k(   42) = (   0.1242825   0.2152636  -0.8362310), wk =   0.0156250
        k(   43) = (   0.1242825   0.3587727   0.0000000), wk =   0.0312500
        k(   44) = (   0.1242825   0.3587727   0.1393718), wk =   0.0625000
        k(   45) = (   0.1242825   0.3587727   0.2787437), wk =   0.0625000
        k(   46) = (   0.1242825   0.3587727   0.4181155), wk =   0.0625000
        k(   47) = (   0.1242825   0.3587727   0.5574874), wk =   0.0625000
        k(   48) = (   0.1242825   0.3587727   0.6968592), wk =   0.0625000
        k(   49) = (   0.1242825   0.3587727  -0.8362310), wk =   0.0312500
        k(   50) = (   0.1242825   0.5022818   0.0000000), wk =   0.0312500
        k(   51) = (   0.1242825   0.5022818   0.1393718), wk =   0.0625000
        k(   52) = (   0.1242825   0.5022818   0.2787437), wk =   0.0625000
        k(   53) = (   0.1242825   0.5022818   0.4181155), wk =   0.0625000
        k(   54) = (   0.1242825   0.5022818   0.5574874), wk =   0.0625000
        k(   55) = (   0.1242825   0.5022818   0.6968592), wk =   0.0625000
        k(   56) = (   0.1242825   0.5022818  -0.8362310), wk =   0.0312500
        k(   57) = (   0.2485650   0.4305272   0.0000000), wk =   0.0156250
        k(   58) = (   0.2485650   0.4305272   0.1393718), wk =   0.0312500
        k(   59) = (   0.2485650   0.4305272   0.2787437), wk =   0.0312500
        k(   60) = (   0.2485650   0.4305272   0.4181155), wk =   0.0312500
        k(   61) = (   0.2485650   0.4305272   0.5574874), wk =   0.0312500
        k(   62) = (   0.2485650   0.4305272   0.6968592), wk =   0.0312500
        k(   63) = (   0.2485650   0.4305272  -0.8362310), wk =   0.0156250
        k(   64) = (   0.2485650   0.5740363   0.0000000), wk =   0.0156250
        k(   65) = (   0.2485650   0.5740363   0.1393718), wk =   0.0312500
        k(   66) = (   0.2485650   0.5740363   0.2787437), wk =   0.0312500
        k(   67) = (   0.2485650   0.5740363   0.4181155), wk =   0.0312500
        k(   68) = (   0.2485650   0.5740363   0.5574874), wk =   0.0312500
        k(   69) = (   0.2485650   0.5740363   0.6968592), wk =   0.0312500
        k(   70) = (   0.2485650   0.5740363  -0.8362310), wk =   0.0156250

     Dense  grid:    28439 G-vectors     FFT dimensions: (  48,  48,  30)

     Estimated max dynamical RAM per process >      20.52 MB

     Estimated total dynamical RAM >     164.16 MB

     Initial potential from superposition of free atoms

     starting charge      10.9942, renormalised to      11.0000
     Starting wfcs are   10 randomized atomic wfcs

     total cpu time spent up to now is       17.9 secs

     Self-consistent Calculation

     iteration #  1     ecut=   100.00 Ry     beta= 0.70
     Davidson diagonalization with overlap
     c_bands:  1 eigenvalues not converged
     c_bands:  1 eigenvalues not converged
     c_bands:  2 eigenvalues not converged
     c_bands:  1 eigenvalues not converged
     c_bands:  1 eigenvalues not converged
     c_bands:  1 eigenvalues not converged
     c_bands:  2 eigenvalues not converged
     c_bands:  1 eigenvalues not converged
     c_bands:  1 eigenvalues not converged
     c_bands:  1 eigenvalues not converged
     c_bands:  1 eigenvalues not converged
     c_bands:  1 eigenvalues not converged
     c_bands:  1 eigenvalues not converged
     c_bands:  2 eigenvalues not converged
     c_bands:  1 eigenvalues not converged
     c_bands:  1 eigenvalues not converged
     c_bands:  2 eigenvalues not converged
     c_bands:  1 eigenvalues not converged
     c_bands:  1 eigenvalues not converged
     c_bands:  1 eigenvalues not converged
     c_bands:  1 eigenvalues not converged
     c_bands:  1 eigenvalues not converged
     c_bands:  1 eigenvalues not converged
     c_bands:  2 eigenvalues not converged
     c_bands:  1 eigenvalues not converged
     c_bands:  1 eigenvalues not converged
     c_bands:  1 eigenvalues not converged
     c_bands:  1 eigenvalues not converged
     c_bands:  1 eigenvalues not converged
     c_bands:  2 eigenvalues not converged
     c_bands:  1 eigenvalues not converged
     c_bands:  1 eigenvalues not converged
     c_bands:  1 eigenvalues not converged
     c_bands:  1 eigenvalues not converged
     ethr =  1.00E-06,  avg # of iterations = 18.6

     total cpu time spent up to now is       20.1 secs

     total energy              =     -31.23880144 Ry
     estimated scf accuracy    <       0.01258321 Ry

     iteration #  2     ecut=   100.00 Ry     beta= 0.70
     Davidson diagonalization with overlap
     ethr =  1.14E-04,  avg # of iterations =  1.1

     total cpu time spent up to now is       20.6 secs

     total energy              =     -31.23897901 Ry
     estimated scf accuracy    <       0.00089338 Ry

     iteration #  3     ecut=   100.00 Ry     beta= 0.70
     Davidson diagonalization with overlap
     ethr =  8.12E-06,  avg # of iterations =  1.7

     total cpu time spent up to now is       21.1 secs

     total energy              =     -31.23900336 Ry
     estimated scf accuracy    <       0.00001781 Ry

     iteration #  4     ecut=   100.00 Ry     beta= 0.70
     Davidson diagonalization with overlap
     ethr =  1.62E-07,  avg # of iterations =  2.1

     total cpu time spent up to now is       21.7 secs

     total energy              =     -31.23900569 Ry
     estimated scf accuracy    <       0.00000047 Ry

     iteration #  5     ecut=   100.00 Ry     beta= 0.70
     Davidson diagonalization with overlap
     ethr =  4.28E-09,  avg # of iterations =  2.5

     total cpu time spent up to now is       22.3 secs

     total energy              =     -31.23900581 Ry
     estimated scf accuracy    <          2.9E-09 Ry

     iteration #  6     ecut=   100.00 Ry     beta= 0.70
     Davidson diagonalization with overlap
     ethr =  2.61E-11,  avg # of iterations =  3.9

     total cpu time spent up to now is       23.0 secs

     total energy              =     -31.23900581 Ry
     estimated scf accuracy    <          3.7E-10 Ry

     iteration #  7     ecut=   100.00 Ry     beta= 0.70
     Davidson diagonalization with overlap
     ethr =  3.34E-12,  avg # of iterations =  1.3

     total cpu time spent up to now is       23.5 secs

     End of self-consistent calculation

          k = 0.0000 0.0000 0.0000 (  3537 PWs)   bands (ev):

   -34.5828  -3.0933   7.0155   7.0155   7.9368   9.5230   9.5230  16.4394
    20.9562  23.3115

          k = 0.0000 0.0000 0.1394 (  3542 PWs)   bands (ev):

   -34.5759  -2.9186   7.1800   7.1800   8.1031   9.7022   9.7022  15.5087
    19.8220  25.3052

          k = 0.0000 0.0000 0.2787 (  3560 PWs)   bands (ev):

   -34.5571  -2.3964   7.6711   7.6711   8.5931  10.2390  10.2390  13.1612
    19.0738  24.6084

          k = 0.0000 0.0000 0.4181 (  3554 PWs)   bands (ev):

   -34.5314  -1.5322   8.4785   8.4785   9.3749  10.4310  11.1299  11.1299
    18.6920  21.4777

          k = 0.0000 0.0000 0.5575 (  3584 PWs)   bands (ev):

   -34.5055  -0.3381   7.7909   9.5697   9.5697  10.3715  12.3640  12.3640
    18.3989  18.6860

          k = 0.0000 0.0000 0.6969 (  3554 PWs)   bands (ev):

   -34.4865   1.1496   5.4083  10.8172  10.8172  11.3800  13.8927  13.8927
    16.4081  16.4081

          k = 0.0000 0.0000-0.8362 (  3578 PWs)   bands (ev):

   -34.4796   2.4358   3.8205  11.5734  11.5734  11.8768  15.1161  15.1161
    15.3071  15.3071

          k = 0.0000 0.1435 0.0000 (  3555 PWs)   bands (ev):

   -34.5825  -2.9412   5.2095   6.5028   8.8318  10.4049  10.5551  16.9033
    21.1144  23.2579

          k = 0.0000 0.1435 0.1394 (  3555 PWs)   bands (ev):

   -34.5757  -2.7661   5.3809   6.6702   8.9932  10.5808  10.7073  15.9259
    20.0228  25.1060

          k = 0.0000 0.1435 0.2787 (  3550 PWs)   bands (ev):

   -34.5569  -2.2425   5.8924   7.1705   9.4631  11.1072  11.1284  13.5611
    19.3645  22.9153

          k = 0.0000 0.1435 0.4181 (  3556 PWs)   bands (ev):

   -34.5312  -1.3760   6.7342   7.9947  10.0241  10.7450  11.9781  12.1366
    18.9535  20.0779

          k = 0.0000 0.1435 0.5575 (  3547 PWs)   bands (ev):

   -34.5054  -0.1785   7.7844   8.0230   9.1147  11.2331  12.9646  13.1742
    17.3921  18.1720

          k = 0.0000 0.1435 0.6969 (  3562 PWs)   bands (ev):

   -34.4864   1.3154   5.5487   9.3090  10.4168  11.7392  13.8723  14.5846
    15.8849  15.8932

          k = 0.0000 0.1435-0.8362 (  3574 PWs)   bands (ev):

   -34.4795   2.6226   3.9456  10.6523  11.0044  11.2411  14.5679  14.5822
    15.3820  15.7994

          k = 0.0000 0.2870 0.0000 (  3534 PWs)   bands (ev):

   -34.5819  -2.4950   3.1980   5.7651   8.8356  12.2484  12.9388  18.1789
    21.5834  22.9251

          k = 0.0000 0.2870 0.1394 (  3549 PWs)   bands (ev):

   -34.5751  -2.3184   3.3714   5.9347   8.9763  12.4210  13.0374  17.0199
    20.6797  23.9358

          k = 0.0000 0.2870 0.2787 (  3550 PWs)   bands (ev):

   -34.5564  -1.7906   3.8894   6.4417   9.3720  12.9362  13.1294  14.6660
    20.0558  21.4927

          k = 0.0000 0.2870 0.4181 (  3555 PWs)   bands (ev):

   -34.5307  -0.9171   4.7435   7.2789   9.7803  11.5441  13.7824  14.0676
    18.1450  20.2610

          k = 0.0000 0.2870 0.5575 (  3562 PWs)   bands (ev):

   -34.5050   0.2909   5.9093   8.3250   8.4228  11.1238  13.8254  14.9038
    16.5892  17.4707

          k = 0.0000 0.2870 0.6969 (  3568 PWs)   bands (ev):

   -34.4861   1.8032   5.9451   7.4545   9.7750  10.7873  13.4532  14.8456
    16.1101  16.5383

          k = 0.0000 0.2870-0.8362 (  3564 PWs)   bands (ev):

   -34.4791   3.1776   4.3116   8.8690   9.4420  10.6735  13.6779  13.8176
    15.7108  17.4177

          k = 0.0000 0.4305 0.0000 (  3544 PWs)   bands (ev):

   -34.5813  -1.8179   1.5492   5.2707   8.7434  14.5779  15.3589  19.3332
    20.4068  22.3328

          k = 0.0000 0.4305 0.1394 (  3544 PWs)   bands (ev):

   -34.5745  -1.6387   1.7216   5.4412   8.8665  14.7470  15.3384  18.1974
    20.5583  21.5237

          k = 0.0000 0.4305 0.2787 (  3552 PWs)   bands (ev):

   -34.5558  -1.1029   2.2363   5.9510   9.2108  14.5842  15.2494  16.3133
    19.4889  20.9427

          k = 0.0000 0.4305 0.4181 (  3558 PWs)   bands (ev):

   -34.5303  -0.2157   3.0856   6.7937   9.6284  12.2060  15.1643  16.0539
    17.8321  19.7308

          k = 0.0000 0.4305 0.5575 (  3566 PWs)   bands (ev):

   -34.5046   1.0126   4.2511   7.9481   8.9484  10.5568  13.4881  16.4828
    17.3381  17.6652

          k = 0.0000 0.4305 0.6969 (  3572 PWs)   bands (ev):

   -34.4857   2.5594   5.6394   6.7906   9.3236   9.4281  13.0485  14.3765
    16.6186  18.7129

          k = 0.0000 0.4305-0.8362 (  3574 PWs)   bands (ev):

   -34.4788   4.0747   4.8544   7.0876   8.0565  10.2606  13.1129  13.3036
    16.1159  19.5718

          k = 0.0000-0.5740 0.0000 (  3552 PWs)   bands (ev):

   -34.5811  -1.3285   0.7319   5.1012   8.7042  17.0848  17.0890  17.5424
    18.5297  23.0101

          k = 0.0000-0.5740 0.1394 (  3556 PWs)   bands (ev):

   -34.5743  -1.1461   0.9015   5.2720   8.8213  16.7768  17.2527  17.7064
    18.3889  20.8589

          k = 0.0000-0.5740 0.2787 (  3558 PWs)   bands (ev):

   -34.5556  -0.6002   1.4075   5.7826   9.1496  15.1634  17.3343  17.7208
    18.1966  19.6762

          k = 0.0000-0.5740 0.4181 (  3556 PWs)   bands (ev):

   -34.5301   0.3049   2.2415   6.6268   9.5806  12.5368  15.0708  18.2202
    18.8664  19.0066

          k = 0.0000-0.5740 0.5575 (  3554 PWs)   bands (ev):

   -34.5044   1.5619   3.3840   7.7842   9.6668   9.8363  13.2376  16.5361
    17.9406  20.1161

          k = 0.0000-0.5740 0.6969 (  3566 PWs)   bands (ev):

   -34.4856   3.1598   4.7775   7.3306   8.5800   9.1666  12.9033  14.2048
    16.8619  21.4402

          k = 0.0000-0.5740-0.8362 (  3556 PWs)   bands (ev):

   -34.4787   4.9640   5.2189   5.8879   7.3983  10.1154  12.9220  13.1268
    16.3059  21.9374

          k = 0.1243 0.2153 0.0000 (  3546 PWs)   bands (ev):

   -34.5821  -2.6408   3.7577   5.7470   9.4627  10.7700  12.7622  17.7617
    21.4282  22.9925

          k = 0.1243 0.2153 0.1394 (  3539 PWs)   bands (ev):

   -34.5752  -2.4648   3.9329   5.9100   9.6294  10.8992  12.9112  16.6677
    20.4532  23.8743

          k = 0.1243 0.2153 0.2787 (  3557 PWs)   bands (ev):

   -34.5565  -1.9384   4.4562   6.3948  10.1199  11.2142  13.3383  14.2255
    19.9447  21.6668

          k = 0.1243 0.2153 0.4181 (  3557 PWs)   bands (ev):

   -34.5308  -1.0674   5.3210   7.1805  10.6608  10.8870  12.6869  13.9406
    18.9342  19.1937

          k = 0.1243 0.2153 0.5575 (  3557 PWs)   bands (ev):

   -34.5051   0.1369   6.5133   7.8670   8.6923  11.6931  13.2953  14.2926
    17.0975  17.2234

          k = 0.1243 0.2153 0.6969 (  3564 PWs)   bands (ev):

   -34.4862   1.6429   5.8248   8.0033   9.6290  11.3590  14.1811  14.6160
    14.9404  17.0773

          k = 0.1243 0.2153-0.8362 (  3574 PWs)   bands (ev):

   -34.4792   2.9937   4.1929   9.5901   9.8589  10.3954  13.8317  14.6489
    15.7451  16.2450

          k = 0.1243 0.3588 0.0000 (  3534 PWs)   bands (ev):

   -34.5815  -2.0627   2.1303   5.0410   9.6760  12.3159  15.3640  18.8436
    21.3834  22.0423

          k = 0.1243 0.3588 0.1394 (  3539 PWs)   bands (ev):

   -34.5747  -1.8848   2.3066   5.2000   9.8209  12.4337  15.4545  17.7250
    20.8671  21.6042

          k = 0.1243 0.3588 0.2787 (  3551 PWs)   bands (ev):

   -34.5560  -1.3529   2.8336   5.6729  10.2288  12.6800  15.0814  15.8015
    20.1832  21.0540

          k = 0.1243 0.3588 0.4181 (  3561 PWs)   bands (ev):

   -34.5304  -0.4725   3.7048   6.4403  10.6320  11.8594  13.9803  15.4230
    18.3104  19.3262

          k = 0.1243 0.3588 0.5575 (  3558 PWs)   bands (ev):

   -34.5047   0.7458   4.9061   7.3867   9.0032  11.5025  13.7657  14.9929
    16.4190  18.6145

          k = 0.1243 0.3588 0.6969 (  3561 PWs)   bands (ev):

   -34.4858   2.2760   6.2145   6.5922   8.8178  10.2616  13.7773  14.4523
    15.8164  18.2755

          k = 0.1243 0.3588-0.8362 (  3568 PWs)   bands (ev):

   -34.4789   3.7233   4.6670   7.9983   8.4627   9.5948  13.1733  14.5169
    16.3210  17.6389

          k = 0.1243 0.5023 0.0000 (  3541 PWs)   bands (ev):

   -34.5811  -1.3522   0.8425   4.6825   9.6340  14.5493  17.0904  18.1594
    20.4292  22.8727

          k = 0.1243 0.5023 0.1394 (  3550 PWs)   bands (ev):

   -34.5743  -1.1711   1.0167   4.8402   9.7633  14.6409  17.0454  18.1195
    19.3746  21.6223

          k = 0.1243 0.5023 0.2787 (  3558 PWs)   bands (ev):

   -34.5556  -0.6296   1.5371   5.3096  10.1259  14.5378  16.1172  17.3747
    18.3424  19.9834

          k = 0.1243 0.5023 0.4181 (  3557 PWs)   bands (ev):

   -34.5301   0.2677   2.3965   6.0742  10.5730  12.5148  15.0295  16.3035
    18.4651  18.8544

          k = 0.1243 0.5023 0.5575 (  3573 PWs)   bands (ev):

   -34.5044   1.5119   3.5792   7.0743   9.6957  10.7291  13.4768  16.0743
    16.9561  19.3052

          k = 0.1243 0.5023 0.6969 (  3568 PWs)   bands (ev):

   -34.4856   3.0865   5.0395   7.1891   8.1657   9.3109  13.4170  14.2670
    17.0901  19.4892

          k = 0.1243 0.5023-0.8362 (  3554 PWs)   bands (ev):

   -34.4787   4.7437   5.2301   6.4167   7.3766   9.2312  12.8274  14.2928
    16.7761  19.7783

          k = 0.2486 0.4305 0.0000 (  3542 PWs)   bands (ev):

   -34.5811  -1.3746   0.9619   4.3291  11.1598  12.5103  17.0935  18.1982
    21.7586  22.7725

          k = 0.2486 0.4305 0.1394 (  3544 PWs)   bands (ev):

   -34.5743  -1.1949   1.1415   4.4773  11.3157  12.6029  17.0646  18.1249
    19.5199  22.4438

          k = 0.2486 0.4305 0.2787 (  3551 PWs)   bands (ev):

   -34.5556  -0.6572   1.6786   4.9167  11.7554  12.7783  15.8186  17.3129
    18.2572  20.7803

          k = 0.2486 0.4305 0.4181 (  3560 PWs)   bands (ev):

   -34.5301   0.2333   2.5684   5.6275  12.0206  12.2633  14.3336  15.3861
    18.2115  18.8916

          k = 0.2486 0.4305 0.5575 (  3573 PWs)   bands (ev):

   -34.5044   1.4669   3.8022   6.5409   9.7001  11.4784  14.4309  14.7635
    16.0732  19.4874

          k = 0.2486 0.4305 0.6969 (  3574 PWs)   bands (ev):

   -34.4856   3.0240   5.3651   6.9002   7.9518   9.3596  13.5220  15.5887
    15.9343  19.6898

          k = 0.2486 0.4305-0.8362 (  3558 PWs)   bands (ev):

   -34.4787   4.6034   5.2415   7.1225   7.3547   8.2812  12.7443  15.7654
    17.3906  17.9841

          k = 0.2486 0.5740 0.0000 (  3550 PWs)   bands (ev):

   -34.5809  -0.7521   0.1576   4.0812  11.5549  13.8325  15.0551  20.7192
    20.9055  23.3073

          k = 0.2486 0.5740 0.1394 (  3552 PWs)   bands (ev):

   -34.5741  -0.5703   0.3370   4.2259  11.6911  13.9416  15.1525  19.5981
    19.7665  22.2110

          k = 0.2486 0.5740 0.2787 (  3562 PWs)   bands (ev):

   -34.5555  -0.0265   0.8734   4.6552  12.0549  14.0622  15.4015  17.0965
    17.4054  20.9862

          k = 0.2486 0.5740 0.4181 (  3573 PWs)   bands (ev):

   -34.5299   0.8750   1.7616   5.3500  12.2850  12.7911  14.8809  15.9669
    16.2429  18.3255

          k = 0.2486 0.5740 0.5575 (  3567 PWs)   bands (ev):

   -34.5043   2.1267   2.9916   6.2555  10.3089  10.9067  14.3753  15.5560
    17.0082  17.1076

          k = 0.2486 0.5740 0.6969 (  3574 PWs)   bands (ev):

   -34.4855   3.7168   4.5435   7.1748   7.8541   8.7073  13.3356  15.7077
    17.4615  18.5129

          k = 0.2486 0.5740-0.8362 (  3560 PWs)   bands (ev):

   -34.4786   5.5144   5.7583   6.1536   6.6362   7.8675  12.5922  16.1003
    18.1173  19.3641

     the Fermi energy is    11.6505 ev

!    total energy              =     -31.23900581 Ry
     estimated scf accuracy    <          9.7E-12 Ry
     smearing contrib. (-TS)   =       0.00003839 Ry
     internal energy E=F+TS    =     -31.23904420 Ry

     The total energy is F=E-TS. E is the sum of the following terms:
     one-electron contribution =       4.34185825 Ry
     hartree contribution      =       2.91891637 Ry
     xc contribution           =     -10.12356166 Ry
     ewald contribution        =     -28.37625717 Ry

     convergence has been achieved in   7 iterations

     Forces acting on atoms (cartesian axes, Ry/au):

     atom    1 type  1   force =     0.00000000   -0.00000000    0.00000000
     atom    2 type  1   force =    -0.00000000    0.00000000   -0.00000000
     atom    3 type  2   force =     0.00000000    0.00000000   -0.00000000
     The non-local contrib.  to forces
     atom    1 type  1   force =     0.00000000    0.00000000    0.00000000
     atom    2 type  1   force =     0.00000000    0.00000000    0.00000000
     atom    3 type  2   force =     0.00000000    0.00000000    0.00000000
     The ionic contribution  to forces
     atom    1 type  1   force =     0.00000010   -0.00000006    0.00000000
     atom    2 type  1   force =    -0.00000010    0.00000006    0.00000000
     atom    3 type  2   force =    -0.00000000   -0.00000000    0.00000000
     The local contribution  to forces
     atom    1 type  1   force =    -0.00000001    0.00000000    0.00000000
     atom    2 type  1   force =     0.00000001   -0.00000000   -0.00000000
     atom    3 type  2   force =    -0.00000000    0.00000000    0.00000000
     The core correction contribution to forces
     atom    1 type  1   force =    -0.00000000    0.00000000   -0.00000000
     atom    2 type  1   force =     0.00000000   -0.00000000   -0.00000000
     atom    3 type  2   force =     0.00000000    0.00000000    0.00000000
     The Hubbard contrib.    to forces
     atom    1 type  1   force =     0.00000000    0.00000000    0.00000000
     atom    2 type  1   force =     0.00000000    0.00000000    0.00000000
     atom    3 type  2   force =     0.00000000    0.00000000    0.00000000
     The SCF correction term to forces
     atom    1 type  1   force =    -0.00000000    0.00000000    0.00000000
     atom    2 type  1   force =     0.00000000   -0.00000000    0.00000000
     atom    3 type  2   force =     0.00000000    0.00000000    0.00000000

     Total force =     0.000000     Total SCF correction =     0.000000


     Computing stress (Cartesian axis) and pressure

          total   stress  (Ry/bohr**3)                   (kbar)     P=      499.58
   0.00339512   0.00000000   0.00000000          499.44        0.00        0.00
   0.00000000   0.00339512   0.00000000            0.00      499.44        0.00
   0.00000000   0.00000000   0.00339796            0.00        0.00      499.86


     Writing all to output data dir ./output/SiLi.save/

     init_run     :      1.09s CPU      1.69s WALL (       2 calls)
     electrons    :     15.47s CPU     17.51s WALL (       4 calls)
     update_pot   :      0.61s CPU      0.65s WALL (       2 calls)
     forces       :      0.91s CPU      1.04s WALL (       4 calls)
     stress       :      3.34s CPU      3.50s WALL (       4 calls)

     Called by init_run:
     wfcinit      :      0.34s CPU      0.35s WALL (       2 calls)
     potinit      :      0.28s CPU      0.67s WALL (       2 calls)
     hinit0       :      0.43s CPU      0.59s WALL (       2 calls)

     Called by electrons:
     c_bands      :     13.26s CPU     14.78s WALL (      26 calls)
     sum_band     :      1.86s CPU      1.99s WALL (      26 calls)
     v_of_rho     :      0.33s CPU      1.08s WALL (      28 calls)
     mix_rho      :      0.04s CPU      0.06s WALL (      26 calls)

     Called by c_bands:
     init_us_2    :      0.50s CPU      0.54s WALL (    4340 calls)
     init_us_2:cp :      0.49s CPU      0.54s WALL (    4340 calls)
     cegterg      :     12.19s CPU     12.79s WALL (    1820 calls)

     Called by *egterg:
     cdiaghg      :      0.93s CPU      1.00s WALL (    7226 calls)
     h_psi        :     10.24s CPU     10.71s WALL (    7646 calls)
     g_psi        :      0.06s CPU      0.06s WALL (    5686 calls)

     Called by h_psi:
     h_psi:calbec :      0.71s CPU      0.74s WALL (    7646 calls)
     vloc_psi     :      9.00s CPU      9.40s WALL (    7646 calls)
     add_vuspsi   :      0.48s CPU      0.50s WALL (    7646 calls)

     General routines
     calbec       :      0.91s CPU      0.95s WALL (    9046 calls)
     fft          :      0.74s CPU      1.79s WALL (     380 calls)
     ffts         :      0.02s CPU      0.05s WALL (      26 calls)
     fftw         :      9.14s CPU      9.55s WALL (  124080 calls)

     Parallel routines

     PWSCF        :     21.62s CPU     24.93s WALL


   This run was terminated on:  22: 9:44  10Jan2025            

=------------------------------------------------------------------------------=
   JOB DONE.
=------------------------------------------------------------------------------=
