
     Program PWSCF v.7.2 starts on 27Dec2024 at 14:16:28 

     This program is part of the open-source Quantum ESPRESSO suite
     for quantum simulation of materials; please cite
         "P. Giannozzi et al., J. Phys.:Condens. Matter 21 395502 (2009);
         "P. Giannozzi et al., J. Phys.:Condens. Matter 29 465901 (2017);
         "P. Giannozzi et al., J. Chem. Phys. 152 154105 (2020);
          URL http://www.quantum-espresso.org", 
     in publications or presentations arising from this work. More details at
     http://www.quantum-espresso.org/quote

     Parallel version (MPI & OpenMP), running on       8 processor cores
     Number of MPI processes:                 8
     Threads/MPI process:                     1

     MPI processes distributed on     1 nodes
     483303 MiB available memory on the printing compute node when the environment starts

     Waiting for input...
     Reading input from standard input

     Current dimensions of program PWSCF are:
     Max number of different atomic species (ntypx) = 10
     Max number of k-points (npk) =  40000
     Max angular momentum in pseudopotentials (lmaxx) =  4

     R & G space division:  proc/nbgrp/npool/nimage =       8
     Subspace diagonalization in iterative solution of the eigenvalue problem:
     a serial algorithm will be used


     Parallelization info
     --------------------
     sticks:   dense  smooth     PW     G-vecs:    dense   smooth      PW
     Min          81      81     24                 6029     6029     976
     Max          82      82     25                 6044     6044     983
     Sum         649     649    199                48267    48267    7843

     Using Slab Decomposition



     bravais-lattice index     =            4
     lattice parameter (alat)  =       5.4355  a.u.
     unit-cell volume          =     498.6671 (a.u.)^3
     number of atoms/cell      =            6
     number of atomic types    =            2
     number of electrons       =        22.00
     number of Kohn-Sham states=           15
     kinetic-energy cutoff     =      80.0000  Ry
     charge density cutoff     =     320.0000  Ry
     scf convergence threshold =      1.0E-08
     mixing beta               =       0.7000
     number of iterations used =            8  plain     mixing
     energy convergence thresh.=      1.0E-04
     force convergence thresh. =      1.0E-03
     press convergence thresh. =      1.0E+00
     Exchange-correlation= PBE
                           (   1   4   3   4   0   0   0)
     nstep                     =           50


     celldm(1)=   5.435542  celldm(2)=   0.000000  celldm(3)=   3.585514
     celldm(4)=   0.000000  celldm(5)=   0.000000  celldm(6)=   0.000000

     crystal axes: (cart. coord. in units of alat)
               a(1) = (   1.000000   0.000000   0.000000 )  
               a(2) = (  -0.500000   0.866025   0.000000 )  
               a(3) = (   0.000000   0.000000   3.585514 )  

     reciprocal axes: (cart. coord. in units 2 pi/alat)
               b(1) = (  1.000000  0.577350 -0.000000 )  
               b(2) = (  0.000000  1.154701  0.000000 )  
               b(3) = (  0.000000 -0.000000  0.278900 )  


     PseudoPot. # 1 for Si read from file:
     ../pseudo/Si_ONCV_PBE_sr.upf
     MD5 check sum: e543d271109d17c80368dfa7c482276d
     Pseudo is Norm-conserving + core correction, Zval =  4.0
     Generated using ONCVPSP code by D. R. Hamann
     Using radial grid of 1510 points,  6 beta functions with: 
                l(1) =   0
                l(2) =   0
                l(3) =   1
                l(4) =   1
                l(5) =   2
                l(6) =   2

     PseudoPot. # 2 for Li read from file:
     ../pseudo/Li_ONCV_PBE_sr.upf
     MD5 check sum: 50ff420e78310ffa21704f3361e624a4
     Pseudo is Norm-conserving, Zval =  3.0
     Generated using ONCVPSP code by D. R. Hamann
     Using radial grid of 1944 points,  4 beta functions with: 
                l(1) =   0
                l(2) =   0
                l(3) =   1
                l(4) =   1

     atomic species   valence    mass     pseudopotential
        Si             4.00    28.08550     Si( 1.00)
        Li             3.00     6.94100     Li( 1.00)

     12 Sym. Ops., with inversion, found



   Cartesian axes

     site n.     atom                  positions (alat units)
         1           Si  tau(   1) = (   0.0000000   0.0000000   0.6393276  )
         2           Si  tau(   2) = (   0.0000000   0.0000000   2.9461865  )
         3           Si  tau(   3) = (  -0.0000000   0.5773503   1.4058568  )
         4           Si  tau(   4) = (   0.5000000   0.2886751   2.1796573  )
         5           Li  tau(   5) = (  -0.0000000   0.5773503   3.2936013  )
         6           Li  tau(   6) = (   0.5000000   0.2886751   0.2919128  )

     number of k points=    31  Marzari-Vanderbilt smearing, width (Ry)=  0.0200
                       cart. coord. in units 2pi/alat
        k(    1) = (   0.0000000   0.0000000   0.0000000), wk =   0.0082305
        k(    2) = (   0.0000000   0.0000000   0.0929667), wk =   0.0164609
        k(    3) = (   0.0000000   0.1283001   0.0000000), wk =   0.0493827
        k(    4) = (   0.0000000   0.1283001   0.0929667), wk =   0.0493827
        k(    5) = (   0.0000000   0.2566001   0.0000000), wk =   0.0493827
        k(    6) = (   0.0000000   0.2566001   0.0929667), wk =   0.0493827
        k(    7) = (   0.0000000   0.3849002   0.0000000), wk =   0.0493827
        k(    8) = (   0.0000000   0.3849002   0.0929667), wk =   0.0493827
        k(    9) = (   0.0000000   0.5132002   0.0000000), wk =   0.0493827
        k(   10) = (   0.0000000   0.5132002   0.0929667), wk =   0.0493827
        k(   11) = (   0.1111111   0.1924501   0.0000000), wk =   0.0493827
        k(   12) = (   0.1111111   0.1924501   0.0929667), wk =   0.0987654
        k(   13) = (   0.1111111   0.3207501   0.0000000), wk =   0.0987654
        k(   14) = (   0.1111111   0.3207501   0.0929667), wk =   0.0987654
        k(   15) = (   0.1111111   0.4490502   0.0000000), wk =   0.0987654
        k(   16) = (   0.1111111   0.4490502   0.0929667), wk =   0.0987654
        k(   17) = (   0.1111111   0.5773503   0.0000000), wk =   0.0493827
        k(   18) = (   0.1111111   0.5773503   0.0929667), wk =   0.0987654
        k(   19) = (   0.2222222   0.3849002   0.0000000), wk =   0.0493827
        k(   20) = (   0.2222222   0.3849002   0.0929667), wk =   0.0987654
        k(   21) = (   0.2222222   0.5132002   0.0000000), wk =   0.0987654
        k(   22) = (   0.2222222   0.5132002   0.0929667), wk =   0.0987654
        k(   23) = (   0.3333333   0.5773503   0.0000000), wk =   0.0164609
        k(   24) = (   0.3333333   0.5773503   0.0929667), wk =   0.0329218
        k(   25) = (   0.0000000   0.1283001  -0.0929667), wk =   0.0493827
        k(   26) = (   0.0000000   0.2566001  -0.0929667), wk =   0.0493827
        k(   27) = (   0.0000000   0.3849002  -0.0929667), wk =   0.0493827
        k(   28) = (   0.0000000   0.5132002  -0.0929667), wk =   0.0493827
        k(   29) = (  -0.1111111   0.3207501  -0.0929667), wk =   0.0987654
        k(   30) = (  -0.1111111   0.4490502  -0.0929667), wk =   0.0987654
        k(   31) = (  -0.2222222   0.5132002  -0.0929667), wk =   0.0987654

     Dense  grid:    48267 G-vectors     FFT dimensions: (  32,  32, 120)

     Estimated max dynamical RAM per process >      22.51 MB

     Estimated total dynamical RAM >     180.11 MB

     Initial potential from superposition of free atoms

     starting charge      21.9884, renormalised to      22.0000
     Starting wfcs are   20 randomized atomic wfcs

     total cpu time spent up to now is        1.4 secs

     Self-consistent Calculation

     iteration #  1     ecut=    80.00 Ry     beta= 0.70
     Davidson diagonalization with overlap
     ethr =  1.00E-02,  avg # of iterations =  3.9

     total cpu time spent up to now is        2.5 secs

     total energy              =     -59.23312568 Ry
     estimated scf accuracy    <       3.63715872 Ry

     iteration #  2     ecut=    80.00 Ry     beta= 0.70
     Davidson diagonalization with overlap
     ethr =  1.00E-02,  avg # of iterations =  7.5

     total cpu time spent up to now is        3.7 secs

     total energy              =     -55.94400111 Ry
     estimated scf accuracy    <     105.96178246 Ry

     iteration #  3     ecut=    80.00 Ry     beta= 0.70
     Davidson diagonalization with overlap
     ethr =  1.00E-02,  avg # of iterations =  5.7

     total cpu time spent up to now is        4.7 secs

     total energy              =     -61.89801848 Ry
     estimated scf accuracy    <       2.56941037 Ry

     iteration #  4     ecut=    80.00 Ry     beta= 0.70
     Davidson diagonalization with overlap
     ethr =  1.00E-02,  avg # of iterations =  1.8

     total cpu time spent up to now is        5.2 secs

     total energy              =     -62.07232463 Ry
     estimated scf accuracy    <       0.19182987 Ry

     iteration #  5     ecut=    80.00 Ry     beta= 0.70
     Davidson diagonalization with overlap
     ethr =  8.72E-04,  avg # of iterations =  4.8

     total cpu time spent up to now is        6.1 secs

     total energy              =     -62.12814326 Ry
     estimated scf accuracy    <       0.07555665 Ry

     iteration #  6     ecut=    80.00 Ry     beta= 0.70
     Davidson diagonalization with overlap
     ethr =  3.43E-04,  avg # of iterations =  1.4

     total cpu time spent up to now is        6.6 secs

     total energy              =     -62.12526886 Ry
     estimated scf accuracy    <       0.02597812 Ry

     iteration #  7     ecut=    80.00 Ry     beta= 0.70
     Davidson diagonalization with overlap
     ethr =  1.18E-04,  avg # of iterations =  2.6

     total cpu time spent up to now is        7.1 secs

     total energy              =     -62.12842095 Ry
     estimated scf accuracy    <       0.00021853 Ry

     iteration #  8     ecut=    80.00 Ry     beta= 0.70
     Davidson diagonalization with overlap
     c_bands:  2 eigenvalues not converged
     c_bands:  1 eigenvalues not converged
     ethr =  9.93E-07,  avg # of iterations =  8.4

     total cpu time spent up to now is        8.0 secs

     total energy              =     -62.12854473 Ry
     estimated scf accuracy    <       0.00009218 Ry

     iteration #  9     ecut=    80.00 Ry     beta= 0.70
     Davidson diagonalization with overlap
     ethr =  4.19E-07,  avg # of iterations =  2.3

     total cpu time spent up to now is        8.6 secs

     total energy              =     -62.12855912 Ry
     estimated scf accuracy    <       0.00000961 Ry

     iteration # 10     ecut=    80.00 Ry     beta= 0.70
     Davidson diagonalization with overlap
     ethr =  4.37E-08,  avg # of iterations =  1.4

     total cpu time spent up to now is        9.1 secs

     total energy              =     -62.12855927 Ry
     estimated scf accuracy    <       0.00000241 Ry

     iteration # 11     ecut=    80.00 Ry     beta= 0.70
     Davidson diagonalization with overlap
     ethr =  1.09E-08,  avg # of iterations =  1.9

     total cpu time spent up to now is        9.6 secs

     total energy              =     -62.12855945 Ry
     estimated scf accuracy    <       0.00000014 Ry

     iteration # 12     ecut=    80.00 Ry     beta= 0.70
     Davidson diagonalization with overlap
     ethr =  6.26E-10,  avg # of iterations =  3.6

     total cpu time spent up to now is       10.1 secs

     End of self-consistent calculation

          k = 0.0000 0.0000 0.0000 (  6085 PWs)   bands (ev):

   -37.1515 -37.0192  -3.8483  -2.8560  -1.2068   1.4376   3.6594   8.2550
     8.6597  15.7209  15.7209  16.0660  16.0664  16.1706  16.4608

          k = 0.0000 0.0000 0.0930 (  6062 PWs)   bands (ev):

   -37.1514 -37.0192  -3.8384  -2.8989  -1.0828   1.1009   4.4756   6.3467
    10.8565  13.6323  15.7439  15.7439  16.0332  16.0334  16.5069

          k = 0.0000 0.1283 0.0000 (  6031 PWs)   bands (ev):

   -37.1435 -37.0185  -3.5670  -2.5840  -0.9606   1.6852   3.8473   8.4780
     8.8307  13.1523  13.7462  14.2882  14.6622  14.9159  15.8272

          k = 0.0000 0.1283 0.0930 (  6058 PWs)   bands (ev):

   -37.1435 -37.0185  -3.5561  -2.6310  -0.8281   1.3309   4.6775   6.5539
    11.0221  13.0496  13.5974  13.9478  14.3868  14.6904  14.9491

          k = 0.0000 0.2566 0.0000 (  6011 PWs)   bands (ev):

   -37.1224 -37.0177  -2.7274  -1.7727  -0.2309   2.4194   4.4002   8.8641
     9.1638   9.8168  10.5303  11.4867  12.8140  13.5092  13.7648

          k = 0.0000 0.2566 0.0930 (  6018 PWs)   bands (ev):

   -37.1224 -37.0177  -2.7130  -1.8323  -0.0736   2.0151   5.2565   7.1440
     9.5295  10.1170  11.4432  11.9017  12.9103  13.2693  13.5449

          k = 0.0000 0.3849 0.0000 (  6016 PWs)   bands (ev):

   -37.0953 -37.0198  -1.3461  -0.4415   0.9410   3.5916   5.1818   6.1907
     6.9122   8.3103   9.9439  10.5720  11.4607  11.8000  12.5220

          k = 0.0000 0.3849 0.0930 (  6020 PWs)   bands (ev):

   -37.0953 -37.0198  -1.3246  -0.5256   1.1381   3.1131   5.9275   6.1980
     6.9562   7.9886   8.9550  10.7469  11.8935  12.2797  12.3868

          k = 0.0000 0.5132 0.0000 (  6032 PWs)   bands (ev):

   -37.0732 -37.0255   0.5093   1.2816   2.2364   3.5372   4.0003   4.7687
     5.6793   7.0501   8.3234  10.0961  11.2879  12.0216  12.2741

          k = 0.0000 0.5132 0.0930 (  6024 PWs)   bands (ev):

   -37.0732 -37.0255   0.5400   1.1766   2.3838   3.5183   3.9401   4.8517
     5.4535   7.0298   8.9270  10.0381  11.1398  11.3796  11.7794

          k = 0.1111 0.1925 0.0000 (  6013 PWs)   bands (ev):

   -37.1290 -37.0177  -3.0065  -2.0422  -0.4722   2.1768   4.2204   8.8736
     9.1428  11.3784  11.4753  11.9771  12.7448  13.0982  13.2774

          k = 0.1111 0.1925 0.0930 (  6015 PWs)   bands (ev):

   -37.1290 -37.0177  -2.9929  -2.0986  -0.3203   1.7840   5.0832   6.9483
    11.0688  11.4110  11.5980  11.8187  12.5609  13.3413  13.6064

          k = 0.1111 0.3208 0.0000 (  6014 PWs)   bands (ev):

   -37.1047 -37.0185  -1.8948  -0.9684   0.4847   3.1415   4.9336   7.9081
     8.4994   9.4475   9.7437  10.1462  10.7912  11.4714  11.7668

          k = 0.1111 0.3208 0.0930 (  6014 PWs)   bands (ev):

   -37.1047 -37.0185  -1.8755  -1.0447   0.6723   2.6807   5.8120   7.5936
     7.9888   8.7842   9.8146  10.6172  10.8117  11.8978  12.1775

          k = 0.1111 0.4491 0.0000 (  6030 PWs)   bands (ev):

   -37.0791 -37.0234  -0.2622   0.5982   1.8195   4.4286   4.8747   5.4756
     5.8826   7.5070   9.2029   9.5265  10.0774  10.7975  11.0776

          k = 0.1111 0.4491 0.0930 (  6027 PWs)   bands (ev):

   -37.0791 -37.0234  -0.2322   0.4866   2.0512   3.9019   4.8968   5.5682
     6.4496   7.4966   8.8824   9.5687   9.9917  10.2315  11.2836

          k = 0.1111 0.5774 0.0000 (  6022 PWs)   bands (ev):

   -37.0659 -37.0285   1.5379   1.7874   2.5210   3.3219   3.6051   4.6541
     6.2181   7.0082   8.0452   9.2689   9.5758  10.0894  11.1339

          k = 0.1111 0.5774 0.0930 (  6027 PWs)   bands (ev):

   -37.0659 -37.0285   1.5828   1.7957   2.3156   3.3411   3.9993   4.6325
     5.5865   6.9865   8.8539   9.3193   9.6994  10.1627  11.1006

          k = 0.2222 0.3849 0.0000 (  6034 PWs)   bands (ev):

   -37.0814 -37.0227  -0.5262   0.3534   1.6367   4.3102   5.7053   6.7780
     6.8026   7.4850   8.0162   8.9827   9.0997  10.3706  11.4394

          k = 0.2222 0.3849 0.0930 (  6026 PWs)   bands (ev):

   -37.0814 -37.0227  -0.4936   0.2340   1.8967   3.7213   6.5693   6.7750
     6.8513   7.3979   8.0160   8.6163   9.2597   9.5687  11.1500

          k = 0.2222 0.5132 0.0000 (  6029 PWs)   bands (ev):

   -37.0605 -37.0311   1.3095   2.0916   2.9329   4.2649   4.5921   5.4940
     6.0821   6.7420   7.1693   7.7719   8.0474   9.4208  10.2474

          k = 0.2222 0.5132 0.0930 (  6024 PWs)   bands (ev):

   -37.0605 -37.0311   1.3616   1.9184   3.1693   4.2877   4.4864   5.5215
     5.7566   6.7703   7.3405   7.8269   8.2173   9.4729  10.3787

          k = 0.3333 0.5774 0.0000 (  6042 PWs)   bands (ev):

   -37.0436 -37.0436   2.8387   3.4072   3.4072   3.6707   4.8298   4.8298
     5.1799   6.2547   6.2547   7.5280   8.3253   8.3253   9.4681

          k = 0.3333 0.5774 0.0930 (  6057 PWs)   bands (ev):

   -37.0436 -37.0436   2.9052   3.4037   3.4037   3.4857   4.8483   4.8483
     5.6372   6.2293   6.2293   6.7888   8.3189   8.3189  10.3955

          k = 0.0000 0.1283-0.0930 (  6058 PWs)   bands (ev):

   -37.1435 -37.0185  -3.5559  -2.6314  -0.8272   1.3292   4.6817   6.5493
    11.0184  13.1810  13.4053  14.0161  14.3604  14.7433  14.9818

          k = 0.0000 0.2566-0.0930 (  6018 PWs)   bands (ev):

   -37.1224 -37.0177  -2.7118  -1.8363  -0.0643   1.9991   5.2962   7.0933
     9.6367   9.9758  11.4123  12.1361  12.8996  13.2914  13.3450

          k = 0.0000 0.3849-0.0930 (  6020 PWs)   bands (ev):

   -37.0953 -37.0198  -1.3184  -0.5450   1.1826   3.0377   6.0362   6.3427
     6.7334   8.0210   8.9485  10.5397  11.8888  12.2892  12.9129

          k = 0.0000 0.5132-0.0930 (  6024 PWs)   bands (ev):

   -37.0732 -37.0255   0.5808   1.0666   2.5977   3.5793   3.6681   4.6203
     5.8174   7.2655   8.3567  10.0582  11.3782  11.6634  11.7822

          k =-0.1111 0.3208-0.0930 (  6014 PWs)   bands (ev):

   -37.1047 -37.0185  -1.8736  -1.0509   0.6864   2.6567   5.8764   7.4386
     8.1776   8.6235   9.9560  10.5179  10.9302  11.6108  12.3571

          k =-0.1111 0.4491-0.0930 (  6027 PWs)   bands (ev):

   -37.0791 -37.0234  -0.2195   0.4494   2.1370   3.7591   4.8988   5.5959
     6.5506   7.8350   8.3175   9.6093   9.8758  10.3086  11.3496

          k =-0.2222 0.5132-0.0930 (  6024 PWs)   bands (ev):

   -37.0605 -37.0311   1.3907   1.8423   3.3645   4.1633   4.3482   5.3962
     6.0912   6.8200   7.2228   7.8194   8.2891   9.1831  10.5460

     the Fermi energy is     9.5280 ev

!    total energy              =     -62.12855947 Ry
     estimated scf accuracy    <          7.8E-09 Ry
     smearing contrib. (-TS)   =      -0.00100054 Ry
     internal energy E=F+TS    =     -62.12755893 Ry

     The total energy is F=E-TS. E is the sum of the following terms:
     one-electron contribution =      -2.49019720 Ry
     hartree contribution      =       9.73981536 Ry
     xc contribution           =     -19.58741808 Ry
     ewald contribution        =     -49.78975901 Ry

     convergence has been achieved in  12 iterations

     Forces acting on atoms (cartesian axes, Ry/au):

     atom    1 type  1   force =    -0.00000000   -0.00000000    0.24264551
     atom    2 type  1   force =    -0.00000000   -0.00000000   -0.24264551
     atom    3 type  1   force =    -0.00000000   -0.00000000    0.01857236
     atom    4 type  1   force =     0.00000000    0.00000000   -0.01857236
     atom    5 type  2   force =     0.00000000    0.00000000    0.21414496
     atom    6 type  2   force =     0.00000000    0.00000000   -0.21414496
     The non-local contrib.  to forces
     atom    1 type  1   force =     0.00000000    0.00000000    0.29465754
     atom    2 type  1   force =     0.00000000   -0.00000000   -0.29465754
     atom    3 type  1   force =     0.00000000    0.00000000    0.02790968
     atom    4 type  1   force =     0.00000000   -0.00000000   -0.02790968
     atom    5 type  2   force =     0.00000000   -0.00000000    0.07259327
     atom    6 type  2   force =     0.00000000   -0.00000000   -0.07259327
     The ionic contribution  to forces
     atom    1 type  1   force =     0.00000002   -0.00000001    3.19234456
     atom    2 type  1   force =    -0.00000002    0.00000001   -3.19234456
     atom    3 type  1   force =     0.00000000   -0.00000000    1.45980664
     atom    4 type  1   force =    -0.00000000    0.00000000   -1.45980664
     atom    5 type  2   force =     0.00000002   -0.00000001   -0.06211223
     atom    6 type  2   force =    -0.00000002    0.00000001    0.06211223
     The local contribution  to forces
     atom    1 type  1   force =    -0.00000000    0.00000000   -3.22610126
     atom    2 type  1   force =     0.00000000   -0.00000000    3.22610126
     atom    3 type  1   force =     0.00000000   -0.00000000   -1.46747572
     atom    4 type  1   force =    -0.00000000    0.00000000    1.46747572
     atom    5 type  2   force =     0.00000053   -0.00000030    0.20359958
     atom    6 type  2   force =    -0.00000053    0.00000030   -0.20359958
     The core correction contribution to forces
     atom    1 type  1   force =     0.00000000   -0.00000000   -0.01812480
     atom    2 type  1   force =    -0.00000000    0.00000000    0.01812480
     atom    3 type  1   force =    -0.00000000    0.00000000   -0.00159789
     atom    4 type  1   force =     0.00000000   -0.00000000    0.00159789
     atom    5 type  2   force =     0.00000000    0.00000000    0.00000000
     atom    6 type  2   force =     0.00000000    0.00000000    0.00000000
     The Hubbard contrib.    to forces
     atom    1 type  1   force =     0.00000000    0.00000000    0.00000000
     atom    2 type  1   force =     0.00000000    0.00000000    0.00000000
     atom    3 type  1   force =     0.00000000    0.00000000    0.00000000
     atom    4 type  1   force =     0.00000000    0.00000000    0.00000000
     atom    5 type  2   force =     0.00000000    0.00000000    0.00000000
     atom    6 type  2   force =     0.00000000    0.00000000    0.00000000
     The SCF correction term to forces
     atom    1 type  1   force =    -0.00000000    0.00000000   -0.00013052
     atom    2 type  1   force =     0.00000000   -0.00000000    0.00013052
     atom    3 type  1   force =    -0.00000000    0.00000000   -0.00007034
     atom    4 type  1   force =     0.00000000   -0.00000000    0.00007034
     atom    5 type  2   force =    -0.00000000    0.00000000    0.00006435
     atom    6 type  2   force =     0.00000000   -0.00000000   -0.00006435

     Total force =     0.458432     Total SCF correction =     0.000229


     Computing stress (Cartesian axis) and pressure

          total   stress  (Ry/bohr**3)                   (kbar)     P=      266.67
   0.00174145   0.00000000   0.00000000          256.18        0.00        0.00
   0.00000000   0.00174145   0.00000000            0.00      256.18        0.00
   0.00000000   0.00000000   0.00195551            0.00        0.00      287.67


     BFGS Geometry Optimization
     Energy error            =      0.0E+00 Ry
     Gradient error          =      2.4E-01 Ry/Bohr
     Cell gradient error     =      2.4E+02 kbar

     number of scf cycles    =   1
     number of bfgs steps    =   0

     enthalpy           new  =     -60.4336243563 Ry

     new trust radius        =       0.2426455138 bohr
ibrav =      4
 celldm(1) =      5.21030990
 celldm(3) =      3.60553146
Input lattice vectors:
     0.95856301     0.00000000     0.00000000
    -0.47928150     0.83013992     0.00000000
     0.00000000     0.00000000     3.45612908
New lattice vectors in INITIAL alat:
     0.95856301     0.00000000     0.00000000
    -0.47928150     0.83013992     0.00000000
     0.00000000     0.00000000     3.45612908
New lattice vectors in NEW alat (for information only):
     1.00000000     0.00000000     0.00000000
    -0.50000000     0.86602540     0.00000000
     0.00000000     0.00000000     3.60553146
Discrepancy in bohr =     0.000000    0.000000    0.000000
     new conv_thr            =       0.0000000100 Ry

     new unit-cell volume =    441.66256 a.u.^3 (    65.44764 Ang^3 )
     density =      3.20256 g/cm^3

CELL_PARAMETERS (alat=  5.43554243)
   0.958563008   0.000000000   0.000000000
  -0.479281504   0.830139916   0.000000000
   0.000000000   0.000000000   3.456129082

ATOMIC_POSITIONS (crystal)
Si           -0.0000000000       -0.0000000000        0.1907587462
Si           -0.0000000000       -0.0000000000        0.8092412538
Si            0.3333333300        0.6666666700        0.3930464560
Si            0.6666666700        0.3333333300        0.6069535440
Li            0.3333333300        0.6666666700        0.9295733705
Li            0.6666666700        0.3333333300        0.0704266295



     Writing config-only to output data dir ./output/SiLi.save/
     NEW-OLD atomic charge density approx. for the potential
     extrapolated charge   19.16199, renormalised to   22.00000

     total cpu time spent up to now is       12.7 secs

     Self-consistent Calculation

     iteration #  1     ecut=    80.00 Ry     beta= 0.70
     Davidson diagonalization with overlap
     c_bands:  2 eigenvalues not converged
     c_bands:  1 eigenvalues not converged
     c_bands:  1 eigenvalues not converged
     c_bands:  2 eigenvalues not converged
     c_bands:  1 eigenvalues not converged
     c_bands:  1 eigenvalues not converged
     c_bands:  2 eigenvalues not converged
     c_bands:  1 eigenvalues not converged
     c_bands:  1 eigenvalues not converged
     ethr =  1.00E-06,  avg # of iterations = 16.9

     total cpu time spent up to now is       14.9 secs

     total energy              =     -54.69523123 Ry
     estimated scf accuracy    <       7.90045916 Ry

     iteration #  2     ecut=    80.00 Ry     beta= 0.70
     Davidson diagonalization with overlap
     ethr =  1.00E-02,  avg # of iterations = 10.3

     total cpu time spent up to now is       16.4 secs

     total energy              =     -43.00659029 Ry
     estimated scf accuracy    <     267.36801282 Ry

     iteration #  3     ecut=    80.00 Ry     beta= 0.70
     Davidson diagonalization with overlap
     ethr =  1.00E-02,  avg # of iterations =  4.8

     total cpu time spent up to now is       17.3 secs

     total energy              =     -62.14204590 Ry
     estimated scf accuracy    <      18.77266045 Ry

     iteration #  4     ecut=    80.00 Ry     beta= 0.70
     Davidson diagonalization with overlap
     ethr =  1.00E-02,  avg # of iterations =  2.8

     total cpu time spent up to now is       17.8 secs

     total energy              =     -62.21606225 Ry
     estimated scf accuracy    <       5.56182269 Ry

     iteration #  5     ecut=    80.00 Ry     beta= 0.70
     Davidson diagonalization with overlap
     ethr =  1.00E-02,  avg # of iterations =  1.5

     total cpu time spent up to now is       18.3 secs

     total energy              =     -62.06320525 Ry
     estimated scf accuracy    <       2.23237890 Ry

     iteration #  6     ecut=    80.00 Ry     beta= 0.70
     Davidson diagonalization with overlap
     ethr =  1.00E-02,  avg # of iterations =  1.6

     total cpu time spent up to now is       18.8 secs

     total energy              =     -62.14583173 Ry
     estimated scf accuracy    <       0.20297521 Ry

     iteration #  7     ecut=    80.00 Ry     beta= 0.70
     Davidson diagonalization with overlap
     ethr =  9.23E-04,  avg # of iterations =  4.9

     total cpu time spent up to now is       19.5 secs

     total energy              =     -62.19741065 Ry
     estimated scf accuracy    <       0.05804843 Ry

     iteration #  8     ecut=    80.00 Ry     beta= 0.70
     Davidson diagonalization with overlap
     ethr =  2.64E-04,  avg # of iterations =  2.8

     total cpu time spent up to now is       20.0 secs

     total energy              =     -62.19367407 Ry
     estimated scf accuracy    <       0.05277668 Ry

     iteration #  9     ecut=    80.00 Ry     beta= 0.70
     Davidson diagonalization with overlap
     ethr =  2.40E-04,  avg # of iterations =  1.2

     total cpu time spent up to now is       20.5 secs

     total energy              =     -62.19229750 Ry
     estimated scf accuracy    <       0.01633640 Ry

     iteration # 10     ecut=    80.00 Ry     beta= 0.70
     Davidson diagonalization with overlap
     ethr =  7.43E-05,  avg # of iterations =  2.2

     total cpu time spent up to now is       21.0 secs

     total energy              =     -62.19333214 Ry
     estimated scf accuracy    <       0.00041702 Ry

     iteration # 11     ecut=    80.00 Ry     beta= 0.70
     Davidson diagonalization with overlap
     ethr =  1.90E-06,  avg # of iterations =  7.1

     total cpu time spent up to now is       21.8 secs

     total energy              =     -62.19343647 Ry
     estimated scf accuracy    <       0.00002642 Ry

     iteration # 12     ecut=    80.00 Ry     beta= 0.70
     Davidson diagonalization with overlap
     ethr =  1.20E-07,  avg # of iterations =  2.2

     total cpu time spent up to now is       22.4 secs

     total energy              =     -62.19343351 Ry
     estimated scf accuracy    <       0.00007814 Ry

     iteration # 13     ecut=    80.00 Ry     beta= 0.70
     Davidson diagonalization with overlap
     ethr =  1.20E-07,  avg # of iterations =  1.3

     total cpu time spent up to now is       22.8 secs

     total energy              =     -62.19343239 Ry
     estimated scf accuracy    <       0.00002699 Ry

     iteration # 14     ecut=    80.00 Ry     beta= 0.70
     Davidson diagonalization with overlap
     ethr =  1.20E-07,  avg # of iterations =  1.2

     total cpu time spent up to now is       23.3 secs

     total energy              =     -62.19343305 Ry
     estimated scf accuracy    <       0.00000569 Ry

     iteration # 15     ecut=    80.00 Ry     beta= 0.70
     Davidson diagonalization with overlap
     ethr =  2.58E-08,  avg # of iterations =  1.7

     total cpu time spent up to now is       23.8 secs

     total energy              =     -62.19343285 Ry
     estimated scf accuracy    <       0.00000274 Ry

     iteration # 16     ecut=    80.00 Ry     beta= 0.70
     Davidson diagonalization with overlap
     ethr =  1.24E-08,  avg # of iterations =  2.3

     total cpu time spent up to now is       24.3 secs

     End of self-consistent calculation

          k = 0.0000 0.0000 0.0000 (  6085 PWs)   bands (ev):

   -35.5877 -35.2592  -3.5724  -2.5595  -0.3302   2.5445   4.9440   9.9993
    10.1095  18.0534  18.5515  18.5516  18.7380  18.7380  19.1107

          k = 0.0000 0.0000 0.0964 (  6062 PWs)   bands (ev):

   -35.5877 -35.2592  -3.5707  -2.5692  -0.2774   2.3139   5.5775   8.0479
    12.4696  15.6319  18.6047  18.6047  18.7511  18.7515  19.0597

          k = 0.0000 0.1338 0.0000 (  6031 PWs)   bands (ev):

   -35.5726 -35.2619  -3.2627  -2.2566  -0.0477   2.8197   5.1407  10.1841
    10.3176  15.2073  15.9226  16.6563  17.2520  17.3980  18.1477

          k = 0.0000 0.1338 0.0964 (  6058 PWs)   bands (ev):

   -35.5726 -35.2619  -3.2605  -2.2682   0.0110   2.5697   5.8004   8.2386
    12.6548  14.9434  15.8014  16.1598  16.7775  17.1115  17.6282

          k = 0.0000 0.2677 0.0000 (  6011 PWs)   bands (ev):

   -35.5316 -35.2712  -2.3375  -1.3515   0.7917   3.6376   5.7159  10.3406
    10.8346  11.3805  12.2731  13.7065  15.0228  15.8080  16.8950

          k = 0.0000 0.2677 0.0964 (  6018 PWs)   bands (ev):

   -35.5316 -35.2712  -2.3337  -1.3689   0.8684   3.3294   6.4402   8.7638
    11.0849  11.8422  13.3825  13.7228  15.1452  15.5059  15.9457

          k = 0.0000 0.4015 0.0000 (  6016 PWs)   bands (ev):

   -35.4774 -35.2895  -0.8089   0.1423   2.1541   4.9598   6.5334   7.3353
     8.1462  10.0165  11.7323  12.1656  13.6424  13.9187  14.7221

          k = 0.0000 0.4015 0.0964 (  6020 PWs)   bands (ev):

   -35.4774 -35.2895  -0.8020   0.1143   2.2617   4.5496   7.2131   7.3705
     8.1424   9.7144  10.6542  12.6812  14.0424  14.4108  14.5435

          k = 0.0000 0.5354 0.0000 (  6032 PWs)   bands (ev):

   -35.4311 -35.3122   1.2873   2.1587   3.6588   4.3474   5.1030   6.1883
     6.9511   8.4348  10.0089  11.6935  13.3642  14.1759  14.3201

          k = 0.0000 0.5354 0.0964 (  6024 PWs)   bands (ev):

   -35.4311 -35.3122   1.2983   2.1171   3.7751   4.2868   5.1047   6.1899
     6.8004   8.4526  10.4193  11.7668  13.0748  13.4884  13.8606

          k = 0.1159 0.2008 0.0000 (  6013 PWs)   bands (ev):

   -35.5445 -35.2679  -2.6452  -1.6525   0.5135   3.3668   5.5290  10.4824
    10.7086  13.3096  13.3204  13.9397  14.5633  15.4758  15.6447

          k = 0.1159 0.2008 0.0964 (  6015 PWs)   bands (ev):

   -35.5445 -35.2679  -2.6417  -1.6689   0.5869   3.0719   6.2484   8.5990
    12.6679  13.2416  13.5424  13.8211  14.5048  15.5383  16.0311

          k = 0.1159 0.3346 0.0000 (  6014 PWs)   bands (ev):

   -35.4965 -35.2821  -1.4178  -0.4519   1.6184   4.4452   6.2660   9.2483
    10.0103  11.0116  11.5587  12.1413  12.3332  13.2757  14.0631

          k = 0.1159 0.3346 0.0964 (  6014 PWs)   bands (ev):

   -35.4965 -35.2821  -1.4116  -0.4775   1.7191   4.0642   7.0594   9.0376
     9.4174  10.4864  11.6964  12.2459  12.6098  13.8664  14.2807

          k = 0.1159 0.4685 0.0000 (  6030 PWs)   bands (ev):

   -35.4438 -35.3050   0.4003   1.3218   3.1944   5.7831   6.0805   6.6693
     7.0792   9.0775  10.9811  11.1556  11.6765  12.4865  13.0392

          k = 0.1159 0.4685 0.0964 (  6027 PWs)   bands (ev):

   -35.4438 -35.3050   0.4111   1.2803   3.3359   5.4227   5.9086   6.6489
     7.9313   8.9345  10.5166  11.1844  11.6302  12.1702  13.2241

          k = 0.1159 0.6023 0.0000 (  6022 PWs)   bands (ev):

   -35.4152 -35.3218   2.6048   2.7763   3.5638   3.9875   5.1339   5.8473
     7.6685   8.4077   9.6510  10.7442  11.4746  11.4985  13.1645

          k = 0.1159 0.6023 0.0964 (  6027 PWs)   bands (ev):

   -35.4152 -35.3218   2.6635   2.7537   3.4078   4.0263   5.5360   5.8054
     6.8856   8.6066  10.3705  10.8086  11.3620  11.6791  13.0698

          k = 0.2318 0.4015 0.0000 (  6034 PWs)   bands (ev):

   -35.4485 -35.3025   0.1014   1.0344   2.9609   5.7673   7.0665   8.0539
     8.1952   8.8997   9.1676  10.6991  10.9794  12.3549  13.0447

          k = 0.2318 0.4015 0.0964 (  6026 PWs)   bands (ev):

   -35.4485 -35.3025   0.1145   0.9863   3.1238   5.2085   7.9224   8.0640
     8.2186   8.8227   9.2155  10.2441  11.0916  11.4834  12.9468

          k = 0.2318 0.5354 0.0000 (  6029 PWs)   bands (ev):

   -35.4032 -35.3297   2.1857   3.0528   4.4902   5.1877   5.8449   6.9555
     7.5410   7.8476   8.4619   9.0847   9.9534  11.0684  11.9696

          k = 0.2318 0.5354 0.0964 (  6024 PWs)   bands (ev):

   -35.4032 -35.3297   2.2078   2.9755   4.6619   5.1544   5.8606   6.7607
     7.4210   7.7855   8.5881   9.2937  10.1029  11.0798  12.0464

          k = 0.3477 0.6023 0.0000 (  6042 PWs)   bands (ev):

   -35.3634 -35.3634   4.2819   4.5201   4.5201   5.1252   5.7327   5.7327
     6.4392   7.6348   7.6348   9.1157   9.9366   9.9366  11.0042

          k = 0.3477 0.6023 0.0964 (  6057 PWs)   bands (ev):

   -35.3634 -35.3634   4.4191   4.5111   4.5111   4.7989   5.7693   5.7693
     7.0456   7.5622   7.5622   8.2181  10.0166  10.0166  11.9965

          k = 0.0000 0.1338-0.0964 (  6058 PWs)   bands (ev):

   -35.5726 -35.2619  -3.2604  -2.2685   0.0120   2.5675   5.8055   8.2338
    12.6259  15.4021  15.4215  16.0363  16.7556  17.1555  17.6687

          k = 0.0000 0.2677-0.0964 (  6018 PWs)   bands (ev):

   -35.5316 -35.2712  -2.3326  -1.3721   0.8774   3.3087   6.4869   8.7239
    11.0584  11.7668  13.3234  14.2769  15.1367  15.3744  15.5226

          k = 0.0000 0.4015-0.0964 (  6020 PWs)   bands (ev):

   -35.4774 -35.2895  -0.7975   0.1001   2.3029   4.4554   7.3306   7.5041
     8.0436   9.4780  10.8805  12.3787  14.0388  14.4180  14.8683

          k = 0.0000 0.5354-0.0964 (  6024 PWs)   bands (ev):

   -35.4311 -35.3122   1.3190   2.0528   3.8976   4.4057   4.9608   5.7843
     7.1263   8.8945   9.8748  11.5155  13.4873  13.6635  13.8627

          k =-0.1159 0.3346-0.0964 (  6014 PWs)   bands (ev):

   -35.4965 -35.2821  -1.4101  -0.4821   1.7324   4.0338   7.1309   8.9491
     9.5414  10.2413  11.8609  12.2801  12.6708  13.7441  14.3935

          k =-0.1159 0.4685-0.0964 (  6027 PWs)   bands (ev):

   -35.4438 -35.3050   0.4191   1.2560   3.4118   5.2359   5.9572   6.6752
     7.9827   9.2387  10.1963  11.1200  11.4141  12.2464  13.3409

          k =-0.2318 0.5354-0.0964 (  6024 PWs)   bands (ev):

   -35.4032 -35.3297   2.2204   2.9352   4.7856   5.2377   5.6210   6.6258
     7.5633   7.9472   8.4862   9.6470   9.8010  10.8153  12.2952

     the Fermi energy is    11.1643 ev

!    total energy              =     -62.19343315 Ry
     estimated scf accuracy    <          8.0E-09 Ry
     smearing contrib. (-TS)   =      -0.00092660 Ry
     internal energy E=F+TS    =     -62.19250655 Ry

     The total energy is F=E-TS. E is the sum of the following terms:
     one-electron contribution =       2.58202548 Ry
     hartree contribution      =       8.47932271 Ry
     xc contribution           =     -19.94579800 Ry
     ewald contribution        =     -53.30805674 Ry

     convergence has been achieved in  16 iterations

     Forces acting on atoms (cartesian axes, Ry/au):

     atom    1 type  1   force =    -0.00000000   -0.00000000    0.18369322
     atom    2 type  1   force =     0.00000000    0.00000000   -0.18369322
     atom    3 type  1   force =     0.00000000    0.00000000    0.04160210
     atom    4 type  1   force =     0.00000000    0.00000000   -0.04160210
     atom    5 type  2   force =    -0.00000000    0.00000000    0.15740683
     atom    6 type  2   force =     0.00000000    0.00000000   -0.15740683
     The non-local contrib.  to forces
     atom    1 type  1   force =     0.00000000    0.00000000    0.24731186
     atom    2 type  1   force =     0.00000000    0.00000000   -0.24731186
     atom    3 type  1   force =     0.00000000    0.00000000    0.05152255
     atom    4 type  1   force =     0.00000000   -0.00000000   -0.05152255
     atom    5 type  2   force =     0.00000000   -0.00000000    0.08163785
     atom    6 type  2   force =     0.00000000   -0.00000000   -0.08163785
     The ionic contribution  to forces
     atom    1 type  1   force =     0.00000001   -0.00000001    2.83880884
     atom    2 type  1   force =    -0.00000001    0.00000001   -2.83880884
     atom    3 type  1   force =     0.00000001   -0.00000000    1.47388970
     atom    4 type  1   force =    -0.00000001    0.00000000   -1.47388970
     atom    5 type  2   force =     0.00000002   -0.00000001   -0.20461459
     atom    6 type  2   force =    -0.00000002    0.00000001    0.20461459
     The local contribution  to forces
     atom    1 type  1   force =     0.00000000    0.00000000   -2.88798442
     atom    2 type  1   force =    -0.00000000   -0.00000000    2.88798442
     atom    3 type  1   force =    -0.00000000    0.00000000   -1.48021808
     atom    4 type  1   force =     0.00000000   -0.00000000    1.48021808
     atom    5 type  2   force =     0.00000050   -0.00000029    0.28031078
     atom    6 type  2   force =    -0.00000050    0.00000029   -0.28031078
     The core correction contribution to forces
     atom    1 type  1   force =     0.00000000   -0.00000000   -0.01434579
     atom    2 type  1   force =    -0.00000000    0.00000000    0.01434579
     atom    3 type  1   force =    -0.00000000    0.00000000   -0.00350325
     atom    4 type  1   force =     0.00000000   -0.00000000    0.00350325
     atom    5 type  2   force =     0.00000000    0.00000000    0.00000000
     atom    6 type  2   force =     0.00000000    0.00000000    0.00000000
     The Hubbard contrib.    to forces
     atom    1 type  1   force =     0.00000000    0.00000000    0.00000000
     atom    2 type  1   force =     0.00000000    0.00000000    0.00000000
     atom    3 type  1   force =     0.00000000    0.00000000    0.00000000
     atom    4 type  1   force =     0.00000000    0.00000000    0.00000000
     atom    5 type  2   force =     0.00000000    0.00000000    0.00000000
     atom    6 type  2   force =     0.00000000    0.00000000    0.00000000
     The SCF correction term to forces
     atom    1 type  1   force =     0.00000000   -0.00000000   -0.00009727
     atom    2 type  1   force =    -0.00000000    0.00000000    0.00009727
     atom    3 type  1   force =    -0.00000000    0.00000000   -0.00008881
     atom    4 type  1   force =     0.00000000   -0.00000000    0.00008881
     atom    5 type  2   force =     0.00000000   -0.00000000    0.00007279
     atom    6 type  2   force =    -0.00000000    0.00000000   -0.00007279

     Total force =     0.347134     Total SCF correction =     0.000213


     Computing stress (Cartesian axis) and pressure

          total   stress  (Ry/bohr**3)                   (kbar)     P=      366.57
   0.00212381   0.00000000   0.00000000          312.42        0.00        0.00
   0.00000000   0.00212381   0.00000000            0.00      312.42        0.00
   0.00000000   0.00000000   0.00322811            0.00        0.00      474.87

     Energy error            =      2.6E-01 Ry
     Gradient error          =      1.8E-01 Ry/Bohr
     Cell gradient error     =      1.9E+02 kbar

     number of scf cycles    =   2
     number of bfgs steps    =   1

     enthalpy           old  =     -60.4336243563 Ry
     enthalpy           new  =     -60.6922526162 Ry

     CASE: enthalpy          _new < enthalpy          _old

     new trust radius        =       0.3508342963 bohr
ibrav =      4
 celldm(1) =      4.88012877
 celldm(3) =      3.79449440
Input lattice vectors:
     0.89781817     0.00000000     0.00000000
    -0.44890909     0.77753335     0.00000000
     0.00000000     0.00000000     3.40676603
New lattice vectors in INITIAL alat:
     0.89781817     0.00000000     0.00000000
    -0.44890909     0.77753335     0.00000000
     0.00000000     0.00000000     3.40676603
New lattice vectors in NEW alat (for information only):
     1.00000000     0.00000000     0.00000000
    -0.50000000     0.86602540     0.00000000
     0.00000000     0.00000000     3.79449440
Discrepancy in bohr =     0.000000    0.000000    0.000000
     new conv_thr            =       0.0000000100 Ry

     new unit-cell volume =    381.92527 a.u.^3 (    56.59549 Ang^3 )
     density =      3.70347 g/cm^3

CELL_PARAMETERS (alat=  5.43554243)
   0.897818173   0.000000000   0.000000000
  -0.448909087   0.777533346   0.000000000
   0.000000000   0.000000000   3.406766029

ATOMIC_POSITIONS (crystal)
Si           -0.0000000000       -0.0000000000        0.2094341154
Si           -0.0000000000       -0.0000000000        0.7905658846
Si            0.3333333300        0.6666666700        0.3969293908
Si            0.6666666700        0.3333333300        0.6030706092
Li            0.3333333300        0.6666666700        0.9456355792
Li            0.6666666700        0.3333333300        0.0543644208



     Writing config-only to output data dir ./output/SiLi.save/
     NEW-OLD atomic charge density approx. for the potential

     negative rho (up, down):  7.485E-06 0.000E+00
     extrapolated charge   18.56077, renormalised to   22.00000

     total cpu time spent up to now is       26.9 secs

     Self-consistent Calculation

     iteration #  1     ecut=    80.00 Ry     beta= 0.70
     Davidson diagonalization with overlap
     c_bands:  1 eigenvalues not converged
     c_bands:  1 eigenvalues not converged
     c_bands:  1 eigenvalues not converged
     c_bands:  1 eigenvalues not converged
     c_bands:  1 eigenvalues not converged
     c_bands:  1 eigenvalues not converged
     c_bands:  1 eigenvalues not converged
     c_bands:  1 eigenvalues not converged
     ethr =  1.00E-06,  avg # of iterations = 18.0

     total cpu time spent up to now is       29.2 secs

     total energy              =     -55.05062833 Ry
     estimated scf accuracy    <       7.67971156 Ry

     iteration #  2     ecut=    80.00 Ry     beta= 0.70
     Davidson diagonalization with overlap
     ethr =  1.00E-02,  avg # of iterations = 10.5

     total cpu time spent up to now is       30.6 secs

     total energy              =     -42.22771469 Ry
     estimated scf accuracy    <     265.69648138 Ry

     iteration #  3     ecut=    80.00 Ry     beta= 0.70
     Davidson diagonalization with overlap
     ethr =  1.00E-02,  avg # of iterations =  5.0

     total cpu time spent up to now is       31.5 secs

     total energy              =     -62.12636320 Ry
     estimated scf accuracy    <      13.05067232 Ry

     iteration #  4     ecut=    80.00 Ry     beta= 0.70
     Davidson diagonalization with overlap
     ethr =  1.00E-02,  avg # of iterations =  2.5

     total cpu time spent up to now is       32.0 secs

     total energy              =     -62.13551338 Ry
     estimated scf accuracy    <       4.33035388 Ry

     iteration #  5     ecut=    80.00 Ry     beta= 0.70
     Davidson diagonalization with overlap
     ethr =  1.00E-02,  avg # of iterations =  1.5

     total cpu time spent up to now is       32.4 secs

     total energy              =     -62.02572313 Ry
     estimated scf accuracy    <       1.44172954 Ry

     iteration #  6     ecut=    80.00 Ry     beta= 0.70
     Davidson diagonalization with overlap
     ethr =  6.55E-03,  avg # of iterations =  2.2

     total cpu time spent up to now is       33.0 secs

     total energy              =     -62.15339473 Ry
     estimated scf accuracy    <       0.00752325 Ry

     iteration #  7     ecut=    80.00 Ry     beta= 0.70
     Davidson diagonalization with overlap
     c_bands:  1 eigenvalues not converged
     ethr =  3.42E-05,  avg # of iterations = 11.3

     total cpu time spent up to now is       34.1 secs

     total energy              =     -62.16038761 Ry
     estimated scf accuracy    <       0.12321974 Ry

     iteration #  8     ecut=    80.00 Ry     beta= 0.70
     Davidson diagonalization with overlap
     ethr =  3.42E-05,  avg # of iterations =  2.9

     total cpu time spent up to now is       34.7 secs

     total energy              =     -62.16171008 Ry
     estimated scf accuracy    <       0.01186625 Ry

     iteration #  9     ecut=    80.00 Ry     beta= 0.70
     Davidson diagonalization with overlap
     ethr =  3.42E-05,  avg # of iterations =  4.1

     total cpu time spent up to now is       35.3 secs

     total energy              =     -62.16399878 Ry
     estimated scf accuracy    <       0.01095263 Ry

     iteration # 10     ecut=    80.00 Ry     beta= 0.70
     Davidson diagonalization with overlap
     ethr =  3.42E-05,  avg # of iterations =  1.1

     total cpu time spent up to now is       35.8 secs

     total energy              =     -62.16396457 Ry
     estimated scf accuracy    <       0.00173583 Ry

     iteration # 11     ecut=    80.00 Ry     beta= 0.70
     Davidson diagonalization with overlap
     ethr =  7.89E-06,  avg # of iterations =  2.3

     total cpu time spent up to now is       36.3 secs

     total energy              =     -62.16422034 Ry
     estimated scf accuracy    <       0.00021585 Ry

     iteration # 12     ecut=    80.00 Ry     beta= 0.70
     Davidson diagonalization with overlap
     ethr =  9.81E-07,  avg # of iterations =  2.1

     total cpu time spent up to now is       36.8 secs

     total energy              =     -62.16423326 Ry
     estimated scf accuracy    <       0.00002528 Ry

     iteration # 13     ecut=    80.00 Ry     beta= 0.70
     Davidson diagonalization with overlap
     ethr =  1.15E-07,  avg # of iterations =  1.9

     total cpu time spent up to now is       37.3 secs

     total energy              =     -62.16423440 Ry
     estimated scf accuracy    <       0.00000610 Ry

     iteration # 14     ecut=    80.00 Ry     beta= 0.70
     Davidson diagonalization with overlap
     ethr =  2.77E-08,  avg # of iterations =  1.7

     total cpu time spent up to now is       37.8 secs

     total energy              =     -62.16423467 Ry
     estimated scf accuracy    <       0.00000088 Ry

     iteration # 15     ecut=    80.00 Ry     beta= 0.70
     Davidson diagonalization with overlap
     ethr =  4.02E-09,  avg # of iterations =  2.7

     total cpu time spent up to now is       38.3 secs

     total energy              =     -62.16423478 Ry
     estimated scf accuracy    <       0.00000003 Ry

     iteration # 16     ecut=    80.00 Ry     beta= 0.70
     Davidson diagonalization with overlap
     ethr =  1.38E-10,  avg # of iterations =  3.8

     total cpu time spent up to now is       38.9 secs

     End of self-consistent calculation

          k = 0.0000 0.0000 0.0000 (  6085 PWs)   bands (ev):

   -34.0983 -33.1326  -3.3932  -2.2646   0.5182   3.5462   6.3146  11.2908
    12.4695  19.5931  20.8938  22.3151  22.3153  22.4221  22.4224

          k = 0.0000 0.0000 0.0978 (  6062 PWs)   bands (ev):

   -34.0983 -33.1326  -3.3969  -2.2550   0.5054   3.5153   6.5168  10.2280
    14.2501  17.1634  22.3381  22.3381  22.4475  22.4475  23.1424

          k = 0.0000 0.1429 0.0000 (  6031 PWs)   bands (ev):

   -34.0626 -33.1487  -3.0377  -1.9141   0.8559   3.8698   6.5682  11.5507
    12.5612  18.0855  18.9517  19.9545  20.0088  20.8375  20.8951

          k = 0.0000 0.1429 0.0978 (  6058 PWs)   bands (ev):

   -34.0626 -33.1487  -3.0412  -1.9050   0.8454   3.8276   6.7968  10.4069
    14.4054  16.9607  18.6708  19.1350  20.0515  20.7675  21.4685

          k = 0.0000 0.2858 0.0000 (  6011 PWs)   bands (ev):

   -33.9641 -33.1972  -1.9753  -0.8670   1.8620   4.8317   7.3051  12.1427
    12.5252  13.7690  14.6978  16.7922  18.1670  19.0753  19.4585

          k = 0.0000 0.2858 0.0978 (  6018 PWs)   bands (ev):

   -33.9641 -33.1972  -1.9786  -0.8590   1.8581   4.7549   7.6103  10.8436
    13.3213  14.3341  15.0579  16.6490  18.2143  18.6968  18.9302

          k = 0.0000 0.4287 0.0000 (  6016 PWs)   bands (ev):

   -33.8291 -33.2751  -0.2192   0.8637   3.5108   6.3792   8.3911   8.9866
    10.0258  12.2332  13.8904  13.9334  16.1790  16.9368  17.4713

          k = 0.0000 0.4287 0.0978 (  6020 PWs)   bands (ev):

   -33.8291 -33.2751  -0.2220   0.8697   3.5181   6.2442   8.7397   9.0736
     9.8456  12.0644  12.8915  14.8731  16.7447  16.9874  17.6972

          k = 0.0000 0.5716 0.0000 (  6032 PWs)   bands (ev):

   -33.7089 -33.3579   2.2066   3.2451   5.2777   5.5912   6.5025   8.3067
     8.7147  10.2783  12.0417  13.5800  16.1953  16.3220  16.4765

          k = 0.0000 0.5716 0.0978 (  6024 PWs)   bands (ev):

   -33.7089 -33.3579   2.2042   3.2501   5.2897   5.5705   6.5301   8.1423
     8.8757  10.1993  12.1957  13.8521  15.2010  16.3747  16.6952

          k = 0.1238 0.2144 0.0000 (  6013 PWs)   bands (ev):

   -33.9953 -33.1811  -2.3287  -1.2153   1.5279   4.5131   7.0649  12.0357
    12.6801  16.0024  16.0310  16.8636  17.0047  18.8483  19.3866

          k = 0.1238 0.2144 0.0978 (  6015 PWs)   bands (ev):

   -33.9953 -33.1811  -2.3319  -1.2075   1.5239   4.4411   7.3587  10.7269
    14.4433  15.6849  16.3995  16.8028  16.9989  18.0762  19.4825

          k = 0.1238 0.3573 0.0000 (  6014 PWs)   bands (ev):

   -33.8774 -33.2455  -0.9194   0.1740   2.8571   5.7788   8.0014  11.1360
    12.1618  12.7830  13.8957  14.4439  14.7982  15.8848  17.5012

          k = 0.1238 0.3573 0.0978 (  6014 PWs)   bands (ev):

   -33.8774 -33.2455  -0.9221   0.1796   2.8642   5.6511   8.4069  10.8606
    11.5486  12.8827  13.9752  14.6951  15.2568  15.9951  17.7679

          k = 0.1238 0.5002 0.0000 (  6030 PWs)   bands (ev):

   -33.7424 -33.3332   1.1726   2.2343   4.7948   7.1385   7.7050   8.5321
     9.0144  11.1447  13.0133  13.3013  14.0432  14.8715  15.5829

          k = 0.1238 0.5002 0.0978 (  6027 PWs)   bands (ev):

   -33.7424 -33.3332   1.1707   2.2369   4.8153   7.1212   7.5799   8.2730
     9.7637  10.9439  12.6322  13.2166  13.8004  15.0467  15.9708

          k = 0.1238 0.6431 0.0000 (  6022 PWs)   bands (ev):

   -33.6663 -33.3906   3.8361   3.9841   4.8917   4.9612   7.3793   7.3890
     9.7650  10.1267  11.6320  12.8732  13.3493  14.1821  16.1338

          k = 0.1238 0.6431 0.0978 (  6027 PWs)   bands (ev):

   -33.6663 -33.3906   3.8573   3.9659   4.8279   5.0068   7.3058   7.7200
     8.8872  10.6261  12.2857  12.8533  13.1685  14.0588  15.8431

          k = 0.2475 0.4287 0.0000 (  6034 PWs)   bands (ev):

   -33.7550 -33.3241   0.8262   1.8945   4.4861   7.2982   9.0300   9.8157
    10.1075  10.9780  11.0084  13.0498  13.3924  14.9246  15.3411

          k = 0.2475 0.4287 0.0978 (  6026 PWs)   bands (ev):

   -33.7550 -33.3241   0.8257   1.8927   4.5253   7.0429   9.5094   9.9389
    10.1296  10.7465  11.0756  12.3648  13.7047  14.2850  15.6616

          k = 0.2475 0.5716 0.0000 (  6029 PWs)   bands (ev):

   -33.6336 -33.4168   3.2378   4.2625   6.2902   6.5542   7.4495   9.1196
     9.2115   9.6414  10.4505  11.0352  12.6995  13.2397  14.4213

          k = 0.2475 0.5716 0.0978 (  6024 PWs)   bands (ev):

   -33.6336 -33.4168   3.2388   4.2559   6.2956   6.5737   7.5074   8.7719
     9.3199   9.7020  10.4371  11.2282  12.9550  13.0725  14.4122

          k = 0.3713 0.6431 0.0000 (  6042 PWs)   bands (ev):

   -33.5202 -33.5202   5.8077   6.0019   6.0019   6.9043   6.9226   6.9226
     8.8532   9.4588   9.4588  11.7166  12.2949  12.2949  12.9356

          k = 0.3713 0.6431 0.0978 (  6057 PWs)   bands (ev):

   -33.5202 -33.5202   5.8478   5.9883   5.9883   6.7658   6.9589   6.9589
     9.3211   9.3795   9.3795  10.6865  12.4685  12.4685  14.1009

          k = 0.0000 0.1429-0.0978 (  6058 PWs)   bands (ev):

   -34.0626 -33.1487  -3.0412  -1.9052   0.8461   3.8251   6.8019  10.4013
    14.3693  17.2589  18.3898  18.9676  20.0522  20.7669  21.4663

          k = 0.0000 0.2858-0.0978 (  6018 PWs)   bands (ev):

   -33.9641 -33.1972  -1.9780  -0.8609   1.8650   4.7326   7.6553  10.8346
    13.0409  14.3527  15.5357  17.1328  17.6075  18.2150  18.9291

          k = 0.0000 0.4287-0.0978 (  6020 PWs)   bands (ev):

   -33.8291 -33.2751  -0.2197   0.8620   3.5470   6.1480   8.8085   9.2148
     9.9367  11.4336  13.2590  14.9447  16.7961  16.9878  17.6964

          k = 0.0000 0.5716-0.0978 (  6024 PWs)   bands (ev):

   -33.7089 -33.3579   2.2116   3.2239   5.2739   5.7146   6.4810   7.8426
     8.9092  10.9852  11.7546  13.1022  15.8055  16.3745  17.0795

          k =-0.1238 0.3573-0.0978 (  6014 PWs)   bands (ev):

   -33.8774 -33.2455  -0.9213   0.1769   2.8739   5.6194   8.4670  11.0616
    11.3184  12.5561  14.2351  14.7979  15.3463  16.5827  16.9791

          k =-0.1238 0.5002-0.0978 (  6027 PWs)   bands (ev):

   -33.7424 -33.3332   1.1742   2.2253   4.8650   6.9693   7.6061   8.2980
     9.9391  10.9803  12.4024  13.3633  13.5291  14.9815  16.3274

          k =-0.2475 0.5716-0.0978 (  6024 PWs)   bands (ev):

   -33.6336 -33.4168   3.2427   4.2417   6.2868   6.6796   7.4145   8.6832
     9.3096   9.8534  10.2323  11.8975  12.2809  13.0913  14.4837

     the Fermi energy is    13.2721 ev

!    total energy              =     -62.16423479 Ry
     estimated scf accuracy    <          6.9E-10 Ry
     smearing contrib. (-TS)   =       0.00004696 Ry
     internal energy E=F+TS    =     -62.16428175 Ry

     The total energy is F=E-TS. E is the sum of the following terms:
     one-electron contribution =       8.89899091 Ry
     hartree contribution      =       6.93391931 Ry
     xc contribution           =     -20.45411742 Ry
     ewald contribution        =     -57.54307454 Ry

     convergence has been achieved in  16 iterations

     Forces acting on atoms (cartesian axes, Ry/au):

     atom    1 type  1   force =     0.00000000   -0.00000000    0.01711009
     atom    2 type  1   force =    -0.00000000   -0.00000000   -0.01711009
     atom    3 type  1   force =     0.00000000    0.00000000    0.07499066
     atom    4 type  1   force =     0.00000000    0.00000000   -0.07499066
     atom    5 type  2   force =     0.00000000    0.00000000    0.01731751
     atom    6 type  2   force =     0.00000000    0.00000000   -0.01731751
     The non-local contrib.  to forces
     atom    1 type  1   force =     0.00000000    0.00000000    0.10302153
     atom    2 type  1   force =     0.00000000    0.00000000   -0.10302153
     atom    3 type  1   force =     0.00000000   -0.00000000    0.09816810
     atom    4 type  1   force =     0.00000000    0.00000000   -0.09816810
     atom    5 type  2   force =     0.00000000   -0.00000000    0.12615156
     atom    6 type  2   force =     0.00000000    0.00000000   -0.12615156
     The ionic contribution  to forces
     atom    1 type  1   force =     0.00000000   -0.00000000    1.77505751
     atom    2 type  1   force =    -0.00000000    0.00000000   -1.77505751
     atom    3 type  1   force =     0.00000001   -0.00000000    1.23965125
     atom    4 type  1   force =    -0.00000001    0.00000000   -1.23965125
     atom    5 type  2   force =     0.00000003   -0.00000002   -0.69354377
     atom    6 type  2   force =    -0.00000003    0.00000002    0.69354377
     The local contribution  to forces
     atom    1 type  1   force =    -0.00000000    0.00000000   -1.85731695
     atom    2 type  1   force =    -0.00000000   -0.00000000    1.85731695
     atom    3 type  1   force =    -0.00000001    0.00000000   -1.25556885
     atom    4 type  1   force =     0.00000001   -0.00000000    1.25556885
     atom    5 type  2   force =     0.00000047   -0.00000027    0.58470005
     atom    6 type  2   force =    -0.00000047    0.00000027   -0.58470005
     The core correction contribution to forces
     atom    1 type  1   force =     0.00000000   -0.00000000   -0.00360593
     atom    2 type  1   force =    -0.00000000    0.00000000    0.00360593
     atom    3 type  1   force =    -0.00000000    0.00000000   -0.00724460
     atom    4 type  1   force =     0.00000000   -0.00000000    0.00724460
     atom    5 type  2   force =     0.00000000    0.00000000    0.00000000
     atom    6 type  2   force =     0.00000000    0.00000000    0.00000000
     The Hubbard contrib.    to forces
     atom    1 type  1   force =     0.00000000    0.00000000    0.00000000
     atom    2 type  1   force =     0.00000000    0.00000000    0.00000000
     atom    3 type  1   force =     0.00000000    0.00000000    0.00000000
     atom    4 type  1   force =     0.00000000    0.00000000    0.00000000
     atom    5 type  2   force =     0.00000000    0.00000000    0.00000000
     atom    6 type  2   force =     0.00000000    0.00000000    0.00000000
     The SCF correction term to forces
     atom    1 type  1   force =     0.00000000   -0.00000000   -0.00004608
     atom    2 type  1   force =    -0.00000000    0.00000000    0.00004608
     atom    3 type  1   force =     0.00000000   -0.00000000   -0.00001525
     atom    4 type  1   force =    -0.00000000    0.00000000    0.00001525
     atom    5 type  2   force =     0.00000000   -0.00000000    0.00000966
     atom    6 type  2   force =    -0.00000000    0.00000000   -0.00000966

     Total force =     0.111501     Total SCF correction =     0.000070


     Computing stress (Cartesian axis) and pressure

          total   stress  (Ry/bohr**3)                   (kbar)     P=      585.00
   0.00347518   0.00000000  -0.00000000          511.22        0.00       -0.00
   0.00000000   0.00347518  -0.00000000            0.00      511.22       -0.00
  -0.00000000  -0.00000000   0.00497994           -0.00       -0.00      732.57

     Energy error            =      1.7E-01 Ry
     Gradient error          =      7.5E-02 Ry/Bohr
     Cell gradient error     =      2.3E+02 kbar

     number of scf cycles    =   3
     number of bfgs steps    =   2

     enthalpy           old  =     -60.6922526162 Ry
     enthalpy           new  =     -60.8660971824 Ry

     CASE: enthalpy          _new < enthalpy          _old

     new trust radius        =       0.1125471973 bohr
ibrav =      4
 celldm(1) =      4.84568315
 celldm(3) =      3.93150639
Input lattice vectors:
     0.89148106    -0.00000000    -0.00000000
    -0.44574053     0.77204525    -0.00000000
    -0.00000000    -0.00000000     3.50486350
New lattice vectors in INITIAL alat:
     0.89148106     0.00000000     0.00000000
    -0.44574053     0.77204525     0.00000000
     0.00000000     0.00000000     3.50486350
New lattice vectors in NEW alat (for information only):
     1.00000000     0.00000000     0.00000000
    -0.50000000     0.86602540     0.00000000
     0.00000000     0.00000000     3.93150639
Discrepancy in bohr =     0.000000    0.000000    0.000000
     new conv_thr            =       0.0000000075 Ry

     new unit-cell volume =    387.39557 a.u.^3 (    57.40610 Ang^3 )
     density =      3.65118 g/cm^3

CELL_PARAMETERS (alat=  5.43554243)
   0.891481064   0.000000000   0.000000000
  -0.445740532   0.772045249   0.000000000
   0.000000000   0.000000000   3.504863498

ATOMIC_POSITIONS (crystal)
Si           -0.0000000000       -0.0000000000        0.2127584859
Si           -0.0000000000       -0.0000000000        0.7872415141
Si            0.3333333300        0.6666666700        0.4010492540
Si            0.6666666700        0.3333333300        0.5989507460
Li            0.3333333300        0.6666666700        0.9486826224
Li            0.6666666700        0.3333333300        0.0513173776



     Writing config-only to output data dir ./output/SiLi.save/
     NEW-OLD atomic charge density approx. for the potential
     extrapolated charge   22.31049, renormalised to   22.00000

     total cpu time spent up to now is       41.5 secs

     Self-consistent Calculation

     iteration #  1     ecut=    80.00 Ry     beta= 0.70
     Davidson diagonalization with overlap
     c_bands:  1 eigenvalues not converged
     c_bands:  1 eigenvalues not converged
     c_bands:  1 eigenvalues not converged
     ethr =  1.00E-06,  avg # of iterations = 13.0

     total cpu time spent up to now is       43.2 secs

     total energy              =     -62.08826413 Ry
     estimated scf accuracy    <       0.13151232 Ry

     iteration #  2     ecut=    80.00 Ry     beta= 0.70
     Davidson diagonalization with overlap
     ethr =  5.98E-04,  avg # of iterations =  6.8

     total cpu time spent up to now is       44.1 secs

     total energy              =     -61.55264243 Ry
     estimated scf accuracy    <      10.88187346 Ry

     iteration #  3     ecut=    80.00 Ry     beta= 0.70
     Davidson diagonalization with overlap
     ethr =  5.98E-04,  avg # of iterations =  6.4

     total cpu time spent up to now is       44.9 secs

     total energy              =     -62.20314479 Ry
     estimated scf accuracy    <       0.04806654 Ry

     iteration #  4     ecut=    80.00 Ry     beta= 0.70
     Davidson diagonalization with overlap
     ethr =  2.18E-04,  avg # of iterations =  2.3

     total cpu time spent up to now is       45.4 secs

     total energy              =     -62.20386586 Ry
     estimated scf accuracy    <       0.01362883 Ry

     iteration #  5     ecut=    80.00 Ry     beta= 0.70
     Davidson diagonalization with overlap
     ethr =  6.19E-05,  avg # of iterations =  3.5

     total cpu time spent up to now is       46.0 secs

     total energy              =     -62.20460405 Ry
     estimated scf accuracy    <       0.00096211 Ry

     iteration #  6     ecut=    80.00 Ry     beta= 0.70
     Davidson diagonalization with overlap
     ethr =  4.37E-06,  avg # of iterations =  6.5

     total cpu time spent up to now is       46.7 secs

     total energy              =     -62.20478811 Ry
     estimated scf accuracy    <       0.00003937 Ry

     iteration #  7     ecut=    80.00 Ry     beta= 0.70
     Davidson diagonalization with overlap
     ethr =  1.79E-07,  avg # of iterations =  2.6

     total cpu time spent up to now is       47.2 secs

     total energy              =     -62.20479363 Ry
     estimated scf accuracy    <       0.00000409 Ry

     iteration #  8     ecut=    80.00 Ry     beta= 0.70
     Davidson diagonalization with overlap
     ethr =  1.86E-08,  avg # of iterations =  2.3

     total cpu time spent up to now is       47.7 secs

     total energy              =     -62.20479407 Ry
     estimated scf accuracy    <       0.00000011 Ry

     iteration #  9     ecut=    80.00 Ry     beta= 0.70
     Davidson diagonalization with overlap
     ethr =  5.01E-10,  avg # of iterations =  3.9

     total cpu time spent up to now is       48.3 secs

     End of self-consistent calculation

          k = 0.0000 0.0000 0.0000 (  6085 PWs)   bands (ev):

   -34.4301 -33.3654  -3.6052  -2.3480   0.1460   3.1228   5.9294  10.5820
    12.0863  18.5313  19.8047  22.6276  22.6277  22.6532  22.6535

          k = 0.0000 0.0000 0.0951 (  6062 PWs)   bands (ev):

   -34.4301 -33.3654  -3.6079  -2.3392   0.1305   3.1172   6.0556   9.7902
    13.6107  16.2170  22.2870  22.6429  22.6430  22.6731  22.6731

          k = 0.0000 0.1439 0.0000 (  6031 PWs)   bands (ev):

   -34.3915 -33.3839  -3.2438  -1.9912   0.4920   3.4571   6.2031  10.8578
    12.1807  18.0552  18.8581  19.3002  20.2191  20.2581  21.2426

          k = 0.0000 0.1439 0.0951 (  6058 PWs)   bands (ev):

   -34.3915 -33.3839  -3.2464  -1.9827   0.4782   3.4434   6.3508   9.9884
    13.7673  16.2488  18.6227  19.3669  20.2454  21.1374  21.4498

          k = 0.0000 0.2878 0.0000 (  6011 PWs)   bands (ev):

   -34.2851 -33.4395  -2.1639  -0.9250   1.5238   4.4516   7.0014  11.5813
    12.2404  13.7365  14.7505  16.7290  18.3540  19.1521  19.3959

          k = 0.0000 0.2878 0.0951 (  6018 PWs)   bands (ev):

   -34.2851 -33.4395  -2.1664  -0.9174   1.5147   4.4128   7.2139  10.4972
    13.3544  14.0725  14.8431  16.4685  17.9261  18.3834  19.2758

          k = 0.0000 0.4318 0.0000 (  6016 PWs)   bands (ev):

   -34.1388 -33.5279  -0.3787   0.8372   3.2179   6.0601   8.1931   8.9741
    10.1361  11.9703  13.3946  13.6171  15.8378  17.1097  17.3224

          k = 0.0000 0.4318 0.0951 (  6020 PWs)   bands (ev):

   -34.1388 -33.5279  -0.3809   0.8433   3.2169   5.9764   8.4854   9.0277
     9.9003  11.8464  12.6420  14.5022  16.3510  17.1413  17.2964

          k = 0.0000 0.5757 0.0000 (  6032 PWs)   bands (ev):

   -34.0079 -33.6208   2.0887   3.2647   5.2001   5.4265   6.4885   8.2331
     8.4588  10.0654  11.7614  13.2624  15.7397  15.9333  16.4881

          k = 0.0000 0.5757 0.0951 (  6024 PWs)   bands (ev):

   -34.0079 -33.6208   2.0867   3.2701   5.2077   5.4122   6.5035   8.0205
     8.7189   9.9558  11.8518  13.5746  14.7335  16.2810  16.5210

          k = 0.1246 0.2159 0.0000 (  6013 PWs)   bands (ev):

   -34.3189 -33.4211  -2.5231  -1.2796   1.1810   4.1219   6.7403  11.3823
    12.3283  16.0702  16.0987  17.0908  17.1451  18.7874  19.4221

          k = 0.1246 0.2159 0.0951 (  6015 PWs)   bands (ev):

   -34.3189 -33.4211  -2.5255  -1.2723   1.1720   4.0860   6.9427  10.3460
    13.9388  15.6162  16.3932  17.0143  17.1288  17.4907  19.3292

          k = 0.1246 0.3598 0.0000 (  6014 PWs)   bands (ev):

   -34.1912 -33.4944  -1.0905   0.1349   2.5453   5.4320   7.7596  11.1102
    12.1631  12.4225  13.5610  14.4371  14.8091  15.8861  17.5358

          k = 0.1246 0.3598 0.0951 (  6014 PWs)   bands (ev):

   -34.1912 -33.4944  -1.0926   0.1406   2.5444   5.3544   8.0614  10.6818
    11.5486  12.8735  13.8865  14.6224  15.2017  15.7891  17.7448

          k = 0.1246 0.5037 0.0000 (  6030 PWs)   bands (ev):

   -34.0445 -33.5931   1.0364   2.2329   4.5428   7.0145   7.5471   8.5799
     8.9265  10.9027  12.9477  13.0918  13.9311  14.8116  15.2538

          k = 0.1246 0.5037 0.0951 (  6027 PWs)   bands (ev):

   -34.0445 -33.5931   1.0348   2.2363   4.5521   6.9787   7.4696   8.3777
     9.5445  10.7468  12.3221  13.2335  13.7366  15.0182  15.7791

          k = 0.1246 0.6476 0.0000 (  6022 PWs)   bands (ev):

   -33.9613 -33.6572   3.7721   3.8809   4.9381   4.9784   7.1363   7.2950
     9.6290   9.8901  11.3771  12.8903  13.1102  14.3255  16.0532

          k = 0.1246 0.6476 0.0951 (  6027 PWs)   bands (ev):

   -33.9613 -33.6572   3.7847   3.8700   4.8838   5.0196   7.0719   7.5703
     8.8173  10.3789  12.0043  12.7265  13.0630  14.0976  15.4899

          k = 0.2493 0.4318 0.0000 (  6034 PWs)   bands (ev):

   -34.0582 -33.5829   0.6840   1.8865   4.2210   7.0125   8.8883   9.8451
    10.0689  11.0945  11.1354  12.8841  13.1187  14.4948  15.1165

          k = 0.2493 0.4318 0.0951 (  6026 PWs)   bands (ev):

   -34.0582 -33.5829   0.6833   1.8863   4.2444   6.8334   9.3019   9.9512
    10.0953  10.7742  11.1917  12.1658  13.5573  14.0917  15.5589

          k = 0.2493 0.5757 0.0000 (  6029 PWs)   bands (ev):

   -33.9256 -33.6864   3.1368   4.2991   6.2298   6.4073   7.4710   9.0490
     9.1545   9.5175  10.4553  10.9226  12.6059  12.9842  14.2532

          k = 0.2493 0.5757 0.0951 (  6024 PWs)   bands (ev):

   -33.9256 -33.6864   3.1369   4.2954   6.2314   6.4286   7.5043   8.7180
     9.2771   9.6311  10.4167  11.0905  12.7104  12.9324  14.2973

          k = 0.3739 0.6476 0.0000 (  6042 PWs)   bands (ev):

   -33.8009 -33.8009   5.7840   5.9451   5.9451   6.9504   6.9504   7.0038
     8.9176   9.2333   9.2333  11.6433  12.1697  12.1697  12.6301

          k = 0.3739 0.6476 0.0951 (  6057 PWs)   bands (ev):

   -33.8009 -33.8009   5.8091   5.9355   5.9355   6.8945   6.9803   6.9803
     9.1673   9.1673   9.3697  10.5846  12.3294  12.3294  13.8340

          k = 0.0000 0.1439-0.0951 (  6058 PWs)   bands (ev):

   -34.3915 -33.3839  -3.2463  -1.9829   0.4788   3.4414   6.3551   9.9824
    13.7500  16.3761  18.4636  19.2293  20.2457  21.1376  21.4728

          k = 0.0000 0.2878-0.0951 (  6018 PWs)   bands (ev):

   -34.2851 -33.4395  -2.1660  -0.9190   1.5201   4.3948   7.2519  10.4756
    12.9765  14.5157  15.0395  16.7163  17.1770  18.3837  19.2754

          k = 0.0000 0.4318-0.0951 (  6020 PWs)   bands (ev):

   -34.1388 -33.5279  -0.3794   0.8371   3.2394   5.9004   8.5712   9.1310
    10.0058  11.1854  12.9832  14.8113  16.1611  17.1415  17.4983

          k = 0.0000 0.5757-0.0951 (  6024 PWs)   bands (ev):

   -34.0079 -33.6208   2.0914   3.2497   5.1960   5.5146   6.4758   7.7944
     8.6637  10.7673  11.4560  12.7394  15.3852  16.5209  16.9476

          k =-0.1246 0.3598-0.0951 (  6014 PWs)   bands (ev):

   -34.1912 -33.4944  -1.0921   0.1384   2.5520   5.3290   8.1123  10.8300
    11.2926  12.6501  14.2569  14.6752  15.2411  16.2615  16.7751

          k =-0.1246 0.5037-0.0951 (  6027 PWs)   bands (ev):

   -34.0445 -33.5931   1.0370   2.2271   4.5893   6.8576   7.4897   8.3925
     9.7592  10.6801  12.1755  13.3269  13.4798  15.0142  16.1608

          k =-0.2493 0.5757-0.0951 (  6024 PWs)   bands (ev):

   -33.9256 -33.6864   3.1393   4.2846   6.2246   6.4967   7.4496   8.6481
     9.2912   9.6321  10.3329  11.7089  12.1329  12.9178  14.1767

     the Fermi energy is    13.1263 ev

!    total energy              =     -62.20479412 Ry
     estimated scf accuracy    <          1.4E-09 Ry
     smearing contrib. (-TS)   =       0.00000256 Ry
     internal energy E=F+TS    =     -62.20479668 Ry

     The total energy is F=E-TS. E is the sum of the following terms:
     one-electron contribution =       9.07724738 Ry
     hartree contribution      =       6.66687845 Ry
     xc contribution           =     -20.39683263 Ry
     ewald contribution        =     -57.55208988 Ry

     convergence has been achieved in   9 iterations

     Forces acting on atoms (cartesian axes, Ry/au):

     atom    1 type  1   force =    -0.00000000   -0.00000000   -0.00218081
     atom    2 type  1   force =     0.00000000   -0.00000000    0.00218081
     atom    3 type  1   force =     0.00000000    0.00000000    0.03877708
     atom    4 type  1   force =     0.00000000    0.00000000   -0.03877708
     atom    5 type  2   force =     0.00000000   -0.00000000   -0.02578004
     atom    6 type  2   force =    -0.00000000   -0.00000000    0.02578004
     The non-local contrib.  to forces
     atom    1 type  1   force =     0.00000000   -0.00000000    0.08580254
     atom    2 type  1   force =    -0.00000000   -0.00000000   -0.08580254
     atom    3 type  1   force =     0.00000000    0.00000000    0.06378306
     atom    4 type  1   force =     0.00000000    0.00000000   -0.06378306
     atom    5 type  2   force =     0.00000000    0.00000000    0.13790509
     atom    6 type  2   force =     0.00000000   -0.00000000   -0.13790509
     The ionic contribution  to forces
     atom    1 type  1   force =     0.00000000   -0.00000000    1.49116189
     atom    2 type  1   force =    -0.00000000    0.00000000   -1.49116189
     atom    3 type  1   force =     0.00000001   -0.00000000    0.84287451
     atom    4 type  1   force =    -0.00000001    0.00000000   -0.84287451
     atom    5 type  2   force =     0.00000003   -0.00000002   -0.83418010
     atom    6 type  2   force =    -0.00000003    0.00000002    0.83418010
     The local contribution  to forces
     atom    1 type  1   force =    -0.00000000    0.00000000   -1.57620539
     atom    2 type  1   force =     0.00000000   -0.00000000    1.57620539
     atom    3 type  1   force =    -0.00000001    0.00000000   -0.86343785
     atom    4 type  1   force =     0.00000001   -0.00000000    0.86343785
     atom    5 type  2   force =     0.00000046   -0.00000027    0.67047622
     atom    6 type  2   force =    -0.00000046    0.00000027   -0.67047622
     The core correction contribution to forces
     atom    1 type  1   force =     0.00000000   -0.00000000   -0.00296057
     atom    2 type  1   force =    -0.00000000    0.00000000    0.00296057
     atom    3 type  1   force =    -0.00000000    0.00000000   -0.00448519
     atom    4 type  1   force =     0.00000000   -0.00000000    0.00448519
     atom    5 type  2   force =     0.00000000    0.00000000    0.00000000
     atom    6 type  2   force =     0.00000000    0.00000000    0.00000000
     The Hubbard contrib.    to forces
     atom    1 type  1   force =     0.00000000    0.00000000    0.00000000
     atom    2 type  1   force =     0.00000000    0.00000000    0.00000000
     atom    3 type  1   force =     0.00000000    0.00000000    0.00000000
     atom    4 type  1   force =     0.00000000    0.00000000    0.00000000
     atom    5 type  2   force =     0.00000000    0.00000000    0.00000000
     atom    6 type  2   force =     0.00000000    0.00000000    0.00000000
     The SCF correction term to forces
     atom    1 type  1   force =     0.00000000   -0.00000000    0.00002071
     atom    2 type  1   force =    -0.00000000    0.00000000   -0.00002071
     atom    3 type  1   force =     0.00000000   -0.00000000    0.00004256
     atom    4 type  1   force =    -0.00000000    0.00000000   -0.00004256
     atom    5 type  2   force =    -0.00000000    0.00000000    0.00001875
     atom    6 type  2   force =     0.00000000   -0.00000000   -0.00001875

     Total force =     0.065925     Total SCF correction =     0.000072


     Computing stress (Cartesian axis) and pressure

          total   stress  (Ry/bohr**3)                   (kbar)     P=      523.26
   0.00327528  -0.00000000  -0.00000000          481.81       -0.00       -0.00
  -0.00000000   0.00327528  -0.00000000           -0.00      481.81       -0.00
   0.00000000   0.00000000   0.00412062            0.00        0.00      606.16

     Energy error            =      2.2E-02 Ry
     Gradient error          =      3.9E-02 Ry/Bohr
     Cell gradient error     =      1.1E+02 kbar

     number of scf cycles    =   4
     number of bfgs steps    =   3

     enthalpy           old  =     -60.8660971824 Ry
     enthalpy           new  =     -60.8880633233 Ry

     CASE: enthalpy          _new < enthalpy          _old

     new trust radius        =       0.0952913367 bohr
ibrav =      4
 celldm(1) =      4.80420631
 celldm(3) =      4.06144157
Input lattice vectors:
     0.88385039    -0.00000000     0.00000000
    -0.44192520     0.76543689     0.00000000
     0.00000000     0.00000000     3.58970673
New lattice vectors in INITIAL alat:
     0.88385039     0.00000000     0.00000000
    -0.44192520     0.76543689     0.00000000
     0.00000000     0.00000000     3.58970673
New lattice vectors in NEW alat (for information only):
     1.00000000     0.00000000     0.00000000
    -0.50000000     0.86602540     0.00000000
     0.00000000     0.00000000     4.06144157
Discrepancy in bohr =     0.000000    0.000000    0.000000
     new conv_thr            =       0.0000000039 Ry

     new unit-cell volume =    390.01004 a.u.^3 (    57.79353 Ang^3 )
     density =      3.62670 g/cm^3

CELL_PARAMETERS (alat=  5.43554243)
   0.883850393   0.000000000   0.000000000
  -0.441925197   0.765436894   0.000000000
   0.000000000   0.000000000   3.589706730

ATOMIC_POSITIONS (crystal)
Si           -0.0000000000       -0.0000000000        0.2138956758
Si           -0.0000000000       -0.0000000000        0.7861043242
Si            0.3333333300        0.6666666700        0.4047755467
Si            0.6666666700        0.3333333300        0.5952244533
Li            0.3333333300        0.6666666700        0.9478883388
Li            0.6666666700        0.3333333300        0.0521116612



     Writing config-only to output data dir ./output/SiLi.save/
     NEW-OLD atomic charge density approx. for the potential
     extrapolated charge   22.14740, renormalised to   22.00000

     total cpu time spent up to now is       50.8 secs

     Self-consistent Calculation

     iteration #  1     ecut=    80.00 Ry     beta= 0.70
     Davidson diagonalization with overlap
     c_bands:  2 eigenvalues not converged
     c_bands:  1 eigenvalues not converged
     c_bands:  1 eigenvalues not converged
     c_bands:  1 eigenvalues not converged
     c_bands:  1 eigenvalues not converged
     ethr =  1.00E-06,  avg # of iterations = 12.9

     total cpu time spent up to now is       52.4 secs

     total energy              =     -62.19323505 Ry
     estimated scf accuracy    <       0.03504393 Ry

     iteration #  2     ecut=    80.00 Ry     beta= 0.70
     Davidson diagonalization with overlap
     ethr =  1.59E-04,  avg # of iterations =  7.9

     total cpu time spent up to now is       53.4 secs

     total energy              =     -62.05899167 Ry
     estimated scf accuracy    <       2.80674217 Ry

     iteration #  3     ecut=    80.00 Ry     beta= 0.70
     Davidson diagonalization with overlap
     ethr =  1.59E-04,  avg # of iterations =  6.8

     total cpu time spent up to now is       54.2 secs

     total energy              =     -62.22274839 Ry
     estimated scf accuracy    <       0.01029287 Ry

     iteration #  4     ecut=    80.00 Ry     beta= 0.70
     Davidson diagonalization with overlap
     ethr =  4.68E-05,  avg # of iterations =  2.7

     total cpu time spent up to now is       54.7 secs

     total energy              =     -62.22326719 Ry
     estimated scf accuracy    <       0.00183614 Ry

     iteration #  5     ecut=    80.00 Ry     beta= 0.70
     Davidson diagonalization with overlap
     ethr =  8.35E-06,  avg # of iterations =  5.1

     total cpu time spent up to now is       55.3 secs

     total energy              =     -62.22340945 Ry
     estimated scf accuracy    <       0.00002013 Ry

     iteration #  6     ecut=    80.00 Ry     beta= 0.70
     Davidson diagonalization with overlap
     ethr =  9.15E-08,  avg # of iterations =  4.8

     total cpu time spent up to now is       55.9 secs

     total energy              =     -62.22342211 Ry
     estimated scf accuracy    <       0.00004781 Ry

     iteration #  7     ecut=    80.00 Ry     beta= 0.70
     Davidson diagonalization with overlap
     ethr =  9.15E-08,  avg # of iterations =  1.8

     total cpu time spent up to now is       56.4 secs

     total energy              =     -62.22342543 Ry
     estimated scf accuracy    <       0.00000002 Ry

     iteration #  8     ecut=    80.00 Ry     beta= 0.70
     Davidson diagonalization with overlap
     ethr =  8.14E-11,  avg # of iterations =  5.7

     total cpu time spent up to now is       57.1 secs

     total energy              =     -62.22342548 Ry
     estimated scf accuracy    <       0.00000035 Ry

[...]
        k(   29) = (  -0.1309836   0.3781172  -0.0834239), wk =   0.0987654
        k(   30) = (  -0.1309836   0.5293640  -0.0834239), wk =   0.0987654
        k(   31) = (  -0.2619672   0.6049874  -0.0834239), wk =   0.0987654

     Dense  grid:    38553 G-vectors     FFT dimensions: (  27,  27, 125)

     Estimated max dynamical RAM per process >      20.38 MB

     Estimated total dynamical RAM >     163.06 MB

     Initial potential from superposition of free atoms

     starting charge      21.9884, renormalised to      22.0000
     Starting wfcs are   20 randomized atomic wfcs

     total cpu time spent up to now is      158.2 secs

     Self-consistent Calculation

     iteration #  1     ecut=    80.00 Ry     beta= 0.70
     Davidson diagonalization with overlap
     c_bands:  4 eigenvalues not converged
     c_bands:  3 eigenvalues not converged
     c_bands:  2 eigenvalues not converged
     c_bands:  4 eigenvalues not converged
     c_bands:  1 eigenvalues not converged
     c_bands:  1 eigenvalues not converged
     c_bands:  2 eigenvalues not converged
     c_bands:  1 eigenvalues not converged
     c_bands:  1 eigenvalues not converged
     c_bands:  1 eigenvalues not converged
     c_bands:  1 eigenvalues not converged
     c_bands:  1 eigenvalues not converged
     c_bands:  1 eigenvalues not converged
     c_bands:  2 eigenvalues not converged
     c_bands:  1 eigenvalues not converged
     c_bands:  2 eigenvalues not converged
     c_bands:  1 eigenvalues not converged
     c_bands:  1 eigenvalues not converged
     c_bands:  1 eigenvalues not converged
     c_bands:  1 eigenvalues not converged
     c_bands:  1 eigenvalues not converged
     c_bands:  2 eigenvalues not converged
     c_bands:  1 eigenvalues not converged
     c_bands:  1 eigenvalues not converged
     c_bands:  1 eigenvalues not converged
     c_bands:  1 eigenvalues not converged
     ethr =  1.00E-06,  avg # of iterations = 19.8

     total cpu time spent up to now is      160.7 secs

     total energy              =     -60.03951229 Ry
     estimated scf accuracy    <       2.78696780 Ry

     iteration #  2     ecut=    80.00 Ry     beta= 0.70
     Davidson diagonalization with overlap
     ethr =  1.00E-02,  avg # of iterations =  7.1

     total cpu time spent up to now is      161.8 secs

     total energy              =     -57.32209020 Ry
     estimated scf accuracy    <      96.71574555 Ry

     iteration #  3     ecut=    80.00 Ry     beta= 0.70
     Davidson diagonalization with overlap
     ethr =  1.00E-02,  avg # of iterations =  4.9

     total cpu time spent up to now is      162.7 secs

     total energy              =     -62.03195867 Ry
     estimated scf accuracy    <       5.74557988 Ry

     iteration #  4     ecut=    80.00 Ry     beta= 0.70
     Davidson diagonalization with overlap
     ethr =  1.00E-02,  avg # of iterations =  2.2

     total cpu time spent up to now is      163.2 secs

     total energy              =     -62.27644523 Ry
     estimated scf accuracy    <       0.71860786 Ry

     iteration #  5     ecut=    80.00 Ry     beta= 0.70
     Davidson diagonalization with overlap
     ethr =  3.27E-03,  avg # of iterations =  2.2

     total cpu time spent up to now is      163.8 secs

     total energy              =     -62.27827724 Ry
     estimated scf accuracy    <       0.15526516 Ry

     iteration #  6     ecut=    80.00 Ry     beta= 0.70
     Davidson diagonalization with overlap
     ethr =  7.06E-04,  avg # of iterations =  4.8

     total cpu time spent up to now is      164.5 secs

     total energy              =     -62.31274791 Ry
     estimated scf accuracy    <       0.07235025 Ry

     iteration #  7     ecut=    80.00 Ry     beta= 0.70
     Davidson diagonalization with overlap
     ethr =  3.29E-04,  avg # of iterations =  1.5

     total cpu time spent up to now is      165.0 secs

     total energy              =     -62.30839730 Ry
     estimated scf accuracy    <       0.03317997 Ry

     iteration #  8     ecut=    80.00 Ry     beta= 0.70
     Davidson diagonalization with overlap
     ethr =  1.51E-04,  avg # of iterations =  1.8

     total cpu time spent up to now is      165.5 secs

     total energy              =     -62.31135902 Ry
     estimated scf accuracy    <       0.00045820 Ry

     iteration #  9     ecut=    80.00 Ry     beta= 0.70
     Davidson diagonalization with overlap
     ethr =  2.08E-06,  avg # of iterations =  8.3

     total cpu time spent up to now is      166.4 secs

     total energy              =     -62.31141294 Ry
     estimated scf accuracy    <       0.00026566 Ry

     iteration # 10     ecut=    80.00 Ry     beta= 0.70
     Davidson diagonalization with overlap
     ethr =  1.21E-06,  avg # of iterations =  1.6

     total cpu time spent up to now is      166.9 secs

     total energy              =     -62.31143669 Ry
     estimated scf accuracy    <       0.00002586 Ry

     iteration # 11     ecut=    80.00 Ry     beta= 0.70
     Davidson diagonalization with overlap
     ethr =  1.18E-07,  avg # of iterations =  1.5

     total cpu time spent up to now is      167.4 secs

     total energy              =     -62.31143820 Ry
     estimated scf accuracy    <       0.00000156 Ry

     iteration # 12     ecut=    80.00 Ry     beta= 0.70
     Davidson diagonalization with overlap
     ethr =  7.08E-09,  avg # of iterations =  3.4

     total cpu time spent up to now is      168.0 secs

     total energy              =     -62.31143866 Ry
     estimated scf accuracy    <       0.00000087 Ry

     iteration # 13     ecut=    80.00 Ry     beta= 0.70
     Davidson diagonalization with overlap
     ethr =  3.96E-09,  avg # of iterations =  1.5

     total cpu time spent up to now is      168.5 secs

     total energy              =     -62.31143874 Ry
     estimated scf accuracy    <       0.00000001 Ry

     iteration # 14     ecut=    80.00 Ry     beta= 0.70
     Davidson diagonalization with overlap
     ethr =  5.02E-11,  avg # of iterations =  4.1

     total cpu time spent up to now is      169.1 secs

     total energy              =     -62.31143874 Ry
     estimated scf accuracy    <          5.2E-10 Ry

     iteration # 15     ecut=    80.00 Ry     beta= 0.70
     Davidson diagonalization with overlap
     ethr =  2.38E-12,  avg # of iterations =  3.2

     total cpu time spent up to now is      169.7 secs

     total energy              =     -62.31143874 Ry
     estimated scf accuracy    <          2.5E-09 Ry

     iteration # 16     ecut=    80.00 Ry     beta= 0.70
     Davidson diagonalization with overlap
     ethr =  2.38E-12,  avg # of iterations =  1.7

     total cpu time spent up to now is      170.2 secs

     End of self-consistent calculation

          k = 0.0000 0.0000 0.0000 (  4885 PWs)   bands (ev):

   -33.1737 -32.9525  -4.7345  -3.5396  -1.3739   1.3394   4.5302   8.3581
     9.8379  13.6535  16.5284  22.5249  24.3458  24.3470  24.4561

          k = 0.0000 0.0000 0.0834 (  4886 PWs)   bands (ev):

   -33.1737 -32.9525  -4.7347  -3.5389  -1.3755   1.3405   4.5486   8.0967
    10.4487  12.8043  17.6124  20.9491  24.3466  24.3472  24.4596

          k = 0.0000 0.1512 0.0000 (  4887 PWs)   bands (ev):

   -33.1509 -32.9419  -4.3349  -3.1438  -0.9847   1.7192   4.8786   8.6833
    10.0486  13.9925  16.6145  19.6232  20.4792  21.7203  21.9228

          k = 0.0000 0.1512 0.0834 (  4871 PWs)   bands (ev):

   -33.1509 -32.9419  -4.3351  -3.1431  -0.9863   1.7197   4.9013   8.3821
    10.7173  13.0691  17.8015  19.6157  20.0954  21.3234  21.7226

          k = 0.0000 0.3025 0.0000 (  4835 PWs)   bands (ev):

   -33.0912 -32.9167  -3.1418  -1.9624   0.1762   2.8472   5.9140   9.6169
    10.6537  13.8548  15.0471  15.4548  16.7565  17.6677  19.4464

          k = 0.0000 0.3025 0.0834 (  4850 PWs)   bands (ev):

   -33.0912 -32.9167  -3.1420  -1.9615   0.1744   2.8461   5.9512   9.1871
    11.5294  13.2362  14.8846  15.1571  17.0666  18.6076  19.2624

          k = 0.0000 0.4537 0.0000 (  4826 PWs)   bands (ev):

   -33.0179 -32.8931  -1.1724  -0.0134   2.0853   4.6702   7.5691   9.1085
    10.1586  11.1602  11.9435  12.6521  14.9348  16.8687  17.1241

          k = 0.0000 0.4537 0.0834 (  4824 PWs)   bands (ev):

   -33.0179 -32.8931  -1.1727  -0.0122   2.0831   4.6669   7.6318   9.1139
     9.9145  11.0726  12.2705  12.8867  14.9835  15.5911  17.9694

          k = 0.0000 0.6050 0.0000 (  4822 PWs)   bands (ev):

   -32.9624 -32.8851   1.5414   2.6628   4.5735   4.9886   6.0507   7.5238
     8.1781   9.7611  10.7916  12.5514  13.9936  14.6405  17.4257

          k = 0.0000 0.6050 0.0834 (  4794 PWs)   bands (ev):

   -32.9624 -32.8851   1.5408   2.6651   4.5645   4.9945   6.0535   7.4875
     8.2406   9.7472  10.7575  12.5579  13.8392  14.9714  16.9460

          k = 0.1310 0.2269 0.0000 (  4855 PWs)   bands (ev):

   -33.1096 -32.9240  -3.5385  -2.3553  -0.2096   2.4734   5.5709   9.3187
    10.4668  14.5624  16.2824  17.1577  17.5879  17.9331  18.3519

          k = 0.1310 0.2269 0.0834 (  4848 PWs)   bands (ev):

   -33.1096 -32.9240  -3.5387  -2.3545  -0.2111   2.4722   5.6047   8.9320
    11.2447  13.5417  16.8862  17.1365  17.6550  17.8820  18.9009

          k = 0.1310 0.3781 0.0000 (  4847 PWs)   bands (ev):

   -33.0428 -32.8999  -1.9572  -0.7898   1.3264   3.9558   6.9320  10.3900
    11.1138  12.0767  13.0668  14.6225  15.0134  16.2896  16.5021

          k = 0.1310 0.3781 0.0834 (  4838 PWs)   bands (ev):

   -33.0428 -32.8999  -1.9575  -0.7889   1.3249   3.9516   6.9892   9.8768
    11.7130  12.2931  13.0470  14.3852  15.0203  15.5674  16.3630

          k = 0.1310 0.5294 0.0000 (  4816 PWs)   bands (ev):

   -32.9769 -32.8856   0.3856   1.5264   3.5814   5.9757   7.3441   8.4901
     8.9229  10.3531  12.1814  12.3589  13.5410  14.4093  15.4069

          k = 0.1310 0.5294 0.0834 (  4817 PWs)   bands (ev):

   -32.9769 -32.8856   0.3852   1.5278   3.5790   5.9734   7.3432   8.4511
     9.0476  10.3242  11.6047  12.8819  13.4465  15.1670  15.4334

          k = 0.1310 0.6806 0.0000 (  4792 PWs)   bands (ev):

   -32.9455 -32.8853   3.3732   3.5070   4.4352   4.6018   6.2868   7.0858
     8.9403   9.3197  11.1446  12.2986  13.2494  14.3014  15.3833

          k = 0.1310 0.6806 0.0834 (  4814 PWs)   bands (ev):

   -32.9455 -32.8853   3.3738   3.5054   4.4424   4.5962   6.2779   7.1137
     8.8045   9.4068  11.4055  12.0757  13.3587  13.8291  15.3198

          k = 0.2620 0.4537 0.0000 (  4835 PWs)   bands (ev):

   -32.9826 -32.8858  -0.0021   1.1442   3.2157   5.7381   8.5413  10.1338
    10.2007  11.1595  11.2636  12.2749  12.4480  13.6827  14.5269

          k = 0.2620 0.4537 0.0834 (  4827 PWs)   bands (ev):

   -32.9826 -32.8858  -0.0023   1.1448   3.2160   5.7254   8.6303  10.1684
    10.2289  10.8418  11.2289  11.8666  13.3465  13.6819  14.6185

          k = 0.2620 0.6050 0.0000 (  4822 PWs)   bands (ev):

   -32.9340 -32.8859   2.6907   3.7966   5.6713   6.1090   7.1403   8.3895
     9.0550   9.6029  10.6458  10.8968  12.0451  12.8563  13.9492

          k = 0.2620 0.6050 0.0834 (  4825 PWs)   bands (ev):

   -32.9340 -32.8859   2.6903   3.7980   5.6652   6.1143   7.1464   8.3527
     9.0757   9.6076  10.6822  10.9649  11.8757  12.9324  13.9344

          k = 0.3930 0.6806 0.0000 (  4812 PWs)   bands (ev):

   -32.9015 -32.9015   5.5602   5.7523   5.7523   6.6037   6.6037   6.9115
     8.5228   8.5228   9.7879  11.2882  11.8255  11.8255  12.8400

          k = 0.3930 0.6806 0.0834 (  4803 PWs)   bands (ev):

   -32.9015 -32.9015   5.5617   5.7502   5.7502   6.6100   6.6100   6.9031
     8.5095   8.5095   9.9437  10.8974  11.8807  11.8807  13.3732

          k = 0.0000 0.1512-0.0834 (  4871 PWs)   bands (ev):

   -33.1509 -32.9419  -4.3351  -3.1431  -0.9863   1.7195   4.9019   8.3816
    10.7128  13.0844  17.7022  19.6326  20.4038  21.1880  21.7227

          k = 0.0000 0.3025-0.0834 (  4850 PWs)   bands (ev):

   -33.0912 -32.9167  -3.1420  -1.9618   0.1752   2.8439   5.9567   9.1886
    11.4183  13.6830  14.5117  15.0707  17.1079  18.4520  19.7132

          k = 0.0000 0.4537-0.0834 (  4824 PWs)   bands (ev):

   -33.0179 -32.8931  -1.1725  -0.0131   2.0863   4.6569   7.6529   9.1532
     9.9750  10.7178  12.3652  13.4989  14.2626  15.8242  17.8939

          k = 0.0000 0.6050-0.0834 (  4794 PWs)   bands (ev):

   -32.9624 -32.8851   1.5415   2.6620   4.5752   4.9924   6.0534   7.4790
     8.1598  10.0278  10.7292  12.0112  14.2172  15.5649  16.2490

          k =-0.1310 0.3781-0.0834 (  4838 PWs)   bands (ev):

   -33.0428 -32.8999  -1.9574  -0.7892   1.3260   3.9483   6.9972   9.9110
    11.3711  12.7500  13.0699  14.3163  14.8512  15.5686  16.3478

          k =-0.1310 0.5294-0.0834 (  4817 PWs)   bands (ev):

   -32.9769 -32.8856   0.3855   1.5264   3.5843   5.9566   7.3450   8.4572
     9.1288  10.1938  11.6858  12.6762  13.8894  14.5044  15.3981

          k =-0.2620 0.6050-0.0834 (  4825 PWs)   bands (ev):

   -32.9340 -32.8859   2.6907   3.7965   5.6719   6.1114   7.1436   8.3561
     9.0672   9.5783  10.6064  11.1895  11.8698  12.8635  13.5500

     the Fermi energy is    12.5632 ev

!    total energy              =     -62.31143874 Ry
     estimated scf accuracy    <          6.3E-11 Ry
     smearing contrib. (-TS)   =       0.00080827 Ry
     internal energy E=F+TS    =     -62.31224702 Ry

     The total energy is F=E-TS. E is the sum of the following terms:
     one-electron contribution =       9.87236557 Ry
     hartree contribution      =       5.94645674 Ry
     xc contribution           =     -20.40887260 Ry
     ewald contribution        =     -57.72219672 Ry

     convergence has been achieved in  16 iterations

     Forces acting on atoms (cartesian axes, Ry/au):

     atom    1 type  1   force =     0.00000000    0.00000000   -0.00006807
     atom    2 type  1   force =     0.00000000    0.00000000    0.00006807
     atom    3 type  1   force =     0.00000000    0.00000000    0.00005812
     atom    4 type  1   force =     0.00000000    0.00000000   -0.00005812
     atom    5 type  2   force =    -0.00000000    0.00000000   -0.00009609
     atom    6 type  2   force =     0.00000000   -0.00000000    0.00009609
     The non-local contrib.  to forces
     atom    1 type  1   force =     0.00000000    0.00000000    0.11693499
     atom    2 type  1   force =    -0.00000000   -0.00000000   -0.11693499
     atom    3 type  1   force =    -0.00000000   -0.00000000    0.02982258
     atom    4 type  1   force =    -0.00000000   -0.00000000   -0.02982258
     atom    5 type  2   force =     0.00000000    0.00000000    0.00668897
     atom    6 type  2   force =     0.00000000   -0.00000000   -0.00668897
     The ionic contribution  to forces
     atom    1 type  1   force =     0.00000000   -0.00000000   -0.57533969
     atom    2 type  1   force =    -0.00000000    0.00000000    0.57533969
     atom    3 type  1   force =     0.00000000   -0.00000000    0.00940592
     atom    4 type  1   force =    -0.00000000    0.00000000   -0.00940592
     atom    5 type  2   force =     0.00000001   -0.00000000    0.64039531
     atom    6 type  2   force =    -0.00000001    0.00000000   -0.64039531
     The local contribution  to forces
     atom    1 type  1   force =     0.00000000    0.00000000    0.46315728
     atom    2 type  1   force =    -0.00000000   -0.00000000   -0.46315728
     atom    3 type  1   force =    -0.00000001    0.00000001   -0.03670771
     atom    4 type  1   force =     0.00000001   -0.00000001    0.03670771
     atom    5 type  2   force =     0.00000045   -0.00000026   -0.64718360
     atom    6 type  2   force =    -0.00000045    0.00000026    0.64718360
     The core correction contribution to forces
     atom    1 type  1   force =     0.00000000   -0.00000000   -0.00480569
     atom    2 type  1   force =    -0.00000000    0.00000000    0.00480569
     atom    3 type  1   force =    -0.00000000    0.00000000   -0.00245902
     atom    4 type  1   force =     0.00000000   -0.00000000    0.00245902
     atom    5 type  2   force =     0.00000000    0.00000000    0.00000000
     atom    6 type  2   force =     0.00000000    0.00000000    0.00000000
     The Hubbard contrib.    to forces
     atom    1 type  1   force =     0.00000000    0.00000000    0.00000000
     atom    2 type  1   force =     0.00000000    0.00000000    0.00000000
     atom    3 type  1   force =     0.00000000    0.00000000    0.00000000
     atom    4 type  1   force =     0.00000000    0.00000000    0.00000000
     atom    5 type  2   force =     0.00000000    0.00000000    0.00000000
     atom    6 type  2   force =     0.00000000    0.00000000    0.00000000
     The SCF correction term to forces
     atom    1 type  1   force =    -0.00000000    0.00000000   -0.00001495
     atom    2 type  1   force =     0.00000000   -0.00000000    0.00001495
     atom    3 type  1   force =    -0.00000000    0.00000000   -0.00000364
     atom    4 type  1   force =     0.00000000   -0.00000000    0.00000364
     atom    5 type  2   force =    -0.00000000    0.00000000    0.00000324
     atom    6 type  2   force =     0.00000000   -0.00000000   -0.00000324

     Total force =     0.000186     Total SCF correction =     0.000022
     SCF correction compared to forces is large: reduce conv_thr to get better values


     Computing stress (Cartesian axis) and pressure

          total   stress  (Ry/bohr**3)                   (kbar)     P=      500.11
   0.00339840  -0.00000000   0.00000000          499.92       -0.00        0.00
  -0.00000000   0.00339840   0.00000000           -0.00      499.92        0.00
  -0.00000000  -0.00000000   0.00340214           -0.00       -0.00      500.47


     Writing all to output data dir ./output/SiLi.save/

     init_run     :      1.49s CPU      1.82s WALL (       2 calls)
     electrons    :    119.49s CPU    126.47s WALL (      18 calls)
     update_pot   :      8.31s CPU      8.41s WALL (      16 calls)
     forces       :      6.12s CPU      6.26s WALL (      18 calls)
     stress       :     26.69s CPU     27.93s WALL (      18 calls)

     Called by init_run:
     wfcinit      :      0.46s CPU      0.48s WALL (       2 calls)
     potinit      :      0.39s CPU      0.50s WALL (       2 calls)
     hinit0       :      0.58s CPU      0.71s WALL (       2 calls)

     Called by electrons:
     c_bands      :    106.42s CPU    111.46s WALL (     188 calls)
     sum_band     :     11.22s CPU     11.83s WALL (     188 calls)
     v_of_rho     :      1.80s CPU      2.88s WALL (     205 calls)
     mix_rho      :      0.16s CPU      0.29s WALL (     188 calls)

     Called by c_bands:
     init_us_2    :      2.95s CPU      3.20s WALL (   12834 calls)
     init_us_2:cp :      2.93s CPU      3.18s WALL (   12834 calls)
     cegterg      :     96.39s CPU     99.04s WALL (    5828 calls)

     Called by *egterg:
     cdiaghg      :      7.08s CPU      7.34s WALL (   28541 calls)
     h_psi        :     75.79s CPU     77.88s WALL (   29130 calls)
     g_psi        :      0.49s CPU      0.51s WALL (   23240 calls)

     Called by h_psi:
     h_psi:calbec :      9.50s CPU      9.80s WALL (   29130 calls)
     vloc_psi     :     58.07s CPU     59.67s WALL (   29130 calls)
     add_vuspsi   :      7.88s CPU      8.05s WALL (   29130 calls)

     General routines
     calbec       :     11.34s CPU     11.69s WALL (   31920 calls)
     fft          :      1.28s CPU      2.70s WALL (    2499 calls)
     ffts         :      0.06s CPU      0.12s WALL (     188 calls)
     fftw         :     56.51s CPU     58.01s WALL (  625950 calls)

     Parallel routines

     PWSCF        :   2m42.47s CPU   2m51.94s WALL


   This run was terminated on:  14:19:20  27Dec2024            

=------------------------------------------------------------------------------=
   JOB DONE.
=------------------------------------------------------------------------------=
