
     Program PWSCF v.7.2 starts on 26Dec2024 at 19:14:44 

     This program is part of the open-source Quantum ESPRESSO suite
     for quantum simulation of materials; please cite
         "P. Giannozzi et al., J. Phys.:Condens. Matter 21 395502 (2009);
         "P. Giannozzi et al., J. Phys.:Condens. Matter 29 465901 (2017);
         "P. Giannozzi et al., J. Chem. Phys. 152 154105 (2020);
          URL http://www.quantum-espresso.org", 
     in publications or presentations arising from this work. More details at
     http://www.quantum-espresso.org/quote

     Parallel version (MPI & OpenMP), running on       8 processor cores
     Number of MPI processes:                 8
     Threads/MPI process:                     1

     MPI processes distributed on     1 nodes
     484425 MiB available memory on the printing compute node when the environment starts

     Waiting for input...
     Reading input from standard input

     Current dimensions of program PWSCF are:
     Max number of different atomic species (ntypx) = 10
     Max number of k-points (npk) =  40000
     Max angular momentum in pseudopotentials (lmaxx) =  4

     R & G space division:  proc/nbgrp/npool/nimage =       8
     Subspace diagonalization in iterative solution of the eigenvalue problem:
     a serial algorithm will be used


     Parallelization info
     --------------------
     sticks:   dense  smooth     PW     G-vecs:    dense   smooth      PW
     Min          94      94     29                 2348     2348     389
     Max          96      96     30                 2351     2351     392
     Sum         761     761    233                18797    18797    3125

     Using Slab Decomposition



     bravais-lattice index     =            6
     lattice parameter (alat)  =       5.4826  a.u.
     unit-cell volume          =     194.3950 (a.u.)^3
     number of atoms/cell      =            3
     number of atomic types    =            2
     number of electrons       =        10.00
     number of Kohn-Sham states=            9
     kinetic-energy cutoff     =      80.0000  Ry
     charge density cutoff     =     320.0000  Ry
     scf convergence threshold =      1.0E-08
     mixing beta               =       0.7000
     number of iterations used =            8  plain     mixing
     energy convergence thresh.=      1.0E-04
     force convergence thresh. =      1.0E-03
     press convergence thresh. =      1.0E+00
     Exchange-correlation= PBE
                           (   1   4   3   4   0   0   0)
     nstep                     =           50


     celldm(1)=   5.482588  celldm(2)=   0.000000  celldm(3)=   1.179582
     celldm(4)=   0.000000  celldm(5)=   0.000000  celldm(6)=   0.000000

     crystal axes: (cart. coord. in units of alat)
               a(1) = (   1.000000   0.000000   0.000000 )  
               a(2) = (   0.000000   1.000000   0.000000 )  
               a(3) = (   0.000000   0.000000   1.179582 )  

     reciprocal axes: (cart. coord. in units 2 pi/alat)
               b(1) = (  1.000000  0.000000  0.000000 )  
               b(2) = (  0.000000  1.000000  0.000000 )  
               b(3) = (  0.000000  0.000000  0.847758 )  


     PseudoPot. # 1 for Si read from file:
     ../pseudo/Si_ONCV_PBE_sr.upf
     MD5 check sum: e543d271109d17c80368dfa7c482276d
     Pseudo is Norm-conserving + core correction, Zval =  4.0
     Generated using ONCVPSP code by D. R. Hamann
     Using radial grid of 1510 points,  6 beta functions with: 
                l(1) =   0
                l(2) =   0
                l(3) =   1
                l(4) =   1
                l(5) =   2
                l(6) =   2

     PseudoPot. # 2 for Li read from file:
     ../pseudo/Li_ONCV_PBE_sr.upf
     MD5 check sum: 50ff420e78310ffa21704f3361e624a4
     Pseudo is Norm-conserving, Zval =  3.0
     Generated using ONCVPSP code by D. R. Hamann
     Using radial grid of 1944 points,  4 beta functions with: 
                l(1) =   0
                l(2) =   0
                l(3) =   1
                l(4) =   1

     atomic species   valence    mass     pseudopotential
        Si             4.00    28.08550     Si( 1.00)
        Li             3.00     6.94100     Li( 1.00)

      8 Sym. Ops. (no inversion) found



   Cartesian axes

     site n.     atom                  positions (alat units)
         1           Si  tau(   1) = (   0.0000000   0.0000000   0.5897910  )
         2           Li  tau(   2) = (   0.0000000   0.5000000   1.1535521  )
         3           Li  tau(   3) = (   0.5000000   0.0000000   0.0260298  )

     number of k points=    60  Marzari-Vanderbilt smearing, width (Ry)=  0.0200
                       cart. coord. in units 2pi/alat
        k(    1) = (   0.0000000   0.0000000   0.0000000), wk =   0.0044643
        k(    2) = (   0.0000000   0.0000000   0.1211083), wk =   0.0089286
        k(    3) = (   0.0000000   0.0000000   0.2422166), wk =   0.0089286
        k(    4) = (   0.0000000   0.0000000   0.3633249), wk =   0.0089286
        k(    5) = (   0.0000000   0.1250000   0.0000000), wk =   0.0178571
        k(    6) = (   0.0000000   0.1250000   0.1211083), wk =   0.0357143
        k(    7) = (   0.0000000   0.1250000   0.2422166), wk =   0.0357143
        k(    8) = (   0.0000000   0.1250000   0.3633249), wk =   0.0357143
        k(    9) = (   0.0000000   0.2500000   0.0000000), wk =   0.0178571
        k(   10) = (   0.0000000   0.2500000   0.1211083), wk =   0.0357143
        k(   11) = (   0.0000000   0.2500000   0.2422166), wk =   0.0357143
        k(   12) = (   0.0000000   0.2500000   0.3633249), wk =   0.0357143
        k(   13) = (   0.0000000   0.3750000   0.0000000), wk =   0.0178571
        k(   14) = (   0.0000000   0.3750000   0.1211083), wk =   0.0357143
        k(   15) = (   0.0000000   0.3750000   0.2422166), wk =   0.0357143
        k(   16) = (   0.0000000   0.3750000   0.3633249), wk =   0.0357143
        k(   17) = (   0.0000000  -0.5000000   0.0000000), wk =   0.0089286
        k(   18) = (   0.0000000  -0.5000000   0.1211083), wk =   0.0178571
        k(   19) = (   0.0000000  -0.5000000   0.2422166), wk =   0.0178571
        k(   20) = (   0.0000000  -0.5000000   0.3633249), wk =   0.0178571
        k(   21) = (   0.1250000   0.1250000   0.0000000), wk =   0.0178571
        k(   22) = (   0.1250000   0.1250000   0.1211083), wk =   0.0357143
        k(   23) = (   0.1250000   0.1250000   0.2422166), wk =   0.0357143
        k(   24) = (   0.1250000   0.1250000   0.3633249), wk =   0.0357143
        k(   25) = (   0.1250000   0.2500000   0.0000000), wk =   0.0357143
        k(   26) = (   0.1250000   0.2500000   0.1211083), wk =   0.0714286
        k(   27) = (   0.1250000   0.2500000   0.2422166), wk =   0.0714286
        k(   28) = (   0.1250000   0.2500000   0.3633249), wk =   0.0714286
        k(   29) = (   0.1250000   0.3750000   0.0000000), wk =   0.0357143
        k(   30) = (   0.1250000   0.3750000   0.1211083), wk =   0.0714286
        k(   31) = (   0.1250000   0.3750000   0.2422166), wk =   0.0714286
        k(   32) = (   0.1250000   0.3750000   0.3633249), wk =   0.0714286
        k(   33) = (   0.1250000  -0.5000000   0.0000000), wk =   0.0178571
        k(   34) = (   0.1250000  -0.5000000   0.1211083), wk =   0.0357143
        k(   35) = (   0.1250000  -0.5000000   0.2422166), wk =   0.0357143
        k(   36) = (   0.1250000  -0.5000000   0.3633249), wk =   0.0357143
        k(   37) = (   0.2500000   0.2500000   0.0000000), wk =   0.0178571
        k(   38) = (   0.2500000   0.2500000   0.1211083), wk =   0.0357143
        k(   39) = (   0.2500000   0.2500000   0.2422166), wk =   0.0357143
        k(   40) = (   0.2500000   0.2500000   0.3633249), wk =   0.0357143
        k(   41) = (   0.2500000   0.3750000   0.0000000), wk =   0.0357143
        k(   42) = (   0.2500000   0.3750000   0.1211083), wk =   0.0714286
        k(   43) = (   0.2500000   0.3750000   0.2422166), wk =   0.0714286
        k(   44) = (   0.2500000   0.3750000   0.3633249), wk =   0.0714286
        k(   45) = (   0.2500000  -0.5000000   0.0000000), wk =   0.0178571
        k(   46) = (   0.2500000  -0.5000000   0.1211083), wk =   0.0357143
        k(   47) = (   0.2500000  -0.5000000   0.2422166), wk =   0.0357143
        k(   48) = (   0.2500000  -0.5000000   0.3633249), wk =   0.0357143
        k(   49) = (   0.3750000   0.3750000   0.0000000), wk =   0.0178571
        k(   50) = (   0.3750000   0.3750000   0.1211083), wk =   0.0357143
        k(   51) = (   0.3750000   0.3750000   0.2422166), wk =   0.0357143
        k(   52) = (   0.3750000   0.3750000   0.3633249), wk =   0.0357143
        k(   53) = (   0.3750000  -0.5000000   0.0000000), wk =   0.0178571
        k(   54) = (   0.3750000  -0.5000000   0.1211083), wk =   0.0357143
        k(   55) = (   0.3750000  -0.5000000   0.2422166), wk =   0.0357143
        k(   56) = (   0.3750000  -0.5000000   0.3633249), wk =   0.0357143
        k(   57) = (  -0.5000000  -0.5000000   0.0000000), wk =   0.0044643
        k(   58) = (  -0.5000000  -0.5000000   0.1211083), wk =   0.0089286
        k(   59) = (  -0.5000000  -0.5000000   0.2422166), wk =   0.0089286
        k(   60) = (  -0.5000000  -0.5000000   0.3633249), wk =   0.0089286

     Dense  grid:    18797 G-vectors     FFT dimensions: (  32,  32,  40)

     Estimated max dynamical RAM per process >      15.68 MB

     Estimated total dynamical RAM >     125.42 MB

     Initial potential from superposition of free atoms

     starting charge       9.9903, renormalised to      10.0000
     Starting wfcs are    8 randomized atomic wfcs +    1 random wfcs

     total cpu time spent up to now is        0.7 secs

     Self-consistent Calculation

     iteration #  1     ecut=    80.00 Ry     beta= 0.70
     Davidson diagonalization with overlap
     ethr =  1.00E-02,  avg # of iterations =  6.6

     Threshold (ethr) on eigenvalues was too large:
     Diagonalizing with lowered threshold

     Davidson diagonalization with overlap
     ethr =  4.81E-04,  avg # of iterations =  1.8

     total cpu time spent up to now is        1.3 secs

     total energy              =     -37.07645608 Ry
     estimated scf accuracy    <       0.04808103 Ry

     iteration #  2     ecut=    80.00 Ry     beta= 0.70
     Davidson diagonalization with overlap
     ethr =  4.81E-04,  avg # of iterations =  2.0

     total cpu time spent up to now is        1.5 secs

     total energy              =     -37.08207473 Ry
     estimated scf accuracy    <       0.00076689 Ry

     iteration #  3     ecut=    80.00 Ry     beta= 0.70
     Davidson diagonalization with overlap
     ethr =  7.67E-06,  avg # of iterations =  5.5

     total cpu time spent up to now is        1.8 secs

     total energy              =     -37.08215585 Ry
     estimated scf accuracy    <       0.00004624 Ry

     iteration #  4     ecut=    80.00 Ry     beta= 0.70
     Davidson diagonalization with overlap
     ethr =  4.62E-07,  avg # of iterations =  1.9

     total cpu time spent up to now is        2.1 secs

     total energy              =     -37.08215897 Ry
     estimated scf accuracy    <       0.00000047 Ry

     iteration #  5     ecut=    80.00 Ry     beta= 0.70
     Davidson diagonalization with overlap
     ethr =  4.67E-09,  avg # of iterations =  3.1

     total cpu time spent up to now is        2.3 secs

     total energy              =     -37.08215919 Ry
     estimated scf accuracy    <       0.00000003 Ry

     iteration #  6     ecut=    80.00 Ry     beta= 0.70
     Davidson diagonalization with overlap
     ethr =  2.61E-10,  avg # of iterations =  1.8

     total cpu time spent up to now is        2.5 secs

     End of self-consistent calculation

          k = 0.0000 0.0000 0.0000 (  2339 PWs)   bands (ev):

   -38.1495 -37.5745  -2.2297   6.2280  10.7540  10.7540  12.5761  15.3480
    15.3601

          k = 0.0000 0.0000 0.1211 (  2331 PWs)   bands (ev):

   -38.1485 -37.5742  -2.1912   5.6146  10.9910  10.9910  13.6731  15.0296
    15.7078

          k = 0.0000 0.0000 0.2422 (  2342 PWs)   bands (ev):

   -38.1460 -37.5735  -2.0980   4.5889  11.7006  11.7006  14.4296  15.6996
    16.6924

          k = 0.0000 0.0000 0.3633 (  2334 PWs)   bands (ev):

   -38.1441 -37.5730  -2.0154   3.9397  12.8684  12.8684  14.0771  14.5888
    14.5888

          k = 0.0000 0.1250 0.0000 (  2337 PWs)   bands (ev):

   -38.1261 -37.5947  -2.0210   6.4628   8.8340  10.9863  12.8085  15.2545
    17.4680

          k = 0.0000 0.1250 0.1211 (  2341 PWs)   bands (ev):

   -38.1250 -37.5944  -1.9748   5.7939   9.0837  11.2227  13.8593  14.9550
    17.4877

          k = 0.0000 0.1250 0.2422 (  2344 PWs)   bands (ev):

   -38.1227 -37.5937  -1.8623   4.7089   9.6804  11.9302  13.6578  16.3756
    16.9150

          k = 0.0000 0.1250 0.3633 (  2352 PWs)   bands (ev):

   -38.1209 -37.5931  -1.7613   4.0268  10.4315  12.5885  13.0906  14.8241
    16.0229

          k = 0.0000 0.2500 0.0000 (  2332 PWs)   bands (ev):

   -38.0599 -37.6530  -1.4117   6.1896   7.1773  11.6605  12.7798  14.9052
    16.2614

          k = 0.0000 0.2500 0.1211 (  2340 PWs)   bands (ev):

   -38.0590 -37.6526  -1.3429   6.0322   6.7464  11.8948  13.2176  14.3453
    17.3227

          k = 0.0000 0.2500 0.2422 (  2352 PWs)   bands (ev):

   -38.0570 -37.6518  -1.1714   5.0196   6.9818  11.6835  12.5943  16.6286
    17.5484

          k = 0.0000 0.2500 0.3633 (  2345 PWs)   bands (ev):

   -38.0553 -37.6512  -1.0119   4.2728   7.4629  10.5310  13.7257  15.5145
    17.1472

          k = 0.0000 0.3750 0.0000 (  2346 PWs)   bands (ev):

   -37.9627 -37.7423  -0.4950   4.0120   8.2035  12.6517  12.6787  13.5877
    14.6721

          k = 0.0000 0.3750 0.1211 (  2351 PWs)   bands (ev):

   -37.9620 -37.7419  -0.3887   4.1166   7.2337  11.6800  12.8801  14.3756
    16.6020

          k = 0.0000 0.3750 0.2422 (  2361 PWs)   bands (ev):

   -37.9603 -37.7409  -0.1141   4.3763   5.7892  10.0218  13.5583  17.0311
    18.3406

          k = 0.0000 0.3750 0.3633 (  2360 PWs)   bands (ev):

   -37.9590 -37.7401   0.1602   4.4935   5.0196   9.0185  14.6134  16.5729
    18.2632

          k = 0.0000-0.5000 0.0000 (  2336 PWs)   bands (ev):

   -37.8527 -37.8491   0.1622   2.9272   8.9323  12.1834  12.8811  13.3174
    14.4305

          k = 0.0000-0.5000 0.1211 (  2348 PWs)   bands (ev):

   -37.8520 -37.8486   0.3053   3.0065   7.7415  10.8431  13.5380  14.4876
    16.2248

          k = 0.0000-0.5000 0.2422 (  2358 PWs)   bands (ev):

   -37.8506 -37.8475   0.6929   3.2066   6.0283   9.3107  14.1877  17.2635
    17.9971

          k = 0.0000-0.5000 0.3633 (  2366 PWs)   bands (ev):

   -37.8494 -37.8466   1.1222   3.3972   4.8771   8.4258  15.1491  17.4088
    18.9481

          k = 0.1250 0.1250 0.0000 (  2333 PWs)   bands (ev):

   -38.1042 -37.6131  -1.8145   6.6989   8.6022   9.5243  12.9530  17.0154
    17.5365

          k = 0.1250 0.1250 0.1211 (  2337 PWs)   bands (ev):

   -38.1032 -37.6128  -1.7605   5.9643   8.9487   9.6382  14.0867  16.1771
    16.9311

          k = 0.1250 0.1250 0.2422 (  2348 PWs)   bands (ev):

   -38.1010 -37.6121  -1.6279   4.8198   9.7327   9.9310  14.5767  14.8931
    17.0884

          k = 0.1250 0.1250 0.3633 (  2350 PWs)   bands (ev):

   -38.0992 -37.6115  -1.5075   4.1051  10.2019  10.9493  12.6007  14.1579
    18.2321

          k = 0.1250 0.2500 0.0000 (  2348 PWs)   bands (ev):

   -38.0425 -37.6664  -1.2124   6.3263   7.4061   9.7127  12.8307  16.3787
    16.5890

          k = 0.1250 0.2500 0.1211 (  2337 PWs)   bands (ev):

   -38.0416 -37.6661  -1.1353   6.1463   6.9479   9.8705  13.7972  14.8086
    17.8258

          k = 0.1250 0.2500 0.2422 (  2347 PWs)   bands (ev):

   -38.0397 -37.6653  -0.9417   5.0995   7.1744  10.1121  12.7976  15.7280
    17.1649

          k = 0.1250 0.2500 0.3633 (  2345 PWs)   bands (ev):

   -38.0381 -37.6646  -0.7589   4.3244   7.6412  10.1641  11.9719  14.7239
    19.6872

          k = 0.1250 0.3750 0.0000 (  2350 PWs)   bands (ev):

   -37.9521 -37.7484  -0.3107   4.1975   8.4409  10.3649  12.6496  13.8821
    15.5631

          k = 0.1250 0.3750 0.1211 (  2345 PWs)   bands (ev):

   -37.9514 -37.7480  -0.1954   4.3020   7.3542  10.4893  12.4292  14.3866
    16.7735

          k = 0.1250 0.3750 0.2422 (  2355 PWs)   bands (ev):

   -37.9498 -37.7470   0.1056   4.5486   5.8727   9.7654  12.3044  16.2517
    17.2018

          k = 0.1250 0.3750 0.3633 (  2356 PWs)   bands (ev):

   -37.9485 -37.7463   0.4121   4.5474   5.1927   8.9835  12.6653  15.7578
    18.0657

          k = 0.1250-0.5000 0.0000 (  2350 PWs)   bands (ev):

   -37.8500 -37.8470   0.3278   3.1401   9.1714  10.7411  12.3025  12.9376
    15.0186

          k = 0.1250-0.5000 0.1211 (  2360 PWs)   bands (ev):

   -37.8494 -37.8465   0.4806   3.2213   7.7913  10.7701  11.6985  14.4201
    16.0320

          k = 0.1250-0.5000 0.2422 (  2358 PWs)   bands (ev):

   -37.8480 -37.8454   0.8985   3.4256   6.0430   9.3150  12.5878  15.8007
    17.7499

          k = 0.1250-0.5000 0.3633 (  2350 PWs)   bands (ev):

   -37.8469 -37.8445   1.3750   3.6197   4.8578   8.4748  13.2093  16.6311
    17.0221

          k = 0.2500 0.2500 0.0000 (  2355 PWs)   bands (ev):

   -37.9937 -37.7056  -0.6345   6.2784   7.7248   8.1317  12.1224  16.3856
    17.0818

          k = 0.2500 0.2500 0.1211 (  2345 PWs)   bands (ev):

   -37.9929 -37.7053  -0.5328   6.1816   7.4508   7.8237  13.1117  15.1701
    15.9118

          k = 0.2500 0.2500 0.2422 (  2349 PWs)   bands (ev):

   -37.9912 -37.7044  -0.2714   5.2806   7.6313   7.8358  12.2566  14.8495
    16.0008

          k = 0.2500 0.2500 0.3633 (  2349 PWs)   bands (ev):

   -37.9898 -37.7038  -0.0129   4.4639   7.7377   8.7766  10.3328  14.4303
    17.4668

          k = 0.2500 0.3750 0.0000 (  2351 PWs)   bands (ev):

   -37.9228 -37.7669   0.2154   4.7177   8.0342   9.1388  11.0692  14.3073
    16.0890

          k = 0.2500 0.3750 0.1211 (  2354 PWs)   bands (ev):

   -37.9222 -37.7664   0.3577   4.8177   7.4269   8.6364  11.6757  13.8913
    16.1508

          k = 0.2500 0.3750 0.2422 (  2352 PWs)   bands (ev):

   -37.9208 -37.7655   0.7392   4.9747   6.1472   8.5447  11.0315  14.4133
    15.4325

          k = 0.2500 0.3750 0.3633 (  2355 PWs)   bands (ev):

   -37.9196 -37.7647   1.1539   4.6184   5.7566   8.7292   9.9900  14.8551
    15.2517

          k = 0.2500-0.5000 0.0000 (  2366 PWs)   bands (ev):

   -37.8437 -37.8420   0.7909   3.7775   8.5528   9.8839  10.3833  13.0769
    15.7674

          k = 0.2500-0.5000 0.1211 (  2358 PWs)   bands (ev):

   -37.8432 -37.8415   0.9714   3.8614   7.6106   9.9360  10.1474  13.3280
    16.2582

          k = 0.2500-0.5000 0.2422 (  2344 PWs)   bands (ev):

   -37.8420 -37.8404   1.4795   4.0679   6.0603   9.1335  10.3113  13.7735
    15.9924

          k = 0.2500-0.5000 0.3633 (  2352 PWs)   bands (ev):

   -37.8410 -37.8396   2.1166   4.2574   4.8202   8.5826  10.3502  14.1683
    15.5556

          k = 0.3750 0.3750 0.0000 (  2353 PWs)   bands (ev):

   -37.8816 -37.7972   0.9530   5.1859   6.5795   9.2828  10.2008  14.7994
    15.5569

          k = 0.3750 0.3750 0.1211 (  2348 PWs)   bands (ev):

   -37.8811 -37.7967   1.1389   5.2777   6.5044   8.3985  10.3879  14.2330
    14.7676

          k = 0.3750 0.3750 0.2422 (  2354 PWs)   bands (ev):

   -37.8799 -37.7958   1.6596   5.2743   6.3417   7.4209   9.8531  13.3772
    14.6301

          k = 0.3750 0.3750 0.3633 (  2344 PWs)   bands (ev):

   -37.8789 -37.7950   2.3079   4.6761   6.2314   7.4989   8.9382  12.9600
    14.5468

          k = 0.3750-0.5000 0.0000 (  2362 PWs)   bands (ev):

   -37.8374 -37.8369   1.4044   4.8339   6.8722   8.1830  10.9862  13.8871
    15.5568

          k = 0.3750-0.5000 0.1211 (  2354 PWs)   bands (ev):

   -37.8369 -37.8364   1.6258   4.9082   6.6679   8.1817   9.9930  13.7505
    15.0339

          k = 0.3750-0.5000 0.2422 (  2338 PWs)   bands (ev):

   -37.8359 -37.8354   2.2722   5.0607   5.9986   8.2971   8.5123  13.0413
    14.8658

          k = 0.3750-0.5000 0.3633 (  2346 PWs)   bands (ev):

   -37.8350 -37.8346   3.2343   4.8785   5.1606   7.7612   8.5969  11.9887
    14.8088

          k =-0.5000-0.5000 0.0000 (  2360 PWs)   bands (ev):

   -37.8348 -37.8348   1.7451   6.1721   6.1721   6.4511  11.8621  14.3449
    14.3449

          k =-0.5000-0.5000 0.1211 (  2344 PWs)   bands (ev):

   -37.8343 -37.8343   1.9941   6.0786   6.0786   6.6976  10.1998  14.3911
    14.3912

          k =-0.5000-0.5000 0.2422 (  2356 PWs)   bands (ev):

   -37.8333 -37.8333   2.7357   5.8777   5.8777   7.4189   7.8083  13.2185
    14.4855

          k =-0.5000-0.5000 0.3633 (  2344 PWs)   bands (ev):

   -37.8325 -37.8325   3.9380   5.7247   5.7247   5.7249   8.4585  11.1627
    14.5531

     the Fermi energy is     8.3626 ev

!    total energy              =     -37.08215919 Ry
     estimated scf accuracy    <          1.9E-10 Ry
     smearing contrib. (-TS)   =      -0.00041340 Ry
     internal energy E=F+TS    =     -37.08174579 Ry

     The total energy is F=E-TS. E is the sum of the following terms:
     one-electron contribution =      -9.88036583 Ry
     hartree contribution      =       6.45674273 Ry
     xc contribution           =     -10.24921470 Ry
     ewald contribution        =     -23.40890800 Ry

     convergence has been achieved in   6 iterations

     Forces acting on atoms (cartesian axes, Ry/au):

     atom    1 type  1   force =     0.00000000    0.00000000    0.00000000
     atom    2 type  2   force =     0.00000000    0.00000000    0.02714614
     atom    3 type  2   force =     0.00000000    0.00000000   -0.02714614
     The non-local contrib.  to forces
     atom    1 type  1   force =     0.00000000    0.00000000    0.00000000
     atom    2 type  2   force =     0.00000000    0.00000000    0.01516241
     atom    3 type  2   force =     0.00000000    0.00000000   -0.01516241
     The ionic contribution  to forces
     atom    1 type  1   force =    -0.00000000   -0.00000000    0.00000000
     atom    2 type  2   force =    -0.00000000   -0.00000000   -0.00540346
     atom    3 type  2   force =     0.00000000   -0.00000000    0.00540346
     The local contribution  to forces
     atom    1 type  1   force =     0.00000000   -0.00000000   -0.00000000
     atom    2 type  2   force =    -0.00000000    0.00000000    0.01738621
     atom    3 type  2   force =     0.00000000    0.00000000   -0.01738621
     The core correction contribution to forces
     atom    1 type  1   force =    -0.00000000    0.00000000   -0.00000000
     atom    2 type  2   force =     0.00000000    0.00000000    0.00000000
     atom    3 type  2   force =     0.00000000    0.00000000    0.00000000
     The Hubbard contrib.    to forces
     atom    1 type  1   force =     0.00000000    0.00000000    0.00000000
     atom    2 type  2   force =     0.00000000    0.00000000    0.00000000
     atom    3 type  2   force =     0.00000000    0.00000000    0.00000000
     The SCF correction term to forces
     atom    1 type  1   force =    -0.00000000   -0.00000000   -0.00000000
     atom    2 type  2   force =    -0.00000000    0.00000000    0.00000099
     atom    3 type  2   force =    -0.00000000    0.00000000   -0.00000099

     Total force =     0.038390     Total SCF correction =     0.000001


     Computing stress (Cartesian axis) and pressure

          total   stress  (Ry/bohr**3)                   (kbar)     P=      485.33
   0.00259068   0.00000000   0.00000000          381.10        0.00        0.00
   0.00000000   0.00259068   0.00000000            0.00      381.10        0.00
   0.00000000   0.00000000   0.00471635            0.00        0.00      693.80


     BFGS Geometry Optimization
     Energy error            =      0.0E+00 Ry
     Gradient error          =      2.7E-02 Ry/Bohr
     Cell gradient error     =      1.9E+02 kbar

     number of scf cycles    =   1
     number of bfgs steps    =   0

     enthalpy           new  =     -36.4214240859 Ry

     new trust radius        =       0.0918410145 bohr
ibrav =      6
 celldm(1) =      5.37180571
 celldm(3) =      1.24355976
Input lattice vectors:
     0.97979372     0.00000000     0.00000000
     0.00000000     0.97979372     0.00000000
     0.00000000     0.00000000     1.21843204
New lattice vectors in INITIAL alat:
     0.97979372     0.00000000     0.00000000
     0.00000000     0.97979372     0.00000000
     0.00000000     0.00000000     1.21843204
New lattice vectors in NEW alat (for information only):
     1.00000000     0.00000000     0.00000000
     0.00000000     1.00000000     0.00000000
     0.00000000     0.00000000     1.24355976
Discrepancy in bohr =     0.000000    0.000000    0.000000
     new conv_thr            =       0.0000000100 Ry

     new unit-cell volume =    192.76472 a.u.^3 (    28.56478 Ang^3 )
     density =      2.43967 g/cm^3

CELL_PARAMETERS (alat=  5.48258842)
   0.979793722   0.000000000   0.000000000
   0.000000000   0.979793722   0.000000000
   0.000000000   0.000000000   1.218432041

ATOMIC_POSITIONS (crystal)
Si            0.0000000000        0.0000000000        0.5000000000
Li            0.0000000000        0.5000000000        0.9821305355
Li            0.5000000000        0.0000000000        0.0178694645



     Writing config-only to output data dir ./output/SiLi.save/
     NEW-OLD atomic charge density approx. for the potential
     extrapolated charge    9.91551, renormalised to   10.00000

     total cpu time spent up to now is        3.4 secs

     Self-consistent Calculation

     iteration #  1     ecut=    80.00 Ry     beta= 0.70
     Davidson diagonalization with overlap
     ethr =  1.00E-06,  avg # of iterations =  7.5

     total cpu time spent up to now is        3.9 secs

     total energy              =     -37.09086293 Ry
     estimated scf accuracy    <       0.00071425 Ry

     iteration #  2     ecut=    80.00 Ry     beta= 0.70
     Davidson diagonalization with overlap
     ethr =  7.14E-06,  avg # of iterations =  2.2

     total cpu time spent up to now is        4.2 secs

     total energy              =     -37.09129562 Ry
     estimated scf accuracy    <       0.00040804 Ry

     iteration #  3     ecut=    80.00 Ry     beta= 0.70
     Davidson diagonalization with overlap
     ethr =  4.08E-06,  avg # of iterations =  1.2

     total cpu time spent up to now is        4.4 secs

     total energy              =     -37.09132500 Ry
     estimated scf accuracy    <       0.00002340 Ry

     iteration #  4     ecut=    80.00 Ry     beta= 0.70
     Davidson diagonalization with overlap
     ethr =  2.34E-07,  avg # of iterations =  2.1

     total cpu time spent up to now is        4.7 secs

     total energy              =     -37.09133072 Ry
     estimated scf accuracy    <       0.00000063 Ry

     iteration #  5     ecut=    80.00 Ry     beta= 0.70
     Davidson diagonalization with overlap
     ethr =  6.26E-09,  avg # of iterations =  1.5

     total cpu time spent up to now is        4.9 secs

     total energy              =     -37.09133081 Ry
     estimated scf accuracy    <       0.00000002 Ry

     iteration #  6     ecut=    80.00 Ry     beta= 0.70
     Davidson diagonalization with overlap
     ethr =  1.59E-10,  avg # of iterations =  2.6

     total cpu time spent up to now is        5.2 secs

     End of self-consistent calculation

          k = 0.0000 0.0000 0.0000 (  2339 PWs)   bands (ev):

   -38.1825 -37.5145  -2.2383   5.6845  11.4898  11.4898  12.4091  15.6384
    15.8914

          k = 0.0000 0.0000 0.1172 (  2331 PWs)   bands (ev):

   -38.1817 -37.5143  -2.2204   5.2305  11.7116  11.7116  13.3863  15.3759
    16.1299

          k = 0.0000 0.0000 0.2345 (  2342 PWs)   bands (ev):

   -38.1799 -37.5139  -2.1780   4.4380  12.3758  12.3758  14.7954  15.7301
    16.8310

          k = 0.0000 0.0000 0.3517 (  2334 PWs)   bands (ev):

   -38.1785 -37.5135  -2.1416   3.9293  13.4715  13.4715  14.5054  15.0684
    15.0684

          k = 0.0000 0.1276 0.0000 (  2337 PWs)   bands (ev):

   -38.1552 -37.5379  -2.0120   5.9355   9.3732  11.7354  12.5866  15.5687
    18.1883

          k = 0.0000 0.1276 0.1172 (  2341 PWs)   bands (ev):

   -38.1545 -37.5377  -1.9866   5.4350   9.5980  11.9567  13.5446  15.1417
    18.1786

          k = 0.0000 0.1276 0.2345 (  2344 PWs)   bands (ev):

   -38.1528 -37.5373  -1.9263   4.5809  10.1485  12.6190  13.9494  15.9411
    17.2757

          k = 0.0000 0.1276 0.3517 (  2352 PWs)   bands (ev):

   -38.1514 -37.5370  -1.8740   4.0373  10.8286  12.9328  13.7079  15.3170
    16.4950

          k = 0.0000 0.2552 0.0000 (  2332 PWs)   bands (ev):

   -38.0784 -37.6057  -1.3478   6.5070   6.7440  12.4518  12.5770  15.0351
    16.0560

          k = 0.0000 0.2552 0.1172 (  2340 PWs)   bands (ev):

   -38.0778 -37.6054  -1.3006   5.9523   6.8598  12.6710  13.2289  13.9867
    17.4052

          k = 0.0000 0.2552 0.2345 (  2352 PWs)   bands (ev):

   -38.0763 -37.6049  -1.1858   4.9751   7.2477  11.8020  13.3258  16.1986
    17.9581

          k = 0.0000 0.2552 0.3517 (  2345 PWs)   bands (ev):

   -38.0751 -37.6045  -1.0828   4.3469   7.7015  10.7142  14.3871  16.0497
    17.5588

          k = 0.0000 0.3827 0.0000 (  2346 PWs)   bands (ev):

   -37.9655 -37.7095  -0.3292   4.2118   7.8044  12.5235  13.3350  13.5218
    14.4869

          k = 0.0000 0.3827 0.1172 (  2351 PWs)   bands (ev):

   -37.9650 -37.7092  -0.2459   4.3068   7.0089  11.5472  13.7353  14.0428
    16.3781

          k = 0.0000 0.3827 0.2345 (  2361 PWs)   bands (ev):

   -37.9638 -37.7085  -0.0351   4.5434   5.7765   9.9846  14.3689  16.6599
    18.8750

          k = 0.0000 0.3827 0.3517 (  2360 PWs)   bands (ev):

   -37.9629 -37.7080   0.1669   4.6707   5.1088   9.0495  15.3528  17.1904
    18.6434

          k = 0.0000-0.5103 0.0000 (  2336 PWs)   bands (ev):

   -37.8373 -37.8339   0.4464   2.9869   8.6255  11.7775  12.7975  14.1519
    14.2707

          k = 0.0000-0.5103 0.1172 (  2348 PWs)   bands (ev):

   -37.8368 -37.8336   0.5682   3.0546   7.6124  10.5825  14.2456  14.4755
    15.8196

          k = 0.0000-0.5103 0.2345 (  2358 PWs)   bands (ev):

   -37.8358 -37.8328   0.8924   3.2240   6.1009   9.1768  15.0770  16.9921
    18.6743

          k = 0.0000-0.5103 0.3517 (  2366 PWs)   bands (ev):

   -37.8350 -37.8322   1.2364   3.3826   5.0989   8.3694  15.9558  18.1382
    19.2850

          k = 0.1276 0.1276 0.0000 (  2333 PWs)   bands (ev):

   -38.1298 -37.5593  -1.7876   6.1870   9.1633  10.0344  12.6992  17.4548
    18.2554

          k = 0.1276 0.1276 0.1172 (  2337 PWs)   bands (ev):

   -38.1291 -37.5591  -1.7548   5.6332   9.4752  10.1266  13.6780  16.5283
    17.1689

          k = 0.1276 0.1276 0.2345 (  2348 PWs)   bands (ev):

   -38.1275 -37.5587  -1.6759   4.7154  10.2232  10.3601  14.7680  15.2655
    16.4351

          k = 0.1276 0.1276 0.3517 (  2350 PWs)   bands (ev):

   -38.1262 -37.5583  -1.6067   4.1367  10.5724  11.3666  12.9384  14.6269
    18.8876

          k = 0.1276 0.2552 0.0000 (  2348 PWs)   bands (ev):

   -38.0581 -37.6212  -1.1300   6.6849   6.9617  10.2143  12.6274  16.2224
    16.9311

          k = 0.1276 0.2552 0.1172 (  2337 PWs)   bands (ev):

   -38.0575 -37.6210  -1.0749   6.1113   7.0529  10.3381  13.5521  14.7894
    18.0244

          k = 0.1276 0.2552 0.2345 (  2347 PWs)   bands (ev):

   -38.0561 -37.6205  -0.9395   5.0809   7.4447  10.4699  13.0481  15.9252
    16.7482

          k = 0.1276 0.2552 0.3517 (  2345 PWs)   bands (ev):

   -38.0550 -37.6201  -0.8164   4.4198   7.8894  10.3680  12.4045  15.1822
    19.4703

          k = 0.1276 0.3827 0.0000 (  2350 PWs)   bands (ev):

   -37.9531 -37.7165  -0.1252   4.4070   8.0559  10.8089  12.5713  13.5922
    15.8566

          k = 0.1276 0.3827 0.1172 (  2345 PWs)   bands (ev):

   -37.9526 -37.7162  -0.0330   4.5023   7.1647  10.7487  12.5129  14.2306
    16.9347

          k = 0.1276 0.3827 0.2345 (  2355 PWs)   bands (ev):

   -37.9515 -37.7156   0.2024   4.7278   5.8816   9.7947  12.7977  16.2980
    17.4404

          k = 0.1276 0.3827 0.3517 (  2356 PWs)   bands (ev):

   -37.9506 -37.7150   0.4321   4.7429   5.2959   9.0138  13.2031  16.2462
    18.4839

          k = 0.1276-0.5103 0.0000 (  2350 PWs)   bands (ev):

   -37.8342 -37.8313   0.6318   3.2091   8.8783  11.1078  11.9783  12.9251
    15.3182

          k = 0.1276-0.5103 0.1172 (  2360 PWs)   bands (ev):

   -37.8338 -37.8310   0.7632   3.2793   7.7066  10.5774  12.1100  14.4575
    16.0502

          k = 0.1276-0.5103 0.2345 (  2358 PWs)   bands (ev):

   -37.8328 -37.8303   1.1170   3.4544   6.1348   9.2021  13.1738  16.1006
    17.8270

          k = 0.1276-0.5103 0.3517 (  2350 PWs)   bands (ev):

   -37.8320 -37.8297   1.5032   3.6185   5.0932   8.4209  13.8209  17.1912
    17.4238

          k = 0.2552 0.2552 0.0000 (  2355 PWs)   bands (ev):

   -38.0013 -37.6667  -0.4945   6.6971   7.6463   8.1045  12.0513  16.3994
    17.1895

          k = 0.2552 0.2552 0.1172 (  2345 PWs)   bands (ev):

   -38.0007 -37.6664  -0.4157   6.3742   7.4544   8.0824  13.0137  15.0979
    15.9752

          k = 0.2552 0.2552 0.2345 (  2349 PWs)   bands (ev):

   -37.9995 -37.6659  -0.2173   5.3484   7.9266   8.0734  12.3654  15.0775
    15.9582

          k = 0.2552 0.2552 0.3517 (  2349 PWs)   bands (ev):

   -37.9985 -37.6654  -0.0289   4.6205   7.9922   9.0263  10.5311  14.7810
    17.8549

          k = 0.2552 0.3827 0.0000 (  2351 PWs)   bands (ev):

   -37.9189 -37.7376   0.4627   4.9565   8.3794   8.7973  11.1899  14.0861
    16.1054

          k = 0.2552 0.3827 0.1172 (  2354 PWs)   bands (ev):

   -37.9184 -37.7374   0.5812   5.0473   7.4614   8.7605  11.7853  13.7774
    16.0945

          k = 0.2552 0.3827 0.2345 (  2352 PWs)   bands (ev):

   -37.9174 -37.7367   0.8925   5.1831   6.2259   8.7260  11.2144  14.5958
    15.6008

          k = 0.2552 0.3827 0.3517 (  2355 PWs)   bands (ev):

   -37.9167 -37.7363   1.2153   4.8567   5.9041   8.7918  10.3247  15.1570
    15.6021

          k = 0.2552-0.5103 0.0000 (  2366 PWs)   bands (ev):

   -37.8267 -37.8251   1.1554   3.8731   8.9074   9.6333  10.5889  12.7293
    15.7079

          k = 0.2552-0.5103 0.1172 (  2358 PWs)   bands (ev):

   -37.8264 -37.8247   1.3149   3.9474   7.7164  10.0027  10.3295  13.2333
    16.0821

          k = 0.2552-0.5103 0.2345 (  2344 PWs)   bands (ev):

   -37.8255 -37.8240   1.7579   4.1301   6.2008   9.1068  10.7183  13.9514
    16.1144

          k = 0.2552-0.5103 0.3517 (  2352 PWs)   bands (ev):

   -37.8248 -37.8235   2.2896   4.2973   5.0844   8.5377  10.8145  14.4324
    15.8695

          k = 0.3827 0.3827 0.0000 (  2353 PWs)   bands (ev):

   -37.8708 -37.7727   1.3130   5.4452   6.7922   9.4998   9.9373  14.6590
    15.4283

          k = 0.3827 0.3827 0.1172 (  2348 PWs)   bands (ev):

   -37.8704 -37.7724   1.4750   5.5282   6.7124   8.3964  10.5155  14.0641
    14.6967

          k = 0.3827 0.3827 0.2345 (  2354 PWs)   bands (ev):

   -37.8696 -37.7717   1.9217   5.4972   6.5417   7.5090  10.0355  13.4117
    14.7168

          k = 0.3827 0.3827 0.3517 (  2344 PWs)   bands (ev):

   -37.8689 -37.7712   2.4494   4.9550   6.4219   7.7379   8.9828  13.1649
    14.7398

          k = 0.3827-0.5103 0.0000 (  2362 PWs)   bands (ev):

   -37.8193 -37.8188   1.8698   4.9693   7.1292   8.3980  10.8103  13.6273
    15.4189

          k = 0.3827-0.5103 0.1172 (  2354 PWs)   bands (ev):

   -37.8190 -37.8185   2.0717   5.0361   6.8941   8.3654  10.0047  13.5711
    14.9247

          k = 0.3827-0.5103 0.2345 (  2338 PWs)   bands (ev):

   -37.8182 -37.8178   2.6576   5.1756   6.1823   8.3945   8.7616  12.9949
    14.9132

          k = 0.3827-0.5103 0.3517 (  2346 PWs)   bands (ev):

   -37.8177 -37.8173   3.5040   5.1447   5.2705   8.1035   8.5757  12.0841
    14.9791

          k =-0.5103-0.5103 0.0000 (  2360 PWs)   bands (ev):

   -37.8162 -37.8162   2.2870   6.3507   6.3507   6.6329  11.7839  14.1522
    14.1522

          k =-0.5103-0.5103 0.1172 (  2344 PWs)   bands (ev):

   -37.8159 -37.8159   2.5202   6.2541   6.2541   6.8606  10.2246  14.2661
    14.2661

          k =-0.5103-0.5103 0.2345 (  2356 PWs)   bands (ev):

   -37.8152 -37.8152   3.2143   6.0488   6.0488   7.5232   7.9803  13.0282
    14.5033

          k =-0.5103-0.5103 0.3517 (  2344 PWs)   bands (ev):

   -37.8147 -37.8147   4.3359   5.8944   5.8944   6.0306   8.4534  11.1531
    14.6768

     the Fermi energy is     8.3971 ev

!    total energy              =     -37.09133082 Ry
     estimated scf accuracy    <          7.8E-10 Ry
     smearing contrib. (-TS)   =       0.00003299 Ry
     internal energy E=F+TS    =     -37.09136381 Ry

     The total energy is F=E-TS. E is the sum of the following terms:
     one-electron contribution =      -9.78679203 Ry
     hartree contribution      =       6.43691805 Ry
     xc contribution           =     -10.25095098 Ry
     ewald contribution        =     -23.49053884 Ry

     convergence has been achieved in   6 iterations

     Forces acting on atoms (cartesian axes, Ry/au):

     atom    1 type  1   force =     0.00000000    0.00000000    0.00000000
     atom    2 type  2   force =     0.00000000    0.00000000    0.02071979
     atom    3 type  2   force =     0.00000000    0.00000000   -0.02071979
     The non-local contrib.  to forces
     atom    1 type  1   force =     0.00000000    0.00000000    0.00000000
     atom    2 type  2   force =     0.00000000    0.00000000    0.01694713
     atom    3 type  2   force =     0.00000000    0.00000000   -0.01694713
     The ionic contribution  to forces
     atom    1 type  1   force =    -0.00000000   -0.00000000    0.00000000
     atom    2 type  2   force =    -0.00000000   -0.00000000   -0.02067502
     atom    3 type  2   force =     0.00000000   -0.00000000    0.02067502
     The local contribution  to forces
     atom    1 type  1   force =    -0.00000000   -0.00000000   -0.00000000
     atom    2 type  2   force =    -0.00000000    0.00000000    0.02445355
     atom    3 type  2   force =     0.00000000   -0.00000000   -0.02445355
     The core correction contribution to forces
     atom    1 type  1   force =     0.00000000    0.00000000   -0.00000000
     atom    2 type  2   force =     0.00000000    0.00000000    0.00000000
     atom    3 type  2   force =     0.00000000    0.00000000    0.00000000
     The Hubbard contrib.    to forces
     atom    1 type  1   force =     0.00000000    0.00000000    0.00000000
     atom    2 type  2   force =     0.00000000    0.00000000    0.00000000
     atom    3 type  2   force =     0.00000000    0.00000000    0.00000000
     The SCF correction term to forces
     atom    1 type  1   force =     0.00000000   -0.00000000    0.00000000
     atom    2 type  2   force =    -0.00000000    0.00000000   -0.00000588
     atom    3 type  2   force =    -0.00000000    0.00000000    0.00000588

     Total force =     0.029302     Total SCF correction =     0.000008


     Computing stress (Cartesian axis) and pressure

          total   stress  (Ry/bohr**3)                   (kbar)     P=      472.77
   0.00265939   0.00000000   0.00000000          391.21        0.00        0.00
   0.00000000   0.00265939   0.00000000            0.00      391.21        0.00
   0.00000000   0.00000000   0.00432263            0.00        0.00      635.88

     Energy error            =      1.5E-02 Ry
     Gradient error          =      2.1E-02 Ry/Bohr
     Cell gradient error     =      1.4E+02 kbar

     number of scf cycles    =   2
     number of bfgs steps    =   1

     enthalpy           old  =     -36.4214240859 Ry
     enthalpy           new  =     -36.4361368552 Ry

     CASE: enthalpy          _new < enthalpy          _old

     new trust radius        =       0.1328085342 bohr
ibrav =      6
 celldm(1) =      5.14872356
 celldm(3) =      1.35949427
Input lattice vectors:
     0.93910452     0.00000000     0.00000000
     0.00000000     0.93910452     0.00000000
     0.00000000     0.00000000     1.27670721
New lattice vectors in INITIAL alat:
     0.93910452     0.00000000     0.00000000
     0.00000000     0.93910452     0.00000000
     0.00000000     0.00000000     1.27670721
New lattice vectors in NEW alat (for information only):
     1.00000000     0.00000000     0.00000000
     0.00000000     1.00000000     0.00000000
     0.00000000     0.00000000     1.35949427
Discrepancy in bohr =     0.000000    0.000000    0.000000
     new conv_thr            =       0.0000000021 Ry

     new unit-cell volume =    185.55647 a.u.^3 (    27.49663 Ang^3 )
     density =      2.53444 g/cm^3

CELL_PARAMETERS (alat=  5.48258842)
   0.939104518   0.000000000   0.000000000
   0.000000000   0.939104518   0.000000000
   0.000000000   0.000000000   1.276707208

ATOMIC_POSITIONS (crystal)
Si            0.0000000000        0.0000000000        0.5000000000
Li            0.0000000000        0.5000000000        0.9894098653
Li            0.5000000000        0.0000000000        0.0105901347



     Writing config-only to output data dir ./output/SiLi.save/
     NEW-OLD atomic charge density approx. for the potential
     extrapolated charge    9.61191, renormalised to   10.00000

     total cpu time spent up to now is        6.0 secs

     Self-consistent Calculation

     iteration #  1     ecut=    80.00 Ry     beta= 0.70
     Davidson diagonalization with overlap
     ethr =  1.00E-06,  avg # of iterations =  9.1

     total cpu time spent up to now is        6.6 secs

     total energy              =     -37.06844117 Ry
     estimated scf accuracy    <       0.01775165 Ry

     iteration #  2     ecut=    80.00 Ry     beta= 0.70
     Davidson diagonalization with overlap
     ethr =  1.78E-04,  avg # of iterations =  2.3

     total cpu time spent up to now is        6.9 secs

     total energy              =     -37.08067820 Ry
     estimated scf accuracy    <       0.02976557 Ry

     iteration #  3     ecut=    80.00 Ry     beta= 0.70
     Davidson diagonalization with overlap
     ethr =  1.78E-04,  avg # of iterations =  1.5

     total cpu time spent up to now is        7.1 secs

     total energy              =     -37.08237313 Ry
     estimated scf accuracy    <       0.00237559 Ry

     iteration #  4     ecut=    80.00 Ry     beta= 0.70
     Davidson diagonalization with overlap
     ethr =  2.38E-05,  avg # of iterations =  1.7

     total cpu time spent up to now is        7.3 secs

     total energy              =     -37.08260884 Ry
     estimated scf accuracy    <       0.00011368 Ry

     iteration #  5     ecut=    80.00 Ry     beta= 0.70
     Davidson diagonalization with overlap
     ethr =  1.14E-06,  avg # of iterations =  2.6

     total cpu time spent up to now is        7.6 secs

     total energy              =     -37.08263398 Ry
     estimated scf accuracy    <       0.00000008 Ry

     iteration #  6     ecut=    80.00 Ry     beta= 0.70
     Davidson diagonalization with overlap
     ethr =  8.25E-10,  avg # of iterations =  4.2

     total cpu time spent up to now is        7.9 secs

     total energy              =     -37.08263448 Ry
     estimated scf accuracy    <       0.00000005 Ry

     iteration #  7     ecut=    80.00 Ry     beta= 0.70
     Davidson diagonalization with overlap
     ethr =  4.73E-10,  avg # of iterations =  2.0

     total cpu time spent up to now is        8.2 secs

     total energy              =     -37.08263449 Ry
     estimated scf accuracy    <       0.00000005 Ry

     iteration #  8     ecut=    80.00 Ry     beta= 0.70
     Davidson diagonalization with overlap
     ethr =  4.73E-10,  avg # of iterations =  1.5

     total cpu time spent up to now is        8.4 secs

     End of self-consistent calculation

          k = 0.0000 0.0000 0.0000 (  2339 PWs)   bands (ev):

   -38.0299 -37.1202  -2.1893   5.0672  12.3415  13.1021  13.1021  16.4137
    17.3884

          k = 0.0000 0.0000 0.1119 (  2331 PWs)   bands (ev):

   -38.0294 -37.1201  -2.2043   4.8332  13.0768  13.3029  13.3029  16.2096
    17.5711

          k = 0.0000 0.0000 0.2238 (  2342 PWs)   bands (ev):

   -38.0282 -37.1199  -2.2386   4.3972  13.9048  13.9048  14.9197  15.8296
    18.0782

          k = 0.0000 0.0000 0.3357 (  2334 PWs)   bands (ev):

   -38.0273 -37.1198  -2.2668   4.1085  14.9026  14.9026  15.5105  16.3216
    16.3216

          k = 0.0000 0.1331 0.0000 (  2337 PWs)   bands (ev):

   -37.9929 -37.1521  -1.9287   5.3492  10.5474  12.5318  13.3753  16.4313
    19.8424

          k = 0.0000 0.1331 0.1119 (  2341 PWs)   bands (ev):

   -37.9924 -37.1520  -1.9367   5.0769  10.7541  13.2480  13.5758  15.9264
    19.3513

          k = 0.0000 0.1331 0.2238 (  2344 PWs)   bands (ev):

   -37.9913 -37.1518  -1.9552   4.5784  11.2432  14.1762  14.7656  15.2157
    18.3720

          k = 0.0000 0.1331 0.3357 (  2352 PWs)   bands (ev):

   -37.9904 -37.1516  -1.9706   4.2518  11.8107  13.9072  15.1689  16.5963
    17.0872

          k = 0.0000 0.2662 0.0000 (  2332 PWs)   bands (ev):

   -37.8883 -37.2443  -1.1591   6.1790   7.4341  12.5321  14.1784  15.5555
    16.2036

          k = 0.0000 0.2662 0.1119 (  2340 PWs)   bands (ev):

   -37.8879 -37.2441  -1.1463   5.7761   7.6059  13.3220  14.0208  14.3772
    17.8908

          k = 0.0000 0.2662 0.2238 (  2352 PWs)   bands (ev):

   -37.8870 -37.2439  -1.1165   5.0984   7.9806  12.3791  14.9714  15.5037
    19.1496

          k = 0.0000 0.2662 0.3357 (  2345 PWs)   bands (ev):

   -37.8862 -37.2437  -1.0914   4.6687   8.3686  11.4004  15.9412  17.4122
    17.8093

          k = 0.0000 0.3993 0.0000 (  2346 PWs)   bands (ev):

   -37.7345 -37.3857   0.0544   4.7445   7.4796  12.5960  13.2122  14.5508
    15.4121

          k = 0.0000 0.3993 0.1119 (  2351 PWs)   bands (ev):

   -37.7342 -37.3855   0.1017   4.8234   6.9245  11.6968  13.7831  15.6055
    16.3146

          k = 0.0000 0.3993 0.2238 (  2361 PWs)   bands (ev):

   -37.7335 -37.3851   0.2168   5.0213   6.0098  10.2855  16.1202  16.1799
    18.8555

          k = 0.0000 0.3993 0.3357 (  2360 PWs)   bands (ev):

   -37.7329 -37.3849   0.3199   5.1733   5.4729   9.4605  17.0767  18.7110
    18.8045

          k = 0.0000-0.5324 0.0000 (  2336 PWs)   bands (ev):

   -37.5592 -37.5558   1.0895   3.2169   8.4995  11.4632  12.9185  14.0116
    16.3501

          k = 0.0000-0.5324 0.1119 (  2348 PWs)   bands (ev):

   -37.5589 -37.5557   1.1787   3.2642   7.7222  10.4882  14.1360  15.4652
    16.5334

          k = 0.0000-0.5324 0.2238 (  2358 PWs)   bands (ev):

   -37.5583 -37.5553   1.4087   3.3797   6.5053   9.2884  16.6721  17.0700
    18.1053

          k = 0.0000-0.5324 0.3357 (  2366 PWs)   bands (ev):

   -37.5578 -37.5549   1.6366   3.4841   5.7143   8.6065  17.8437  19.4914
    19.8764

          k = 0.1331 0.1331 0.0000 (  2333 PWs)   bands (ev):

   -37.9582 -37.1812  -1.6701   5.6311  10.3743  11.1556  12.6635  18.5504
    19.6192

          k = 0.1331 0.1331 0.1119 (  2337 PWs)   bands (ev):

   -37.9577 -37.1810  -1.6709   5.3162  10.6712  11.2148  13.3789  17.5291
    17.9101

          k = 0.1331 0.1331 0.2238 (  2348 PWs)   bands (ev):

   -37.9567 -37.1808  -1.6729   4.7520  11.3579  11.3871  15.0278  16.0652
    16.4926

          k = 0.1331 0.1331 0.3357 (  2350 PWs)   bands (ev):

   -37.9559 -37.1807  -1.6748   4.3867  11.4871  12.4245  13.9114  15.8354
    17.9452

          k = 0.1331 0.2662 0.0000 (  2348 PWs)   bands (ev):

   -37.8605 -37.2652  -0.9066   6.4609   7.6035  11.2724  12.6615  16.4328
    17.7493

          k = 0.1331 0.2662 0.1119 (  2337 PWs)   bands (ev):

   -37.8601 -37.2651  -0.8862   5.9958   7.7994  11.3755  13.3765  15.3045
    18.7182

          k = 0.1331 0.2662 0.2238 (  2347 PWs)   bands (ev):

   -37.8592 -37.2649  -0.8381   5.2456   8.1894  11.3343  13.8749  15.7488
    17.3382

          k = 0.1331 0.2662 0.3357 (  2345 PWs)   bands (ev):

   -37.8585 -37.2647  -0.7970   4.7767   8.5735  11.0604  13.5196  16.3679
    18.5199

          k = 0.1331 0.3993 0.0000 (  2350 PWs)   bands (ev):

   -37.7173 -37.3948   0.2946   4.9605   7.7599  11.6465  12.8137  13.4732
    16.7478

          k = 0.1331 0.3993 0.1119 (  2345 PWs)   bands (ev):

   -37.7170 -37.3947   0.3504   5.0404   7.1277  11.2914  12.9614  14.3842
    17.5185

          k = 0.1331 0.3993 0.2238 (  2355 PWs)   bands (ev):

   -37.7163 -37.3943   0.4876   5.2308   6.1493  10.1574  13.9532  16.2194
    18.2287

          k = 0.1331 0.3993 0.3357 (  2356 PWs)   bands (ev):

   -37.7158 -37.3941   0.6125   5.2809   5.6826   9.4178  14.4944  17.4489
    18.9066

          k = 0.1331-0.5324 0.0000 (  2350 PWs)   bands (ev):

   -37.5547 -37.5518   1.3106   3.4605   8.7799  11.7250  11.7786  13.1411
    16.4921

          k = 0.1331-0.5324 0.1119 (  2360 PWs)   bands (ev):

   -37.5544 -37.5516   1.4096   3.5112   7.8705  10.5618  12.8505  14.6291
    16.8406

          k = 0.1331-0.5324 0.2238 (  2358 PWs)   bands (ev):

   -37.5538 -37.5512   1.6681   3.6354   6.5675   9.3400  14.3810  16.6890
    17.9818

          k = 0.1331-0.5324 0.3357 (  2350 PWs)   bands (ev):

   -37.5534 -37.5509   1.9313   3.7479   5.7298   8.6606  15.2628  18.3961
    18.4142

          k = 0.2662 0.2662 0.0000 (  2355 PWs)   bands (ev):

   -37.7826 -37.3266  -0.1633   7.2925   7.6626   8.8422  12.1675  16.7462
    17.7619

          k = 0.2662 0.2662 0.1119 (  2345 PWs)   bands (ev):

   -37.7823 -37.3265  -0.1202   6.5746   8.0816   8.8081  13.0207  15.4607
    16.4909

          k = 0.2662 0.2662 0.2238 (  2349 PWs)   bands (ev):

   -37.7816 -37.3262  -0.0160   5.6471   8.7133   8.7775  12.9242  15.5436
    16.1405

          k = 0.2662 0.2662 0.3357 (  2349 PWs)   bands (ev):

   -37.7810 -37.3260   0.0768   5.0805   8.6661   9.7575  11.2679  15.7704
    18.2537

          k = 0.2662 0.3993 0.0000 (  2351 PWs)   bands (ev):

   -37.6699 -37.4228   0.9953   5.5727   8.5888   9.1868  11.5701  14.1300
    16.6325

          k = 0.2662 0.3993 0.1119 (  2354 PWs)   bands (ev):

   -37.6696 -37.4227   1.0765   5.6483   7.6493   9.3774  12.1826  13.9517
    16.4677

          k = 0.2662 0.3993 0.2238 (  2352 PWs)   bands (ev):

   -37.6691 -37.4223   1.2821   5.7481   6.6016   9.2953  11.9194  15.0621
    16.2239

          k = 0.2662 0.3993 0.3357 (  2355 PWs)   bands (ev):

   -37.6686 -37.4221   1.4798   5.4699   6.3748   9.1984  11.2808  16.0312
    16.5117

          k = 0.2662-0.5324 0.0000 (  2366 PWs)   bands (ev):

   -37.5438 -37.5421   1.9442   4.1856   9.5951   9.7202  11.1419  12.5305
    16.1605

          k = 0.2662-0.5324 0.1119 (  2358 PWs)   bands (ev):

   -37.5436 -37.5419   2.0717   4.2437   8.1035  10.3239  11.0028  13.4358
    16.3146

          k = 0.2662-0.5324 0.2238 (  2344 PWs)   bands (ev):

   -37.5431 -37.5415   2.4176   4.3851   6.7032   9.3491  11.7584  14.5633
    16.5817

          k = 0.2662-0.5324 0.3357 (  2352 PWs)   bands (ev):

   -37.5427 -37.5413   2.8042   4.5125   5.7678   8.7846  11.9905  15.1947
    16.6934

          k = 0.3993 0.3993 0.0000 (  2353 PWs)   bands (ev):

   -37.6036 -37.4697   2.0566   6.1268   7.3539   9.8895  10.0661  14.8693
    15.7000

          k = 0.3993 0.3993 0.1119 (  2348 PWs)   bands (ev):

   -37.6034 -37.4695   2.1808   6.1941   7.2693   8.6605  11.0565  14.1851
    14.9955

          k = 0.3993 0.3993 0.2238 (  2354 PWs)   bands (ev):

   -37.6029 -37.4692   2.5120   6.1130   7.0906   7.9668  10.6763  13.7988
    15.2431

          k = 0.3993 0.3993 0.3357 (  2344 PWs)   bands (ev):

   -37.6025 -37.4690   2.8696   5.6518   6.9596   8.3980   9.4613  13.8307
    15.4335

          k = 0.3993-0.5324 0.0000 (  2362 PWs)   bands (ev):

   -37.5329 -37.5324   2.8496   5.3733   7.7836   8.9812  10.9509  13.6062
    15.5929

          k = 0.3993-0.5324 0.1119 (  2354 PWs)   bands (ev):

   -37.5327 -37.5322   3.0220   5.4289   7.4926   8.9006  10.4511  13.6559
    15.1519

          k = 0.3993-0.5324 0.2238 (  2338 PWs)   bands (ev):

   -37.5323 -37.5318   3.5156   5.5477   6.7351   8.8088   9.5726  13.2488
    15.3400

          k = 0.3993-0.5324 0.3357 (  2346 PWs)   bands (ev):

   -37.5320 -37.5316   4.1881   5.6330   5.8405   8.8430   9.0421  12.5176
    15.6080

          k =-0.5324-0.5324 0.0000 (  2360 PWs)   bands (ev):

   -37.5283 -37.5283   3.4335   6.8492   6.8492   7.1487  12.1403  14.2713
    14.2713

          k =-0.5324-0.5324 0.1119 (  2344 PWs)   bands (ev):

   -37.5282 -37.5282   3.6444   6.7502   6.7502   7.3514  10.7080  14.4710
    14.4710

          k =-0.5324-0.5324 0.2238 (  2356 PWs)   bands (ev):

   -37.5278 -37.5278   4.2702   6.5424   6.5424   7.9366   8.6631  13.0176
    14.9071

          k =-0.5324-0.5324 0.3357 (  2344 PWs)   bands (ev):

   -37.5276 -37.5276   5.2572   6.3881   6.3881   6.9189   8.7309  11.3814
    15.2460

     the Fermi energy is     8.8445 ev

!    total energy              =     -37.08263450 Ry
     estimated scf accuracy    <          4.0E-10 Ry
     smearing contrib. (-TS)   =      -0.00049846 Ry
     internal energy E=F+TS    =     -37.08213603 Ry

     The total energy is F=E-TS. E is the sum of the following terms:
     one-electron contribution =      -9.42447017 Ry
     hartree contribution      =       6.39433495 Ry
     xc contribution           =     -10.27490768 Ry
     ewald contribution        =     -23.77709313 Ry

     convergence has been achieved in   8 iterations

     Forces acting on atoms (cartesian axes, Ry/au):

     atom    1 type  1   force =     0.00000000    0.00000000    0.00000000
     atom    2 type  2   force =     0.00000000    0.00000000    0.01047872
     atom    3 type  2   force =     0.00000000    0.00000000   -0.01047872
     The non-local contrib.  to forces
     atom    1 type  1   force =     0.00000000    0.00000000    0.00000000
     atom    2 type  2   force =     0.00000000    0.00000000    0.01400981
     atom    3 type  2   force =     0.00000000    0.00000000   -0.01400981
     The ionic contribution  to forces
     atom    1 type  1   force =    -0.00000000   -0.00000000   -0.00000000
     atom    2 type  2   force =    -0.00000000   -0.00000000   -0.03457531
     atom    3 type  2   force =    -0.00000000   -0.00000000    0.03457531
     The local contribution  to forces
     atom    1 type  1   force =     0.00000000    0.00000000   -0.00000000
     atom    2 type  2   force =     0.00000000    0.00000000    0.03104456
     atom    3 type  2   force =     0.00000000   -0.00000000   -0.03104456
     The core correction contribution to forces
     atom    1 type  1   force =     0.00000000    0.00000000   -0.00000000
     atom    2 type  2   force =     0.00000000    0.00000000    0.00000000
     atom    3 type  2   force =     0.00000000    0.00000000    0.00000000
     The Hubbard contrib.    to forces
     atom    1 type  1   force =     0.00000000    0.00000000    0.00000000
     atom    2 type  2   force =     0.00000000    0.00000000    0.00000000
     atom    3 type  2   force =     0.00000000    0.00000000    0.00000000
     The SCF correction term to forces
     atom    1 type  1   force =    -0.00000000    0.00000000    0.00000000
     atom    2 type  2   force =     0.00000000   -0.00000000   -0.00000034
     atom    3 type  2   force =     0.00000000    0.00000000    0.00000034

     Total force =     0.014819     Total SCF correction =     0.000000


     Computing stress (Cartesian axis) and pressure

          total   stress  (Ry/bohr**3)                   (kbar)     P=      485.29
   0.00307274  -0.00000000   0.00000000          452.02       -0.00        0.00
  -0.00000000   0.00307274   0.00000000           -0.00      452.02        0.00
   0.00000000   0.00000000   0.00375127            0.00        0.00      551.83

     Energy error            =      1.6E-02 Ry
     Gradient error          =      1.0E-02 Ry/Bohr
     Cell gradient error     =      5.2E+01 kbar

     number of scf cycles    =   3
     number of bfgs steps    =   2

     enthalpy           old  =     -36.4361368552 Ry
     enthalpy           new  =     -36.4519408718 Ry

     CASE: enthalpy          _new < enthalpy          _old

     new trust radius        =       0.0866480816 bohr
ibrav =      6
 celldm(1) =      4.98497010
 celldm(3) =      1.44695136
Input lattice vectors:
     0.90923661    -0.00000000     0.00000000
    -0.00000000     0.90923661     0.00000000
     0.00000000     0.00000000     1.31562115
New lattice vectors in INITIAL alat:
     0.90923661     0.00000000     0.00000000
     0.00000000     0.90923661     0.00000000
     0.00000000     0.00000000     1.31562115
New lattice vectors in NEW alat (for information only):
     1.00000000     0.00000000     0.00000000
     0.00000000     1.00000000     0.00000000
     0.00000000     0.00000000     1.44695136
Discrepancy in bohr =     0.000000    0.000000    0.000000
     new conv_thr            =       0.0000000010 Ry

     new unit-cell volume =    179.24275 a.u.^3 (    26.56104 Ang^3 )
     density =      2.62372 g/cm^3

CELL_PARAMETERS (alat=  5.48258842)
   0.909236608   0.000000000   0.000000000
   0.000000000   0.909236608   0.000000000
   0.000000000   0.000000000   1.315621148

ATOMIC_POSITIONS (crystal)
Si            0.0000000000        0.0000000000        0.5000000000
Li            0.0000000000        0.5000000000        0.9952619947
Li            0.5000000000        0.0000000000        0.0047380053



     Writing config-only to output data dir ./output/SiLi.save/
     NEW-OLD atomic charge density approx. for the potential
     extrapolated charge    9.64810, renormalised to   10.00000

     total cpu time spent up to now is        9.2 secs

     Self-consistent Calculation

     iteration #  1     ecut=    80.00 Ry     beta= 0.70
     Davidson diagonalization with overlap
     ethr =  1.00E-06,  avg # of iterations =  8.2

     total cpu time spent up to now is        9.8 secs

     total energy              =     -37.05174990 Ry
     estimated scf accuracy    <       0.01194514 Ry

     iteration #  2     ecut=    80.00 Ry     beta= 0.70
     Davidson diagonalization with overlap
     ethr =  1.19E-04,  avg # of iterations =  2.5

     total cpu time spent up to now is       10.1 secs

     total energy              =     -37.06053035 Ry
     estimated scf accuracy    <       0.03299596 Ry

     iteration #  3     ecut=    80.00 Ry     beta= 0.70
     Davidson diagonalization with overlap
     ethr =  1.19E-04,  avg # of iterations =  1.9

     total cpu time spent up to now is       10.3 secs

     total energy              =     -37.06270607 Ry
     estimated scf accuracy    <       0.00232307 Ry

     iteration #  4     ecut=    80.00 Ry     beta= 0.70
     Davidson diagonalization with overlap
     ethr =  2.32E-05,  avg # of iterations =  1.6

     total cpu time spent up to now is       10.5 secs

     total energy              =     -37.06287524 Ry
     estimated scf accuracy    <       0.00016378 Ry

     iteration #  5     ecut=    80.00 Ry     beta= 0.70
     Davidson diagonalization with overlap
     ethr =  1.64E-06,  avg # of iterations =  2.4

     total cpu time spent up to now is       10.8 secs

     total energy              =     -37.06290769 Ry
     estimated scf accuracy    <       0.00000105 Ry

     iteration #  6     ecut=    80.00 Ry     beta= 0.70
     Davidson diagonalization with overlap
     ethr =  1.05E-08,  avg # of iterations =  3.2

     total cpu time spent up to now is       11.1 secs

     total energy              =     -37.06290868 Ry
     estimated scf accuracy    <       0.00000002 Ry

     iteration #  7     ecut=    80.00 Ry     beta= 0.70
     Davidson diagonalization with overlap
     ethr =  2.00E-10,  avg # of iterations =  2.3

     total cpu time spent up to now is       11.4 secs

     total energy              =     -37.06290869 Ry
     estimated scf accuracy    <       0.00000002 Ry

     iteration #  8     ecut=    80.00 Ry     beta= 0.70
     Davidson diagonalization with overlap
     ethr =  2.00E-10,  avg # of iterations =  1.4

     total cpu time spent up to now is       11.6 secs

     End of self-consistent calculation

          k = 0.0000 0.0000 0.0000 (  2339 PWs)   bands (ev):

   -37.9157 -36.7738  -2.1386   4.7677  12.3937  14.4215  14.4215  17.0968
    18.6746

          k = 0.0000 0.0000 0.1086 (  2331 PWs)   bands (ev):

   -37.9153 -36.7736  -2.1726   4.6553  12.9716  14.6094  14.6094  16.9297
    18.8338

          k = 0.0000 0.0000 0.2172 (  2342 PWs)   bands (ev):

   -37.9145 -36.7736  -2.2486   4.4370  14.4847  15.1726  15.1726  16.5972
    19.2621

          k = 0.0000 0.0000 0.3258 (  2334 PWs)   bands (ev):

   -37.9137 -36.7735  -2.3090   4.2882  16.1093  16.1094  16.2287  16.3718
    17.4176

          k = 0.0000 0.1375 0.0000 (  2337 PWs)   bands (ev):

   -37.8693 -36.8138  -1.8519   5.0736  11.4349  12.6867  14.7167  17.1619
    20.5501

          k = 0.0000 0.1375 0.1086 (  2341 PWs)   bands (ev):

   -37.8689 -36.8136  -1.8793   4.9270  11.6628  13.2103  14.9043  16.6486
    20.1839

          k = 0.0000 0.1375 0.2172 (  2344 PWs)   bands (ev):

   -37.8681 -36.8136  -1.9408   4.6468  12.1421  14.7034  15.4666  15.6369
    19.3702

          k = 0.0000 0.1375 0.3258 (  2352 PWs)   bands (ev):

   -37.8674 -36.8135  -1.9902   4.4580  12.6470  14.7673  16.4005  16.5181
    17.7111

          k = 0.0000 0.2750 0.0000 (  2332 PWs)   bands (ev):

   -37.7382 -36.9294  -1.0025   5.9790   8.1449  12.6239  15.5887  16.0227
    16.5552

          k = 0.0000 0.2750 0.1086 (  2340 PWs)   bands (ev):

   -37.7378 -36.9293  -1.0100   5.7198   8.2902  13.3164  14.4379  15.7750
    18.3422

          k = 0.0000 0.2750 0.2172 (  2352 PWs)   bands (ev):

   -37.7371 -36.9292  -1.0274   5.2553   8.6296  12.9588  15.1206  16.3326
    20.2189

          k = 0.0000 0.2750 0.3258 (  2345 PWs)   bands (ev):

   -37.7366 -36.9291  -1.0418   4.9546   8.9726  12.0487  17.2504  17.2813
    18.5871

          k = 0.0000 0.4124 0.0000 (  2346 PWs)   bands (ev):

   -37.5451 -37.1069   0.3568   5.2178   7.4083  12.8044  13.2684  14.7419
    16.9537

          k = 0.0000 0.4124 0.1086 (  2351 PWs)   bands (ev):

   -37.5449 -37.1068   0.3824   5.2861   6.9911  11.9784  13.7337  16.3989
    17.1354

          k = 0.0000 0.4124 0.2172 (  2361 PWs)   bands (ev):

   -37.5443 -37.1066   0.4429   5.4580   6.2749  10.6618  15.8359  17.6759
    18.9343

          k = 0.0000 0.4124 0.3258 (  2360 PWs)   bands (ev):

   -37.5440 -37.1065   0.4950   5.6121   5.8283   9.9059  18.4183  18.5307
    20.0022

          k = 0.0000-0.5499 0.0000 (  2336 PWs)   bands (ev):

   -37.3245 -37.3211   1.6162   3.4330   8.5952  11.4111  13.1179  14.0487
    18.0659

          k = 0.0000-0.5499 0.1086 (  2348 PWs)   bands (ev):

   -37.3243 -37.3210   1.6855   3.4670   7.9507  10.5737  14.1950  15.3572
    18.2367

          k = 0.0000-0.5499 0.2172 (  2358 PWs)   bands (ev):

   -37.3239 -37.3208   1.8603   3.5489   6.9128   9.5104  16.5397  17.8425
    18.7371

          k = 0.0000-0.5499 0.3258 (  2366 PWs)   bands (ev):

   -37.3235 -37.3206   2.0264   3.6210   6.2438   8.9091  19.3269  19.4604
    21.3394

          k = 0.1375 0.1375 0.0000 (  2333 PWs)   bands (ev):

   -37.8258 -36.8501  -1.5672   5.3791  11.2686  12.0555  12.8779  19.4827
    20.4399

          k = 0.1375 0.1375 0.1086 (  2337 PWs)   bands (ev):

   -37.8254 -36.8500  -1.5877   5.1949  11.5945  12.0962  13.3921  18.4311
    18.6141

          k = 0.1375 0.1375 0.2172 (  2348 PWs)   bands (ev):

   -37.8246 -36.8499  -1.6342   4.8491  12.1927  12.3303  14.8149  16.7416
    17.4214

          k = 0.1375 0.1375 0.3258 (  2350 PWs)   bands (ev):

   -37.8240 -36.8499  -1.6719   4.6193  12.2758  13.3127  14.7325  16.8652
    17.2351

          k = 0.1375 0.2750 0.0000 (  2348 PWs)   bands (ev):

   -37.7030 -36.9555  -0.7239   6.2838   8.3306  11.9871  12.9451  16.8243
    18.4100

          k = 0.1375 0.2750 0.1086 (  2337 PWs)   bands (ev):

   -37.7027 -36.9554  -0.7241   5.9723   8.4931  12.1695  13.3909  15.9304
    19.2994

          k = 0.1375 0.2750 0.2172 (  2347 PWs)   bands (ev):

   -37.7021 -36.9553  -0.7246   5.4320   8.8479  12.0483  14.4591  15.7263
    18.2092

          k = 0.1375 0.2750 0.3258 (  2345 PWs)   bands (ev):

   -37.7016 -36.9552  -0.7252   5.0882   9.1899  11.6993  14.4559  17.3582
    17.9176

          k = 0.1375 0.4124 0.0000 (  2350 PWs)   bands (ev):

   -37.5232 -37.1181   0.6233   5.4505   7.7115  12.1524  13.2051  13.5611
    17.5937

          k = 0.1375 0.4124 0.1086 (  2345 PWs)   bands (ev):

   -37.5229 -37.1179   0.6572   5.5203   7.2251  11.7164  13.2252  14.7926
    18.1119

          k = 0.1375 0.4124 0.2172 (  2355 PWs)   bands (ev):

   -37.5224 -37.1177   0.7382   5.6861   6.4403  10.5568  14.7323  16.2830
    18.8819

          k = 0.1375 0.4124 0.3258 (  2356 PWs)   bands (ev):

   -37.5221 -37.1176   0.8089   5.7388   6.0624   9.8549  15.5472  18.3936
    18.7472

          k = 0.1375-0.5499 0.0000 (  2350 PWs)   bands (ev):

   -37.3185 -37.3156   1.8630   3.6949   8.8973  11.7050  12.2198  13.3437
    17.6993

          k = 0.1375-0.5499 0.1086 (  2360 PWs)   bands (ev):

   -37.3183 -37.3154   1.9422   3.7331   8.1308  10.6885  13.2739  14.7462
    17.8879

          k = 0.1375-0.5499 0.2172 (  2358 PWs)   bands (ev):

   -37.3179 -37.3152   2.1447   3.8254   6.9942   9.5766  15.1132  16.9503
    18.5086

          k = 0.1375-0.5499 0.3258 (  2350 PWs)   bands (ev):

   -37.3176 -37.3150   2.3423   3.9071   6.2741   8.9645  16.4103  19.0452
    19.1775

          k = 0.2750 0.2750 0.0000 (  2355 PWs)   bands (ev):

   -37.6049 -37.0319   0.0993   7.1862   8.4591   9.4765  12.3410  17.2006
    18.1548

          k = 0.2750 0.2750 0.1086 (  2345 PWs)   bands (ev):

   -37.6046 -37.0318   0.1211   6.6800   8.7958   9.4349  13.0861  15.9369
    17.0535

          k = 0.2750 0.2750 0.2172 (  2349 PWs)   bands (ev):

   -37.6041 -37.0317   0.1723   5.9250   9.3419   9.4727  13.4491  15.5416
    16.8028

          k = 0.2750 0.2750 0.3258 (  2349 PWs)   bands (ev):

   -37.6036 -37.0316   0.2162   5.4676   9.2698  10.3982  11.9751  16.6310
    18.0577

          k = 0.2750 0.4124 0.0000 (  2351 PWs)   bands (ev):

   -37.4628 -37.1523   1.4054   6.1121   8.6104   9.8444  11.8851  14.3619
    17.1395

          k = 0.2750 0.4124 0.1086 (  2354 PWs)   bands (ev):

   -37.4626 -37.1522   1.4639   6.1773   7.8615   9.9604  12.5001  14.2599
    16.9124

          k = 0.2750 0.4124 0.2172 (  2352 PWs)   bands (ev):

   -37.4622 -37.1520   1.6084   6.2454   6.9766   9.8021  12.5867  15.3338
    16.7921

          k = 0.2750 0.4124 0.3258 (  2355 PWs)   bands (ev):

   -37.4619 -37.1519   1.7411   5.9782   6.8242   9.6163  12.1320  16.7719
    17.1935

          k = 0.2750-0.5499 0.0000 (  2366 PWs)   bands (ev):

   -37.3039 -37.3022   2.5748   4.4727   9.7966  10.3068  11.5884  12.5659
    16.7766

          k = 0.2750-0.5499 0.1086 (  2358 PWs)   bands (ev):

   -37.3037 -37.3021   2.6828   4.5208   8.4816  10.6271  11.5846  13.7098
    16.7866

          k = 0.2750-0.5499 0.2172 (  2344 PWs)   bands (ev):

   -37.3034 -37.3018   2.9707   4.6370   7.1768   9.6386  12.6218  15.0960
    16.9939

          k = 0.2750-0.5499 0.3258 (  2352 PWs)   bands (ev):

   -37.3032 -37.3017   3.2786   4.7403   6.3454   9.0891  13.0115  15.8800
    17.3058

          k = 0.4124 0.4124 0.0000 (  2353 PWs)   bands (ev):

   -37.3785 -37.2103   2.6192   6.7329   7.8486  10.0361  10.5230  15.2257
    16.1262

          k = 0.4124 0.4124 0.1086 (  2348 PWs)   bands (ev):

   -37.3784 -37.2102   2.7192   6.7865   7.7648   8.9710  11.5365  14.4572
    15.3972

          k = 0.4124 0.4124 0.2172 (  2354 PWs)   bands (ev):

   -37.3781 -37.2100   2.9800   6.6588   7.5879   8.4206  11.2738  14.2000
    15.7681

          k = 0.4124 0.4124 0.3258 (  2344 PWs)   bands (ev):

   -37.3779 -37.2099   3.2464   6.2308   7.4561   8.9281  10.0296  14.4641
    16.0575

          k = 0.4124-0.5499 0.0000 (  2362 PWs)   bands (ev):

   -37.2893 -37.2888   3.6190   5.7389   8.3485   9.4796  11.2545  13.7873
    15.9083

          k = 0.4124-0.5499 0.1086 (  2354 PWs)   bands (ev):

   -37.2891 -37.2886   3.7723   5.7890   8.0183   9.3677  10.9639  13.8901
    15.4993

          k = 0.4124-0.5499 0.2172 (  2338 PWs)   bands (ev):

   -37.2889 -37.2884   4.2066   5.8985   7.2430   9.2001  10.3385  13.5748
    15.7621

          k = 0.4124-0.5499 0.3258 (  2346 PWs)   bands (ev):

   -37.2887 -37.2883   4.7747   5.9806   6.4340   9.1503   9.9021  12.9531
    16.1545

          k =-0.5499-0.5499 0.0000 (  2360 PWs)   bands (ev):

   -37.2833 -37.2833   4.3445   7.2983   7.2983   7.5985  12.6265  14.5707
    14.5707

          k =-0.5499-0.5499 0.1086 (  2344 PWs)   bands (ev):

   -37.2831 -37.2831   4.5406   7.2016   7.2016   7.7860  11.2609  14.8083
    14.8083

          k =-0.5499-0.5499 0.2172 (  2356 PWs)   bands (ev):

   -37.2828 -37.2828   5.1187   6.9996   6.9996   8.3241   9.3389  13.1365
    15.3429

          k =-0.5499-0.5499 0.3258 (  2344 PWs)   bands (ev):

   -37.2827 -37.2827   5.9955   6.8503   6.8503   7.7469   9.0383  11.6487
    15.7767

     the Fermi energy is     9.3322 ev

!    total energy              =     -37.06290869 Ry
     estimated scf accuracy    <          3.7E-10 Ry
     smearing contrib. (-TS)   =       0.00004067 Ry
     internal energy E=F+TS    =     -37.06294936 Ry

     The total energy is F=E-TS. E is the sum of the following terms:
     one-electron contribution =      -9.12909297 Ry
     hartree contribution      =       6.37305504 Ry
     xc contribution           =     -10.30123383 Ry
     ewald contribution        =     -24.00567760 Ry

     convergence has been achieved in   8 iterations

     Forces acting on atoms (cartesian axes, Ry/au):

     atom    1 type  1   force =     0.00000000    0.00000000    0.00000000
     atom    2 type  2   force =     0.00000000    0.00000000    0.00385458
     atom    3 type  2   force =     0.00000000    0.00000000   -0.00385458
     The non-local contrib.  to forces
     atom    1 type  1   force =     0.00000000    0.00000000    0.00000000
     atom    2 type  2   force =     0.00000000    0.00000000    0.00772882
     atom    3 type  2   force =     0.00000000    0.00000000   -0.00772882
     The ionic contribution  to forces
     atom    1 type  1   force =    -0.00000000   -0.00000000   -0.00000000
     atom    2 type  2   force =    -0.00000000   -0.00000000   -0.02486264
     atom    3 type  2   force =    -0.00000000   -0.00000000    0.02486264
     The local contribution  to forces
     atom    1 type  1   force =    -0.00000000   -0.00000000   -0.00000000
     atom    2 type  2   force =    -0.00000000    0.00000000    0.02098787
     atom    3 type  2   force =     0.00000000    0.00000000   -0.02098787
     The core correction contribution to forces
     atom    1 type  1   force =    -0.00000000   -0.00000000   -0.00000000
     atom    2 type  2   force =     0.00000000    0.00000000    0.00000000
     atom    3 type  2   force =     0.00000000    0.00000000    0.00000000
     The Hubbard contrib.    to forces
     atom    1 type  1   force =     0.00000000    0.00000000    0.00000000
     atom    2 type  2   force =     0.00000000    0.00000000    0.00000000
     atom    3 type  2   force =     0.00000000    0.00000000    0.00000000
     The SCF correction term to forces
     atom    1 type  1   force =     0.00000000   -0.00000000    0.00000000
     atom    2 type  2   force =    -0.00000000   -0.00000000    0.00000053
     atom    3 type  2   force =     0.00000000    0.00000000   -0.00000053

     Total force =     0.005451     Total SCF correction =     0.000001


     Computing stress (Cartesian axis) and pressure

          total   stress  (Ry/bohr**3)                   (kbar)     P=      514.05
   0.00365856   0.00000000   0.00000000          538.19        0.00        0.00
   0.00000000   0.00365856   0.00000000            0.00      538.19        0.00
   0.00000000   0.00000000   0.00316628            0.00        0.00      465.78

     Energy error            =      1.7E-03 Ry
     Gradient error          =      3.9E-03 Ry/Bohr
     Cell gradient error     =      3.8E+01 kbar

     number of scf cycles    =   4
     number of bfgs steps    =   3

     enthalpy           old  =     -36.4519408718 Ry
     enthalpy           new  =     -36.4536749553 Ry

     CASE: enthalpy          _new < enthalpy          _old

     new trust radius        =       0.0344090758 bohr
ibrav =      6
 celldm(1) =      5.04902978
 celldm(3) =      1.41326572
Input lattice vectors:
     0.92092081     0.00000000     0.00000000
     0.00000000     0.92092081     0.00000000
     0.00000000     0.00000000     1.30150582
New lattice vectors in INITIAL alat:
     0.92092081     0.00000000     0.00000000
     0.00000000     0.92092081     0.00000000
     0.00000000     0.00000000     1.30150582
New lattice vectors in NEW alat (for information only):
     1.00000000     0.00000000     0.00000000
     0.00000000     1.00000000     0.00000000
     0.00000000     0.00000000     1.41326572
Discrepancy in bohr =     0.000000    0.000000    0.000000
     new conv_thr            =       0.0000000004 Ry

     new unit-cell volume =    181.90625 a.u.^3 (    26.95573 Ang^3 )
     density =      2.58530 g/cm^3

CELL_PARAMETERS (alat=  5.48258842)
   0.920920812   0.000000000   0.000000000
   0.000000000   0.920920812   0.000000000
   0.000000000   0.000000000   1.301505815

ATOMIC_POSITIONS (crystal)
Si            0.0000000000        0.0000000000        0.5000000000
Li            0.0000000000        0.5000000000        0.9942408497
Li            0.5000000000        0.0000000000        0.0057591503



     Writing config-only to output data dir ./output/SiLi.save/
     NEW-OLD atomic charge density approx. for the potential
     extrapolated charge   10.14628, renormalised to   10.00000

     total cpu time spent up to now is       12.4 secs

     Self-consistent Calculation

     iteration #  1     ecut=    80.00 Ry     beta= 0.70
     Davidson diagonalization with overlap
     ethr =  1.00E-06,  avg # of iterations =  6.2

     total cpu time spent up to now is       12.9 secs

     total energy              =     -37.07095944 Ry
     estimated scf accuracy    <       0.00181243 Ry

     iteration #  2     ecut=    80.00 Ry     beta= 0.70
     Davidson diagonalization with overlap
     ethr =  1.81E-05,  avg # of iterations =  2.5

     total cpu time spent up to now is       13.3 secs

     total energy              =     -37.07233679 Ry
     estimated scf accuracy    <       0.00525763 Ry

     iteration #  3     ecut=    80.00 Ry     beta= 0.70
     Davidson diagonalization with overlap
     ethr =  1.81E-05,  avg # of iterations =  1.9

     total cpu time spent up to now is       13.5 secs

     total energy              =     -37.07264202 Ry
     estimated scf accuracy    <       0.00041883 Ry

     iteration #  4     ecut=    80.00 Ry     beta= 0.70
     Davidson diagonalization with overlap
     ethr =  4.19E-06,  avg # of iterations =  1.6

     total cpu time spent up to now is       13.7 secs

     total energy              =     -37.07268292 Ry
     estimated scf accuracy    <       0.00001857 Ry

     iteration #  5     ecut=    80.00 Ry     beta= 0.70
     Davidson diagonalization with overlap
     ethr =  1.86E-07,  avg # of iterations =  2.1

     total cpu time spent up to now is       14.0 secs

     total energy              =     -37.07268702 Ry
     estimated scf accuracy    <       0.00000011 Ry

     iteration #  6     ecut=    80.00 Ry     beta= 0.70
     Davidson diagonalization with overlap
     ethr =  1.12E-09,  avg # of iterations =  3.4

     total cpu time spent up to now is       14.2 secs

     total energy              =     -37.07268713 Ry
     estimated scf accuracy    <          2.2E-09 Ry

     iteration #  7     ecut=    80.00 Ry     beta= 0.70
     Davidson diagonalization with overlap
     ethr =  2.25E-11,  avg # of iterations =  2.2

     total cpu time spent up to now is       14.5 secs

     total energy              =     -37.07268713 Ry
     estimated scf accuracy    <       0.00000001 Ry

     iteration #  8     ecut=    80.00 Ry     beta= 0.70
     Davidson diagonalization with overlap
     ethr =  2.25E-11,  avg # of iterations =  2.0

     total cpu time spent up to now is       14.7 secs

     total energy              =     -37.07268713 Ry
     estimated scf accuracy    <          7.7E-10 Ry

     iteration #  9     ecut=    80.00 Ry     beta= 0.70
     Davidson diagonalization with overlap
     ethr =  7.72E-12,  avg # of iterations =  1.3

     total cpu time spent up to now is       14.9 secs

     End of self-consistent calculation

          k = 0.0000 0.0000 0.0000 (  2339 PWs)   bands (ev):

   -37.9659 -36.9202  -2.1662   4.8601  12.3534  13.8893  13.8893  16.8113
    18.1513

          k = 0.0000 0.0000 0.1098 (  2331 PWs)   bands (ev):

   -37.9655 -36.9200  -2.1932   4.7043  12.9891  14.0819  14.0819  16.6303
    18.3190

          k = 0.0000 0.0000 0.2195 (  2342 PWs)   bands (ev):

   -37.9645 -36.9200  -2.2542   4.4064  14.6327  14.6590  14.6590  16.2741
    18.7783

          k = 0.0000 0.0000 0.3293 (  2334 PWs)   bands (ev):

   -37.9637 -36.9199  -2.3033   4.2056  15.6179  15.6179  16.0112  16.5494
    16.9652

          k = 0.0000 0.1357 0.0000 (  2337 PWs)   bands (ev):

   -37.9234 -36.9569  -1.8898   5.1566  11.0892  12.5907  14.1758  16.8595
    20.2590

          k = 0.0000 0.1357 0.1098 (  2341 PWs)   bands (ev):

   -37.9229 -36.9567  -1.9100   4.9653  11.3023  13.1923  14.3680  16.3450
    19.8310

          k = 0.0000 0.1357 0.2195 (  2344 PWs)   bands (ev):

   -37.9220 -36.9566  -1.9560   4.6052  11.7785  14.8198  14.9439  15.3258
    18.9529

          k = 0.0000 0.1357 0.3293 (  2352 PWs)   bands (ev):

   -37.9213 -36.9565  -1.9934   4.3652  12.3044  14.4130  15.8991  16.7613
    17.2515

          k = 0.0000 0.2715 0.0000 (  2332 PWs)   bands (ev):

   -37.8032 -37.0628  -1.0716   6.0333   7.8537  12.5686  15.0202  15.8243
    16.3777

          k = 0.0000 0.2715 0.1098 (  2340 PWs)   bands (ev):

   -37.8029 -37.0626  -1.0717   5.7235   8.0075  13.3113  14.2316  15.2110
    18.1442

          k = 0.0000 0.2715 0.2195 (  2352 PWs)   bands (ev):

   -37.8021 -37.0625  -1.0720   5.1801   8.3602  12.7133  15.2363  15.7816
    19.7739

          k = 0.0000 0.2715 0.3293 (  2345 PWs)   bands (ev):

   -37.8015 -37.0624  -1.0725   4.8314   8.7197  11.7766  16.7174  17.4905
    18.1045

          k = 0.0000 0.4072 0.0000 (  2346 PWs)   bands (ev):

   -37.6265 -37.2253   0.2310   5.0202   7.4112  12.7217  13.1991  14.6383
    16.3327

          k = 0.0000 0.4072 0.1098 (  2351 PWs)   bands (ev):

   -37.6262 -37.2252   0.2645   5.0927   6.9442  11.8485  13.7218  16.3372
    16.5185

          k = 0.0000 0.4072 0.2195 (  2361 PWs)   bands (ev):

   -37.6256 -37.2249   0.3447   5.2752   6.1541  10.4940  15.9159  17.0707
    18.8854

          k = 0.0000 0.4072 0.3293 (  2360 PWs)   bands (ev):

   -37.6252 -37.2247   0.4147   5.4339   5.6692   9.7121  17.9386  18.5642
    19.4747

          k = 0.0000-0.5429 0.0000 (  2336 PWs)   bands (ev):

   -37.4246 -37.4213   1.3996   3.3388   8.5324  11.4097  13.0168  14.0014
    17.3725

          k = 0.0000-0.5429 0.1098 (  2348 PWs)   bands (ev):

   -37.4244 -37.4212   1.4762   3.3779   7.8402  10.5188  14.1450  15.3666
    17.5476

          k = 0.0000-0.5429 0.2195 (  2358 PWs)   bands (ev):

   -37.4239 -37.4209   1.6709   3.4724   6.7370   9.4032  16.5628  17.9132
    18.0604

          k = 0.0000-0.5429 0.3293 (  2366 PWs)   bands (ev):

   -37.4235 -37.4206   1.8588   3.5563   6.0241   8.7715  18.7993  19.3835
    20.7444

[...]
        k(   33) = (   0.1357820  -0.5431278   0.0000000), wk =   0.0178571
        k(   34) = (   0.1357820  -0.5431278   0.1097982), wk =   0.0357143
        k(   35) = (   0.1357820  -0.5431278   0.2195964), wk =   0.0357143
        k(   36) = (   0.1357820  -0.5431278   0.3293946), wk =   0.0357143
        k(   37) = (   0.2715639   0.2715639   0.0000000), wk =   0.0178571
        k(   38) = (   0.2715639   0.2715639   0.1097982), wk =   0.0357143
        k(   39) = (   0.2715639   0.2715639   0.2195964), wk =   0.0357143
        k(   40) = (   0.2715639   0.2715639   0.3293946), wk =   0.0357143
        k(   41) = (   0.2715639   0.4073459   0.0000000), wk =   0.0357143
        k(   42) = (   0.2715639   0.4073459   0.1097982), wk =   0.0714286
        k(   43) = (   0.2715639   0.4073459   0.2195964), wk =   0.0714286
        k(   44) = (   0.2715639   0.4073459   0.3293946), wk =   0.0714286
        k(   45) = (   0.2715639  -0.5431278   0.0000000), wk =   0.0178571
        k(   46) = (   0.2715639  -0.5431278   0.1097982), wk =   0.0357143
        k(   47) = (   0.2715639  -0.5431278   0.2195964), wk =   0.0357143
        k(   48) = (   0.2715639  -0.5431278   0.3293946), wk =   0.0357143
        k(   49) = (   0.4073459   0.4073459   0.0000000), wk =   0.0178571
        k(   50) = (   0.4073459   0.4073459   0.1097982), wk =   0.0357143
        k(   51) = (   0.4073459   0.4073459   0.2195964), wk =   0.0357143
        k(   52) = (   0.4073459   0.4073459   0.3293946), wk =   0.0357143
        k(   53) = (   0.4073459  -0.5431278   0.0000000), wk =   0.0178571
        k(   54) = (   0.4073459  -0.5431278   0.1097982), wk =   0.0357143
        k(   55) = (   0.4073459  -0.5431278   0.2195964), wk =   0.0357143
        k(   56) = (   0.4073459  -0.5431278   0.3293946), wk =   0.0357143
        k(   57) = (  -0.5431278  -0.5431278   0.0000000), wk =   0.0044643
        k(   58) = (  -0.5431278  -0.5431278   0.1097982), wk =   0.0089286
        k(   59) = (  -0.5431278  -0.5431278   0.2195964), wk =   0.0089286
        k(   60) = (  -0.5431278  -0.5431278   0.3293946), wk =   0.0089286

     Dense  grid:    17545 G-vectors     FFT dimensions: (  30,  30,  45)

     Estimated max dynamical RAM per process >      15.48 MB

     Estimated total dynamical RAM >     123.86 MB

     Initial potential from superposition of free atoms

     starting charge       9.9903, renormalised to      10.0000
     Starting wfcs are    8 randomized atomic wfcs +    1 random wfcs

     total cpu time spent up to now is       25.1 secs

     Self-consistent Calculation

     iteration #  1     ecut=    80.00 Ry     beta= 0.70
     Davidson diagonalization with overlap
     c_bands:  2 eigenvalues not converged
     c_bands:  5 eigenvalues not converged
     c_bands:  1 eigenvalues not converged
     c_bands:  1 eigenvalues not converged
     c_bands:  1 eigenvalues not converged
     c_bands:  1 eigenvalues not converged
     c_bands:  1 eigenvalues not converged
     c_bands:  1 eigenvalues not converged
     ethr =  1.00E-06,  avg # of iterations = 15.6

     total cpu time spent up to now is       26.1 secs

     total energy              =     -37.04575577 Ry
     estimated scf accuracy    <       0.08903044 Ry

     iteration #  2     ecut=    80.00 Ry     beta= 0.70
     Davidson diagonalization with overlap
     ethr =  8.90E-04,  avg # of iterations =  2.1

     total cpu time spent up to now is       26.4 secs

     total energy              =     -37.06375259 Ry
     estimated scf accuracy    <       0.04690645 Ry

     iteration #  3     ecut=    80.00 Ry     beta= 0.70
     Davidson diagonalization with overlap
     ethr =  4.69E-04,  avg # of iterations =  1.6

     total cpu time spent up to now is       26.7 secs

     total energy              =     -37.07219700 Ry
     estimated scf accuracy    <       0.00055214 Ry

     iteration #  4     ecut=    80.00 Ry     beta= 0.70
     Davidson diagonalization with overlap
     ethr =  5.52E-06,  avg # of iterations =  2.6

     total cpu time spent up to now is       27.0 secs

     total energy              =     -37.07229355 Ry
     estimated scf accuracy    <       0.00001421 Ry

     iteration #  5     ecut=    80.00 Ry     beta= 0.70
     Davidson diagonalization with overlap
     ethr =  1.42E-07,  avg # of iterations =  2.2

     total cpu time spent up to now is       27.3 secs

     total energy              =     -37.07229559 Ry
     estimated scf accuracy    <       0.00000035 Ry

     iteration #  6     ecut=    80.00 Ry     beta= 0.70
     Davidson diagonalization with overlap
     ethr =  3.48E-09,  avg # of iterations =  2.5

     total cpu time spent up to now is       27.5 secs

     total energy              =     -37.07229571 Ry
     estimated scf accuracy    <       0.00000002 Ry

     iteration #  7     ecut=    80.00 Ry     beta= 0.70
     Davidson diagonalization with overlap
     ethr =  2.38E-10,  avg # of iterations =  2.0

     total cpu time spent up to now is       27.8 secs

     total energy              =     -37.07229571 Ry
     estimated scf accuracy    <          2.5E-09 Ry

     iteration #  8     ecut=    80.00 Ry     beta= 0.70
     Davidson diagonalization with overlap
     ethr =  2.50E-11,  avg # of iterations =  2.1

     total cpu time spent up to now is       28.1 secs

     total energy              =     -37.07229571 Ry
     estimated scf accuracy    <          3.2E-10 Ry

     iteration #  9     ecut=    80.00 Ry     beta= 0.70
     Davidson diagonalization with overlap
     ethr =  3.17E-12,  avg # of iterations =  1.5

     total cpu time spent up to now is       28.4 secs

     End of self-consistent calculation

          k = 0.0000 0.0000 0.0000 (  2173 PWs)   bands (ev):

   -37.9577 -36.9073  -2.1604   4.8638  12.3779  13.9051  13.9051  16.8251
    18.1715

          k = 0.0000 0.0000 0.1098 (  2181 PWs)   bands (ev):

   -37.9573 -36.9073  -2.1878   4.7096  13.0126  14.0978  14.0978  16.6432
    18.3388

          k = 0.0000 0.0000 0.2196 (  2200 PWs)   bands (ev):

   -37.9563 -36.9071  -2.2495   4.4144  14.6552  14.6752  14.6752  16.2842
    18.7970

          k = 0.0000 0.0000 0.3294 (  2192 PWs)   bands (ev):

   -37.9555 -36.9070  -2.2992   4.2154  15.6350  15.6350  16.0332  16.5557
    16.9821

          k = 0.0000 0.1358 0.0000 (  2203 PWs)   bands (ev):

   -37.9150 -36.9442  -1.8837   5.1609  11.1027  12.6159  14.1918  16.8745
    20.2748

          k = 0.0000 0.1358 0.1098 (  2191 PWs)   bands (ev):

   -37.9146 -36.9441  -1.9043   4.9710  11.3156  13.2173  14.3842  16.3572
    19.8490

          k = 0.0000 0.1358 0.2196 (  2189 PWs)   bands (ev):

   -37.9136 -36.9439  -1.9511   4.6135  11.7923  14.8570  14.9605  15.3206
    18.9713

          k = 0.0000 0.1358 0.3294 (  2184 PWs)   bands (ev):

   -37.9129 -36.9438  -1.9890   4.3753  12.3193  14.4279  15.9166  16.7722
    17.2685

          k = 0.0000 0.2716 0.0000 (  2222 PWs)   bands (ev):

   -37.7944 -37.0506  -1.0648   6.0396   7.8640  12.5959  15.0372  15.8429
    16.3784

          k = 0.0000 0.2716 0.1098 (  2200 PWs)   bands (ev):

   -37.7940 -37.0505  -1.0652   5.7311   8.0180  13.3485  14.2282  15.2280
    18.1571

          k = 0.0000 0.2716 0.2196 (  2187 PWs)   bands (ev):

   -37.7932 -37.0503  -1.0662   5.1896   8.3713  12.7304  15.2490  15.7991
    19.7929

          k = 0.0000 0.2716 0.3294 (  2191 PWs)   bands (ev):

   -37.7926 -37.0501  -1.0671   4.8421   8.7314  11.7895  16.7362  17.5029
    18.1217

          k = 0.0000 0.4073 0.0000 (  2202 PWs)   bands (ev):

   -37.6168 -37.2139   0.2390   5.0300   7.4191  12.7867  13.1652  14.6471
    16.3512

          k = 0.0000 0.4073 0.1098 (  2203 PWs)   bands (ev):

   -37.6166 -37.2138   0.2723   5.1027   6.9524  11.8688  13.7307  16.3482
    16.5372

          k = 0.0000 0.4073 0.2196 (  2190 PWs)   bands (ev):

   -37.6160 -37.2135   0.3522   5.2869   6.1618  10.5071  15.9302  17.0902
    18.9002

          k = 0.0000 0.4073 0.3294 (  2205 PWs)   bands (ev):

   -37.6155 -37.2133   0.4219   5.4547   5.6683   9.7237  17.9601  18.5789
    19.4923

          k = 0.0000-0.5431 0.0000 (  2194 PWs)   bands (ev):

   -37.4141 -37.4108   1.4096   3.3460   8.5447  11.4259  13.0286  14.0080
    17.3934

          k = 0.0000-0.5431 0.1098 (  2210 PWs)   bands (ev):

   -37.4139 -37.4106   1.4862   3.3850   7.8516  10.5320  14.1580  15.3768
    17.5687

          k = 0.0000-0.5431 0.2196 (  2206 PWs)   bands (ev):

   -37.4134 -37.4103   1.6810   3.4794   6.7475   9.4147  16.5778  17.9267
    18.0823

          k = 0.0000-0.5431 0.3294 (  2184 PWs)   bands (ev):

   -37.4130 -37.4100   1.8691   3.5633   6.0341   8.7825  18.8238  19.4005
    20.7613

          k = 0.1358 0.1358 0.0000 (  2208 PWs)   bands (ev):

   -37.8750 -36.9777  -1.6090   5.4577  10.9377  11.7047  12.7795  19.1143
    20.1418

          k = 0.1358 0.1358 0.1098 (  2191 PWs)   bands (ev):

   -37.8746 -36.9776  -1.6226   5.2284  11.2459  11.7525  13.3730  18.0643
    18.3294

          k = 0.1358 0.1358 0.2196 (  2187 PWs)   bands (ev):

   -37.8737 -36.9774  -1.6538   4.8051  11.8664  11.9645  14.9165  16.4514
    17.0264

          k = 0.1358 0.1358 0.3294 (  2180 PWs)   bands (ev):

   -37.8730 -36.9773  -1.6794   4.5266  11.9654  12.9645  14.4193  16.4717
    17.4552

          k = 0.1358 0.2716 0.0000 (  2195 PWs)   bands (ev):

   -37.7622 -37.0747  -0.7962   6.3356   8.0441  11.7360  12.8153  16.6416
    18.1476

          k = 0.1358 0.2716 0.1098 (  2196 PWs)   bands (ev):

   -37.7618 -37.0746  -0.7891   5.9716   8.2173  11.8697  13.3826  15.6598
    19.0651

          k = 0.1358 0.2716 0.2196 (  2195 PWs)   bands (ev):

   -37.7611 -37.0744  -0.7726   5.3551   8.5860  11.7699  14.2726  15.6781
    17.8492

          k = 0.1358 0.2716 0.3294 (  2195 PWs)   bands (ev):

   -37.7605 -37.0742  -0.7590   4.9659   8.9439  11.4437  14.0939  16.9852
    18.1064

          k = 0.1358 0.4073 0.0000 (  2190 PWs)   bands (ev):

   -37.5968 -37.2243   0.4954   5.2560   7.7137  11.9788  13.0937  13.4463
    17.2496

          k = 0.1358 0.4073 0.1098 (  2190 PWs)   bands (ev):

   -37.5965 -37.2242   0.5372   5.3301   7.1752  11.5549  13.1392  14.6023
    17.8608

          k = 0.1358 0.4073 0.2196 (  2203 PWs)   bands (ev):

   -37.5960 -37.2239   0.6381   5.5078   6.3173  10.3937  14.4634  16.2207
    18.6274

          k = 0.1358 0.4073 0.3294 (  2202 PWs)   bands (ev):

   -37.5955 -37.2237   0.7276   5.5689   5.8982   9.6756  15.1424  18.0412
    18.8072

          k = 0.1358-0.5431 0.0000 (  2198 PWs)   bands (ev):

   -37.4087 -37.4058   1.6467   3.6006   8.8385  11.7110  12.0515  13.2460
    17.2084

          k = 0.1358-0.5431 0.1098 (  2194 PWs)   bands (ev):

   -37.4085 -37.4057   1.7331   3.6435   8.0199  10.6315  13.1203  14.6938
    17.4475

          k = 0.1358-0.5431 0.2196 (  2204 PWs)   bands (ev):

   -37.4080 -37.4054   1.9560   3.7477   6.8216   9.4752  14.8610  16.8653
    18.2501

          k = 0.1358-0.5431 0.3294 (  2198 PWs)   bands (ev):

   -37.4076 -37.4051   2.1768   3.8407   6.0587   8.8371  15.9742  18.8186
    18.9077

          k = 0.2716 0.2716 0.0000 (  2178 PWs)   bands (ev):

   -37.6721 -37.1452  -0.0035   7.2110   8.1476   9.2254  12.2782  16.9969
    18.0327

          k = 0.2716 0.2716 0.1098 (  2193 PWs)   bands (ev):

   -37.6718 -37.1451   0.0259   6.6355   8.5081   9.1860  13.0654  15.7396
    16.8078

          k = 0.2716 0.2716 0.2196 (  2196 PWs)   bands (ev):

   -37.6712 -37.1449   0.0958   5.8140   9.0982   9.1899  13.2441  15.5725
    16.4896

          k = 0.2716 0.2716 0.3294 (  2201 PWs)   bands (ev):

   -37.6707 -37.1448   0.1564   5.3166   9.0285  10.1439  11.6919  16.2999
    18.1459

          k = 0.2716 0.4073 0.0000 (  2182 PWs)   bands (ev):

   -37.5416 -37.2561   1.2467   5.8981   8.5862   9.5876  11.7688  14.2501
    16.9410

          k = 0.2716 0.4073 0.1098 (  2189 PWs)   bands (ev):

   -37.5414 -37.2560   1.3134   5.9676   7.7712   9.7283  12.3843  14.1205
    16.7295

          k = 0.2716 0.4073 0.2196 (  2200 PWs)   bands (ev):

   -37.5409 -37.2558   1.4796   6.0506   6.8219   9.6001  12.3221  15.2414
    16.5614

          k = 0.2716 0.4073 0.3294 (  2206 PWs)   bands (ev):

   -37.5405 -37.2556   1.6349   5.7822   6.6400   9.4448  11.7959  16.4875
    16.9428

          k = 0.2716-0.5431 0.0000 (  2168 PWs)   bands (ev):

   -37.3957 -37.3940   2.3289   4.3575   9.7132  10.0720  11.4200  12.5314
    16.5141

          k = 0.2716-0.5431 0.1098 (  2190 PWs)   bands (ev):

   -37.3955 -37.3938   2.4441   4.4092   8.3283  10.5059  11.3585  13.5947
    16.5763

          k = 0.2716-0.5431 0.2196 (  2200 PWs)   bands (ev):

   -37.3951 -37.3936   2.7531   4.5348   6.9864   9.5178  12.2873  14.8879
    16.8259

          k = 0.2716-0.5431 0.3294 (  2202 PWs)   bands (ev):

   -37.3948 -37.3933   3.0890   4.6470   6.1174   8.9611  12.6095  15.6087
    17.0740

          k = 0.4073 0.4073 0.0000 (  2200 PWs)   bands (ev):

   -37.4645 -37.3098   2.4029   6.4915   7.6512   9.9648  10.3462  15.0799
    15.9472

          k = 0.4073 0.4073 0.1098 (  2194 PWs)   bands (ev):

   -37.4644 -37.3097   2.5118   6.5507   7.5672   8.8411  11.3490  14.3381
    15.2326

          k = 0.4073 0.4073 0.2196 (  2205 PWs)   bands (ev):

   -37.4640 -37.3095   2.7979   6.4428   7.3892   8.2357  11.0349  14.0388
    15.5614

          k = 0.4073 0.4073 0.3294 (  2200 PWs)   bands (ev):

   -37.4637 -37.3093   3.0961   6.0051   7.2556   8.7232   9.7915  14.2105
    15.8118

          k = 0.4073-0.5431 0.0000 (  2192 PWs)   bands (ev):

   -37.3826 -37.3821   3.3209   5.5923   8.1245   9.2823  11.1234  13.7027
    15.7714

          k = 0.4073-0.5431 0.1098 (  2204 PWs)   bands (ev):

   -37.3824 -37.3820   3.4812   5.6444   7.8091   9.1819  10.7537  13.7871
    15.3506

          k = 0.4073-0.5431 0.2196 (  2196 PWs)   bands (ev):

   -37.3821 -37.3817   3.9374   5.7571   7.0394   9.0417  10.0316  13.4393
    15.5920

          k = 0.4073-0.5431 0.3294 (  2198 PWs)   bands (ev):

   -37.3819 -37.3815   4.5434   5.8402   6.1995   9.0215   9.5586  12.7779
    15.9395

          k =-0.5431-0.5431 0.0000 (  2212 PWs)   bands (ev):

   -37.3771 -37.3771   3.9908   7.1179   7.1179   7.4197  12.4249  14.4390
    14.4390

          k =-0.5431-0.5431 0.1098 (  2208 PWs)   bands (ev):

   -37.3770 -37.3770   4.1925   7.0201   7.0201   7.6127  11.0339  14.6640
    14.6640

          k =-0.5431-0.5431 0.2196 (  2188 PWs)   bands (ev):

   -37.3768 -37.3768   4.7889   6.8153   6.8153   8.1677   9.0657  13.0810
    15.1647

          k =-0.5431-0.5431 0.3294 (  2208 PWs)   bands (ev):

   -37.3766 -37.3766   5.7092   6.6637   6.6637   7.4148   8.9101  11.5396
    15.5646

     the Fermi energy is     9.1296 ev

!    total energy              =     -37.07229571 Ry
     estimated scf accuracy    <          3.6E-12 Ry
     smearing contrib. (-TS)   =      -0.00013450 Ry
     internal energy E=F+TS    =     -37.07216121 Ry

     The total energy is F=E-TS. E is the sum of the following terms:
     one-electron contribution =      -9.24738641 Ry
     hartree contribution      =       6.38179074 Ry
     xc contribution           =     -10.29021018 Ry
     ewald contribution        =     -23.91635537 Ry

     convergence has been achieved in   9 iterations

     Forces acting on atoms (cartesian axes, Ry/au):

     atom    1 type  1   force =     0.00000000    0.00000000    0.00000000
     atom    2 type  2   force =     0.00000000    0.00000000   -0.00001021
     atom    3 type  2   force =     0.00000000    0.00000000    0.00001021
     The non-local contrib.  to forces
     atom    1 type  1   force =     0.00000000    0.00000000    0.00000000
     atom    2 type  2   force =     0.00000000    0.00000000   -0.00001749
     atom    3 type  2   force =     0.00000000    0.00000000    0.00001749
     The ionic contribution  to forces
     atom    1 type  1   force =    -0.00000000   -0.00000000    0.00000000
     atom    2 type  2   force =    -0.00000000    0.00000000    0.00005164
     atom    3 type  2   force =     0.00000000   -0.00000000   -0.00005164
     The local contribution  to forces
     atom    1 type  1   force =    -0.00000000   -0.00000000   -0.00000000
     atom    2 type  2   force =    -0.00000000    0.00000000   -0.00004436
     atom    3 type  2   force =     0.00000000   -0.00000000    0.00004436
     The core correction contribution to forces
     atom    1 type  1   force =    -0.00000000   -0.00000000   -0.00000000
     atom    2 type  2   force =     0.00000000    0.00000000    0.00000000
     atom    3 type  2   force =     0.00000000    0.00000000    0.00000000
     The Hubbard contrib.    to forces
     atom    1 type  1   force =     0.00000000    0.00000000    0.00000000
     atom    2 type  2   force =     0.00000000    0.00000000    0.00000000
     atom    3 type  2   force =     0.00000000    0.00000000    0.00000000
     The SCF correction term to forces
     atom    1 type  1   force =    -0.00000000    0.00000000   -0.00000000
     atom    2 type  2   force =    -0.00000000    0.00000000    0.00000000
     atom    3 type  2   force =    -0.00000000   -0.00000000   -0.00000000

     Total force =     0.000014     Total SCF correction =     0.000000


     Computing stress (Cartesian axis) and pressure

          total   stress  (Ry/bohr**3)                   (kbar)     P=      500.66
   0.00340049   0.00000000   0.00000000          500.23        0.00        0.00
   0.00000000   0.00340049   0.00000000            0.00      500.23        0.00
   0.00000000   0.00000000   0.00340925            0.00        0.00      501.52


     Writing all to output data dir ./output/SiLi.save/

     init_run     :      0.72s CPU      0.78s WALL (       2 calls)
     electrons    :     17.04s CPU     20.34s WALL (      10 calls)
     update_pot   :      1.56s CPU      1.58s WALL (       8 calls)
     forces       :      1.21s CPU      1.23s WALL (      10 calls)
     stress       :      4.25s CPU      4.49s WALL (      10 calls)

     Called by init_run:
     wfcinit      :      0.15s CPU      0.16s WALL (       2 calls)
     potinit      :      0.17s CPU      0.17s WALL (       2 calls)
     hinit0       :      0.39s CPU      0.43s WALL (       2 calls)

     Called by electrons:
     c_bands      :     14.78s CPU     17.89s WALL (      72 calls)
     sum_band     :      2.03s CPU      2.14s WALL (      72 calls)
     v_of_rho     :      0.21s CPU      0.21s WALL (      77 calls)
     mix_rho      :      0.02s CPU      0.02s WALL (      72 calls)

     Called by c_bands:
     init_us_2    :      0.68s CPU      0.77s WALL (    9960 calls)
     init_us_2:cp :      0.67s CPU      0.76s WALL (    9960 calls)
     cegterg      :     13.39s CPU     14.37s WALL (    4320 calls)

     Called by *egterg:
     cdiaghg      :      1.50s CPU      1.57s WALL (   15154 calls)
     h_psi        :     10.24s CPU     11.06s WALL (   16054 calls)
     g_psi        :      0.07s CPU      0.08s WALL (   11614 calls)

     Called by h_psi:
     h_psi:calbec :      0.85s CPU      0.91s WALL (   16054 calls)
     vloc_psi     :      8.75s CPU      9.45s WALL (   16054 calls)
     add_vuspsi   :      0.56s CPU      0.60s WALL (   16054 calls)

     General routines
     calbec       :      1.08s CPU      1.18s WALL (   19054 calls)
     fft          :      0.36s CPU      0.40s WALL (    1023 calls)
     ffts         :      0.00s CPU      0.01s WALL (      72 calls)
     fftw         :      8.76s CPU      9.42s WALL (  250576 calls)

     Parallel routines

     PWSCF        :     25.06s CPU     29.08s WALL


   This run was terminated on:  19:15:13  26Dec2024            

=------------------------------------------------------------------------------=
   JOB DONE.
=------------------------------------------------------------------------------=
