
     Program PWSCF v.7.2 starts on 10Jan2025 at 22: 9: 6 

     This program is part of the open-source Quantum ESPRESSO suite
     for quantum simulation of materials; please cite
         "P. Giannozzi et al., J. Phys.:Condens. Matter 21 395502 (2009);
         "P. Giannozzi et al., J. Phys.:Condens. Matter 29 465901 (2017);
         "P. Giannozzi et al., J. Chem. Phys. 152 154105 (2020);
          URL http://www.quantum-espresso.org", 
     in publications or presentations arising from this work. More details at
     http://www.quantum-espresso.org/quote

     Parallel version (MPI & OpenMP), running on       8 processor cores
     Number of MPI processes:                 8
     Threads/MPI process:                     1

     MPI processes distributed on     1 nodes
     482174 MiB available memory on the printing compute node when the environment starts

     Waiting for input...
     Reading input from standard input

     Current dimensions of program PWSCF are:
     Max number of different atomic species (ntypx) = 10
     Max number of k-points (npk) =  40000
     Max angular momentum in pseudopotentials (lmaxx) =  4

     R & G space division:  proc/nbgrp/npool/nimage =       8
     Subspace diagonalization in iterative solution of the eigenvalue problem:
     a serial algorithm will be used


     Parallelization info
     --------------------
     sticks:   dense  smooth     PW     G-vecs:    dense   smooth      PW
     Min         156     156     47                 3367     3367     568
     Max         157     157     48                 3370     3370     570
     Sum        1255    1255    381                26955    26955    4551

     Using Slab Decomposition



     bravais-lattice index     =            7
     lattice parameter (alat)  =       5.4181  a.u.
     unit-cell volume          =     199.1686 (a.u.)^3
     number of atoms/cell      =            3
     number of atomic types    =            2
     number of electrons       =        11.00
     number of Kohn-Sham states=           10
     kinetic-energy cutoff     =     100.0000  Ry
     charge density cutoff     =     400.0000  Ry
     scf convergence threshold =      1.0E-08
     mixing beta               =       0.7000
     number of iterations used =            8  plain     mixing
     energy convergence thresh.=      1.0E-04
     force convergence thresh. =      1.0E-03
     press convergence thresh. =      1.0E+00
     Exchange-correlation= PBE
                           (   1   4   3   4   0   0   0)
     nstep                     =           50


     celldm(1)=   5.418134  celldm(2)=   0.000000  celldm(3)=   2.504389
     celldm(4)=   0.000000  celldm(5)=   0.000000  celldm(6)=   0.000000

     crystal axes: (cart. coord. in units of alat)
               a(1) = (   0.500000  -0.500000   1.252195 )  
               a(2) = (   0.500000   0.500000   1.252195 )  
               a(3) = (  -0.500000  -0.500000   1.252195 )  

     reciprocal axes: (cart. coord. in units 2 pi/alat)
               b(1) = (  1.000000 -1.000000  0.000000 )  
               b(2) = (  0.000000  1.000000  0.399299 )  
               b(3) = ( -1.000000  0.000000  0.399299 )  


     PseudoPot. # 1 for Si read from file:
     ../pseudo/Si_ONCV_PBE_sr.upf
     MD5 check sum: e543d271109d17c80368dfa7c482276d
     Pseudo is Norm-conserving + core correction, Zval =  4.0
     Generated using ONCVPSP code by D. R. Hamann
     Using radial grid of 1510 points,  6 beta functions with: 
                l(1) =   0
                l(2) =   0
                l(3) =   1
                l(4) =   1
                l(5) =   2
                l(6) =   2

     PseudoPot. # 2 for Li read from file:
     ../pseudo/Li_ONCV_PBE_sr.upf
     MD5 check sum: 50ff420e78310ffa21704f3361e624a4
     Pseudo is Norm-conserving, Zval =  3.0
     Generated using ONCVPSP code by D. R. Hamann
     Using radial grid of 1944 points,  4 beta functions with: 
                l(1) =   0
                l(2) =   0
                l(3) =   1
                l(4) =   1

     atomic species   valence    mass     pseudopotential
        Si             4.00    28.08550     Si( 1.00)
        Li             3.00     6.94100     Li( 1.00)

     16 Sym. Ops., with inversion, found



   Cartesian axes

     site n.     atom                  positions (alat units)
         1           Si  tau(   1) = (   0.0000000   0.0000000   0.3927295  )
         2           Si  tau(   2) = (   0.0000000   0.0000000   2.1116596  )
         3           Li  tau(   3) = (   0.0000000   0.0000000   1.2521946  )

     number of k points=    84  Marzari-Vanderbilt smearing, width (Ry)=  0.0200
                       cart. coord. in units 2pi/alat
        k(    1) = (   0.0000000   0.0000000   0.0000000), wk =   0.0040000
        k(    2) = (  -0.2000000   0.0000000   0.0798598), wk =   0.0320000
        k(    3) = (  -0.4000000   0.0000000   0.1597196), wk =   0.0320000
        k(    4) = (   0.0000000   0.1000000   0.0399299), wk =   0.0160000
        k(    5) = (  -0.2000000   0.1000000   0.1197897), wk =   0.0320000
        k(    6) = (  -0.4000000   0.1000000   0.1996495), wk =   0.0320000
        k(    7) = (   0.4000000   0.1000000  -0.1197897), wk =   0.0320000
        k(    8) = (   0.2000000   0.1000000  -0.0399299), wk =   0.0320000
        k(    9) = (  -0.2000000   0.2000000   0.1597196), wk =   0.0320000
        k(   10) = (  -0.4000000   0.2000000   0.2395794), wk =   0.0640000
        k(   11) = (   0.4000000   0.2000000  -0.0798598), wk =   0.0640000
        k(   12) = (   0.2000000   0.2000000   0.0000000), wk =   0.0160000
        k(   13) = (   0.0000000   0.3000000   0.1197897), wk =   0.0160000
        k(   14) = (  -0.2000000   0.3000000   0.1996495), wk =   0.0320000
        k(   15) = (  -0.4000000   0.3000000   0.2795093), wk =   0.0320000
        k(   16) = (   0.4000000   0.3000000  -0.0399299), wk =   0.0320000
        k(   17) = (   0.2000000   0.3000000   0.0399299), wk =   0.0320000
        k(   18) = (  -0.4000000   0.4000000   0.3194392), wk =   0.0320000
        k(   19) = (   0.4000000   0.4000000   0.0000000), wk =   0.0160000
        k(   20) = (   0.0000000  -0.5000000  -0.1996495), wk =   0.0080000
        k(   21) = (  -0.2000000  -0.5000000  -0.1197897), wk =   0.0320000
        k(   22) = (  -0.4000000  -0.5000000  -0.0399299), wk =   0.0320000
        k(   23) = (   0.1000000  -0.1000000   0.0000000), wk =   0.0080000
        k(   24) = (  -0.1000000  -0.1000000   0.0798598), wk =   0.0160000
        k(   25) = (  -0.3000000  -0.1000000   0.1597196), wk =   0.0320000
        k(   26) = (   0.5000000  -0.1000000  -0.1597196), wk =   0.0320000
        k(   27) = (   0.3000000  -0.1000000  -0.0798598), wk =   0.0320000
        k(   28) = (  -0.1000000   0.0000000   0.1197897), wk =   0.0160000
        k(   29) = (  -0.3000000   0.0000000   0.1996495), wk =   0.0160000
        k(   30) = (   0.5000000   0.0000000  -0.1197897), wk =   0.0160000
        k(   31) = (   0.3000000   0.0000000  -0.0399299), wk =   0.0160000
        k(   32) = (  -0.1000000   0.1000000   0.1597196), wk =   0.0160000
        k(   33) = (  -0.3000000   0.1000000   0.2395794), wk =   0.0320000
        k(   34) = (   0.5000000   0.1000000  -0.0798598), wk =   0.0320000
        k(   35) = (   0.3000000   0.1000000   0.0000000), wk =   0.0160000
        k(   36) = (  -0.1000000   0.2000000   0.1996495), wk =   0.0320000
        k(   37) = (  -0.3000000   0.2000000   0.2795093), wk =   0.0320000
        k(   38) = (   0.5000000   0.2000000  -0.0399299), wk =   0.0320000
        k(   39) = (  -0.3000000   0.3000000   0.3194392), wk =   0.0160000
        k(   40) = (   0.5000000   0.3000000   0.0000000), wk =   0.0160000
        k(   41) = (   0.3000000   0.3000000   0.0798598), wk =   0.0160000
        k(   42) = (  -0.1000000  -0.6000000  -0.1197897), wk =   0.0320000
        k(   43) = (  -0.3000000  -0.6000000  -0.0399299), wk =   0.0320000
        k(   44) = (   0.3000000  -0.6000000  -0.2795093), wk =   0.0320000
        k(   45) = (   0.5000000  -0.5000000  -0.3194392), wk =   0.0080000
        k(   46) = (   0.3000000  -0.5000000  -0.2395794), wk =   0.0320000
        k(   47) = (  -0.1000000  -0.4000000  -0.0399299), wk =   0.0320000
        k(   48) = (   0.5000000  -0.4000000  -0.2795093), wk =   0.0320000
        k(   49) = (   0.3000000  -0.4000000  -0.1996495), wk =   0.0320000
        k(   50) = (   0.3000000  -0.3000000  -0.1597196), wk =   0.0160000
        k(   51) = (  -0.3000000  -0.2000000   0.1197897), wk =   0.0320000
        k(   52) = (   0.5000000  -0.2000000  -0.1996495), wk =   0.0160000
        k(   53) = (   0.0000000   0.0000000   0.1597196), wk =   0.0080000
        k(   54) = (  -0.2000000   0.0000000   0.2395794), wk =   0.0320000
        k(   55) = (   0.6000000   0.0000000  -0.0798598), wk =   0.0320000
        k(   56) = (   0.4000000   0.0000000   0.0000000), wk =   0.0160000
        k(   57) = (   0.0000000   0.1000000   0.1996495), wk =   0.0160000
        k(   58) = (  -0.2000000   0.1000000   0.2795093), wk =   0.0320000
        k(   59) = (   0.6000000   0.1000000  -0.0399299), wk =   0.0320000
        k(   60) = (  -0.2000000   0.2000000   0.3194392), wk =   0.0320000
        k(   61) = (   0.6000000   0.2000000   0.0000000), wk =   0.0320000
        k(   62) = (   0.0000000  -0.7000000  -0.1197897), wk =   0.0160000
        k(   63) = (  -0.2000000  -0.7000000  -0.0399299), wk =   0.0320000
        k(   64) = (   0.4000000  -0.6000000  -0.2395794), wk =   0.0320000
        k(   65) = (   0.0000000  -0.5000000  -0.0399299), wk =   0.0160000
        k(   66) = (   0.4000000  -0.5000000  -0.1996495), wk =   0.0160000
        k(   67) = (   0.3000000  -0.3000000   0.0000000), wk =   0.0080000
        k(   68) = (   0.7000000  -0.3000000  -0.1597196), wk =   0.0160000
        k(   69) = (   0.5000000  -0.3000000  -0.0798598), wk =   0.0320000
        k(   70) = (  -0.1000000  -0.1000000   0.2395794), wk =   0.0160000
        k(   71) = (   0.7000000  -0.1000000  -0.0798598), wk =   0.0320000
        k(   72) = (   0.5000000  -0.1000000   0.0000000), wk =   0.0160000
        k(   73) = (  -0.1000000   0.0000000   0.2795093), wk =   0.0160000
        k(   74) = (   0.7000000   0.0000000  -0.0399299), wk =   0.0160000
        k(   75) = (  -0.1000000   0.1000000   0.3194392), wk =   0.0160000
        k(   76) = (   0.7000000   0.1000000   0.0000000), wk =   0.0160000
        k(   77) = (  -0.1000000  -0.8000000  -0.0399299), wk =   0.0320000
        k(   78) = (   0.5000000  -0.5000000  -0.1597196), wk =   0.0080000
        k(   79) = (   0.0000000   0.0000000   0.3194392), wk =   0.0080000
        k(   80) = (   0.8000000   0.0000000   0.0000000), wk =   0.0160000
        k(   81) = (   0.0000000  -0.9000000  -0.0399299), wk =   0.0160000
        k(   82) = (  -0.5000000   0.5000000   0.0000000), wk =   0.0040000
        k(   83) = (  -0.3000000   0.7000000   0.0000000), wk =   0.0080000
        k(   84) = (  -0.1000000   0.9000000   0.0000000), wk =   0.0080000

     Dense  grid:    26955 G-vectors     FFT dimensions: (  50,  50,  50)

     Estimated max dynamical RAM per process >      21.56 MB

     Estimated total dynamical RAM >     172.48 MB

     Initial potential from superposition of free atoms

     starting charge      10.9942, renormalised to      11.0000
     Starting wfcs are   10 randomized atomic wfcs

     total cpu time spent up to now is        1.4 secs

     Self-consistent Calculation

     iteration #  1     ecut=   100.00 Ry     beta= 0.70
     Davidson diagonalization with overlap
     ethr =  1.00E-02,  avg # of iterations =  6.0

     Threshold (ethr) on eigenvalues was too large:
     Diagonalizing with lowered threshold

     Davidson diagonalization with overlap
     ethr =  2.10E-04,  avg # of iterations =  3.5

     total cpu time spent up to now is        4.1 secs

     total energy              =     -31.16727989 Ry
     estimated scf accuracy    <       0.02349481 Ry

     iteration #  2     ecut=   100.00 Ry     beta= 0.70
     Davidson diagonalization with overlap
     ethr =  2.14E-04,  avg # of iterations =  2.0

     total cpu time spent up to now is        5.1 secs

     total energy              =     -31.17035728 Ry
     estimated scf accuracy    <       0.00500906 Ry

     iteration #  3     ecut=   100.00 Ry     beta= 0.70
     Davidson diagonalization with overlap
     ethr =  4.55E-05,  avg # of iterations =  2.3

     total cpu time spent up to now is        6.1 secs

     total energy              =     -31.17147673 Ry
     estimated scf accuracy    <       0.00032345 Ry

     iteration #  4     ecut=   100.00 Ry     beta= 0.70
     Davidson diagonalization with overlap
     ethr =  2.94E-06,  avg # of iterations =  3.7

     total cpu time spent up to now is        7.1 secs

     total energy              =     -31.17151798 Ry
     estimated scf accuracy    <       0.00000253 Ry

     iteration #  5     ecut=   100.00 Ry     beta= 0.70
     Davidson diagonalization with overlap
     ethr =  2.30E-08,  avg # of iterations =  3.0

     total cpu time spent up to now is        8.3 secs

     total energy              =     -31.17151993 Ry
     estimated scf accuracy    <       0.00000040 Ry

     iteration #  6     ecut=   100.00 Ry     beta= 0.70
     Davidson diagonalization with overlap
     ethr =  3.65E-09,  avg # of iterations =  1.8

     total cpu time spent up to now is        9.2 secs

     End of self-consistent calculation

          k = 0.0000 0.0000 0.0000 (  3389 PWs)   bands (ev):

   -33.3045  -2.4521   7.5409   8.2357  14.2908  14.2908  15.7808  15.7808
    16.5456  18.3878

          k =-0.2000 0.0000 0.0799 (  3378 PWs)   bands (ev):

   -33.2968  -1.7512   6.4133   9.2016  10.5733  13.3587  14.4993  17.0139
    18.0618  22.0653

          k =-0.4000 0.0000 0.1597 (  3366 PWs)   bands (ev):

   -33.2842   0.2798   4.1261   6.4522  10.3659  15.1463  15.7495  18.3363
    19.7899  20.2202

          k = 0.0000 0.1000 0.0399 (  3392 PWs)   bands (ev):

   -33.3023  -2.2765   6.9917   9.0186  12.2816  14.3143  14.7350  16.1205
    17.3985  19.7915

          k =-0.2000 0.1000 0.1198 (  3374 PWs)   bands (ev):

   -33.2946  -1.4904   5.7700   9.2175  11.3896  12.5487  13.9808  16.6227
    19.8975  21.3411

          k =-0.4000 0.1000 0.1996 (  3362 PWs)   bands (ev):

   -33.2823   0.6242   3.9543   6.3275  10.7768  13.6344  16.6595  16.8133
    19.7029  19.9764

          k = 0.4000 0.1000-0.1198 (  3368 PWs)   bands (ev):

   -33.2825   0.3025   4.6040   6.7698  10.2853  13.5840  15.1186  16.3328
    19.0043  21.7396

          k = 0.2000 0.1000-0.0399 (  3373 PWs)   bands (ev):

   -33.2949  -1.6567   7.2702   9.2804  10.0480  12.6296  13.1830  16.0127
    20.1661  21.1172

          k =-0.2000 0.2000 0.1597 (  3363 PWs)   bands (ev):

   -33.2892  -0.8747   5.3861   8.9966  10.0510  13.1894  13.6385  16.3572
    19.3289  22.5534

          k =-0.4000 0.2000 0.2396 (  3358 PWs)   bands (ev):

   -33.2774   1.3371   4.1041   6.3578  10.8869  11.7327  14.7013  16.7920
    18.9807  19.1089

          k = 0.4000 0.2000-0.0799 (  3356 PWs)   bands (ev):

   -33.2777   0.6867   5.3740   7.2489  10.5000  11.7615  13.4067  13.7908
    17.6296  22.4284

          k = 0.2000 0.2000 0.0000 (  3366 PWs)   bands (ev):

   -33.2896  -1.2101   7.8947   9.5020  10.0064  10.8843  11.7791  15.3005
    19.0851  23.6640

          k = 0.0000 0.3000 0.1198 (  3363 PWs)   bands (ev):

   -33.2898  -0.8845   5.7437   7.1545  10.8857  13.3756  14.9677  18.2390
    18.8773  20.7609

          k =-0.2000 0.3000 0.1996 (  3365 PWs)   bands (ev):

   -33.2826   0.0874   5.0921   7.1658  10.2527  12.5625  14.8559  16.2915
    18.3801  21.5606

          k =-0.4000 0.3000 0.2795 (  3356 PWs)   bands (ev):

   -33.2714   2.4123   4.5874   6.3178   9.0146  11.9742  13.2748  14.9099
    18.1249  19.8184

          k = 0.4000 0.3000-0.0399 (  3356 PWs)   bands (ev):

   -33.2717   1.4224   6.4140   7.8079   9.6853  10.4338  11.3317  12.8764
    16.7255  21.7378

          k = 0.2000 0.3000 0.0399 (  3362 PWs)   bands (ev):

   -33.2831  -0.4196   7.4938   7.9569  10.5155  10.8633  11.7632  14.6839
    17.7631  23.9155

          k =-0.4000 0.4000 0.3194 (  3353 PWs)   bands (ev):

   -33.2666   3.8007   5.3374   5.5597   8.3224  10.7322  12.3639  14.3571
    17.6808  18.6195

          k = 0.4000 0.4000 0.0000 (  3360 PWs)   bands (ev):

   -33.2668   2.4893   7.3889   7.8442   8.0837   9.1021  10.4370  13.7458
    16.2378  20.2315

          k = 0.0000-0.5000-0.1996 (  3372 PWs)   bands (ev):

   -33.2821   1.2342   2.8863   6.3627  10.1153  16.5681  17.0151  17.3096
    18.1774  20.3170

          k =-0.2000-0.5000-0.1198 (  3367 PWs)   bands (ev):

   -33.2755   1.8931   3.6012   6.6563  10.7481  12.0704  13.4977  15.7191
    18.1404  20.3569

          k =-0.4000-0.5000-0.0399 (  3356 PWs)   bands (ev):

   -33.2649   3.8114   5.7380   6.5634   8.6627   9.3139  10.8178  14.7478
    16.5120  18.6663

          k = 0.1000-0.1000 0.0000 (  3376 PWs)   bands (ev):

   -33.3003  -2.1415   7.6237   8.5727  12.2433  12.8328  14.0015  15.7488
    19.2399  20.3552

          k =-0.1000-0.1000 0.0799 (  3380 PWs)   bands (ev):

   -33.3002  -2.0593   6.2733  10.0081  11.8509  12.7673  14.6020  16.0760
    18.9212  20.3934

          k =-0.3000-0.1000 0.1597 (  3363 PWs)   bands (ev):

   -33.2878  -0.5785   5.2656   7.0844  11.5896  12.6232  14.8356  17.4242
    19.3881  20.8972

          k = 0.5000-0.1000-0.1597 (  3363 PWs)   bands (ev):

   -33.2803   1.4000   3.0639   6.4411  10.2927  14.5765  15.5727  17.0654
    19.3854  20.1419

          k = 0.3000-0.1000-0.0799 (  3372 PWs)   bands (ev):

   -33.2880  -0.8303   6.5115   7.4574  10.5034  12.2788  13.9078  16.5966
    19.2254  20.9761

          k =-0.1000 0.0000 0.1198 (  3391 PWs)   bands (ev):

   -33.3020  -2.1146   5.3637  10.7701  12.0587  13.7224  15.5388  17.0974
    17.1124  19.6821

          k =-0.3000 0.0000 0.1996 (  3362 PWs)   bands (ev):

   -33.2895  -0.5566   4.4836   6.7761  12.1593  14.4266  15.0323  18.8803
    19.4314  21.3911

          k = 0.5000 0.0000-0.1198 (  3358 PWs)   bands (ev):

   -33.2821   1.2125   2.9753   6.1090  10.6564  15.5562  16.4316  17.5884
    19.0347  20.8132

          k = 0.3000 0.0000-0.0399 (  3376 PWs)   bands (ev):

   -33.2900  -1.0532   6.8791   7.3781   9.9894  12.2188  15.5511  17.3042
    18.9579  20.5192

          k =-0.1000 0.1000 0.1597 (  3373 PWs)   bands (ev):

   -33.2997  -1.8187   4.7215  11.2482  11.3697  13.1595  15.8268  16.8945
    18.3711  20.5070

          k =-0.3000 0.1000 0.2396 (  3364 PWs)   bands (ev):

   -33.2875  -0.1784   4.0453   6.7155  12.3928  13.0420  16.6265  18.4179
    19.6363  20.5584

          k = 0.5000 0.1000-0.0799 (  3366 PWs)   bands (ev):

   -33.2803   1.3634   3.2231   6.0298  11.2860  14.4138  14.6455  16.3776
    19.5623  20.9746

          k = 0.3000 0.1000 0.0000 (  3369 PWs)   bands (ev):

   -33.2881  -0.9155   7.3536   7.4437  10.0055  11.8057  13.8610  16.2514
    19.1678  21.0225

          k =-0.1000 0.2000 0.1996 (  3369 PWs)   bands (ev):

   -33.2942  -1.1706   4.3381   8.8373  11.8030  13.7670  15.3245  17.6099
    19.6499  21.5909

          k =-0.3000 0.2000 0.2795 (  3361 PWs)   bands (ev):

   -33.2824   0.5539   3.9427   6.8120  10.0626  14.0374  16.2656  17.4058
    19.3912  19.8404

          k = 0.5000 0.2000-0.0399 (  3360 PWs)   bands (ev):

   -33.2755   1.8505   3.8043   6.2021  11.9318  12.1438  13.3653  14.2007
    17.8746  21.9768

          k =-0.3000 0.3000 0.3194 (  3364 PWs)   bands (ev):

   -33.2762   1.6278   4.0891   6.5575   8.6496  14.3403  15.3462  15.5735
    18.8507  19.5871

          k = 0.5000 0.3000 0.0000 (  3348 PWs)   bands (ev):

   -33.2696   2.6696   4.6893   6.5576   9.8772  11.3753  11.7610  14.0868
    16.7148  20.5162

          k = 0.3000 0.3000 0.0799 (  3354 PWs)   bands (ev):

   -33.2768   0.4262   7.5966   7.9661   9.0657  10.7357  11.7977  13.4793
    17.0715  22.5239

          k =-0.1000-0.6000-0.1198 (  3359 PWs)   bands (ev):

   -33.2821   1.0899   3.2547   5.7748  11.9611  13.4380  16.8006  17.9874
    18.9996  20.3962

          k =-0.3000-0.6000-0.0399 (  3354 PWs)   bands (ev):

   -33.2714   2.9910   3.9207   5.9136   8.9262  12.8958  13.4868  15.5715
    17.2024  19.2817

          k = 0.3000-0.6000-0.2795 (  3354 PWs)   bands (ev):

   -33.2716   1.5915   5.8581   7.8104   9.2696  10.5719  11.5555  13.8879
    17.2134  20.5651

          k = 0.5000-0.5000-0.3194 (  3350 PWs)   bands (ev):

   -33.2630   5.2048   5.2265   6.6447   7.8141   9.3936  10.1470  14.0253
    17.3277  18.2940

          k = 0.3000-0.5000-0.2396 (  3361 PWs)   bands (ev):

   -33.2696   2.7634   4.2544   7.5090   9.8196  10.0071  11.9041  14.5950
    17.8836  19.6339

          k =-0.1000-0.4000-0.0399 (  3369 PWs)   bands (ev):

   -33.2826   0.1394   5.1084   6.7321  10.8452  12.4076  14.9270  15.8991
    18.6018  21.9845

          k = 0.5000-0.4000-0.2795 (  3353 PWs)   bands (ev):

   -33.2649   3.8897   5.3241   6.9975   8.6261   9.3687  11.0466  13.4121
    17.3773  19.5266

          k = 0.3000-0.4000-0.1996 (  3358 PWs)   bands (ev):

   -33.2715   1.9258   5.2334   7.0716   9.1627  11.0271  12.4303  14.5527
    18.1566  19.7154

          k = 0.3000-0.3000-0.1597 (  3364 PWs)   bands (ev):

   -33.2766   0.6857   6.3626   7.3484   8.9333  11.9952  12.5184  14.5861
    17.6028  21.1445

          k =-0.3000-0.2000 0.1198 (  3368 PWs)   bands (ev):

   -33.2829  -0.2478   6.3624   7.6351  10.5099  11.3196  13.2236  15.2523
    17.9420  23.1387

          k = 0.5000-0.2000-0.1996 (  3374 PWs)   bands (ev):

   -33.2755   1.9222   3.4889   6.9763  10.1715  12.0666  13.5005  16.7493
    18.6541  19.0005

          k = 0.0000 0.0000 0.1597 (  3385 PWs)   bands (ev):

   -33.3038  -2.1344   4.4952  11.9381  13.2743  13.2743  15.6737  17.5989
    17.5989  18.5958

          k =-0.2000 0.0000 0.2396 (  3356 PWs)   bands (ev):

   -33.2959  -1.1268   3.5774   8.5771  13.4332  14.4309  15.5017  18.1317
    19.6385  22.0249

          k = 0.6000 0.0000-0.0799 (  3366 PWs)   bands (ev):

   -33.2839   1.1940   2.7321   5.4789  12.6794  15.0141  16.2616  17.9899
    19.4422  21.1446

          k = 0.4000 0.0000 0.0000 (  3369 PWs)   bands (ev):

   -33.2844  -0.0435   5.0271   6.5442  11.0253  12.1384  16.7570  17.5106
    19.2099  20.0964

          k = 0.0000 0.1000 0.1996 (  3371 PWs)   bands (ev):

   -33.3015  -1.8057   3.9061  11.1053  13.1755  13.3438  16.5491  16.9322
    18.4560  19.7780

          k =-0.2000 0.1000 0.2795 (  3361 PWs)   bands (ev):

   -33.2937  -0.7415   3.1475   8.5293  11.6136  15.6432  17.0056  18.6351
    19.7796  21.5783

          k = 0.6000 0.1000-0.0399 (  3361 PWs)   bands (ev):

   -33.2820   1.6360   2.5793   5.4571  13.1444  13.6757  15.3382  18.0596
    19.8757  20.5863

          k =-0.2000 0.2000 0.3194 (  3367 PWs)   bands (ev):

   -33.2885  -0.0214   3.0347   8.2110   9.8097  16.8304  16.9634  19.1917
    20.0343  20.9470

          k = 0.6000 0.2000 0.0000 (  3354 PWs)   bands (ev):

   -33.2773   2.3058   2.9128   5.6618  10.8404  14.1046  14.9442  15.6644
    18.3350  21.3020

          k = 0.0000-0.7000-0.1198 (  3364 PWs)   bands (ev):

   -33.2892  -0.1051   3.3545   6.4757  13.6683  14.0486  16.4856  18.9521
    19.9392  20.6028

          k =-0.2000-0.7000-0.0399 (  3368 PWs)   bands (ev):

   -33.2822   1.0123   3.1305   6.6287   9.9621  15.5736  17.1130  17.7819
    18.5967  20.5167

          k = 0.4000-0.6000-0.2396 (  3338 PWs)   bands (ev):

   -33.2667   2.8248   6.3535   6.8046   8.9912   9.6381  10.9956  13.3197
    17.5545  19.8292

          k = 0.0000-0.5000-0.0399 (  3369 PWs)   bands (ev):

   -33.2821   1.1798   3.1326   5.7387  11.9379  13.6921  16.2897  18.0416
    19.3738  20.3114

          k = 0.4000-0.5000-0.1996 (  3348 PWs)   bands (ev):

   -33.2648   3.9490   5.1339   7.1767   8.7308   9.2319  11.4482  12.6225
    17.5613  20.6627

          k = 0.3000-0.3000 0.0000 (  3364 PWs)   bands (ev):

   -33.2768   0.3388   8.2999   8.3736   9.0345  10.1142  11.4540  12.9435
    16.9350  23.7268

          k = 0.7000-0.3000-0.1597 (  3364 PWs)   bands (ev):

   -33.2764   1.1046   5.1297   6.8596   8.7659  13.4025  13.5522  15.3897
    18.7493  20.0252

          k = 0.5000-0.3000-0.0799 (  3350 PWs)   bands (ev):

   -33.2696   2.7027   4.5032   6.9000   9.8545  10.8391  11.8158  14.3556
    17.0804  20.0923

          k =-0.1000-0.1000 0.2396 (  3361 PWs)   bands (ev):

   -33.2992  -1.4466   3.3883  10.7688  11.5188  14.8941  17.3167  17.9345
    17.9581  20.6933

          k = 0.7000-0.1000-0.0799 (  3364 PWs)   bands (ev):

   -33.2872   0.3010   3.0459   6.4734  12.2499  14.6110  17.9764  18.7075
    19.7405  20.1288

          k = 0.5000-0.1000 0.0000 (  3369 PWs)   bands (ev):

   -33.2803   1.3424   3.3323   5.7952  12.7072  12.8945  14.5236  16.3933
    19.2861  21.3922

          k =-0.1000 0.0000 0.2795 (  3350 PWs)   bands (ev):

   -33.3010  -1.3987   2.7230  10.8326  12.7942  15.1269  16.6452  18.1451
    20.0215  20.0620

          k = 0.7000 0.0000-0.0399 (  3359 PWs)   bands (ev):

   -33.2890   0.3270   2.5718   6.3169  13.8565  15.3680  17.1034  17.2769
    20.9718  21.4669

          k =-0.1000 0.1000 0.3194 (  3364 PWs)   bands (ev):

   -33.2988  -1.0295   2.3882  10.4719  11.3994  16.9018  17.5887  19.0446
    19.1105  20.8918

          k = 0.7000 0.1000 0.0000 (  3363 PWs)   bands (ev):

   -33.2871   0.5803   2.5895   6.3904  12.1891  16.1445  16.6481  19.0416
    20.0488  21.0130

          k =-0.1000-0.8000-0.0399 (  3360 PWs)   bands (ev):

   -33.2935  -0.3556   2.3767   8.3652  11.4909  17.4802  18.2210  19.3986
    20.0119  20.8332

          k = 0.5000-0.5000-0.1597 (  3348 PWs)   bands (ev):

   -33.2630   5.1846   5.5298   6.0212   7.9172  10.0235  10.6610  12.2245
    17.3652  20.7303

          k = 0.0000 0.0000 0.3194 (  3346 PWs)   bands (ev):

   -33.3028  -1.3680   2.1739  12.5160  12.5160  14.8959  15.7579  19.3992
    20.7278  20.7279

          k = 0.8000 0.0000 0.0000 (  3362 PWs)   bands (ev):

   -33.2954  -0.4634   2.1450   8.2753  13.0485  16.3795  18.1110  18.8274
    20.6038  20.7235

          k = 0.0000-0.9000-0.0399 (  3353 PWs)   bands (ev):

   -33.3006  -1.0462   1.9800  10.6696  12.6007  15.7215  17.4871  19.5075
    20.5119  21.7377

          k =-0.5000 0.5000 0.0000 (  3364 PWs)   bands (ev):

   -33.2630   5.1245   5.2177   7.0603   7.7543   8.7633  10.2196  15.9292
    16.1776  17.3035

          k =-0.3000 0.7000 0.0000 (  3366 PWs)   bands (ev):

   -33.2762   1.9621   3.5787   6.4559   8.6092  15.0665  15.2584  17.2758
    17.4491  18.5444

          k =-0.1000 0.9000 0.0000 (  3354 PWs)   bands (ev):

   -33.2986  -0.8126   1.9762  10.3719  11.3459  17.4952  17.9885  20.1115
    20.2858  21.1531

     the Fermi energy is    12.4366 ev

!    total energy              =     -31.17152000 Ry
     estimated scf accuracy    <          2.5E-09 Ry
     smearing contrib. (-TS)   =       0.00015689 Ry
     internal energy E=F+TS    =     -31.17167689 Ry

     The total energy is F=E-TS. E is the sum of the following terms:
     one-electron contribution =       4.98962587 Ry
     hartree contribution      =       2.96117006 Ry
     xc contribution           =     -10.14452276 Ry
     ewald contribution        =     -28.97795007 Ry

     convergence has been achieved in   6 iterations

     Forces acting on atoms (cartesian axes, Ry/au):

     atom    1 type  1   force =     0.00000000    0.00000000    0.05433257
     atom    2 type  1   force =     0.00000000    0.00000000   -0.05433257
     atom    3 type  2   force =    -0.00000000    0.00000000    0.00000000
     The non-local contrib.  to forces
     atom    1 type  1   force =    -0.00000000    0.00000000    0.05077181
     atom    2 type  1   force =     0.00000000    0.00000000   -0.05077181
     atom    3 type  2   force =    -0.00000000    0.00000000    0.00000000
     The ionic contribution  to forces
     atom    1 type  1   force =    -0.00000000   -0.00000000    0.19821048
     atom    2 type  1   force =     0.00000000    0.00000000   -0.19821048
     atom    3 type  2   force =    -0.00000000   -0.00000000   -0.00000000
     The local contribution  to forces
     atom    1 type  1   force =     0.00000000    0.00000000   -0.19155050
     atom    2 type  1   force =    -0.00000000   -0.00000000    0.19155050
     atom    3 type  2   force =     0.00000000    0.00000000    0.00000000
     The core correction contribution to forces
     atom    1 type  1   force =     0.00000000    0.00000000   -0.00306710
     atom    2 type  1   force =    -0.00000000   -0.00000000    0.00306710
     atom    3 type  2   force =     0.00000000    0.00000000    0.00000000
     The Hubbard contrib.    to forces
     atom    1 type  1   force =     0.00000000    0.00000000    0.00000000
     atom    2 type  1   force =     0.00000000    0.00000000    0.00000000
     atom    3 type  2   force =     0.00000000    0.00000000    0.00000000
     The SCF correction term to forces
     atom    1 type  1   force =    -0.00000000   -0.00000000   -0.00003212
     atom    2 type  1   force =     0.00000000    0.00000000    0.00003212
     atom    3 type  2   force =     0.00000000    0.00000000    0.00000000

     Total force =     0.076838     Total SCF correction =     0.000045


     Computing stress (Cartesian axis) and pressure

          total   stress  (Ry/bohr**3)                   (kbar)     P=      501.64
   0.00331079   0.00000000   0.00000000          487.03        0.00        0.00
   0.00000000   0.00331079   0.00000000            0.00      487.03        0.00
  -0.00000000   0.00000000   0.00360858           -0.00        0.00      530.84


     BFGS Geometry Optimization
     Energy error            =      0.0E+00 Ry
     Gradient error          =      5.4E-02 Ry/Bohr
     Cell gradient error     =      3.1E+01 kbar

     number of scf cycles    =   1
     number of bfgs steps    =   0

     enthalpy           new  =     -30.4945595538 Ry

     new trust radius        =       0.0543325695 bohr
ibrav =      7
 celldm(1) =      5.40619398
 celldm(3) =      2.52307534
Input lattice vectors:
     0.49889818    -0.49889818     1.25875769
     0.49889818     0.49889818     1.25875769
    -0.49889818    -0.49889818     1.25875769
New lattice vectors in INITIAL alat:
     0.49889818    -0.49889818     1.25875769
     0.49889818     0.49889818     1.25875769
    -0.49889818    -0.49889818     1.25875769
New lattice vectors in NEW alat (for information only):
     0.50000000    -0.50000000     1.26153767
     0.50000000     0.50000000     1.26153767
    -0.50000000    -0.50000000     1.26153767
Discrepancy in bohr =     0.000000    0.000000    0.000000
     new conv_thr            =       0.0000000100 Ry

     new unit-cell volume =    199.33112 a.u.^3 (    29.53782 Ang^3 )
     density =      3.54799 g/cm^3

CELL_PARAMETERS (alat=  5.41813362)
   0.498898178  -0.498898178   1.258757692
   0.498898178   0.498898178   1.258757692
  -0.498898178  -0.498898178   1.258757692

ATOMIC_POSITIONS (crystal)
Si            0.0000000000        0.1608206350        0.1608206350
Si            0.0000000000        0.8391793650        0.8391793650
Li            0.0000000000        0.5000000000        0.5000000000



     Writing config-only to output data dir ./output/SiLi.save/
     NEW-OLD atomic charge density approx. for the potential
     extrapolated charge   11.00896, renormalised to   11.00000

     total cpu time spent up to now is       10.8 secs

     Self-consistent Calculation

     iteration #  1     ecut=   100.00 Ry     beta= 0.70
     Davidson diagonalization with overlap
     c_bands:  1 eigenvalues not converged
     ethr =  1.00E-06,  avg # of iterations =  7.6

     total cpu time spent up to now is       12.9 secs

     total energy              =     -31.17570439 Ry
     estimated scf accuracy    <       0.00115660 Ry

     iteration #  2     ecut=   100.00 Ry     beta= 0.70
     Davidson diagonalization with overlap
     ethr =  1.05E-05,  avg # of iterations =  2.1

     total cpu time spent up to now is       14.0 secs

     total energy              =     -31.17605885 Ry
     estimated scf accuracy    <       0.00048674 Ry

     iteration #  3     ecut=   100.00 Ry     beta= 0.70
     Davidson diagonalization with overlap
     ethr =  4.42E-06,  avg # of iterations =  1.5

     total cpu time spent up to now is       14.9 secs

     total energy              =     -31.17615193 Ry
     estimated scf accuracy    <       0.00000097 Ry

     iteration #  4     ecut=   100.00 Ry     beta= 0.70
     Davidson diagonalization with overlap
     ethr =  8.79E-09,  avg # of iterations =  3.7

     total cpu time spent up to now is       16.1 secs

     total energy              =     -31.17615308 Ry
     estimated scf accuracy    <       0.00000022 Ry

     iteration #  5     ecut=   100.00 Ry     beta= 0.70
     Davidson diagonalization with overlap
     ethr =  2.02E-09,  avg # of iterations =  1.9

     total cpu time spent up to now is       17.1 secs

     End of self-consistent calculation

          k = 0.0000 0.0000 0.0000 (  3389 PWs)   bands (ev):

   -33.3093  -2.5215   7.6809   8.0435  14.1066  14.1066  16.0627  16.0627
    16.3278  18.4338

          k =-0.2004-0.0000 0.0794 (  3378 PWs)   bands (ev):

   -33.3015  -1.8149   6.4704   9.0545  10.4707  13.5522  14.4017  17.2175
    17.9794  22.2972

          k =-0.4009-0.0000 0.1589 (  3366 PWs)   bands (ev):

   -33.2890   0.2487   4.0546   6.4336  10.4243  15.1207  15.7304  18.3535
    19.8103  20.2296

          k = 0.0000 0.1002 0.0397 (  3392 PWs)   bands (ev):

   -33.3071  -2.3445   7.0368   8.9217  12.1191  14.1639  14.9754  16.3705
    17.2590  19.7925

          k =-0.2004 0.1002 0.1192 (  3374 PWs)   bands (ev):

   -33.2994  -1.5584   5.8304   9.0944  11.2895  12.5393  14.0500  16.8410
    19.8331  21.3001

          k =-0.4009 0.1002 0.1986 (  3362 PWs)   bands (ev):

   -33.2871   0.5856   3.9091   6.3045  10.8484  13.6131  16.6173  16.8059
    19.7404  19.9067

          k = 0.4009 0.1002-0.1192 (  3368 PWs)   bands (ev):

   -33.2872   0.2791   4.5047   6.7799  10.3351  13.5598  15.0671  16.3806
    19.0683  21.7153

          k = 0.2004 0.1002-0.0397 (  3373 PWs)   bands (ev):

   -33.2996  -1.7141   7.3533   9.1225   9.9016  12.7063  13.1763  16.2794
    20.0603  21.1072

          k =-0.2004 0.2004 0.1589 (  3363 PWs)   bands (ev):

   -33.2940  -0.9447   5.4624   8.9208   9.9436  13.1337  13.7233  16.5437
    19.2398  22.5052

          k =-0.4009 0.2004 0.2383 (  3358 PWs)   bands (ev):

   -33.2822   1.2906   4.0857   6.3530  10.9022  11.7718  14.6402  16.8209
    18.8360  19.0540

          k = 0.4009 0.2004-0.0794 (  3356 PWs)   bands (ev):

   -33.2824   0.6718   5.2443   7.3123  10.5793  11.6580  13.4062  13.8040
    17.6326  22.4248

          k = 0.2004 0.2004 0.0000 (  3366 PWs)   bands (ev):

   -33.2944  -1.2590   8.0355   9.3017   9.7931  10.7710  12.0105  15.5613
    19.0221  23.6792

          k = 0.0000 0.3007 0.1192 (  3363 PWs)   bands (ev):

   -33.2946  -0.9388   5.7999   7.0138  10.8874  13.4326  14.9113  18.4131
    18.8318  20.7195

          k =-0.2004 0.3007 0.1986 (  3365 PWs)   bands (ev):

   -33.2874   0.0198   5.1817   7.0741  10.1915  12.6165  14.8942  16.2897
    18.3001  21.5443

          k =-0.4009 0.3007 0.2781 (  3356 PWs)   bands (ev):

   -33.2761   2.3572   4.6001   6.3469   8.9693  12.0511  13.1735  14.9626
    17.9708  19.7565

          k = 0.4009 0.3007-0.0397 (  3356 PWs)   bands (ev):

   -33.2764   1.4181   6.2486   7.9431   9.6039  10.5387  11.3646  12.7427
    16.7096  21.6664

          k = 0.2004 0.3007 0.0397 (  3362 PWs)   bands (ev):

   -33.2878  -0.4561   7.4756   7.9117  10.3564  10.9247  11.7666  14.8886
    17.7008  23.8830

          k =-0.4009 0.4009 0.3178 (  3353 PWs)   bands (ev):

   -33.2713   3.7496   5.4278   5.5179   8.3148  10.6370  12.4538  14.3493
    17.4814  18.5520

          k = 0.4009 0.4009-0.0000 (  3360 PWs)   bands (ev):

   -33.2715   2.5005   7.1682   7.9439   8.0164   9.3120  10.4198  13.5913
    16.2326  20.0773

          k =-0.0000-0.5011-0.1986 (  3372 PWs)   bands (ev):

   -33.2869   1.2680   2.7312   6.3697  10.1783  16.6330  17.0124  17.2153
    18.0906  20.4225

          k =-0.2004-0.5011-0.1192 (  3367 PWs)   bands (ev):

   -33.2802   1.9302   3.4438   6.7055  10.8243  12.1227  13.3384  15.7135
    18.1263  20.2808

          k =-0.4009-0.5011-0.0397 (  3356 PWs)   bands (ev):

   -33.2695   3.8564   5.5795   6.6612   8.7223   9.1755  10.9059  14.6661
    16.4472  18.5180

          k = 0.1002-0.1002 0.0000 (  3376 PWs)   bands (ev):

   -33.3051  -2.2057   7.7637   8.3798  12.0391  12.6928  14.2545  16.0209
    19.0459  20.3623

          k =-0.1002-0.1002 0.0794 (  3380 PWs)   bands (ev):

   -33.3049  -2.1287   6.3143   9.9176  11.7227  12.6550  14.7770  16.3196
    18.7860  20.4000

          k =-0.3007-0.1002 0.1589 (  3363 PWs)   bands (ev):

   -33.2925  -0.6400   5.3362   6.9581  11.6357  12.5825  14.7990  17.6046
    19.3494  20.8300

          k = 0.5011-0.1002-0.1589 (  3363 PWs)   bands (ev):

   -33.2850   1.4346   2.9083   6.4587  10.3574  14.6350  15.4691  17.0318
    19.2805  20.1959

          k = 0.3007-0.1002-0.0794 (  3372 PWs)   bands (ev):

   -33.2928  -0.8764   6.5477   7.3332  10.4576  12.3667  13.8071  16.8378
    19.1892  20.8995

          k =-0.1002 0.0000 0.1192 (  3391 PWs)   bands (ev):

   -33.3068  -2.1936   5.4086  10.6822  11.9605  13.6625  15.7090  17.0008
    17.2684  19.7147

          k =-0.3007-0.0000 0.1986 (  3362 PWs)   bands (ev):

   -33.2943  -0.6333   4.5668   6.6615  12.2016  14.4133  15.0091  18.8573
    19.5516  21.2128

          k = 0.5011 0.0000-0.1192 (  3358 PWs)   bands (ev):

   -33.2869   1.2457   2.8091   6.1452  10.6900  15.5400  16.4822  17.4877
    19.0569  20.8594

          k = 0.3007 0.0000-0.0397 (  3376 PWs)   bands (ev):

   -33.2948  -1.0978   6.8363   7.3505   9.8571  12.3937  15.4026  17.5729
    18.8886  20.4911

          k =-0.1002 0.1002 0.1589 (  3373 PWs)   bands (ev):

   -33.3045  -1.9052   4.7840  11.1833  11.2853  13.0771  15.9328  17.0914
    18.2999  20.5072

          k =-0.3007 0.1002 0.2383 (  3364 PWs)   bands (ev):

   -33.2922  -0.2711   4.1491   6.6206  12.3896  13.0652  16.5749  18.5371
    19.6051  20.5121

          k = 0.5011 0.1002-0.0794 (  3366 PWs)   bands (ev):

   -33.2850   1.3971   3.0462   6.0942  11.3048  14.4359  14.6570  16.2517
    19.6901  20.9743

          k = 0.3007 0.1002 0.0000 (  3369 PWs)   bands (ev):

   -33.2929  -0.9570   7.1648   7.5855   9.8244  12.0108  13.7006  16.5306
    19.1338  20.9365

          k =-0.1002 0.2004 0.1986 (  3369 PWs)   bands (ev):

   -33.2989  -1.2625   4.4253   8.7547  11.7494  13.7358  15.3586  17.7761
    19.6185  21.5298

          k =-0.3007 0.2004 0.2781 (  3361 PWs)   bands (ev):

   -33.2871   0.4433   4.0764   6.7464  10.0137  14.0982  16.3429  17.2929
    19.3090  19.7558

          k = 0.5011 0.2004-0.0397 (  3360 PWs)   bands (ev):

   -33.2802   1.8861   3.6174   6.3027  11.9619  12.2390  13.2263  14.1221
    17.9268  21.9073

          k =-0.3007 0.3007 0.3178 (  3364 PWs)   bands (ev):

   -33.2810   1.4970   4.2609   6.5190   8.5767  14.4488  15.3458  15.5097
    18.6889  19.5291

          k = 0.5011 0.3007-0.0000 (  3348 PWs)   bands (ev):

   -33.2743   2.7088   4.4969   6.6979   9.9070  11.2048  11.9247  13.9366
    16.7272  20.3611

          k = 0.3007 0.3007 0.0794 (  3354 PWs)   bands (ev):

   -33.2815   0.3982   7.7029   7.8240   8.9209  10.8751  11.7888  13.4939
    17.0243  22.5419

          k =-0.1002-0.6013-0.1192 (  3359 PWs)   bands (ev):

   -33.2869   1.0203   3.2587   5.7600  12.0123  13.4329  16.7807  17.9433
    18.8922  20.4585

          k =-0.3007-0.6013-0.0397 (  3354 PWs)   bands (ev):

   -33.2761   2.8524   4.0278   5.9413   8.8918  12.8559  13.5460  15.5206
    17.1476  19.1382

          k = 0.3007-0.6013-0.2781 (  3354 PWs)   bands (ev):

   -33.2763   1.5811   5.7737   7.8514   9.2346  10.6252  11.5840  13.8021
    17.1512  20.5636

          k = 0.5011-0.5011-0.3178 (  3350 PWs)   bands (ev):

   -33.2677   5.1837   5.3821   6.5000   7.6774   9.5216  10.1455  14.0151
    17.1218  18.2233

          k = 0.3007-0.5011-0.2383 (  3361 PWs)   bands (ev):

   -33.2743   2.8075   4.1209   7.5552   9.8405  10.0728  11.7743  14.6408
    17.7345  19.5954

          k =-0.1002-0.4009-0.0397 (  3369 PWs)   bands (ev):

   -33.2873   0.1225   4.9362   6.8405  10.7691  12.4934  14.7930  16.0260
    18.6752  21.9392

          k = 0.5011-0.4009-0.2781 (  3353 PWs)   bands (ev):

   -33.2695   3.9414   5.2163   7.0518   8.6112   9.3054  11.0944  13.4062
    17.2097  19.4714

          k = 0.3007-0.4009-0.1986 (  3358 PWs)   bands (ev):

   -33.2762   1.9011   5.1983   7.0988   9.1029  11.1257  12.3844  14.5340
    18.0205  19.7015

          k = 0.3007-0.3007-0.1589 (  3364 PWs)   bands (ev):

   -33.2813   0.6439   6.4559   7.2675   8.8092  12.0662  12.6283  14.4829
    17.5320  21.1703

          k =-0.3007-0.2004 0.1192 (  3368 PWs)   bands (ev):

   -33.2876  -0.2936   6.4287   7.5089  10.4403  11.3565  13.2210  15.3882
    17.8707  23.1713

          k = 0.5011-0.2004-0.1986 (  3374 PWs)   bands (ev):

   -33.2802   1.9605   3.3438   6.9911  10.2716  12.1148  13.3461  16.8222
    18.4853  18.9440

          k = 0.0000 0.0000 0.1589 (  3385 PWs)   bands (ev):

   -33.3086  -2.2264   4.5529  11.8454  13.2394  13.2394  15.5733  17.7243
    17.7243  18.6340

          k =-0.2004 0.0000 0.2383 (  3356 PWs)   bands (ev):

   -33.3007  -1.2400   3.6855   8.5017  13.4285  14.3604  15.5707  18.0879
    19.7378  22.1382

          k = 0.6013 0.0000-0.0794 (  3366 PWs)   bands (ev):

   -33.2887   1.0935   2.7691   5.4642  12.7019  15.0337  16.2552  18.0016
    19.3431  21.0545

          k = 0.4009 0.0000 0.0000 (  3369 PWs)   bands (ev):

   -33.2892  -0.0610   4.8363   6.6731  10.8471  12.3189  16.5764  17.6981
    19.3070  20.0445

          k = 0.0000 0.1002 0.1986 (  3371 PWs)   bands (ev):

   -33.3063  -1.9090   3.9860  11.0472  13.1578  13.2457  16.5491  16.9962
    18.5629  19.7942

          k =-0.2004 0.1002 0.2781 (  3361 PWs)   bands (ev):

   -33.2985  -0.8767   3.2838   8.4710  11.5825  15.6401  16.9877  18.7363
    19.7914  21.4901

          k = 0.6013 0.1002-0.0397 (  3361 PWs)   bands (ev):

   -33.2868   1.4861   2.6710   5.4502  13.1708  13.6776  15.3344  17.9253
    19.9344  20.7127

          k =-0.2004 0.2004 0.3178 (  3367 PWs)   bands (ev):

   -33.2933  -0.1798   3.2064   8.1787   9.7455  16.9326  16.9769  19.1672
    19.8954  20.8750

          k = 0.6013 0.2004-0.0000 (  3354 PWs)   bands (ev):

   -33.2820   2.1079   3.0618   5.6705  10.8310  14.3012  14.7661  15.5340
    18.4203  21.1298

          k =-0.0000-0.7015-0.1192 (  3364 PWs)   bands (ev):

   -33.2940  -0.2249   3.4831   6.3875  13.7098  14.0551  16.4496  18.9715
    19.8186  20.6479

          k =-0.2004-0.7015-0.0397 (  3368 PWs)   bands (ev):

   -33.2870   0.8303   3.3368   6.5749   9.9211  15.6903  17.0595  17.7247
    18.5671  20.3726

          k = 0.4009-0.6013-0.2383 (  3338 PWs)   bands (ev):

   -33.2714   2.8268   6.2699   6.8536   8.9341   9.6507  11.0587  13.2807
    17.4076  19.8239

          k =-0.0000-0.5011-0.0397 (  3369 PWs)   bands (ev):

   -33.2869   1.2125   2.9425   5.8189  11.8932  13.7385  16.3360  17.8838
    19.4704  20.5393

          k = 0.4009-0.5011-0.1986 (  3348 PWs)   bands (ev):

   -33.2695   4.0082   5.0310   7.2313   8.6649   9.2201  11.4450  12.6628
    17.3957  20.6238

          k = 0.3007-0.3007 0.0000 (  3364 PWs)   bands (ev):

   -33.2815   0.3150   8.1554   8.4514   8.8869  10.3320  11.2962  13.0647
    16.8945  23.6232

          k = 0.7015-0.3007-0.1589 (  3364 PWs)   bands (ev):

   -33.2811   1.0335   5.2436   6.8075   8.6726  13.5316  13.5823  15.2644
    18.6229  20.0261

          k = 0.5011-0.3007-0.0794 (  3350 PWs)   bands (ev):

   -33.2743   2.7433   4.3423   6.9997   9.8805  10.8377  11.7626  14.3119
    17.0230  20.0280

          k =-0.1002-0.1002 0.2383 (  3361 PWs)   bands (ev):

   -33.3040  -1.5661   3.4933  10.7339  11.4681  14.7978  17.3843  17.8961
    18.1228  20.6643

          k = 0.7015-0.1002-0.0794 (  3364 PWs)   bands (ev):

   -33.2920   0.1507   3.2093   6.3983  12.2404  14.6490  17.9934  18.6612
    19.6982  20.1080

          k = 0.5011-0.1002 0.0000 (  3369 PWs)   bands (ev):

   -33.2850   1.3757   3.1375   5.8885  12.5341  13.0697  14.5757  16.2388
    19.4444  21.4942

          k =-0.1002-0.0000 0.2781 (  3350 PWs)   bands (ev):

   -33.3058  -1.5446   2.8545  10.7985  12.7961  15.0362  16.5926  18.2477
    20.0159  20.0996

          k = 0.7015-0.0000-0.0397 (  3359 PWs)   bands (ev):

   -33.2938   0.1402   2.7691   6.2417  13.8713  15.4071  17.0931  17.2681
    20.7743  21.3716

          k =-0.1002 0.1002 0.3178 (  3364 PWs)   bands (ev):

   -33.3036  -1.2008   2.5518  10.4511  11.3678  16.8151  17.5756  19.1416
    19.1781  20.7912

          k = 0.7015 0.1002-0.0000 (  3363 PWs)   bands (ev):

   -33.2919   0.3769   2.8069   6.3216  12.1821  16.3222  16.4972  19.0642
    19.9252  21.1828

          k =-0.1002-0.8018-0.0397 (  3360 PWs)   bands (ev):

   -33.2983  -0.5491   2.5748   8.3177  11.4692  17.5272  18.2284  19.4520
    19.8796  20.8809

          k = 0.5011-0.5011-0.1589 (  3348 PWs)   bands (ev):

   -33.2677   5.3574   5.4738   5.9369   7.7839  10.0193  10.7214  12.2444
    17.1885  20.6318

          k = 0.0000 0.0000 0.3178 (  3346 PWs)   bands (ev):

   -33.3076  -1.5432   2.3340  12.5227  12.5227  14.8483  15.6719  19.3018
    20.7946  20.7946

          k = 0.8018 0.0000-0.0000 (  3362 PWs)   bands (ev):

   -33.3002  -0.6705   2.3541   8.2226  13.0610  16.3505  18.2949  18.6764
    20.4693  20.6354

          k =-0.0000-0.9020-0.0397 (  3353 PWs)   bands (ev):

   -33.3054  -1.2445   2.1688  10.6456  12.6109  15.6779  17.4452  19.4990
    20.4048  21.7817

          k =-0.5011 0.5011-0.0000 (  3364 PWs)   bands (ev):

   -33.2677   5.0856   5.3980   6.8387   7.6151   8.9706  10.2200  15.9382
    16.0875  17.0794

          k =-0.3007 0.7015 0.0000 (  3366 PWs)   bands (ev):

   -33.2809   1.7632   3.8184   6.4214   8.5432  15.0964  15.3205  17.2959
    17.3699  18.3185

          k =-0.1002 0.9020-0.0000 (  3354 PWs)   bands (ev):

   -33.3034  -1.0211   2.1793  10.3552  11.3201  17.4853  17.9710  19.9592
    20.4175  21.1037

     the Fermi energy is    12.4689 ev

!    total energy              =     -31.17615312 Ry
     estimated scf accuracy    <          1.1E-09 Ry
     smearing contrib. (-TS)   =      -0.00007986 Ry
     internal energy E=F+TS    =     -31.17607325 Ry

     The total energy is F=E-TS. E is the sum of the following terms:
     one-electron contribution =       5.01083148 Ry
     hartree contribution      =       2.94522535 Ry
     xc contribution           =     -10.14559191 Ry
     ewald contribution        =     -28.98653818 Ry

     convergence has been achieved in   5 iterations

     Forces acting on atoms (cartesian axes, Ry/au):

     atom    1 type  1   force =     0.00000000    0.00000000    0.02024444
     atom    2 type  1   force =    -0.00000000   -0.00000000   -0.02024444
     atom    3 type  2   force =     0.00000000    0.00000000    0.00000000
     The non-local contrib.  to forces
     atom    1 type  1   force =    -0.00000000   -0.00000000    0.01299243
     atom    2 type  1   force =    -0.00000000    0.00000000   -0.01299243
     atom    3 type  2   force =    -0.00000000    0.00000000   -0.00000000
     The ionic contribution  to forces
     atom    1 type  1   force =    -0.00000000    0.00000000    0.02064031
     atom    2 type  1   force =    -0.00000000   -0.00000000   -0.02064031
     atom    3 type  2   force =    -0.00000000    0.00000000   -0.00000000
     The local contribution  to forces
     atom    1 type  1   force =     0.00000000    0.00000000   -0.01343121
     atom    2 type  1   force =    -0.00000000   -0.00000000    0.01343121
     atom    3 type  2   force =    -0.00000000   -0.00000000    0.00000000
     The core correction contribution to forces
     atom    1 type  1   force =    -0.00000000   -0.00000000    0.00005828
     atom    2 type  1   force =    -0.00000000    0.00000000   -0.00005828
     atom    3 type  2   force =     0.00000000    0.00000000    0.00000000
     The Hubbard contrib.    to forces
     atom    1 type  1   force =     0.00000000    0.00000000    0.00000000
     atom    2 type  1   force =     0.00000000    0.00000000    0.00000000
     atom    3 type  2   force =     0.00000000    0.00000000    0.00000000
     The SCF correction term to forces
     atom    1 type  1   force =    -0.00000000    0.00000000   -0.00001537
     atom    2 type  1   force =     0.00000000   -0.00000000    0.00001537
     atom    3 type  2   force =    -0.00000000    0.00000000    0.00000000

     Total force =     0.028630     Total SCF correction =     0.000022


     Computing stress (Cartesian axis) and pressure

          total   stress  (Ry/bohr**3)                   (kbar)     P=      499.54
   0.00343364  -0.00000000  -0.00000000          505.11       -0.00       -0.00
  -0.00000000   0.00343364   0.00000000           -0.00      505.11        0.00
   0.00000000   0.00000000   0.00332019            0.00        0.00      488.42

     Energy error            =      4.1E-03 Ry
     Gradient error          =      2.0E-02 Ry/Bohr
     Cell gradient error     =      1.2E+01 kbar

     number of scf cycles    =   2
     number of bfgs steps    =   1

     enthalpy           old  =     -30.4945595538 Ry
     enthalpy           new  =     -30.4986404237 Ry

     CASE: enthalpy          _new < enthalpy          _old

     new trust radius        =       0.0341557785 bohr
ibrav =      7
 celldm(1) =      5.41261649
 celldm(3) =      2.51343067
Input lattice vectors:
     0.49949086    -0.49949086     1.25543566
     0.49949086     0.49949086     1.25543566
    -0.49949086    -0.49949086     1.25543566
New lattice vectors in INITIAL alat:
     0.49949086    -0.49949086     1.25543566
     0.49949086     0.49949086     1.25543566
    -0.49949086    -0.49949086     1.25543566
New lattice vectors in NEW alat (for information only):
     0.50000000    -0.50000000     1.25671534
     0.50000000     0.50000000     1.25671534
    -0.50000000    -0.50000000     1.25671534
Discrepancy in bohr =     0.000000    0.000000    0.000000
     new conv_thr            =       0.0000000020 Ry

     new unit-cell volume =    199.27769 a.u.^3 (    29.52991 Ang^3 )
     density =      3.54894 g/cm^3

CELL_PARAMETERS (alat=  5.41813362)
   0.499490864  -0.499490864   1.255435659
   0.499490864   0.499490864   1.255435659
  -0.499490864  -0.499490864   1.255435659

ATOMIC_POSITIONS (crystal)
Si           -0.0000000000        0.1633246812        0.1633246812
Si           -0.0000000000        0.8366753188        0.8366753188
Li           -0.0000000000        0.5000000000        0.5000000000



     Writing config-only to output data dir ./output/SiLi.save/
     NEW-OLD atomic charge density approx. for the potential
     extrapolated charge   10.99705, renormalised to   11.00000

     total cpu time spent up to now is       18.6 secs

     Self-consistent Calculation

     iteration #  1     ecut=   100.00 Ry     beta= 0.70
     Davidson diagonalization with overlap
     ethr =  1.00E-06,  avg # of iterations =  6.1

     total cpu time spent up to now is       20.4 secs

     total energy              =     -31.17671407 Ry
     estimated scf accuracy    <       0.00047319 Ry

     iteration #  2     ecut=   100.00 Ry     beta= 0.70
     Davidson diagonalization with overlap
     ethr =  4.30E-06,  avg # of iterations =  2.1

     total cpu time spent up to now is       21.4 secs

     total energy              =     -31.17685871 Ry
     estimated scf accuracy    <       0.00020288 Ry

     iteration #  3     ecut=   100.00 Ry     beta= 0.70
     Davidson diagonalization with overlap
     ethr =  1.84E-06,  avg # of iterations =  1.5

     total cpu time spent up to now is       22.2 secs

     total energy              =     -31.17689746 Ry
     estimated scf accuracy    <       0.00000046 Ry

     iteration #  4     ecut=   100.00 Ry     beta= 0.70
     Davidson diagonalization with overlap
     ethr =  4.18E-09,  avg # of iterations =  3.6

     total cpu time spent up to now is       23.3 secs

     total energy              =     -31.17689795 Ry
     estimated scf accuracy    <       0.00000012 Ry

     iteration #  5     ecut=   100.00 Ry     beta= 0.70
     Davidson diagonalization with overlap
     ethr =  1.06E-09,  avg # of iterations =  1.3

     total cpu time spent up to now is       24.1 secs

     total energy              =     -31.17689796 Ry
     estimated scf accuracy    <          3.4E-09 Ry

     iteration #  6     ecut=   100.00 Ry     beta= 0.70
     Davidson diagonalization with overlap
     ethr =  3.09E-11,  avg # of iterations =  2.3

     total cpu time spent up to now is       25.0 secs

     End of self-consistent calculation

          k = 0.0000 0.0000 0.0000 (  3389 PWs)   bands (ev):

   -33.3093  -2.5559   7.8252   8.0569  13.9524  13.9524  16.1680  16.1680
    16.1910  18.3947

          k =-0.2002 0.0000 0.0797 (  3378 PWs)   bands (ev):

   -33.3017  -1.8493   6.5614   8.9673  10.5040  13.6661  14.2762  17.2940
    17.8930  22.3507

          k =-0.4004 0.0000 0.1593 (  3366 PWs)   bands (ev):

   -33.2894   0.2207   4.0067   6.4664  10.5006  15.2079  15.6288  18.2645
    19.7822  20.2879

          k =-0.0000 0.1001 0.0398 (  3392 PWs)   bands (ev):

   -33.3072  -2.3790   7.1298   8.9805  11.9955  14.0204  15.0834  16.4650
    17.1453  19.7213

          k =-0.2002 0.1001 0.1195 (  3374 PWs)   bands (ev):

   -33.2996  -1.5948   5.9182   9.0035  11.3005  12.5067  14.1156  16.9355
    19.7342  21.1709

          k =-0.4004 0.1001 0.1991 (  3362 PWs)   bands (ev):

   -33.2875   0.5539   3.8751   6.3296  10.9285  13.5397  16.6579  16.7709
    19.7429  19.9644

          k = 0.4004 0.1001-0.1195 (  3368 PWs)   bands (ev):

   -33.2877   0.2532   4.4411   6.8260  10.4097  13.5491  15.0723  16.3275
    19.0731  21.6984

          k = 0.2002 0.1001-0.0398 (  3373 PWs)   bands (ev):

   -33.2999  -1.7470   7.4560   9.0792   9.8651  12.6533  13.2256  16.3916
    19.9407  20.9892

          k =-0.2002 0.2002 0.1593 (  3363 PWs)   bands (ev):

   -33.2943  -0.9834   5.5496   8.8429   9.8546  13.1910  13.7924  16.6544
    19.1058  22.3909

          k =-0.4004 0.2002 0.2390 (  3358 PWs)   bands (ev):

   -33.2827   1.2533   4.0640   6.3767  10.8670  11.8182  14.5531  16.8777
    18.8371  19.1290

          k = 0.4004 0.2002-0.0797 (  3356 PWs)   bands (ev):

   -33.2830   0.6469   5.1635   7.3762  10.6638  11.5734  13.4277  13.7965
    17.6430  22.4680

          k = 0.2002 0.2002 0.0000 (  3366 PWs)   bands (ev):

   -33.2947  -1.2905   8.1604   9.2790   9.6621  10.7017  12.1285  15.6832
    18.8984  23.6025

          k =-0.0000 0.3003 0.1195 (  3363 PWs)   bands (ev):

   -33.2949  -0.9722   5.8478   6.9544  10.9453  13.5413  14.7993  18.4706
    18.7660  20.5903

          k =-0.2002 0.3003 0.1991 (  3365 PWs)   bands (ev):

   -33.2879  -0.0209   5.2543   7.0098  10.1137  12.6838  14.9548  16.2814
    18.2754  21.5868

          k =-0.4004 0.3003 0.2788 (  3356 PWs)   bands (ev):

   -33.2768   2.3118   4.5904   6.3678   8.9120  12.0607  13.1421  15.0137
    17.9455  19.8446

          k = 0.4004 0.3003-0.0398 (  3356 PWs)   bands (ev):

   -33.2771   1.3939   6.1489   8.0237   9.5129  10.6232  11.3522  12.7564
    16.7427  21.6654

          k = 0.2002 0.3003 0.0398 (  3362 PWs)   bands (ev):

   -33.2883  -0.4857   7.4143   7.9623  10.3222  10.9358  11.8208  14.9543
    17.6316  23.8115

          k =-0.4004 0.4004 0.3186 (  3353 PWs)   bands (ev):

   -33.2721   3.6966   5.4645   5.4653   8.3062  10.5459  12.5078  14.4180
    17.4168  18.6358

          k = 0.4004 0.4004 0.0000 (  3360 PWs)   bands (ev):

   -33.2723   2.4777   7.0469   7.8434   8.0666   9.4327  10.4075  13.6052
    16.2935  20.0509

          k = 0.0000-0.5005-0.1991 (  3372 PWs)   bands (ev):

   -33.2873   1.2641   2.6495   6.4123  10.2594  16.5651  17.0748  17.0979
    18.1415  20.4623

          k =-0.2002-0.5005-0.1195 (  3367 PWs)   bands (ev):

   -33.2809   1.9238   3.3588   6.7581  10.9069  12.0824  13.2186  15.7741
    18.1533  20.3319

          k =-0.4004-0.5005-0.0398 (  3356 PWs)   bands (ev):

   -33.2704   3.8421   5.4834   6.6828   8.7268   9.0998  10.9626  14.7021
    16.4956  18.5067

          k = 0.1001-0.1001-0.0000 (  3376 PWs)   bands (ev):

   -33.3052  -2.2394   7.9030   8.3895  11.8991  12.5737  14.3687  16.1319
    18.8945  20.2900

          k =-0.1001-0.1001 0.0797 (  3380 PWs)   bands (ev):

   -33.3051  -2.1641   6.4023   9.9679  11.6107  12.5581  14.8644  16.4202
    18.6562  20.3323

          k =-0.3003-0.1001 0.1593 (  3363 PWs)   bands (ev):

   -33.2929  -0.6766   5.3987   6.8912  11.7027  12.5238  14.8558  17.6654
    19.2466  20.7482

          k = 0.5005-0.1001-0.1593 (  3363 PWs)   bands (ev):

   -33.2856   1.4302   2.8258   6.5038  10.4397  14.5864  15.3716  17.0996
    19.3244  20.2063

          k = 0.3003-0.1001-0.0797 (  3372 PWs)   bands (ev):

   -33.2932  -0.9076   6.5617   7.3056  10.5024  12.4321  13.7437  16.9270
    19.0814  20.7958

          k =-0.1001 0.0000 0.1195 (  3391 PWs)   bands (ev):

   -33.3069  -2.2317   5.4950  10.7060  11.9041  13.5550  15.7897  16.9074
    17.3293  19.6670

          k =-0.3003 0.0000 0.1991 (  3362 PWs)   bands (ev):

   -33.2946  -0.6747   4.6370   6.5947  12.2694  14.3191  15.0819  18.8364
    19.5782  21.0906

          k = 0.5005-0.0000-0.1195 (  3358 PWs)   bands (ev):

   -33.2873   1.2413   2.7237   6.1969  10.7634  15.6336  16.4047  17.3480
    19.0622  20.9096

          k = 0.3003-0.0000-0.0398 (  3376 PWs)   bands (ev):

   -33.2951  -1.1279   6.7725   7.4077   9.8841  12.5295  15.2540  17.6678
    18.8024  20.3632

          k =-0.1001 0.1001 0.1593 (  3373 PWs)   bands (ev):

   -33.3046  -1.9464   4.8720  11.0969  11.2538  13.0824  15.9979  17.1738
    18.1954  20.4550

          k =-0.3003 0.1001 0.2390 (  3364 PWs)   bands (ev):

   -33.2926  -0.3191   4.2275   6.5565  12.3234  13.1250  16.6489  18.5561
    19.5300  20.5465

          k = 0.5005 0.1001-0.0797 (  3366 PWs)   bands (ev):

   -33.2856   1.3917   2.9566   6.1541  11.3743  14.4729  14.6247  16.1467
    19.7295  20.9835

          k = 0.3003 0.1001 0.0000 (  3369 PWs)   bands (ev):

   -33.2933  -0.9866   7.0526   7.6975   9.8359  12.1475  13.5699  16.6346
    19.0256  20.8245

          k =-0.1001 0.2002 0.1991 (  3369 PWs)   bands (ev):

   -33.2992  -1.3071   4.5154   8.6746  11.6747  13.7946  15.4306  17.8467
    19.5497  21.3943

          k =-0.3003 0.2002 0.2788 (  3361 PWs)   bands (ev):

   -33.2876   0.3865   4.1652   6.6871   9.9392  14.1717  16.3696  17.2398
    19.3563  19.7840

          k = 0.5005 0.2002-0.0398 (  3360 PWs)   bands (ev):

   -33.2809   1.8786   3.5222   6.3722  11.9546  12.2884  13.1543  14.1234
    17.9672  21.9239

          k =-0.3003 0.3003 0.3186 (  3364 PWs)   bands (ev):

   -33.2816   1.4288   4.3606   6.4623   8.5074  14.4435  15.4132  15.4821
    18.6407  19.6121

          k = 0.5005 0.3003 0.0000 (  3348 PWs)   bands (ev):

   -33.2751   2.6983   4.3960   6.7732   9.8744  11.0797  12.0308  13.9506
    16.7868  20.3335

          k = 0.3003 0.3003 0.0797 (  3354 PWs)   bands (ev):

   -33.2821   0.3689   7.7272   7.7791   8.8284  10.9677  11.8307  13.4905
    17.0214  22.5743

          k =-0.1001-0.6006-0.1195 (  3359 PWs)   bands (ev):

   -33.2874   0.9753   3.2541   5.7755  12.0870  13.3593  16.7748  17.9491
    18.9107  20.4656

          k =-0.3003-0.6006-0.0398 (  3354 PWs)   bands (ev):

   -33.2768   2.7730   4.0644   5.9520   8.8385  12.7628  13.6148  15.5619
    17.1928  19.1271

          k = 0.3003-0.6006-0.2788 (  3354 PWs)   bands (ev):

   -33.2770   1.5546   5.7088   7.8953   9.1779  10.6773  11.5683  13.8087
    17.1878  20.6048

          k = 0.5005-0.5005-0.3186 (  3350 PWs)   bands (ev):

   -33.2686   5.1314   5.4182   6.4085   7.5812   9.6150  10.1448  14.0843
    17.0552  18.3074

          k = 0.3003-0.5005-0.2390 (  3361 PWs)   bands (ev):

   -33.2751   2.8001   4.0413   7.5975   9.8021  10.0981  11.7224  14.6848
    17.7242  19.6883

          k =-0.1001-0.4004-0.0398 (  3369 PWs)   bands (ev):

   -33.2878   0.0990   4.8405   6.9244  10.8047  12.6102  14.6712  16.0081
    18.6784  21.8488

          k = 0.5005-0.4004-0.2788 (  3353 PWs)   bands (ev):

   -33.2704   3.9302   5.1415   7.0475   8.5730   9.2798  11.1450  13.4551
    17.1770  19.5500

          k = 0.3003-0.4004-0.1991 (  3358 PWs)   bands (ev):

   -33.2769   1.8690   5.1594   7.1300   9.0410  11.1739  12.3537  14.5478
    18.0270  19.7845

          k = 0.3003-0.3003-0.1593 (  3364 PWs)   bands (ev):

   -33.2819   0.6097   6.5296   7.1956   8.7225  12.1370  12.6762  14.4415
    17.5556  21.2100

          k =-0.3003-0.2002 0.1195 (  3368 PWs)   bands (ev):

   -33.2881  -0.3264   6.4813   7.4477  10.3594  11.4238  13.2792  15.4318
    17.8099  23.2155

          k = 0.5005-0.2002-0.1991 (  3374 PWs)   bands (ev):

   -33.2809   1.9551   3.2630   7.0325  10.3613  12.0708  13.2254  16.8941
    18.4815  19.0174

          k = 0.0000 0.0000 0.1593 (  3385 PWs)   bands (ev):

   -33.3086  -2.2683   4.6406  11.9134  13.1432  13.1432  15.4811  17.7766
    17.7766  18.6123

          k =-0.2002 0.0000 0.2390 (  3356 PWs)   bands (ev):

   -33.3009  -1.2915   3.7807   8.4241  13.3411  14.4093  15.6247  18.0794
    19.7852  22.1273

          k = 0.6006-0.0000-0.0797 (  3366 PWs)   bands (ev):

   -33.2891   1.0362   2.7831   5.4754  12.7720  14.9472  16.3487  17.9766
    19.2000  21.1539

          k = 0.4004 0.0000 0.0000 (  3369 PWs)   bands (ev):

   -33.2896  -0.0840   4.7343   6.7652  10.8569  12.4722  16.4125  17.6875
    19.3044  19.9614

          k = 0.0000 0.1001 0.1991 (  3371 PWs)   bands (ev):

   -33.3063  -1.9554   4.0773  10.9706  13.0677  13.2978  16.4995  17.0369
    18.6115  19.7648

          k =-0.2002 0.1001 0.2788 (  3361 PWs)   bands (ev):

   -33.2987  -0.9367   3.3862   8.3987  11.5040  15.7071  17.0450  18.7558
    19.8010  21.4322

          k = 0.6006 0.1001-0.0398 (  3361 PWs)   bands (ev):

   -33.2873   1.4095   2.7070   5.4604  13.1263  13.7176  15.4186  17.7889
    19.9162  20.7490

          k =-0.2002 0.2002 0.3186 (  3367 PWs)   bands (ev):

   -33.2936  -0.2501   3.3175   8.1164   9.6642  17.0279  17.0424  19.1719
    19.8190  20.8785

          k = 0.6006 0.2002 0.0000 (  3354 PWs)   bands (ev):

   -33.2826   2.0157   3.1131   5.6828  10.7685  14.4417  14.7241  15.4449
    18.4844  21.1014

          k = 0.0000-0.7007-0.1195 (  3364 PWs)   bands (ev):

   -33.2943  -0.2821   3.5705   6.3250  13.7812  13.9684  16.4549  19.0722
    19.8424  20.6036

          k =-0.2002-0.7007-0.0398 (  3368 PWs)   bands (ev):

   -33.2874   0.7482   3.4503   6.5182   9.8489  15.7873  17.0038  17.7193
    18.6057  20.3742

          k = 0.4004-0.6006-0.2390 (  3338 PWs)   bands (ev):

   -33.2722   2.8004   6.2018   6.8460   8.9145   9.6248  11.1303  13.2919
    17.3982  19.9120

          k = 0.0000-0.5005-0.0398 (  3369 PWs)   bands (ev):

   -33.2873   1.2074   2.8491   5.8844  11.9401  13.8558  16.2554  17.7226
    19.4519  20.6069

          k = 0.4004-0.5005-0.1991 (  3348 PWs)   bands (ev):

   -33.2704   4.0005   4.9589   7.2205   8.6007   9.2269  11.4899  12.7110
    17.3478  20.7436

          k = 0.3003-0.3003-0.0000 (  3364 PWs)   bands (ev):

   -33.2822   0.2871   8.0304   8.5539   8.7791  10.4518  11.3167  13.0800
    16.8841  23.5971

          k = 0.7007-0.3003-0.1593 (  3364 PWs)   bands (ev):

   -33.2817   0.9882   5.3234   6.7464   8.5960  13.5654  13.6473  15.1970
    18.6525  20.0800

          k = 0.5005-0.3003-0.0797 (  3350 PWs)   bands (ev):

   -33.2751   2.7337   4.2525   7.0608   9.8452  10.7978  11.7734  14.3447
    17.0635  20.0493

          k =-0.1001-0.1001 0.2390 (  3361 PWs)   bands (ev):

   -33.3041  -1.6185   3.5896  10.6590  11.3893  14.8564  17.4354  17.8129
    18.1890  20.6455

          k = 0.7007-0.1001-0.0797 (  3364 PWs)   bands (ev):

   -33.2923   0.0817   3.3087   6.3383  12.1664  14.7204  18.0640  18.6692
    19.6240  20.1197

          k = 0.5005-0.1001 0.0000 (  3369 PWs)   bands (ev):

   -33.2856   1.3699   3.0418   5.9576  12.5375  13.2226  14.5165  16.0982
    19.4952  21.4620

          k =-0.1001-0.0000 0.2788 (  3350 PWs)   bands (ev):

   -33.3058  -1.6055   2.9583  10.7223  12.7132  15.0420  16.5564  18.3060
    20.0259  20.1487

          k = 0.7007-0.0000-0.0398 (  3359 PWs)   bands (ev):

   -33.2941   0.0595   2.8798   6.1821  13.7873  15.4818  17.0438  17.3538
    20.8766  21.2360

          k =-0.1001 0.1001 0.3186 (  3364 PWs)   bands (ev):

   -33.3037  -1.2711   2.6643  10.3809  11.2868  16.8482  17.4931  19.2007
    19.2354  20.8528

          k = 0.7007 0.1001 0.0000 (  3363 PWs)   bands (ev):

   -33.2922   0.2903   2.9238   6.2631  12.1078  16.4748  16.4958  19.0096
    19.7858  21.2822

          k =-0.1001-0.8008-0.0398 (  3360 PWs)   bands (ev):

   -33.2985  -0.6290   2.6956   8.2489  11.3917  17.5977  18.1995  19.5430
    19.9086  20.9372

          k = 0.5005-0.5005-0.1593 (  3348 PWs)   bands (ev):

   -33.2686   5.3904   5.4173   5.8700   7.6909  10.0167  10.7933  12.3109
    17.1301  20.7268

          k = 0.0000 0.0000 0.3186 (  3346 PWs)   bands (ev):

   -33.3076  -1.6135   2.4463  12.4420  12.4420  14.7755  15.6675  19.3624
    20.8476  20.8476

          k = 0.8008 0.0000 0.0000 (  3362 PWs)   bands (ev):

   -33.3003  -0.7541   2.4785   8.1522  12.9795  16.2882  18.4553  18.6699
    20.5895  20.6054

          k = 0.0000-0.9009-0.0398 (  3353 PWs)   bands (ev):

   -33.3055  -1.3231   2.2891  10.5716  12.5305  15.6120  17.4131  19.5730
    20.5043  21.8841

          k =-0.5005 0.5005 0.0000 (  3364 PWs)   bands (ev):

   -33.2686   5.0345   5.4362   6.7186   7.5167   9.0915  10.2207  16.0297
    16.1467  17.0079

          k =-0.3003 0.7007 0.0000 (  3366 PWs)   bands (ev):

   -33.2815   1.6721   3.9400   6.3659   8.4763  14.9549  15.4488  17.3846
    17.4290  18.2424

          k =-0.1001 0.9009 0.0000 (  3354 PWs)   bands (ev):

   -33.3035  -1.1037   2.3034  10.2864  11.2397  17.4035  17.9341  20.0221
    20.6243  21.1551

     the Fermi energy is    12.4798 ev

!    total energy              =     -31.17689796 Ry
     estimated scf accuracy    <          2.7E-10 Ry
     smearing contrib. (-TS)   =      -0.00009820 Ry
     internal energy E=F+TS    =     -31.17679976 Ry

     The total energy is F=E-TS. E is the sum of the following terms:
     one-electron contribution =       5.01623998 Ry
     hartree contribution      =       2.94205198 Ry
     xc contribution           =     -10.14999862 Ry
     ewald contribution        =     -28.98509310 Ry

     convergence has been achieved in   6 iterations

     Forces acting on atoms (cartesian axes, Ry/au):

     atom    1 type  1   force =     0.00000000    0.00000000    0.00455967
     atom    2 type  1   force =    -0.00000000   -0.00000000   -0.00455967
     atom    3 type  2   force =    -0.00000000    0.00000000    0.00000000
     The non-local contrib.  to forces
     atom    1 type  1   force =     0.00000000    0.00000000   -0.00692633
     atom    2 type  1   force =    -0.00000000   -0.00000000    0.00692633
     atom    3 type  2   force =    -0.00000000    0.00000000   -0.00000000
     The ionic contribution  to forces
     atom    1 type  1   force =     0.00000000    0.00000000   -0.07741717
     atom    2 type  1   force =     0.00000000    0.00000000    0.07741717
     atom    3 type  2   force =     0.00000000    0.00000000   -0.00000000
     The local contribution  to forces
     atom    1 type  1   force =     0.00000000   -0.00000000    0.08722351
     atom    2 type  1   force =    -0.00000000    0.00000000   -0.08722351
     atom    3 type  2   force =    -0.00000000   -0.00000000    0.00000000
     The core correction contribution to forces
     atom    1 type  1   force =    -0.00000000   -0.00000000    0.00166813
     atom    2 type  1   force =    -0.00000000    0.00000000   -0.00166813
     atom    3 type  2   force =     0.00000000    0.00000000    0.00000000
     The Hubbard contrib.    to forces
     atom    1 type  1   force =     0.00000000    0.00000000    0.00000000
     atom    2 type  1   force =     0.00000000    0.00000000    0.00000000
     atom    3 type  2   force =     0.00000000    0.00000000    0.00000000
     The SCF correction term to forces
     atom    1 type  1   force =     0.00000000    0.00000000    0.00001153
     atom    2 type  1   force =    -0.00000000   -0.00000000   -0.00001153
     atom    3 type  2   force =     0.00000000   -0.00000000   -0.00000000

     Total force =     0.006448     Total SCF correction =     0.000016


     Computing stress (Cartesian axis) and pressure

          total   stress  (Ry/bohr**3)                   (kbar)     P=      507.48
   0.00352707  -0.00000000  -0.00000000          518.85       -0.00       -0.00
  -0.00000000   0.00352707   0.00000000           -0.00      518.85        0.00
  -0.00000000   0.00000000   0.00329514           -0.00        0.00      484.73

     Energy error            =      9.3E-04 Ry
     Gradient error          =      4.6E-03 Ry/Bohr
     Cell gradient error     =      1.9E+01 kbar

     number of scf cycles    =   3
     number of bfgs steps    =   2

     enthalpy           old  =     -30.4986404237 Ry
     enthalpy           new  =     -30.4995668551 Ry

     CASE: enthalpy          _new < enthalpy          _old

     new trust radius        =       0.0198341258 bohr
ibrav =      7
 celldm(1) =      5.43844492
 celldm(3) =      2.49118549
Input lattice vectors:
     0.50187438    -0.50187438     1.25026218
     0.50187438     0.50187438     1.25026218
    -0.50187438    -0.50187438     1.25026218
New lattice vectors in INITIAL alat:
     0.50187438    -0.50187438     1.25026218
     0.50187438     0.50187438     1.25026218
    -0.50187438    -0.50187438     1.25026218
New lattice vectors in NEW alat (for information only):
     0.50000000    -0.50000000     1.24559275
     0.50000000     0.50000000     1.24559275
    -0.50000000    -0.50000000     1.24559275
Discrepancy in bohr =     0.000000    0.000000    0.000000
     new conv_thr            =       0.0000000005 Ry

     new unit-cell volume =    200.35504 a.u.^3 (    29.68955 Ang^3 )
     density =      3.52986 g/cm^3

CELL_PARAMETERS (alat=  5.41813362)
   0.501874382  -0.501874382   1.250262179
   0.501874382   0.501874382   1.250262179
  -0.501874382  -0.501874382   1.250262179

ATOMIC_POSITIONS (crystal)
Si            0.0000000000        0.1647826187        0.1647826187
Si            0.0000000000        0.8352173813        0.8352173813
Li            0.0000000000        0.5000000000        0.5000000000



     Writing config-only to output data dir ./output/SiLi.save/
     NEW-OLD atomic charge density approx. for the potential
     extrapolated charge   11.05912, renormalised to   11.00000

     total cpu time spent up to now is       26.4 secs

     Self-consistent Calculation

     iteration #  1     ecut=   100.00 Ry     beta= 0.70
     Davidson diagonalization with overlap
     ethr =  1.00E-06,  avg # of iterations =  5.7

     total cpu time spent up to now is       27.9 secs

     total energy              =     -31.18082613 Ry
     estimated scf accuracy    <       0.00019832 Ry

     iteration #  2     ecut=   100.00 Ry     beta= 0.70
     Davidson diagonalization with overlap
     ethr =  1.80E-06,  avg # of iterations =  2.0

     total cpu time spent up to now is       28.9 secs

     total energy              =     -31.18090845 Ry
     estimated scf accuracy    <       0.00010007 Ry

     iteration #  3     ecut=   100.00 Ry     beta= 0.70
     Davidson diagonalization with overlap
     ethr =  9.10E-07,  avg # of iterations =  1.3

     total cpu time spent up to now is       29.7 secs

     total energy              =     -31.18092518 Ry
     estimated scf accuracy    <       0.00000151 Ry

     iteration #  4     ecut=   100.00 Ry     beta= 0.70
     Davidson diagonalization with overlap
     ethr =  1.37E-08,  avg # of iterations =  2.2

     total cpu time spent up to now is       30.6 secs

     total energy              =     -31.18092561 Ry
     estimated scf accuracy    <       0.00000003 Ry

     iteration #  5     ecut=   100.00 Ry     beta= 0.70
     Davidson diagonalization with overlap
     ethr =  2.87E-10,  avg # of iterations =  3.0

     total cpu time spent up to now is       31.6 secs

     total energy              =     -31.18092562 Ry
     estimated scf accuracy    <          7.2E-09 Ry

     iteration #  6     ecut=   100.00 Ry     beta= 0.70
     Davidson diagonalization with overlap
     ethr =  6.56E-11,  avg # of iterations =  1.9

     total cpu time spent up to now is       32.4 secs

     End of self-consistent calculation

          k = 0.0000 0.0000 0.0000 (  3389 PWs)   bands (ev):

   -33.3874  -2.6019   7.8817   8.0962  13.7351  13.7351  16.0399  16.0775
    16.0775  18.1633

          k =-0.1993-0.0000 0.0800 (  3378 PWs)   bands (ev):

   -33.3802  -1.8999   6.5920   8.8480  10.5142  13.6411  14.0629  17.1891
    17.7064  22.1758

          k =-0.3985-0.0000 0.1600 (  3366 PWs)   bands (ev):

   -33.3686   0.1576   3.9200   6.4555  10.4939  15.2437  15.4063  18.0240
    19.6097  20.2480

          k = 0.0000 0.0996 0.0400 (  3392 PWs)   bands (ev):

   -33.3854  -2.4262   7.1724   9.0250  11.8214  13.8052  15.0216  16.3699
    16.9670  19.4816

          k =-0.1993 0.0996 0.1200 (  3374 PWs)   bands (ev):

   -33.3782  -1.6465   5.9425   8.8723  11.2733  12.3849  14.0774  16.8494
    19.5228  20.9096

          k =-0.3985 0.0996 0.2000 (  3362 PWs)   bands (ev):

   -33.3667   0.4892   3.7931   6.3119  10.9188  13.3637  16.4970  16.7551
    19.6228  19.9512

          k = 0.3985 0.0996-0.1200 (  3368 PWs)   bands (ev):

   -33.3669   0.1886   4.3471   6.8168  10.4071  13.4463  15.0159  16.1269
    18.9479  21.4963

          k = 0.1993 0.0996-0.0400 (  3373 PWs)   bands (ev):

   -33.3784  -1.7990   7.4896   9.0085   9.8178  12.4876  13.1754  16.3102
    19.7163  20.7291

          k =-0.1993 0.1993 0.1600 (  3363 PWs)   bands (ev):

   -33.3732  -1.0388   5.5642   8.7154   9.7050  13.1920  13.7590  16.6006
    18.8750  22.1553

          k =-0.3985 0.1993 0.2399 (  3358 PWs)   bands (ev):

   -33.3622   1.1836   3.9832   6.3487  10.7272  11.7839  14.3717  16.8312
    18.7820  19.1570

          k = 0.3985 0.1993-0.0800 (  3356 PWs)   bands (ev):

   -33.3625   0.5780   5.0598   7.3617  10.6639  11.4275  13.3361  13.7032
    17.5618  22.3919

          k = 0.1993 0.1993 0.0000 (  3366 PWs)   bands (ev):

   -33.3736  -1.3463   8.1890   9.2682   9.5200  10.5631  12.1025  15.6125
    18.6687  23.3277

          k = 0.0000 0.2989 0.1200 (  3363 PWs)   bands (ev):

   -33.3738  -1.0284   5.8133   6.8870  10.9399  13.5712  14.5834  18.3429
    18.5814  20.3351

          k =-0.1993 0.2989 0.2000 (  3365 PWs)   bands (ev):

   -33.3670  -0.0825   5.2385   6.9126   9.9611  12.6605  14.9142  16.1575
    18.1952  21.5159

          k =-0.3985 0.2989 0.2799 (  3356 PWs)   bands (ev):

   -33.3566   2.2337   4.5072   6.3182   8.7855  11.9416  13.0712  14.9636
    17.8594  19.8848

          k = 0.3985 0.2989-0.0400 (  3356 PWs)   bands (ev):

   -33.3569   1.3180   6.0341   7.9926   9.3648  10.5999  11.2358  12.7405
    16.7051  21.5668

          k = 0.1993 0.2989 0.0400 (  3362 PWs)   bands (ev):

   -33.3675  -0.5474   7.2996   7.9572  10.2657  10.8578  11.7920  14.8352
    17.4823  23.5787

          k =-0.3985 0.3985 0.3199 (  3353 PWs)   bands (ev):

   -33.3521   3.6066   5.3658   5.3833   8.2340  10.3885  12.4478  14.4306
    17.2966  18.6816

          k = 0.3985 0.3985-0.0000 (  3360 PWs)   bands (ev):

   -33.3523   2.3931   6.9322   7.6919   7.9710   9.4324  10.3213  13.5966
    16.2934  19.9600

          k =-0.0000-0.4981-0.2000 (  3372 PWs)   bands (ev):

   -33.3666   1.1987   2.5624   6.4025  10.2573  16.3398  16.8311  17.1201
    18.1359  20.3381

          k =-0.1993-0.4981-0.1200 (  3367 PWs)   bands (ev):

   -33.3604   1.8508   3.2669   6.7389  10.8980  11.9215  13.0460  15.7497
    18.0975  20.3127

          k =-0.3985-0.4981-0.0400 (  3356 PWs)   bands (ev):

   -33.3505   3.7496   5.3748   6.5869   8.6368   8.9908  10.9139  14.6948
    16.4952  18.4438

          k = 0.0996-0.0996 0.0000 (  3376 PWs)   bands (ev):

   -33.3835  -2.2878   7.9527   8.4233  11.7298  12.3780  14.3162  16.0504
    18.6902  20.0348

          k =-0.0996-0.0996 0.0800 (  3380 PWs)   bands (ev):

   -33.3834  -2.2124   6.4377   9.9982  11.4495  12.3827  14.8056  16.3348
    18.4575  20.0847

          k =-0.2989-0.0996 0.1600 (  3363 PWs)   bands (ev):

   -33.3718  -0.7340   5.3785   6.8065  11.6876  12.3741  14.8546  17.5399
    19.0337  20.5502

          k = 0.4981-0.0996-0.1600 (  3363 PWs)   bands (ev):

   -33.3649   1.3628   2.7376   6.4915  10.4382  14.4013  15.1882  17.1051
    19.3156  20.0859

          k = 0.2989-0.0996-0.0800 (  3372 PWs)   bands (ev):

   -33.3721  -0.9653   6.4931   7.2681  10.5046  12.3835  13.6185  16.8157
    18.8618  20.5690

          k =-0.0996 0.0000 0.1200 (  3391 PWs)   bands (ev):

   -33.3851  -2.2784   5.5271  10.6885  11.8060  13.3509  15.7166  16.7423
    17.2269  19.4427

          k =-0.2989 0.0000 0.2000 (  3362 PWs)   bands (ev):

   -33.3734  -0.7309   4.6239   6.5039  12.2530  14.1075  15.0970  18.7039
    19.4261  20.8610

          k = 0.4981 0.0000-0.1200 (  3358 PWs)   bands (ev):

   -33.3666   1.1751   2.6368   6.1855  10.7650  15.6703  16.1759  17.1046
    18.9487  20.8079

          k = 0.2989 0.0000-0.0400 (  3376 PWs)   bands (ev):

   -33.3740  -1.1843   6.6620   7.4117   9.9017  12.5459  15.0271  17.5540
    18.6001  20.1019

          k =-0.0996 0.0996 0.1600 (  3373 PWs)   bands (ev):

   -33.3829  -1.9941   4.8980  10.9423  11.1595  13.0422  15.9379  17.0793
    18.0024  20.2355

          k =-0.2989 0.0996 0.2399 (  3364 PWs)   bands (ev):

   -33.3715  -0.3770   4.2165   6.4600  12.1515  13.1040  16.6706  18.4002
    19.3446  20.4802

          k = 0.4981 0.0996-0.0800 (  3366 PWs)   bands (ev):

   -33.3649   1.3232   2.8682   6.1403  11.3784  14.3377  14.5549  15.9659
    19.6163  20.8701

          k = 0.2989 0.0996 0.0000 (  3369 PWs)   bands (ev):

   -33.3722  -1.0444   6.9262   7.7112   9.8566  12.1551  13.3721  16.5286
    18.8047  20.5890

          k =-0.0996 0.1993 0.2000 (  3369 PWs)   bands (ev):

   -33.3777  -1.3585   4.5316   8.5414  11.5170  13.7925  15.4160  17.7484
    19.3672  21.1330

          k =-0.2989 0.1993 0.2799 (  3361 PWs)   bands (ev):

   -33.3668   0.3236   4.1533   6.5842   9.7843  14.1501  16.2515  17.1272
    19.3577  19.7319

          k = 0.4981 0.1993-0.0400 (  3360 PWs)   bands (ev):

   -33.3604   1.8047   3.4290   6.3533  11.8195  12.2627  13.0188  14.0656
    17.9008  21.8465

          k =-0.2989 0.2989 0.3199 (  3364 PWs)   bands (ev):

   -33.3611   1.3570   4.3417   6.3537   8.3746  14.2908  15.3754  15.4161
    18.5190  19.6481

          k = 0.4981 0.2989-0.0000 (  3348 PWs)   bands (ev):

[...]

     total cpu time spent up to now is       59.5 secs

     total energy              =     -31.18386532 Ry
     estimated scf accuracy    <       0.00014352 Ry

     iteration #  4     ecut=   100.00 Ry     beta= 0.70
     Davidson diagonalization with overlap
     ethr =  1.30E-06,  avg # of iterations =  2.0

     total cpu time spent up to now is       60.4 secs

     total energy              =     -31.18389833 Ry
     estimated scf accuracy    <       0.00000217 Ry

     iteration #  5     ecut=   100.00 Ry     beta= 0.70
     Davidson diagonalization with overlap
     ethr =  1.98E-08,  avg # of iterations =  2.8

     total cpu time spent up to now is       61.3 secs

     total energy              =     -31.18389909 Ry
     estimated scf accuracy    <       0.00000004 Ry

     iteration #  6     ecut=   100.00 Ry     beta= 0.70
     Davidson diagonalization with overlap
     ethr =  3.72E-10,  avg # of iterations =  3.3

     total cpu time spent up to now is       62.3 secs

     total energy              =     -31.18389911 Ry
     estimated scf accuracy    <          1.0E-09 Ry

     iteration #  7     ecut=   100.00 Ry     beta= 0.70
     Davidson diagonalization with overlap
     ethr =  9.45E-12,  avg # of iterations =  2.6

     total cpu time spent up to now is       63.2 secs

     End of self-consistent calculation

          k = 0.0000 0.0000 0.0000 (  3413 PWs)   bands (ev):

   -33.4464  -2.6144   7.9670   8.3133  13.5290  13.5290  15.8827  15.8827
    15.9428  17.8720

          k =-0.1978-0.0000 0.0809 (  3394 PWs)   bands (ev):

   -33.4397  -1.9204   6.6744   8.7611  10.6527  13.5853  13.8359  16.9991
    17.5206  21.9027

          k =-0.3955-0.0000 0.1618 (  3403 PWs)   bands (ev):

   -33.4288   0.1102   3.8592   6.4843  10.5349  15.1353  15.3785  17.7094
    19.4264  20.2292

          k = 0.0000 0.0989 0.0404 (  3433 PWs)   bands (ev):

   -33.4445  -2.4407   7.2878   9.1944  11.6740  13.5931  14.8858  16.1775
    16.8088  19.1931

          k =-0.1978 0.0989 0.1213 (  3393 PWs)   bands (ev):

   -33.4378  -1.6662   6.0103   8.7634  11.3015  12.3096  14.0477  16.6937
    19.2915  20.5833

          k =-0.3955 0.0989 0.2022 (  3398 PWs)   bands (ev):

   -33.4272   0.4439   3.7270   6.3325  10.9469  13.1525  16.2500  16.8964
    19.4632  20.0625

          k = 0.3955 0.0989-0.1213 (  3398 PWs)   bands (ev):

   -33.4273   0.1350   4.2873   6.8358  10.4599  13.3263  15.0613  15.8569
    18.7820  21.2441

          k = 0.1978 0.0989-0.0404 (  3396 PWs)   bands (ev):

   -33.4381  -1.8244   7.5671   8.9773   9.9062  12.3191  13.0980  16.1439
    19.4796  20.3920

          k =-0.1978 0.1978 0.1618 (  3398 PWs)   bands (ev):

   -33.4331  -1.0617   5.6063   8.5955   9.5610  13.3028  13.7271  16.5203
    18.6157  21.8768

          k =-0.3955 0.1978 0.2426 (  3400 PWs)   bands (ev):

   -33.4229   1.1366   3.9065   6.3457  10.5557  11.7842  14.1747  16.8031
    18.8467  19.3242

          k = 0.3955 0.1978-0.0809 (  3400 PWs)   bands (ev):

   -33.4232   0.5140   4.9981   7.3507  10.7024  11.2965  13.1792  13.7044
    17.5037  22.3705

          k = 0.1978 0.1978 0.0000 (  3388 PWs)   bands (ev):

   -33.4336  -1.3804   8.2241   9.3674   9.4313  10.4995  12.0196  15.4696
    18.3984  22.5650

          k = 0.0000 0.2966 0.1213 (  3394 PWs)   bands (ev):

   -33.4337  -1.0594   5.7836   6.8858  11.0038  13.6633  14.3365  18.1312
    18.3929  20.0181

          k =-0.1978 0.2966 0.2022 (  3402 PWs)   bands (ev):

   -33.4274  -0.1134   5.2201   6.8452   9.7989  12.6687  14.8845  16.0539
    18.1849  21.4983

          k =-0.3955 0.2966 0.2831 (  3392 PWs)   bands (ev):

   -33.4178   2.1812   4.4134   6.2620   8.6604  11.7889  13.0572  14.9246
    17.8868  20.0778

          k = 0.3955 0.2966-0.0404 (  3390 PWs)   bands (ev):

   -33.4180   1.2396   5.9686   7.9268   9.2349  10.5412  11.1118  12.8613
    16.7276  21.5539

          k = 0.1978 0.2966 0.0404 (  3391 PWs)   bands (ev):

   -33.4279  -0.5942   7.2184   7.9685  10.2571  10.8442  11.7902  14.6365
    17.3401  23.3047

          k =-0.3955 0.3955 0.3235 (  3404 PWs)   bands (ev):

   -33.4136   3.5425   5.2524   5.2662   8.1751  10.2410  12.3587  14.5253
    17.2984  18.8765

          k = 0.3955 0.3955-0.0000 (  3404 PWs)   bands (ev):

   -33.4138   2.2967   6.8853   7.5620   7.7980   9.3940  10.2429  13.7410
    16.3691  19.9864

          k =-0.0000-0.4944-0.2022 (  3382 PWs)   bands (ev):

   -33.4270   1.1240   2.5288   6.4233  10.3042  16.0353  16.5473  17.2105
    18.2281  20.2196

          k =-0.1978-0.4944-0.1213 (  3400 PWs)   bands (ev):

   -33.4213   1.7640   3.2280   6.7279  10.9191  11.7103  12.8946  15.7871
    18.0980  20.4093

          k =-0.3955-0.4944-0.0404 (  3407 PWs)   bands (ev):

   -33.4121   3.6317   5.3168   6.4360   8.5399   8.9124  10.8421  14.8054
    16.6015  18.5116

          k = 0.0989-0.0989 0.0000 (  3415 PWs)   bands (ev):

   -33.4428  -2.3058   8.0254   8.6304  11.5985  12.1940  14.1871  15.8798
    18.5095  19.7193

          k =-0.0989-0.0989 0.0809 (  3416 PWs)   bands (ev):

   -33.4426  -2.2274   6.5374  10.1359  11.3054  12.2331  14.6940  16.1685
    18.2655  19.7840

          k =-0.2966-0.0989 0.1618 (  3389 PWs)   bands (ev):

   -33.4319  -0.7629   5.3621   6.7743  11.7165  12.2039  14.9559  17.3361
    18.7797  20.3513

          k = 0.4944-0.0989-0.1618 (  3397 PWs)   bands (ev):

   -33.4254   1.2850   2.7027   6.5043  10.4846  14.1491  14.9899  17.2264
    19.4184  19.9356

          k = 0.2966-0.0989-0.0809 (  3389 PWs)   bands (ev):

   -33.4322  -1.0022   6.4339   7.2914  10.6034  12.3131  13.5506  16.6099
    18.5952  20.3224

          k =-0.0989 0.0000 0.1213 (  3415 PWs)   bands (ev):

   -33.4442  -2.2869   5.6164  10.7114  11.8059  13.1210  15.5917  16.5875
    17.0618  19.1706

          k =-0.2966-0.0000 0.2022 (  3389 PWs)   bands (ev):

   -33.4333  -0.7507   4.6119   6.4560  12.2838  13.8450  15.1845  18.6132
    19.2031  20.6011

          k = 0.4944 0.0000-0.1213 (  3391 PWs)   bands (ev):

   -33.4270   1.0992   2.6083   6.1921  10.8327  15.8109  15.8677  16.8293
    18.7977  20.6996

          k = 0.2966-0.0000-0.0404 (  3398 PWs)   bands (ev):

   -33.4339  -1.2205   6.5876   7.4390  10.0644  12.5673  14.7982  17.3270
    18.3856  19.7670

          k =-0.0989 0.0989 0.1618 (  3414 PWs)   bands (ev):

   -33.4422  -2.0001   4.9662  10.7799  11.0690  13.1278  15.8589  16.9176
    17.7920  19.9900

          k =-0.2966 0.0989 0.2426 (  3400 PWs)   bands (ev):

   -33.4315  -0.3915   4.1980   6.3935  11.9409  13.1322  16.7966  18.1795
    19.1330  20.4686

          k = 0.4944 0.0989-0.0809 (  3397 PWs)   bands (ev):

   -33.4254   1.2435   2.8422   6.1315  11.4590  14.0883  14.5756  15.8294
    19.4492  20.7085

          k = 0.2966 0.0989 0.0000 (  3390 PWs)   bands (ev):

   -33.4323  -1.0839   6.8493   7.7194  10.0464  12.1453  13.1899  16.3181
    18.5347  20.3300

          k =-0.0989 0.1978 0.2022 (  3400 PWs)   bands (ev):

   -33.4373  -1.3663   4.5696   8.4135  11.3385  13.8844  15.4542  17.5941
    19.1737  20.8148

          k =-0.2966 0.1978 0.2831 (  3395 PWs)   bands (ev):

   -33.4271   0.3104   4.1196   6.4938   9.6130  14.1653  16.0910  17.0730
    19.4771  19.7749

          k = 0.4944 0.1978-0.0404 (  3393 PWs)   bands (ev):

   -33.4213   1.7162   3.4000   6.3219  11.6265  12.2938  12.8926  14.1016
    17.8476  21.8581

          k =-0.2966 0.2966 0.3235 (  3399 PWs)   bands (ev):

   -33.4219   1.3407   4.2797   6.2388   8.2499  14.0973  15.2683  15.4943
    18.4973  19.8250

          k = 0.4944 0.2966-0.0000 (  3396 PWs)   bands (ev):

   -33.4162   2.5145   4.2560   6.6676   9.5876  10.7639  11.9597  14.0753
    16.8235  20.2633

          k = 0.2966 0.2966 0.0809 (  3397 PWs)   bands (ev):

   -33.4224   0.2427   7.5358   7.6979   8.6171  10.9149  11.8035  13.2874
    16.9346  22.4160

          k =-0.0989-0.5933-0.1213 (  3393 PWs)   bands (ev):

   -33.4270   0.8780   3.1154   5.7397  12.1059  12.9591  16.5080  17.9157
    18.9034  20.1626

          k =-0.2966-0.5933-0.0404 (  3405 PWs)   bands (ev):

   -33.4177   2.6618   3.8866   5.8218   8.5810  12.4145  13.5026  15.6153
    17.2663  19.1189

          k = 0.2966-0.5933-0.2831 (  3389 PWs)   bands (ev):

   -33.4180   1.4042   5.5259   7.8205   8.9243  10.5931  11.3279  13.7870
    17.2552  20.5307

          k = 0.4944-0.4944-0.3235 (  3396 PWs)   bands (ev):

   -33.4105   4.9414   5.1102   6.2508   7.3083   9.5961   9.9752  14.2002
    16.9440  18.5572

          k = 0.2966-0.4944-0.2426 (  3398 PWs)   bands (ev):

   -33.4162   2.6193   3.8896   7.5189   9.5095   9.9059  11.6259  14.5777
    17.7175  19.8990

          k =-0.0989-0.3955-0.0404 (  3400 PWs)   bands (ev):

   -33.4274  -0.0233   4.6866   6.9060  10.9479  12.6914  14.2894  15.5399
    18.3730  21.3407

          k = 0.4944-0.3955-0.2831 (  3394 PWs)   bands (ev):

   -33.4121   3.7187   4.9700   6.7915   8.3383   9.1449  11.0825  13.4852
    17.1230  19.7493

          k = 0.2966-0.3955-0.2022 (  3394 PWs)   bands (ev):

   -33.4179   1.7263   4.9761   7.0488   8.7991  10.9879  12.2082  14.4364
    18.0543  19.9186

          k = 0.2966-0.2966-0.1618 (  3390 PWs)   bands (ev):

   -33.4223   0.4908   6.4764   6.9921   8.4935  12.1167  12.4527  14.2977
    17.6022  21.0697

          k =-0.2966-0.1978 0.1213 (  3397 PWs)   bands (ev):

   -33.4277  -0.4297   6.4092   7.3517  10.0655  11.4280  13.3001  15.1493
    17.5690  23.0123

          k = 0.4944-0.1978-0.2022 (  3400 PWs)   bands (ev):

   -33.4213   1.7971   3.1272   7.0182  10.3613  11.6892  12.8944  16.7938
    18.5232  19.2194

          k =-0.0000-0.0000 0.1618 (  3429 PWs)   bands (ev):

   -33.4457  -2.3138   4.7455  12.1547  12.7070  12.7070  15.2123  17.5311
    17.5311  18.1807

          k =-0.1978 0.0000 0.2426 (  3385 PWs)   bands (ev):

   -33.4387  -1.3382   3.8195   8.1585  12.8795  14.5286  15.4844  17.9731
    19.5538  21.6569

          k = 0.5933-0.0000-0.0809 (  3384 PWs)   bands (ev):

   -33.4285   0.9518   2.6503   5.4263  12.8392  14.4358  16.4992  17.6517
    18.6543  21.4371

          k = 0.3955 0.0000 0.0000 (  3407 PWs)   bands (ev):

   -33.4291  -0.2027   4.5845   6.7478  11.0491  12.5644  15.9328  17.1532
    18.9189  19.5088

          k =-0.0000 0.0989 0.2022 (  3415 PWs)   bands (ev):

   -33.4436  -1.9978   4.1549  10.6515  12.6221  13.4890  16.1969  16.8486
    18.3818  19.3758

          k =-0.1978 0.0989 0.2831 (  3397 PWs)   bands (ev):

   -33.4368  -0.9781   3.4026   8.1264  11.1235  15.7695  17.0473  18.4847
    19.5955  21.0056

          k = 0.5933 0.0989-0.0404 (  3403 PWs)   bands (ev):

   -33.4269   1.3316   2.5656   5.3954  12.7226  13.7689  15.5093  17.3241
    19.5234  20.4484

          k =-0.1978 0.1978 0.3235 (  3403 PWs)   bands (ev):

   -33.4323  -0.2947   3.3039   7.8493   9.3311  17.0035  17.0771  18.8312
    19.7133  20.7319

          k = 0.5933 0.1978-0.0000 (  3394 PWs)   bands (ev):

   -33.4227   1.9322   2.9538   5.5977  10.4154  14.4370  14.6001  15.2501
    18.3905  21.0388

          k = 0.0000-0.6921-0.1213 (  3406 PWs)   bands (ev):

   -33.4330  -0.3413   3.5360   6.1546  13.4846  13.8039  16.3071  19.2170
    19.9398  20.1157

          k =-0.1978-0.6921-0.0404 (  3392 PWs)   bands (ev):

   -33.4270   0.6903   3.3844   6.3133   9.5171  15.7862  16.6495  17.6109
    18.5984  20.3710

          k = 0.3955-0.5933-0.2426 (  3396 PWs)   bands (ev):

   -33.4137   2.6252   6.0236   6.5867   8.7695   9.3810  11.1357  13.2298
    17.3928  20.0518

          k =-0.0000-0.4944-0.0404 (  3392 PWs)   bands (ev):

   -33.4270   1.0624   2.7428   5.8584  12.0635  13.9998  15.7130  17.2116
    19.0184  20.2406

          k = 0.3955-0.4944-0.2022 (  3386 PWs)   bands (ev):

   -33.4121   3.7875   4.7879   6.9557   8.3326   9.1281  11.5097  12.6548
    17.2356  21.0427

          k = 0.2966-0.2966 0.0000 (  3414 PWs)   bands (ev):

   -33.4225   0.1584   7.8436   8.4849   8.5073  10.3876  11.4944  12.7569
    16.7554  23.3951

          k = 0.6921-0.2966-0.1618 (  3385 PWs)   bands (ev):

   -33.4220   0.8821   5.2630   6.5310   8.3492  13.2688  13.6731  14.9950
    18.7424  20.0789

          k = 0.4944-0.2966-0.0809 (  3404 PWs)   bands (ev):

   -33.4162   2.5509   4.1076   6.9639   9.5563  10.5273  11.7204  14.3458
    17.1310  20.0235

          k =-0.0989-0.0989 0.2426 (  3396 PWs)   bands (ev):

   -33.4416  -1.6566   3.6417  10.3304  11.0282  15.0501  17.2581  17.4797
    17.9104  20.3873

          k = 0.6921-0.0989-0.0809 (  3392 PWs)   bands (ev):

   -33.4312   0.0280   3.2614   6.1544  11.7623  14.7518  18.0321  18.4958
    19.2543  20.0116

          k = 0.4944-0.0989 0.0000 (  3397 PWs)   bands (ev):

   -33.4254   1.2201   2.9332   5.9229  12.6843  13.3086  14.0561  15.6569
    19.2085  20.9580

          k =-0.0989-0.0000 0.2831 (  3399 PWs)   bands (ev):

   -33.4430  -1.6295   2.9952  10.3725  12.2578  14.9871  16.3893  18.1301
    19.9345  19.9676

          k = 0.6921 0.0000-0.0404 (  3395 PWs)   bands (ev):

   -33.4328   0.0186   2.8262   5.9984  13.2984  15.5355  16.6940  17.4537
    20.6793  21.3549

          k =-0.0989 0.0989 0.3235 (  3391 PWs)   bands (ev):

   -33.4411  -1.2897   2.6800  10.0445  10.8920  16.8687  17.0710  19.0302
    19.1574  21.0143

          k = 0.6921 0.0989-0.0000 (  3390 PWs)   bands (ev):

   -33.4311   0.2487   2.8634   6.0729  11.6983  16.5435  16.5544  18.5737
    19.2619  21.1230

          k =-0.0989-0.7910-0.0404 (  3396 PWs)   bands (ev):

   -33.4365  -0.6526   2.6837   7.9710  10.9988  17.5713  17.8958  19.5629
    19.9652  20.6751

          k = 0.4944-0.4944-0.1618 (  3386 PWs)   bands (ev):

   -33.4105   5.0811   5.2353   5.7001   7.4197   9.8473  10.8071  12.3712
    17.0006  21.0513

          k =-0.0000-0.0000 0.3235 (  3390 PWs)   bands (ev):

   -33.4445  -1.6233   2.4706  11.9869  11.9869  14.4851  15.5597  19.5570
    20.7019  20.7019

          k = 0.7910 0.0000 0.0000 (  3392 PWs)   bands (ev):

   -33.4382  -0.7701   2.4658   7.8747  12.5075  15.9403  18.5276  18.6919
    20.2238  21.2310

          k = 0.0000-0.8899-0.0404 (  3381 PWs)   bands (ev):

   -33.4426  -1.3294   2.2967  10.2136  12.0698  15.2911  17.1434  19.6888
    20.8238  21.7498

          k =-0.4944 0.4944-0.0000 (  3416 PWs)   bands (ev):

   -33.4105   4.8416   5.1291   6.5654   7.2426   9.0612  10.0509  16.2003
    16.3352  16.9079

          k =-0.2966 0.6921 0.0000 (  3390 PWs)   bands (ev):

   -33.4218   1.5969   3.8446   6.1395   8.2155  14.5418  15.2796  17.5154
    17.5862  18.1166

          k =-0.0989 0.8899 0.0000 (  3398 PWs)   bands (ev):

   -33.4409  -1.1111   2.3022   9.9473  10.8375  16.9772  17.6096  20.5054
    20.6036  21.1906

     the Fermi energy is    12.3055 ev

!    total energy              =     -31.18389911 Ry
     estimated scf accuracy    <          2.1E-11 Ry
     smearing contrib. (-TS)   =      -0.00015559 Ry
     internal energy E=F+TS    =     -31.18374352 Ry

     The total energy is F=E-TS. E is the sum of the following terms:
     one-electron contribution =       4.87249907 Ry
     hartree contribution      =       2.95640768 Ry
     xc contribution           =     -10.13944777 Ry
     ewald contribution        =     -28.87320249 Ry

     convergence has been achieved in   7 iterations

     Forces acting on atoms (cartesian axes, Ry/au):

     atom    1 type  1   force =    -0.00000000   -0.00000000   -0.00009100
     atom    2 type  1   force =     0.00000000    0.00000000    0.00009100
     atom    3 type  2   force =     0.00000000    0.00000000   -0.00000000
     The non-local contrib.  to forces
     atom    1 type  1   force =     0.00000000   -0.00000000   -0.01919198
     atom    2 type  1   force =     0.00000000    0.00000000    0.01919198
     atom    3 type  2   force =    -0.00000000   -0.00000000    0.00000000
     The ionic contribution  to forces
     atom    1 type  1   force =     0.00000000   -0.00000000   -0.13133269
     atom    2 type  1   force =    -0.00000000    0.00000000    0.13133269
     atom    3 type  2   force =     0.00000000   -0.00000000   -0.00000000
     The local contribution  to forces
     atom    1 type  1   force =    -0.00000000   -0.00000000    0.14803031
     atom    2 type  1   force =     0.00000000   -0.00000000   -0.14803031
     atom    3 type  2   force =     0.00000000    0.00000000   -0.00000000
     The core correction contribution to forces
     atom    1 type  1   force =     0.00000000   -0.00000000    0.00240359
     atom    2 type  1   force =     0.00000000   -0.00000000   -0.00240359
     atom    3 type  2   force =     0.00000000    0.00000000    0.00000000
     The Hubbard contrib.    to forces
     atom    1 type  1   force =     0.00000000    0.00000000    0.00000000
     atom    2 type  1   force =     0.00000000    0.00000000    0.00000000
     atom    3 type  2   force =     0.00000000    0.00000000    0.00000000
     The SCF correction term to forces
     atom    1 type  1   force =    -0.00000000   -0.00000000   -0.00000022
     atom    2 type  1   force =     0.00000000    0.00000000    0.00000022
     atom    3 type  2   force =    -0.00000000   -0.00000000    0.00000000

     Total force =     0.000129     Total SCF correction =     0.000000


     Computing stress (Cartesian axis) and pressure

          total   stress  (Ry/bohr**3)                   (kbar)     P=      500.01
   0.00339868   0.00000000   0.00000000          499.96        0.00        0.00
   0.00000000   0.00339868  -0.00000000            0.00      499.96       -0.00
   0.00000000  -0.00000000   0.00339971            0.00       -0.00      500.11


     Writing all to output data dir ./output/SiLi.save/

     init_run     :      1.24s CPU      1.67s WALL (       2 calls)
     electrons    :     48.54s CPU     51.88s WALL (       8 calls)
     update_pot   :      1.68s CPU      1.73s WALL (       6 calls)
     forces       :      1.61s CPU      1.68s WALL (       8 calls)
     stress       :      6.57s CPU      6.90s WALL (       8 calls)

     Called by init_run:
     wfcinit      :      0.60s CPU      0.63s WALL (       2 calls)
     potinit      :      0.32s CPU      0.56s WALL (       2 calls)
     hinit0       :      0.30s CPU      0.37s WALL (       2 calls)

     Called by electrons:
     c_bands      :     41.48s CPU     44.29s WALL (      49 calls)
     sum_band     :      6.44s CPU      6.66s WALL (      49 calls)
     v_of_rho     :      0.71s CPU      1.19s WALL (      54 calls)
     mix_rho      :      0.03s CPU      0.05s WALL (      49 calls)

     Called by c_bands:
     init_us_2    :      1.03s CPU      1.11s WALL (    9744 calls)
     init_us_2:cp :      1.02s CPU      1.10s WALL (    9744 calls)
     cegterg      :     39.18s CPU     40.41s WALL (    4116 calls)

     Called by *egterg:
     cdiaghg      :      1.83s CPU      1.95s WALL (   15618 calls)
     h_psi        :     35.35s CPU     36.40s WALL (   16542 calls)
     g_psi        :      0.11s CPU      0.12s WALL (   12258 calls)

     Called by h_psi:
     h_psi:calbec :      1.41s CPU      1.45s WALL (   16542 calls)
     vloc_psi     :     32.82s CPU     33.79s WALL (   16542 calls)
     add_vuspsi   :      1.01s CPU      1.04s WALL (   16542 calls)

     General routines
     calbec       :      1.76s CPU      1.82s WALL (   19902 calls)
     fft          :      0.67s CPU      1.32s WALL (     741 calls)
     ffts         :      0.03s CPU      0.05s WALL (      49 calls)
     fftw         :     33.79s CPU     34.73s WALL (  272734 calls)

     Parallel routines

     PWSCF        :     59.97s CPU   1m 4.58s WALL


   This run was terminated on:  22:10:11  10Jan2025            

=------------------------------------------------------------------------------=
   JOB DONE.
=------------------------------------------------------------------------------=
