
     Program PWSCF v.7.2 starts on 27Dec2024 at 12:51:30 

     This program is part of the open-source Quantum ESPRESSO suite
     for quantum simulation of materials; please cite
         "P. Giannozzi et al., J. Phys.:Condens. Matter 21 395502 (2009);
         "P. Giannozzi et al., J. Phys.:Condens. Matter 29 465901 (2017);
         "P. Giannozzi et al., J. Chem. Phys. 152 154105 (2020);
          URL http://www.quantum-espresso.org", 
     in publications or presentations arising from this work. More details at
     http://www.quantum-espresso.org/quote

     Parallel version (MPI & OpenMP), running on       8 processor cores
     Number of MPI processes:                 8
     Threads/MPI process:                     1

     MPI processes distributed on     1 nodes
     484367 MiB available memory on the printing compute node when the environment starts

     Waiting for input...
     Reading input from standard input

     Current dimensions of program PWSCF are:
     Max number of different atomic species (ntypx) = 10
     Max number of k-points (npk) =  40000
     Max angular momentum in pseudopotentials (lmaxx) =  4

     R & G space division:  proc/nbgrp/npool/nimage =       8
     Subspace diagonalization in iterative solution of the eigenvalue problem:
     a serial algorithm will be used


     Parallelization info
     --------------------
     sticks:   dense  smooth     PW     G-vecs:    dense   smooth      PW
     Min          93      93     26                 3327     3327     532
     Max          94      94     27                 3330     3330     539
     Sum         745     745    211                26621    26621    4271

     Using Slab Decomposition



     bravais-lattice index     =            4
     lattice parameter (alat)  =       5.7799  a.u.
     unit-cell volume          =     274.2931 (a.u.)^3
     number of atoms/cell      =            3
     number of atomic types    =            2
     number of electrons       =        11.00
     number of Kohn-Sham states=           10
     kinetic-energy cutoff     =      80.0000  Ry
     charge density cutoff     =     320.0000  Ry
     scf convergence threshold =      1.0E-08
     mixing beta               =       0.7000
     number of iterations used =            8  plain     mixing
     energy convergence thresh.=      1.0E-04
     force convergence thresh. =      1.0E-03
     press convergence thresh. =      1.0E+00
     Exchange-correlation= PBE
                           (   1   4   3   4   0   0   0)
     nstep                     =           50


     celldm(1)=   5.779913  celldm(2)=   0.000000  celldm(3)=   1.640288
     celldm(4)=   0.000000  celldm(5)=   0.000000  celldm(6)=   0.000000

     crystal axes: (cart. coord. in units of alat)
               a(1) = (   1.000000   0.000000   0.000000 )  
               a(2) = (  -0.500000   0.866025   0.000000 )  
               a(3) = (   0.000000   0.000000   1.640288 )  

     reciprocal axes: (cart. coord. in units 2 pi/alat)
               b(1) = (  1.000000  0.577350 -0.000000 )  
               b(2) = (  0.000000  1.154701  0.000000 )  
               b(3) = (  0.000000 -0.000000  0.609649 )  


     PseudoPot. # 1 for Si read from file:
     ../pseudo/Si_ONCV_PBE_sr.upf
     MD5 check sum: e543d271109d17c80368dfa7c482276d
     Pseudo is Norm-conserving + core correction, Zval =  4.0
     Generated using ONCVPSP code by D. R. Hamann
     Using radial grid of 1510 points,  6 beta functions with: 
                l(1) =   0
                l(2) =   0
                l(3) =   1
                l(4) =   1
                l(5) =   2
                l(6) =   2

     PseudoPot. # 2 for Li read from file:
     ../pseudo/Li_ONCV_PBE_sr.upf
     MD5 check sum: 50ff420e78310ffa21704f3361e624a4
     Pseudo is Norm-conserving, Zval =  3.0
     Generated using ONCVPSP code by D. R. Hamann
     Using radial grid of 1944 points,  4 beta functions with: 
                l(1) =   0
                l(2) =   0
                l(3) =   1
                l(4) =   1

     atomic species   valence    mass     pseudopotential
        Si             4.00    28.08550     Si( 1.00)
        Li             3.00     6.94100     Li( 1.00)

     12 Sym. Ops., with inversion, found



   Cartesian axes

     site n.     atom                  positions (alat units)
         1           Si  tau(   1) = (  -0.0000000   0.5773503   1.2134280  )
         2           Si  tau(   2) = (   0.5000000   0.2886751   0.4268605  )
         3           Li  tau(   3) = (   0.0000000   0.0000000   0.0000000  )

     number of k points=    62  Marzari-Vanderbilt smearing, width (Ry)=  0.0200
                       cart. coord. in units 2pi/alat
        k(    1) = (   0.0000000   0.0000000   0.0000000), wk =   0.0041152
        k(    2) = (   0.0000000   0.0000000   0.1016081), wk =   0.0082305
        k(    3) = (   0.0000000   0.0000000   0.2032163), wk =   0.0082305
        k(    4) = (   0.0000000   0.0000000  -0.3048244), wk =   0.0041152
        k(    5) = (   0.0000000   0.1283001   0.0000000), wk =   0.0246914
        k(    6) = (   0.0000000   0.1283001   0.1016081), wk =   0.0246914
        k(    7) = (   0.0000000   0.1283001   0.2032163), wk =   0.0246914
        k(    8) = (   0.0000000   0.1283001  -0.3048244), wk =   0.0246914
        k(    9) = (   0.0000000   0.2566001   0.0000000), wk =   0.0246914
        k(   10) = (   0.0000000   0.2566001   0.1016081), wk =   0.0246914
        k(   11) = (   0.0000000   0.2566001   0.2032163), wk =   0.0246914
        k(   12) = (   0.0000000   0.2566001  -0.3048244), wk =   0.0246914
        k(   13) = (   0.0000000   0.3849002   0.0000000), wk =   0.0246914
        k(   14) = (   0.0000000   0.3849002   0.1016081), wk =   0.0246914
        k(   15) = (   0.0000000   0.3849002   0.2032163), wk =   0.0246914
        k(   16) = (   0.0000000   0.3849002  -0.3048244), wk =   0.0246914
        k(   17) = (   0.0000000   0.5132002   0.0000000), wk =   0.0246914
        k(   18) = (   0.0000000   0.5132002   0.1016081), wk =   0.0246914
        k(   19) = (   0.0000000   0.5132002   0.2032163), wk =   0.0246914
        k(   20) = (   0.0000000   0.5132002  -0.3048244), wk =   0.0246914
        k(   21) = (   0.1111111   0.1924501   0.0000000), wk =   0.0246914
        k(   22) = (   0.1111111   0.1924501   0.1016081), wk =   0.0493827
        k(   23) = (   0.1111111   0.1924501   0.2032163), wk =   0.0493827
        k(   24) = (   0.1111111   0.1924501  -0.3048244), wk =   0.0246914
        k(   25) = (   0.1111111   0.3207501   0.0000000), wk =   0.0493827
        k(   26) = (   0.1111111   0.3207501   0.1016081), wk =   0.0493827
        k(   27) = (   0.1111111   0.3207501   0.2032163), wk =   0.0493827
        k(   28) = (   0.1111111   0.3207501  -0.3048244), wk =   0.0493827
        k(   29) = (   0.1111111   0.4490502   0.0000000), wk =   0.0493827
        k(   30) = (   0.1111111   0.4490502   0.1016081), wk =   0.0493827
        k(   31) = (   0.1111111   0.4490502   0.2032163), wk =   0.0493827
        k(   32) = (   0.1111111   0.4490502  -0.3048244), wk =   0.0493827
        k(   33) = (   0.1111111   0.5773503   0.0000000), wk =   0.0246914
        k(   34) = (   0.1111111   0.5773503   0.1016081), wk =   0.0493827
        k(   35) = (   0.1111111   0.5773503   0.2032163), wk =   0.0493827
        k(   36) = (   0.1111111   0.5773503  -0.3048244), wk =   0.0246914
        k(   37) = (   0.2222222   0.3849002   0.0000000), wk =   0.0246914
        k(   38) = (   0.2222222   0.3849002   0.1016081), wk =   0.0493827
        k(   39) = (   0.2222222   0.3849002   0.2032163), wk =   0.0493827
        k(   40) = (   0.2222222   0.3849002  -0.3048244), wk =   0.0246914
        k(   41) = (   0.2222222   0.5132002   0.0000000), wk =   0.0493827
        k(   42) = (   0.2222222   0.5132002   0.1016081), wk =   0.0493827
        k(   43) = (   0.2222222   0.5132002   0.2032163), wk =   0.0493827
        k(   44) = (   0.2222222   0.5132002  -0.3048244), wk =   0.0493827
        k(   45) = (   0.3333333   0.5773503   0.0000000), wk =   0.0082305
        k(   46) = (   0.3333333   0.5773503   0.1016081), wk =   0.0164609
        k(   47) = (   0.3333333   0.5773503   0.2032163), wk =   0.0164609
        k(   48) = (   0.3333333   0.5773503  -0.3048244), wk =   0.0082305
        k(   49) = (   0.0000000   0.1283001  -0.1016081), wk =   0.0246914
        k(   50) = (   0.0000000   0.1283001  -0.2032163), wk =   0.0246914
        k(   51) = (   0.0000000   0.2566001  -0.1016081), wk =   0.0246914
        k(   52) = (   0.0000000   0.2566001  -0.2032163), wk =   0.0246914
        k(   53) = (   0.0000000   0.3849002  -0.1016081), wk =   0.0246914
        k(   54) = (   0.0000000   0.3849002  -0.2032163), wk =   0.0246914
        k(   55) = (   0.0000000   0.5132002  -0.1016081), wk =   0.0246914
        k(   56) = (   0.0000000   0.5132002  -0.2032163), wk =   0.0246914
        k(   57) = (  -0.1111111   0.3207501  -0.1016081), wk =   0.0493827
        k(   58) = (  -0.1111111   0.3207501  -0.2032163), wk =   0.0493827
        k(   59) = (  -0.1111111   0.4490502  -0.1016081), wk =   0.0493827
        k(   60) = (  -0.1111111   0.4490502  -0.2032163), wk =   0.0493827
        k(   61) = (  -0.2222222   0.5132002  -0.1016081), wk =   0.0493827
        k(   62) = (  -0.2222222   0.5132002  -0.2032163), wk =   0.0493827

     Dense  grid:    26621 G-vectors     FFT dimensions: (  36,  36,  54)

     Estimated max dynamical RAM per process >      18.13 MB

     Estimated total dynamical RAM >     145.06 MB

     Initial potential from superposition of free atoms

     starting charge      10.9942, renormalised to      11.0000
     Starting wfcs are   10 randomized atomic wfcs

     total cpu time spent up to now is        1.2 secs

     Self-consistent Calculation

     iteration #  1     ecut=    80.00 Ry     beta= 0.70
     Davidson diagonalization with overlap
     ethr =  1.00E-02,  avg # of iterations =  6.9

     total cpu time spent up to now is        2.1 secs

     total energy              =     -31.03389889 Ry
     estimated scf accuracy    <       0.18323877 Ry

     iteration #  2     ecut=    80.00 Ry     beta= 0.70
     Davidson diagonalization with overlap
     ethr =  1.67E-03,  avg # of iterations =  2.4

     total cpu time spent up to now is        2.9 secs

     total energy              =     -31.07842417 Ry
     estimated scf accuracy    <       0.27242072 Ry

     iteration #  3     ecut=    80.00 Ry     beta= 0.70
     Davidson diagonalization with overlap
     ethr =  1.67E-03,  avg # of iterations =  2.0

     total cpu time spent up to now is        3.6 secs

     total energy              =     -31.12805619 Ry
     estimated scf accuracy    <       0.00024452 Ry

     iteration #  4     ecut=    80.00 Ry     beta= 0.70
     Davidson diagonalization with overlap
     c_bands:  1 eigenvalues not converged
     ethr =  2.22E-06,  avg # of iterations =  9.3

     total cpu time spent up to now is        4.8 secs

     total energy              =     -31.12839570 Ry
     estimated scf accuracy    <       0.00017421 Ry

     iteration #  5     ecut=    80.00 Ry     beta= 0.70
     Davidson diagonalization with overlap
     ethr =  1.58E-06,  avg # of iterations =  2.0

     total cpu time spent up to now is        5.4 secs

     total energy              =     -31.12843720 Ry
     estimated scf accuracy    <       0.00000435 Ry

     iteration #  6     ecut=    80.00 Ry     beta= 0.70
     Davidson diagonalization with overlap
     ethr =  3.95E-08,  avg # of iterations =  1.8

     total cpu time spent up to now is        6.1 secs

     total energy              =     -31.12843792 Ry
     estimated scf accuracy    <       0.00000018 Ry

     iteration #  7     ecut=    80.00 Ry     beta= 0.70
     Davidson diagonalization with overlap
     ethr =  1.60E-09,  avg # of iterations =  2.7

     total cpu time spent up to now is        6.8 secs

     End of self-consistent calculation

          k = 0.0000 0.0000 0.0000 (  3357 PWs)   bands (ev):

   -37.5762  -3.6504   0.3245   3.1140  13.3482  13.3482  13.7467  13.7467
    14.9240  17.4771

          k = 0.0000 0.0000 0.1016 (  3327 PWs)   bands (ev):

   -37.5762  -3.5174  -0.3459   4.0583  13.3607  13.4330  13.4330  13.8201
    13.8201  17.5613

          k = 0.0000 0.0000 0.2032 (  3309 PWs)   bands (ev):

   -37.5762  -3.1320  -1.3904   5.9083  10.9013  13.6317  13.6317  13.9936
    13.9936  16.6203

          k = 0.0000 0.0000-0.3048 (  3314 PWs)   bands (ev):

   -37.5762  -2.7148  -2.0512   7.5589   9.0337  13.7508  13.7508  14.1035
    14.1035  16.2310

          k = 0.0000 0.1283 0.0000 (  3325 PWs)   bands (ev):

   -37.5738  -3.4260   0.5696   3.2883  10.8791  11.9290  13.5975  14.7104
    14.7558  16.3735

          k = 0.0000 0.1283 0.1016 (  3311 PWs)   bands (ev):

   -37.5738  -3.2920  -0.1130   4.2394  11.0165  12.0164  13.2303  13.4721
    14.7404  16.5288

          k = 0.0000 0.1283 0.2032 (  3316 PWs)   bands (ev):

   -37.5738  -2.9012  -1.1709   6.0889  10.8758  11.5611  12.3168  12.8058
    14.1573  16.2907

          k = 0.0000 0.1283-0.3048 (  3318 PWs)   bands (ev):

   -37.5738  -2.4644  -1.8540   7.7597   9.1089  11.8497  12.3724  12.6581
    13.5594  16.1554

          k = 0.0000 0.2566 0.0000 (  3304 PWs)   bands (ev):

   -37.5677  -2.7586   1.2942   3.7961   7.8493  10.6124  11.6486  13.3119
    14.4701  14.5034

          k = 0.0000 0.2566 0.1016 (  3310 PWs)   bands (ev):

   -37.5677  -2.6236   0.5864   4.7267   8.0001  10.7228  11.1351  12.9784
    14.0191  15.0404

          k = 0.0000 0.2566 0.2032 (  3317 PWs)   bands (ev):

   -37.5677  -2.2206  -0.5085   6.4859   8.4042  10.1999  11.0548  11.4661
    13.0752  15.1448

          k = 0.0000 0.2566-0.3048 (  3310 PWs)   bands (ev):

   -37.5677  -1.7172  -1.2690   8.0489   8.5645   9.5073  10.1249  11.3787
    12.4792  15.3861

          k = 0.0000 0.3849 0.0000 (  3306 PWs)   bands (ev):

   -37.5608  -1.6766   2.4112   4.3510   5.4852   9.0231   9.7068  11.0621
    13.5477  13.8355

          k = 0.0000 0.3849 0.1016 (  3311 PWs)   bands (ev):

   -37.5608  -1.5452   1.7402   4.6018   6.1437   8.6278   9.8261  11.6311
    13.2317  13.6662

          k = 0.0000 0.3849 0.2032 (  3314 PWs)   bands (ev):

   -37.5608  -1.1345   0.5980   5.2406   6.7645   8.5796  10.1669  11.8177
    12.2266  14.0667

          k = 0.0000 0.3849-0.3048 (  3314 PWs)   bands (ev):

   -37.5608  -0.4968  -0.3262   5.9462   6.2585   9.6531  10.4765  10.5661
    11.6546  14.4363

          k = 0.0000 0.5132 0.0000 (  3330 PWs)   bands (ev):

   -37.5562  -0.3490   2.3335   4.5228   5.8521   6.5506   9.2489   9.2539
    13.1213  13.4663

          k = 0.0000 0.5132 0.1016 (  3314 PWs)   bands (ev):

   -37.5562  -0.2278   2.5422   3.4285   5.6170   7.6624   9.3729   9.8386
    12.8013  13.1634

          k = 0.0000 0.5132 0.2032 (  3324 PWs)   bands (ev):

   -37.5562   0.1623   2.0672   3.0645   4.8596   9.4180   9.7174  11.1087
    11.7812  13.2920

          k = 0.0000 0.5132-0.3048 (  3318 PWs)   bands (ev):

   -37.5562   0.6940   1.1742   3.6068   4.2367  10.0178  10.8013  11.1817
    11.2273  13.8059

          k = 0.1111 0.1925 0.0000 (  3309 PWs)   bands (ev):

   -37.5695  -2.9797   1.0551   3.6331   9.0349   9.9852  13.3753  13.4030
    13.9669  16.2608

          k = 0.1111 0.1925 0.1016 (  3307 PWs)   bands (ev):

   -37.5695  -2.8430   0.3446   4.6054   9.1695  10.0693  12.4265  13.0219
    13.6977  16.2490

          k = 0.1111 0.1925 0.2032 (  3319 PWs)   bands (ev):

   -37.5695  -2.4418  -0.7371   6.4473   9.5458  10.1481  11.1334  12.1575
    12.2952  16.6005

          k = 0.1111 0.1925-0.3048 (  3300 PWs)   bands (ev):

   -37.5695  -1.9654  -1.4623   8.1024   9.1335   9.9560  10.5880  11.6392
    11.7359  16.8368

          k = 0.1111 0.3208 0.0000 (  3310 PWs)   bands (ev):

   -37.5630  -2.1004   1.9938   4.2786   6.4778   8.6434  10.7331  12.0511
    12.6109  15.2686

          k = 0.1111 0.3208 0.1016 (  3316 PWs)   bands (ev):

   -37.5630  -1.9638   1.2651   5.1154   6.7190   8.7795   9.9445  11.8185
    13.1214  15.4102

          k = 0.1111 0.3208 0.2032 (  3314 PWs)   bands (ev):

   -37.5630  -1.5510   0.1440   6.3968   7.4832   8.9789   9.0604  10.9757
    12.4512  15.9283

          k = 0.1111 0.3208-0.3048 (  3298 PWs)   bands (ev):

   -37.5630  -0.9772  -0.6933   7.1638   7.7464   8.9312   9.2359  10.4704
    11.3052  16.6372

          k = 0.1111 0.4491 0.0000 (  3317 PWs)   bands (ev):

   -37.5573  -0.8467   2.9178   4.2471   5.5413   7.5928   8.3423  10.0985
    12.0004  14.4035

          k = 0.1111 0.4491 0.1016 (  3315 PWs)   bands (ev):

   -37.5573  -0.7179   2.5827   3.7796   6.2844   7.8448   8.0433  10.5448
    11.8558  14.8442

          k = 0.1111 0.4491 0.2032 (  3314 PWs)   bands (ev):

   -37.5573  -0.3099   1.4571   4.1803   5.9474   8.4149   8.7733  10.3328
    12.5421  14.4837

          k = 0.1111 0.4491-0.3048 (  3308 PWs)   bands (ev):

   -37.5573   0.3447   0.4947   4.8531   5.1936   8.7369   9.1284  10.8794
    11.7114  15.2023

          k = 0.1111 0.5774 0.0000 (  3334 PWs)   bands (ev):

   -37.5550   0.1952   2.0271   5.5735   5.6079   6.2562   7.6063   9.1660
    11.7897  14.1227

          k = 0.1111 0.5774 0.1016 (  3317 PWs)   bands (ev):

   -37.5550   0.3356   2.1030   4.3413   5.1192   7.4816   8.2095   9.4581
    11.4715  14.6310

          k = 0.1111 0.5774 0.2032 (  3320 PWs)   bands (ev):

   -37.5550   0.7306   2.1888   3.2647   4.3484   8.1480   9.4330  10.0831
    11.7536  14.9998

          k = 0.1111 0.5774-0.3048 (  3322 PWs)   bands (ev):

   -37.5550   1.1057   1.9411   3.0667   3.9328   8.6066   8.9791  11.8208
    11.9697  14.0653

          k = 0.2222 0.3849 0.0000 (  3306 PWs)   bands (ev):

   -37.5577  -1.0285   2.9913   5.0072   5.0980   6.8602   9.8103   9.9610
    10.4469  14.4152

          k = 0.2222 0.3849 0.1016 (  3316 PWs)   bands (ev):

   -37.5577  -0.8861   2.2826   4.9402   6.1001   6.9928   8.6435   9.6268
    11.9090  14.9277

          k = 0.2222 0.3849 0.2032 (  3300 PWs)   bands (ev):

   -37.5577  -0.4614   1.1821   5.3069   6.8849   7.4430   7.5427   9.7210
    12.8283  15.5139

          k = 0.2222 0.3849-0.3048 (  3298 PWs)   bands (ev):

   -37.5577   0.2346   0.2385   5.6848   6.6335   7.2694   7.6722  10.7035
    11.8190  16.7620

          k = 0.2222 0.5132 0.0000 (  3314 PWs)   bands (ev):

   -37.5543   0.3291   2.5742   5.1228   5.6137   6.6452   7.4214   8.9393
     9.4389  13.7628

          k = 0.2222 0.5132 0.1016 (  3316 PWs)   bands (ev):

   -37.5543   0.4585   2.7009   4.1060   5.9841   6.3023   7.8044   8.7367
    10.5995  14.2247

          k = 0.2222 0.5132 0.2032 (  3307 PWs)   bands (ev):

   -37.5542   0.8519   2.5075   3.5491   5.2762   6.3251   7.4559  10.2941
    12.2396  14.9494

          k = 0.2222 0.5132-0.3048 (  3302 PWs)   bands (ev):

   -37.5542   1.3496   1.8069   4.0259   4.4995   6.5806   7.0994  11.9341
    12.4132  15.0700

          k = 0.3333 0.5774 0.0000 (  3318 PWs)   bands (ev):

   -37.5531   1.6353   1.6353   4.6554   6.8729   7.2830   7.2830   7.6817
     7.6817  13.3609

          k = 0.3333 0.5774 0.1016 (  3315 PWs)   bands (ev):

   -37.5531   1.7612   1.7612   4.6821   5.8818   5.8818   6.7639   9.3562
     9.3562  13.7451

          k = 0.3333 0.5774 0.2032 (  3318 PWs)   bands (ev):

   -37.5530   2.0930   2.0930   4.6656   4.6656   4.7414   6.5534  11.3586
    11.3586  14.7008

          k = 0.3333 0.5774-0.3048 (  3324 PWs)   bands (ev):

   -37.5530   2.3460   2.3460   4.1155   4.1155   4.7748   6.4500  12.6867
    12.6867  15.4080

          k = 0.0000 0.1283-0.1016 (  3311 PWs)   bands (ev):

   -37.5738  -3.2913  -0.1161   4.2470  10.9599  12.0800  13.3312  13.5969
    14.3603  15.9255

          k = 0.0000 0.1283-0.2032 (  3316 PWs)   bands (ev):

   -37.5738  -2.8999  -1.1737   6.1021  10.7345  11.6638  12.4362  12.9572
    13.7926  15.7534

          k = 0.0000 0.2566-0.1016 (  3310 PWs)   bands (ev):

   -37.5677  -2.6181   0.5562   4.8169   7.9587  10.7506  10.9597  12.9477
    13.8271  15.0273

          k = 0.0000 0.2566-0.2032 (  3317 PWs)   bands (ev):

   -37.5677  -2.2094  -0.5335   6.6747   8.2774   9.9304  11.1046  11.5556
    12.9271  15.3065

          k = 0.0000 0.3849-0.1016 (  3311 PWs)   bands (ev):

   -37.5608  -1.5247   1.5812   5.2677   5.7838   8.2037   9.8386  11.7386
    13.1489  13.7020

          k = 0.0000 0.3849-0.2032 (  3314 PWs)   bands (ev):

   -37.5608  -1.0911   0.4856   5.6490   6.7567   7.9959  10.1890  11.6757
    12.1634  14.5679

          k = 0.0000 0.5132-0.1016 (  3314 PWs)   bands (ev):

   -37.5562  -0.1848   2.1252   4.0774   5.5333   7.2474   9.3766  10.0298
    12.7775  13.1578

          k = 0.0000 0.5132-0.2032 (  3324 PWs)   bands (ev):

   -37.5562   0.2597   1.6149   3.7303   4.6082   9.1603   9.7238  11.0916
    11.7631  13.4858

          k =-0.1111 0.3208-0.1016 (  3316 PWs)   bands (ev):

   -37.5630  -1.9564   1.2174   5.3430   6.5780   8.6300  10.0258  11.6556
    13.0634  15.8087

          k =-0.1111 0.3208-0.2032 (  3314 PWs)   bands (ev):

   -37.5630  -1.5358   0.1074   6.8789   7.1907   8.3484   9.4584  10.9094
    12.4190  16.4375

          k =-0.1111 0.4491-0.1016 (  3315 PWs)   bands (ev):

   -37.5573  -0.6899   2.2334   4.4350   6.2977   6.9116   8.5842  10.4482
    11.8756  14.9098

          k =-0.1111 0.4491-0.2032 (  3314 PWs)   bands (ev):

   -37.5573  -0.2479   1.2575   4.6390   5.7331   7.9802   9.0659  10.2247
    12.3130  15.2884

          k =-0.2222 0.5132-0.1016 (  3316 PWs)   bands (ev):

   -37.5543   0.4804   2.5238   4.5826   5.4553   6.4755   7.8097   8.7593
    10.5790  14.2719

          k =-0.2222 0.5132-0.2032 (  3307 PWs)   bands (ev):

   -37.5542   0.9033   2.2373   4.0695   4.8808   6.4370   7.4249  10.3171
    12.1080  15.4124

     the Fermi energy is     8.1424 ev

!    total energy              =     -31.12843798 Ry
     estimated scf accuracy    <          4.9E-10 Ry
     smearing contrib. (-TS)   =       0.00027446 Ry
     internal energy E=F+TS    =     -31.12871244 Ry

     The total energy is F=E-TS. E is the sum of the following terms:
     one-electron contribution =      -0.70436940 Ry
     hartree contribution      =       4.14690350 Ry
     xc contribution           =      -9.62432413 Ry
     ewald contribution        =     -24.94692241 Ry

     convergence has been achieved in   7 iterations

     Forces acting on atoms (cartesian axes, Ry/au):

     atom    1 type  1   force =     0.00000000    0.00000000   -0.13318351
     atom    2 type  1   force =     0.00000000    0.00000000    0.13318351
     atom    3 type  2   force =     0.00000000    0.00000000    0.00000000
     The non-local contrib.  to forces
     atom    1 type  1   force =     0.00000000    0.00000000   -0.16925334
     atom    2 type  1   force =     0.00000000    0.00000000    0.16925334
     atom    3 type  2   force =    -0.00000000    0.00000000    0.00000000
     The ionic contribution  to forces
     atom    1 type  1   force =     0.00000001   -0.00000001   -1.64521717
     atom    2 type  1   force =    -0.00000001    0.00000001    1.64521717
     atom    3 type  2   force =    -0.00000000   -0.00000000   -0.00000000
     The local contribution  to forces
     atom    1 type  1   force =     0.00000000   -0.00000000    1.67014201
     atom    2 type  1   force =    -0.00000000    0.00000000   -1.67014201
     atom    3 type  2   force =     0.00000000    0.00000000    0.00000000
     The core correction contribution to forces
     atom    1 type  1   force =    -0.00000000    0.00000000    0.01113732
     atom    2 type  1   force =     0.00000000   -0.00000000   -0.01113732
     atom    3 type  2   force =     0.00000000    0.00000000    0.00000000
     The Hubbard contrib.    to forces
     atom    1 type  1   force =     0.00000000    0.00000000    0.00000000
     atom    2 type  1   force =     0.00000000    0.00000000    0.00000000
     atom    3 type  2   force =     0.00000000    0.00000000    0.00000000
     The SCF correction term to forces
     atom    1 type  1   force =     0.00000000   -0.00000000    0.00000767
     atom    2 type  1   force =    -0.00000000    0.00000000   -0.00000767
     atom    3 type  2   force =     0.00000000   -0.00000000    0.00000000

     Total force =     0.188350     Total SCF correction =     0.000011


     Computing stress (Cartesian axis) and pressure

          total   stress  (Ry/bohr**3)                   (kbar)     P=      132.24
   0.00064557   0.00000000   0.00000000           94.97        0.00        0.00
   0.00000000   0.00064557   0.00000000            0.00       94.97        0.00
  -0.00000000  -0.00000000   0.00140564           -0.00       -0.00      206.78


     BFGS Geometry Optimization
     Energy error            =      0.0E+00 Ry
     Gradient error          =      1.3E-01 Ry/Bohr
     Cell gradient error     =      4.1E+02 kbar

     number of scf cycles    =   1
     number of bfgs steps    =   0

     enthalpy           new  =     -30.1961348255 Ry

     new trust radius        =       0.2280031299 bohr
ibrav =      4
 celldm(1) =      5.38205830
 celldm(3) =      1.67376090
Input lattice vectors:
     0.93116594     0.00000000    -0.00000000
    -0.46558297     0.80641336    -0.00000000
     0.00000000     0.00000000     1.55854914
New lattice vectors in INITIAL alat:
     0.93116594     0.00000000     0.00000000
    -0.46558297     0.80641336     0.00000000
     0.00000000     0.00000000     1.55854914
New lattice vectors in NEW alat (for information only):
     1.00000000     0.00000000     0.00000000
    -0.50000000     0.86602540     0.00000000
     0.00000000     0.00000000     1.67376090
Discrepancy in bohr =     0.000000    0.000000    0.000000
     new conv_thr            =       0.0000000100 Ry

     new unit-cell volume =    225.97960 a.u.^3 (    33.48672 Ang^3 )
     density =      3.12960 g/cm^3

CELL_PARAMETERS (alat=  5.77991321)
   0.931165937   0.000000000   0.000000000
  -0.465582968   0.806413356   0.000000000
   0.000000000   0.000000000   1.558549136

ATOMIC_POSITIONS (crystal)
Si            0.3333333300        0.6666666700        0.7257171810
Si            0.6666666700        0.3333333300        0.2742828190
Li            0.0000000000        0.0000000000        0.0000000000



     Writing config-only to output data dir ./output/SiLi.save/
     NEW-OLD atomic charge density approx. for the potential
     extrapolated charge    8.64949, renormalised to   11.00000

     total cpu time spent up to now is        8.2 secs

     Self-consistent Calculation

     iteration #  1     ecut=    80.00 Ry     beta= 0.70
     Davidson diagonalization with overlap
     c_bands:  1 eigenvalues not converged
     ethr =  1.00E-06,  avg # of iterations = 11.4

     total cpu time spent up to now is       10.1 secs

     total energy              =     -30.78971312 Ry
     estimated scf accuracy    <       0.26244912 Ry

     iteration #  2     ecut=    80.00 Ry     beta= 0.70
     Davidson diagonalization with overlap
     ethr =  2.39E-03,  avg # of iterations =  3.4

     total cpu time spent up to now is       11.3 secs

     total energy              =     -31.00187435 Ry
     estimated scf accuracy    <       1.19683942 Ry

     iteration #  3     ecut=    80.00 Ry     beta= 0.70
     Davidson diagonalization with overlap
     ethr =  2.39E-03,  avg # of iterations =  2.0

     total cpu time spent up to now is       12.3 secs

     total energy              =     -31.09325216 Ry
     estimated scf accuracy    <       0.09181665 Ry

     iteration #  4     ecut=    80.00 Ry     beta= 0.70
     Davidson diagonalization with overlap
     ethr =  8.35E-04,  avg # of iterations =  1.6

     total cpu time spent up to now is       13.3 secs

     total energy              =     -31.09306874 Ry
     estimated scf accuracy    <       0.01800286 Ry

     iteration #  5     ecut=    80.00 Ry     beta= 0.70
     Davidson diagonalization with overlap
     ethr =  1.64E-04,  avg # of iterations =  2.6

     total cpu time spent up to now is       14.4 secs

     total energy              =     -31.09640337 Ry
     estimated scf accuracy    <       0.00030585 Ry

     iteration #  6     ecut=    80.00 Ry     beta= 0.70
     Davidson diagonalization with overlap
     c_bands:  1 eigenvalues not converged
     ethr =  2.78E-06,  avg # of iterations =  6.1

     total cpu time spent up to now is       15.9 secs

     total energy              =     -31.09664658 Ry
     estimated scf accuracy    <       0.00001151 Ry

     iteration #  7     ecut=    80.00 Ry     beta= 0.70
     Davidson diagonalization with overlap
     ethr =  1.05E-07,  avg # of iterations =  1.9

     total cpu time spent up to now is       16.9 secs

     total energy              =     -31.09664716 Ry
     estimated scf accuracy    <       0.00000198 Ry

     iteration #  8     ecut=    80.00 Ry     beta= 0.70
     Davidson diagonalization with overlap
     ethr =  1.80E-08,  avg # of iterations =  2.0

     total cpu time spent up to now is       17.9 secs

     total energy              =     -31.09664780 Ry
     estimated scf accuracy    <       0.00000071 Ry

     iteration #  9     ecut=    80.00 Ry     beta= 0.70
     Davidson diagonalization with overlap
     ethr =  6.41E-09,  avg # of iterations =  1.0

     total cpu time spent up to now is       19.0 secs

     total energy              =     -31.09664786 Ry
     estimated scf accuracy    <       0.00000004 Ry

     iteration # 10     ecut=    80.00 Ry     beta= 0.70
     Davidson diagonalization with overlap
     ethr =  3.76E-10,  avg # of iterations =  2.4

     total cpu time spent up to now is       20.0 secs

     End of self-consistent calculation

          k = 0.0000 0.0000 0.0000 (  3357 PWs)   bands (ev):

   -35.3610  -2.7496   1.9260   4.7021  17.2355  17.2355  17.4847  17.4847
    18.5989  20.1380

          k = 0.0000 0.0000 0.1069 (  3327 PWs)   bands (ev):

   -35.3610  -2.6374   1.2182   5.7319  16.3695  17.3379  17.3379  17.6302
    17.6302  21.3059

          k = 0.0000 0.0000 0.2139 (  3309 PWs)   bands (ev):

   -35.3610  -2.3484   0.2150   7.6923  13.5593  17.5859  17.5860  18.0432
    18.0433  20.0739

          k = 0.0000 0.0000-0.3208 (  3314 PWs)   bands (ev):

   -35.3609  -2.1399  -0.2556   9.2382  11.7305  17.7440  17.7440  18.4533
    18.4533  19.3783

          k = 0.0000 0.1378 0.0000 (  3325 PWs)   bands (ev):

   -35.3558  -2.4830   2.2158   4.8839  14.1009  15.3804  17.4118  18.5302
    19.0516  19.5405

          k = 0.0000 0.1378 0.1069 (  3311 PWs)   bands (ev):

   -35.3558  -2.3678   1.4826   5.9341  14.2618  15.5070  16.2467  17.4963
    18.9859  19.5848

          k = 0.0000 0.1378 0.2139 (  3316 PWs)   bands (ev):

   -35.3557  -2.0681   0.4543   7.9076  13.5663  14.8775  15.9208  16.5306
    17.9171  19.4510

          k = 0.0000 0.1378-0.3208 (  3318 PWs)   bands (ev):

   -35.3557  -1.8474  -0.0327   9.4840  11.7871  15.5350  15.6775  16.5113
    16.9592  19.5435

          k = 0.0000 0.2756 0.0000 (  3304 PWs)   bands (ev):

   -35.3426  -1.6884   3.0800   5.4150  10.4945  13.8258  15.2383  16.5804
    17.1129  18.5335

          k = 0.0000 0.2756 0.1069 (  3310 PWs)   bands (ev):

   -35.3426  -1.5658   2.2735   6.5064  10.6426  13.9704  14.4889  16.0403
    17.7095  17.8343

          k = 0.0000 0.2756 0.2139 (  3317 PWs)   bands (ev):

   -35.3425  -1.2352   1.1723   8.4657  11.0156  13.2407  14.3094  14.4138
    16.4098  18.0984

          k = 0.0000 0.2756-0.3208 (  3310 PWs)   bands (ev):

   -35.3425  -0.9727   0.6304  10.0748  11.2490  11.8697  13.4683  14.9868
    15.5070  18.1191

          k = 0.0000 0.4134 0.0000 (  3306 PWs)   bands (ev):

   -35.3275  -0.3891   4.4928   6.0103   7.5403  12.0145  12.7741  13.7806
    16.1722  17.6877

          k = 0.0000 0.4134 0.1069 (  3311 PWs)   bands (ev):

   -35.3275  -0.2573   3.5713   6.8030   7.9089  11.5316  12.9249  14.5737
    16.0412  16.6985

          k = 0.0000 0.4134 0.2139 (  3314 PWs)   bands (ev):

   -35.3275   0.1216   2.3567   7.6169   8.6514  11.2495  13.3761  14.7709
    15.3711  16.3806

          k = 0.0000 0.4134-0.3208 (  3314 PWs)   bands (ev):

   -35.3275   0.4740   1.6996   8.0859   8.6838  11.7367  13.7640  13.9292
    14.5017  16.8743

          k = 0.0000 0.5511 0.0000 (  3330 PWs)   bands (ev):

   -35.3177   1.2734   4.2231   6.4793   7.6343   9.0920  11.7220  12.2455
    15.7384  17.2305

          k = 0.0000 0.5511 0.1069 (  3314 PWs)   bands (ev):

   -35.3177   1.4178   4.3380   5.4516   7.4645  10.2249  12.3243  12.3994
    15.6823  16.1760

          k = 0.0000 0.5511 0.2139 (  3324 PWs)   bands (ev):

   -35.3177   1.8656   3.8615   4.8648   6.8928  12.0957  12.8539  13.8251
    14.8425  15.5373

          k = 0.0000 0.5511-0.3208 (  3318 PWs)   bands (ev):

   -35.3176   2.4594   2.9504   5.0842   6.5459  13.3055  13.3952  13.9932
    14.4673  15.9755

          k = 0.1193 0.2067 0.0000 (  3309 PWs)   bands (ev):

   -35.3466  -1.9521   2.7929   5.2448  12.0286  12.8585  17.1153  17.3073
    17.4335  19.4465

          k = 0.1193 0.2067 0.1069 (  3307 PWs)   bands (ev):

   -35.3466  -1.8307   2.0048   6.3427  12.1852  12.9224  15.9239  16.4745
    17.1050  19.5995

          k = 0.1193 0.2067 0.2139 (  3319 PWs)   bands (ev):

   -35.3465  -1.5097   0.9292   8.3376  12.5838  12.8941  14.4915  14.9309
    15.7281  20.2800

          k = 0.1193 0.2067-0.3208 (  3300 PWs)   bands (ev):

   -35.3465  -1.2637   0.4111   9.9405  11.7638  13.3845  13.5741  14.3116
    15.2270  20.7113

          k = 0.1193 0.3445 0.0000 (  3310 PWs)   bands (ev):

   -35.3324  -0.9016   3.9350   5.9242   8.9061  11.3339  13.8608  14.9794
    16.1380  18.3274

          k = 0.1193 0.3445 0.1069 (  3316 PWs)   bands (ev):

   -35.3324  -0.7713   3.0491   7.0433   9.0702  11.4263  13.0268  14.7440
    16.6819  18.2072

          k = 0.1193 0.3445 0.2139 (  3314 PWs)   bands (ev):

   -35.3324  -0.4107   1.8832   8.8522   9.5064  11.6520  11.9483  13.7567
    15.6584  18.8988

          k = 0.1193 0.3445-0.3208 (  3298 PWs)   bands (ev):

   -35.3324  -0.1027   1.2865   9.7933  10.1215  11.1610  12.0727  12.8773
    14.7104  19.7868

          k = 0.1193 0.4822 0.0000 (  3317 PWs)   bands (ev):

   -35.3200   0.6216   5.3522   5.8112   7.3648  10.3374  10.7962  12.6867
    15.3961  17.3738

          k = 0.1193 0.4822 0.1069 (  3315 PWs)   bands (ev):

   -35.3200   0.7608   4.5583   5.8495   8.0313  10.3085  10.9143  13.0163
    15.1754  17.9836

          k = 0.1193 0.4822 0.2139 (  3314 PWs)   bands (ev):

   -35.3200   1.1757   3.2837   6.3098   7.9848  10.9916  11.3972  12.9397
    15.8840  16.9635

          k = 0.1193 0.4822-0.3208 (  3308 PWs)   bands (ev):

   -35.3200   1.6200   2.5197   6.7347   7.5590  11.4130  11.7047  13.2043
    15.0989  17.8308

          k = 0.1193 0.6200 0.0000 (  3334 PWs)   bands (ev):

   -35.3151   2.0027   3.7605   7.5009   8.1328   8.2159   9.9219  11.6928
    15.1443  17.0645

          k = 0.1193 0.6200 0.1069 (  3317 PWs)   bands (ev):

   -35.3151   2.1755   3.8352   6.3215   7.1190  10.0726  10.4868  11.9167
    14.6520  17.7675

          k = 0.1193 0.6200 0.2139 (  3320 PWs)   bands (ev):

   -35.3150   2.6899   4.0037   4.8186   6.4640  10.7990  11.8984  12.8165
    14.6166  17.8935

          k = 0.1193 0.6200-0.3208 (  3322 PWs)   bands (ev):

   -35.3150   3.4191   3.6644   4.2090   6.1637  11.2960  11.5609  14.7010
    14.9443  16.6218

          k = 0.2386 0.4134 0.0000 (  3306 PWs)   bands (ev):

   -35.3209   0.3895   5.3220   6.7047   7.1800   9.0112  12.4863  13.1159
    13.1619  17.2230

          k = 0.2386 0.4134 0.1069 (  3316 PWs)   bands (ev):

   -35.3209   0.5338   4.2856   7.2907   7.9611   9.0490  11.3119  12.4564
    15.0480  17.6968

          k = 0.2386 0.4134 0.2139 (  3300 PWs)   bands (ev):

   -35.3209   0.9428   3.0448   7.8008   8.9967   9.4884   9.9953  12.4323
    16.1644  18.3388

          k = 0.2386 0.4134-0.3208 (  3298 PWs)   bands (ev):

   -35.3209   1.3363   2.3630   8.5146   8.7488   9.0675  10.2900  12.8927
    15.2601  20.0204

          k = 0.2386 0.5511 0.0000 (  3314 PWs)   bands (ev):

   -35.3134   2.0783   4.7554   7.2277   7.4361   8.5674   9.9001  11.3014
    12.4150  16.5471

          k = 0.2386 0.5511 0.1069 (  3316 PWs)   bands (ev):

   -35.3134   2.2311   4.9274   5.9936   7.8359   8.3591  10.3597  11.1323
    13.5641  16.9665

          k = 0.2386 0.5511 0.2139 (  3307 PWs)   bands (ev):

   -35.3134   2.6926   4.6533   5.3915   7.1767   8.3935   9.8880  12.9628
    15.3381  17.6198

          k = 0.2386 0.5511-0.3208 (  3302 PWs)   bands (ev):

   -35.3134   3.3115   3.7123   5.9047   6.5343   8.4160   9.7160  14.5264
    15.8116  17.6764

          k = 0.3580 0.6200 0.0000 (  3318 PWs)   bands (ev):

   -35.3108   3.7251   3.7251   6.2091   8.9057   9.4647   9.4647  10.2658
    10.2658  16.1263

          k = 0.3580 0.6200 0.1069 (  3315 PWs)   bands (ev):

   -35.3108   3.8941   3.8941   6.1728   7.9994   7.9994   8.9187  12.0152
    12.0152  16.4070

          k = 0.3580 0.6200 0.2139 (  3318 PWs)   bands (ev):

   -35.3108   4.3922   4.3922   6.1029   6.5178   6.5178   8.9429  14.2869
    14.2869  17.0892

          k = 0.3580 0.6200-0.3208 (  3324 PWs)   bands (ev):

   -35.3107   4.9997   4.9997   5.5787   5.5787   6.0691   8.9541  15.8827
    15.8827  17.5366

          k = 0.0000 0.1378-0.1069 (  3311 PWs)   bands (ev):

   -35.3558  -2.3674   1.4805   5.9394  14.1341  15.5551  16.6496  17.5001
    18.4309  18.8942

          k = 0.0000 0.1378-0.2139 (  3316 PWs)   bands (ev):

   -35.3557  -2.0675   0.4527   7.9175  13.3902  15.1582  16.0277  16.5658
    17.5412  18.9496

          k = 0.0000 0.2756-0.1069 (  3310 PWs)   bands (ev):

   -35.3426  -1.5622   2.2541   6.5615  10.5971  13.9896  14.1942  16.3082
    17.5231  17.9706

          k = 0.0000 0.2756-0.2139 (  3317 PWs)   bands (ev):

   -35.3425  -1.2296   1.1580   8.5830  10.8880  12.8819  14.4547  14.7069
    16.2867  18.1343

          k = 0.0000 0.4134-0.1069 (  3311 PWs)   bands (ev):

   -35.3275  -0.2446   3.4745   7.0994   7.8789  10.9882  12.9332  14.8635
    16.2682  16.6237

          k = 0.0000 0.4134-0.2139 (  3314 PWs)   bands (ev):

   -35.3275   0.1440   2.2938   7.7132   9.0689  10.3817  13.3936  14.9409
    15.3204  17.2772

          k = 0.0000 0.5511-0.1069 (  3314 PWs)   bands (ev):

   -35.3177   1.4471   4.0975   5.6891   7.7433   9.6035  12.4018  12.6332
    15.7390  16.1548

          k = 0.0000 0.5511-0.2139 (  3324 PWs)   bands (ev):

   -35.3177   1.9314   3.5587   5.1576   6.9313  11.6196  12.8589  14.0545
    14.8281  15.9397

          k =-0.1193 0.3445-0.1069 (  3316 PWs)   bands (ev):

   -35.3324  -0.7667   3.0195   7.1496   9.0282  11.3732  12.8158  14.9919
    16.3584  18.9372

          k =-0.1193 0.3445-0.2139 (  3314 PWs)   bands (ev):

   -35.3324  -0.4030   1.8626   9.1509   9.4003  11.1614  12.0059  14.0026
    15.5756  19.6729

          k =-0.1193 0.4822-0.1069 (  3315 PWs)   bands (ev):

   -35.3200   0.7783   4.3302   6.1533   8.3325   9.5636  10.9831  13.3806
    14.9711  18.0429

          k =-0.1193 0.4822-0.2139 (  3314 PWs)   bands (ev):

   -35.3200   1.2097   3.1702   6.4591   8.1336  10.5243  11.2675  13.3366
    15.3630  18.2580

          k =-0.2386 0.5511-0.1069 (  3316 PWs)   bands (ev):

   -35.3134   2.2456   4.7674   6.2690   7.5876   8.6847   9.8031  11.5611
    13.4503  17.0201

          k =-0.2386 0.5511-0.2139 (  3307 PWs)   bands (ev):

   -35.3134   2.7270   4.4055   5.7323   7.0249   8.4891   9.7629  13.0733
    15.1032  18.1355

     the Fermi energy is    10.7020 ev

!    total energy              =     -31.09664787 Ry
     estimated scf accuracy    <          9.0E-11 Ry
     smearing contrib. (-TS)   =       0.00037464 Ry
     internal energy E=F+TS    =     -31.09702251 Ry

     The total energy is F=E-TS. E is the sum of the following terms:
     one-electron contribution =       2.10836124 Ry
     hartree contribution      =       3.71442863 Ry
     xc contribution           =      -9.90780092 Ry
     ewald contribution        =     -27.01201147 Ry

     convergence has been achieved in  10 iterations

     Forces acting on atoms (cartesian axes, Ry/au):

     atom    1 type  1   force =     0.00000000   -0.00000000   -0.15630373
     atom    2 type  1   force =     0.00000000   -0.00000000    0.15630373
     atom    3 type  2   force =     0.00000000   -0.00000000    0.00000000
     The non-local contrib.  to forces
     atom    1 type  1   force =     0.00000000   -0.00000000   -0.20295900
     atom    2 type  1   force =     0.00000000    0.00000000    0.20295900
     atom    3 type  2   force =     0.00000000    0.00000000    0.00000000
     The ionic contribution  to forces
     atom    1 type  1   force =     0.00000001   -0.00000001   -1.44532900
     atom    2 type  1   force =    -0.00000001    0.00000001    1.44532900
     atom    3 type  2   force =    -0.00000000    0.00000000   -0.00000000
     The local contribution  to forces
     atom    1 type  1   force =    -0.00000000    0.00000000    1.47956999
     atom    2 type  1   force =     0.00000000   -0.00000000   -1.47956999
     atom    3 type  2   force =     0.00000000    0.00000000    0.00000000
     The core correction contribution to forces
     atom    1 type  1   force =    -0.00000000    0.00000000    0.01242589
     atom    2 type  1   force =     0.00000000   -0.00000000   -0.01242589
     atom    3 type  2   force =     0.00000000    0.00000000    0.00000000
     The Hubbard contrib.    to forces
     atom    1 type  1   force =     0.00000000    0.00000000    0.00000000
     atom    2 type  1   force =     0.00000000    0.00000000    0.00000000
     atom    3 type  2   force =     0.00000000    0.00000000    0.00000000
     The SCF correction term to forces
     atom    1 type  1   force =     0.00000000   -0.00000000   -0.00001162
     atom    2 type  1   force =    -0.00000000    0.00000000    0.00001162
     atom    3 type  2   force =    -0.00000000    0.00000000   -0.00000000

     Total force =     0.221047     Total SCF correction =     0.000016


     Computing stress (Cartesian axis) and pressure

          total   stress  (Ry/bohr**3)                   (kbar)     P=      349.43
   0.00184864   0.00000000   0.00000000          271.94        0.00        0.00
   0.00000000   0.00184864   0.00000000            0.00      271.94        0.00
   0.00000000   0.00000000   0.00342880            0.00        0.00      504.39

     Energy error            =      1.3E-01 Ry
     Gradient error          =      1.6E-01 Ry/Bohr
     Cell gradient error     =      2.3E+02 kbar

     number of scf cycles    =   2
     number of bfgs steps    =   1

     enthalpy           old  =     -30.1961348255 Ry
     enthalpy           new  =     -30.3285588100 Ry

     CASE: enthalpy          _new < enthalpy          _old

     new trust radius        =       0.3333743651 bohr
ibrav =      4
 celldm(1) =      4.80165974
 celldm(3) =      1.82837444
Input lattice vectors:
     0.83074945     0.00000000     0.00000000
    -0.41537473     0.71945013     0.00000000
     0.00000000     0.00000000     1.51892107
New lattice vectors in INITIAL alat:
     0.83074945     0.00000000     0.00000000
    -0.41537473     0.71945013     0.00000000
     0.00000000     0.00000000     1.51892107
New lattice vectors in NEW alat (for information only):
     1.00000000     0.00000000     0.00000000
    -0.50000000     0.86602540     0.00000000
     0.00000000     0.00000000     1.82837444
Discrepancy in bohr =     0.000000    0.000000    0.000000
     new conv_thr            =       0.0000000100 Ry

     new unit-cell volume =    175.29516 a.u.^3 (    25.97606 Ang^3 )
     density =      4.03448 g/cm^3

CELL_PARAMETERS (alat=  5.77991321)
   0.830749453   0.000000000   0.000000000
  -0.415374727   0.719450131   0.000000000
   0.000000000   0.000000000   1.518921066

ATOMIC_POSITIONS (crystal)
Si            0.3333333300        0.6666666700        0.6887096266
Si            0.6666666700        0.3333333300        0.3112903734
Li           -0.0000000000       -0.0000000000        0.0000000000



     Writing config-only to output data dir ./output/SiLi.save/
     NEW-OLD atomic charge density approx. for the potential

     negative rho (up, down):  9.512E-05 0.000E+00
     extrapolated charge    7.82116, renormalised to   11.00000

     total cpu time spent up to now is       21.7 secs

     Self-consistent Calculation

     iteration #  1     ecut=    80.00 Ry     beta= 0.70
     Davidson diagonalization with overlap
     c_bands:  1 eigenvalues not converged
     c_bands:  1 eigenvalues not converged
     c_bands:  1 eigenvalues not converged
     c_bands:  1 eigenvalues not converged
     ethr =  1.00E-06,  avg # of iterations = 13.1

     total cpu time spent up to now is       23.7 secs

     total energy              =     -30.74019987 Ry
     estimated scf accuracy    <       0.30385616 Ry

     iteration #  2     ecut=    80.00 Ry     beta= 0.70
     Davidson diagonalization with overlap
     ethr =  2.76E-03,  avg # of iterations =  2.6

     total cpu time spent up to now is       24.7 secs

     total energy              =     -30.87645660 Ry
     estimated scf accuracy    <       0.87501194 Ry

     iteration #  3     ecut=    80.00 Ry     beta= 0.70
     Davidson diagonalization with overlap
     ethr =  2.76E-03,  avg # of iterations =  2.0

     total cpu time spent up to now is       25.5 secs

     total energy              =     -30.99568634 Ry
     estimated scf accuracy    <       0.01533305 Ry

     iteration #  4     ecut=    80.00 Ry     beta= 0.70
     Davidson diagonalization with overlap
     ethr =  1.39E-04,  avg # of iterations =  2.4

     total cpu time spent up to now is       26.3 secs

     total energy              =     -30.99626949 Ry
     estimated scf accuracy    <       0.00202586 Ry

     iteration #  5     ecut=    80.00 Ry     beta= 0.70
     Davidson diagonalization with overlap
     ethr =  1.84E-05,  avg # of iterations =  3.0

     total cpu time spent up to now is       27.0 secs

     total energy              =     -30.99672856 Ry
     estimated scf accuracy    <       0.00000216 Ry

     iteration #  6     ecut=    80.00 Ry     beta= 0.70
     Davidson diagonalization with overlap
     ethr =  1.97E-08,  avg # of iterations =  5.1

     total cpu time spent up to now is       27.8 secs

     total energy              =     -30.99674311 Ry
     estimated scf accuracy    <       0.00000304 Ry

     iteration #  7     ecut=    80.00 Ry     beta= 0.70
     Davidson diagonalization with overlap
     ethr =  1.97E-08,  avg # of iterations =  2.0

     total cpu time spent up to now is       28.3 secs

     total energy              =     -30.99674374 Ry
     estimated scf accuracy    <       0.00000005 Ry

     iteration #  8     ecut=    80.00 Ry     beta= 0.70
     Davidson diagonalization with overlap
     ethr =  4.57E-10,  avg # of iterations =  2.0

     total cpu time spent up to now is       28.9 secs

     End of self-consistent calculation

          k = 0.0000 0.0000 0.0000 (  3357 PWs)   bands (ev):

   -31.7332  -2.2137   3.6620   7.5160  21.6813  23.5190  23.6279  23.6279
    23.9129  23.9129

          k = 0.0000 0.0000 0.1097 (  3327 PWs)   bands (ev):

   -31.7332  -2.1897   3.3285   8.2036  19.3201  23.7010  23.7010  24.0724
    24.0724  25.8208

          k = 0.0000 0.0000 0.2195 (  3309 PWs)   bands (ev):

   -31.7330  -2.1393   2.8163   9.6741  16.6276  23.8697  23.8697  24.5206
    24.5207  26.8486

          k = 0.0000 0.0000-0.3292 (  3314 PWs)   bands (ev):

   -31.7330  -2.1129   2.6037  10.6553  15.2525  23.9691  23.9691  24.9440
    26.1175  26.1175

          k = 0.0000 0.1544 0.0000 (  3325 PWs)   bands (ev):

   -31.7186  -1.8627   4.0227   7.7216  19.1505  21.2556  21.7661  23.4050
    24.8802  26.5912

          k = 0.0000 0.1544 0.1097 (  3311 PWs)   bands (ev):

   -31.7185  -1.8353   3.6613   8.4377  19.2958  19.4738  21.3864  24.1118
    24.7246  25.6689

          k = 0.0000 0.1544 0.2195 (  3316 PWs)   bands (ev):

   -31.7184  -1.7774   3.1159   9.9533  16.6960  19.8250  21.7011  23.1935
    24.5387  24.7037

          k = 0.0000 0.1544-0.3292 (  3318 PWs)   bands (ev):

   -31.7183  -1.7468   2.8912  10.9799  15.2788  20.1371  21.9078  22.7581
    24.0551  24.5501

          k = 0.0000 0.3089 0.0000 (  3304 PWs)   bands (ev):

   -31.6814  -0.8145   5.0943   8.3294  14.5622  19.3586  20.3766  21.2474
    21.8418  24.7623

          k = 0.0000 0.3089 0.1097 (  3310 PWs)   bands (ev):

   -31.6814  -0.7770   4.6428   9.1264  14.7542  19.2513  19.4894  19.8334
    22.6765  23.9219

          k = 0.0000 0.3089 0.2195 (  3317 PWs)   bands (ev):

   -31.6813  -0.6969   4.0033  10.7368  15.0599  16.7560  19.2072  19.8173
    22.6587  22.9994

          k = 0.0000 0.3089-0.3292 (  3310 PWs)   bands (ev):

   -31.6812  -0.6539   3.7462  11.9037  14.5976  15.9292  19.0811  20.0475
    22.1162  22.7361

          k = 0.0000 0.4633 0.0000 (  3306 PWs)   bands (ev):

   -31.6390   0.9146   6.8170   9.0818  10.6447  16.2997  18.0928  18.4080
    20.4225  24.1140

          k = 0.0000 0.4633 0.1097 (  3311 PWs)   bands (ev):

   -31.6390   0.9693   6.1728  10.1152  10.6046  15.9052  18.2234  18.8791
    19.7509  22.6546

          k = 0.0000 0.4633 0.2195 (  3314 PWs)   bands (ev):

   -31.6389   1.0870   5.4140  10.5916  11.8030  15.1055  18.1591  18.5586
    20.5199  21.3664

          k = 0.0000 0.4633-0.3292 (  3314 PWs)   bands (ev):

   -31.6389   1.1506   5.1298  10.5319  13.3262  13.8596  18.0796  18.8026
    20.8035  20.9872

          k = 0.0000 0.6178 0.0000 (  3330 PWs)   bands (ev):

   -31.6113   3.2690   6.3772   9.3043  10.7214  12.7223  15.9679  17.4604
    19.9641  23.5294

          k = 0.0000 0.6178 0.1097 (  3314 PWs)   bands (ev):

   -31.6112   3.3599   6.2757   8.9410  10.4517  13.7526  16.3086  17.5902
    19.6471  22.0128

          k = 0.0000 0.6178 0.2195 (  3324 PWs)   bands (ev):

   -31.6112   3.5457   6.2569   7.9041  10.5875  15.3917  17.2520  17.9287
    19.1335  20.7163

          k = 0.0000 0.6178-0.3292 (  3318 PWs)   bands (ev):

   -31.6112   3.6373   6.4956   7.1843  10.7184  15.9779  18.1804  18.5544
    18.8943  20.1437

          k = 0.1337 0.2317 0.0000 (  3309 PWs)   bands (ev):

   -31.6927  -1.1630   4.7392   8.1325  16.9042  17.2025  22.3769  23.1239
    23.1558  24.0685

          k = 0.1337 0.2317 0.1097 (  3307 PWs)   bands (ev):

   -31.6926  -1.1289   4.3207   8.9086  16.8179  17.3077  20.5324  21.8142
    22.7089  25.5510

          k = 0.1337 0.2317 0.2195 (  3319 PWs)   bands (ev):

   -31.6925  -1.0562   3.7113  10.5108  16.1530  17.6137  18.5526  20.6605
    22.1330  26.2934

          k = 0.1337 0.2317-0.3292 (  3300 PWs)   bands (ev):

   -31.6925  -1.0174   3.4631  11.6144  15.1891  17.9124  17.9873  20.1519
    21.9101  26.4091

          k = 0.1337 0.3861 0.0000 (  3310 PWs)   bands (ev):

   -31.6529   0.2267   6.1458   8.9238  12.6492  15.4602  18.6222  19.9691
    21.8608  23.4487

          k = 0.1337 0.3861 0.1097 (  3316 PWs)   bands (ev):

   -31.6529   0.2739   5.5987   9.8099  12.8012  15.3635  17.9997  19.5859
    21.6452  22.5629

          k = 0.1337 0.3861 0.2195 (  3314 PWs)   bands (ev):

   -31.6528   0.3759   4.8760  11.4258  13.1319  15.3746  16.4533  18.5241
    20.7712  23.6632

          k = 0.1337 0.3861-0.3292 (  3298 PWs)   bands (ev):

   -31.6528   0.4314   4.5917  12.3757  13.4740  14.9648  16.0453  17.5582
    20.7300  24.5242

          k = 0.1337 0.5405 0.0000 (  3317 PWs)   bands (ev):

   -31.6178   2.2808   7.8275   8.7603  10.4530  14.0843  15.0954  17.0493
    20.8979  22.8157

          k = 0.1337 0.5405 0.1097 (  3315 PWs)   bands (ev):

   -31.6178   2.3502   7.1147   9.2072  10.8058  13.8933  15.5076  17.0651
    20.5638  22.3383

          k = 0.1337 0.5405 0.2195 (  3314 PWs)   bands (ev):

   -31.6177   2.4986   6.4264   9.0875  11.6824  14.4428  15.1281  17.5586
    20.1681  21.3219

          k = 0.1337 0.5405-0.3292 (  3308 PWs)   bands (ev):

   -31.6177   2.5782   6.1874   8.9124  12.1384  14.4416  15.6252  17.0762
    20.4209  21.2671

          k = 0.1337 0.6950 0.0000 (  3334 PWs)   bands (ev):

   -31.6039   4.5782   5.4610  10.3484  11.3523  11.7284  14.0695  15.8099
    20.5787  22.5196

          k = 0.1337 0.6950 0.1097 (  3317 PWs)   bands (ev):

   -31.6039   4.7175   5.4492   9.5425  10.5302  13.3974  14.4783  15.9282
    19.8958  22.9971

          k = 0.1337 0.6950 0.2195 (  3320 PWs)   bands (ev):

   -31.6039   5.0767   5.4242   8.2403  10.3332  14.3373  15.8866  16.7206
    18.8382  22.0576

          k = 0.1337 0.6950-0.3292 (  3322 PWs)   bands (ev):

   -31.6039   5.3452   5.4013   7.6515  10.2667  14.4728  16.8280  17.8394
    18.2012  20.7543

          k = 0.2675 0.4633 0.0000 (  3306 PWs)   bands (ev):

   -31.6204   1.9460   7.8136   9.8225  11.0678  11.7574  16.5790  17.9620
    18.1854  21.7855

          k = 0.2675 0.4633 0.1097 (  3316 PWs)   bands (ev):

   -31.6204   2.0078   7.1323  10.6766  11.3425  11.6935  15.8695  17.0527
    19.9467  21.7692

          k = 0.2675 0.4633 0.2195 (  3300 PWs)   bands (ev):

   -31.6204   2.1454   6.3032  11.3131  11.5788  12.7959  14.7114  16.3160
    20.9429  22.4957

          k = 0.2675 0.4633-0.3292 (  3298 PWs)   bands (ev):

   -31.6203   2.2230   5.9765  11.4701  11.6003  14.0082  14.5338  15.1387
    20.7198  23.9399

          k = 0.2675 0.6178 0.0000 (  3314 PWs)   bands (ev):

   -31.5992   4.2964   7.3584  10.0132  10.7389  11.5772  13.7059  15.5235
    17.1977  21.0272

          k = 0.2675 0.6178 0.1097 (  3316 PWs)   bands (ev):

   -31.5992   4.3879   7.2906   9.8269  10.4226  11.5296  14.4861  15.0615
    18.1848  21.1016

          k = 0.2675 0.6178 0.2195 (  3307 PWs)   bands (ev):

   -31.5992   4.5848   7.2774   8.8528  10.4990  11.6533  14.0956  16.5232
    19.4345  21.5078

          k = 0.2675 0.6178-0.3292 (  3302 PWs)   bands (ev):

   -31.5991   4.6899   7.4478   8.1914  10.8735  11.3286  14.1129  17.2851
    20.1303  21.6533

          k = 0.4012 0.6950 0.0000 (  3318 PWs)   bands (ev):

   -31.5919   6.6779   6.6779   7.8322  12.0047  12.7781  12.7781  14.7809
    14.7809  20.4284

          k = 0.4012 0.6950 0.1097 (  3315 PWs)   bands (ev):

   -31.5919   6.8065   6.8065   7.7528  11.7312  11.7312  12.1957  16.1560
    16.1560  20.3185

          k = 0.4012 0.6950 0.2195 (  3318 PWs)   bands (ev):

   -31.5918   7.1290   7.1290   7.6079  10.4896  10.4896  12.5795  18.3481
    18.3481  20.0769

          k = 0.4012 0.6950-0.3292 (  3324 PWs)   bands (ev):

   -31.5918   7.3493   7.3493   7.5412   9.9469   9.9469  12.7749  19.8179
    19.8179  19.9438

          k = 0.0000 0.1544-0.1097 (  3311 PWs)   bands (ev):

   -31.7185  -1.8352   3.6616   8.4400  18.4370  20.9875  21.3677  23.3301
    24.2768  25.7235

          k = 0.0000 0.1544-0.2195 (  3316 PWs)   bands (ev):

   -31.7184  -1.7774   3.1162   9.9595  16.5319  20.2956  21.6741  23.0834
    24.2174  24.5954

          k = 0.0000 0.3089-0.1097 (  3310 PWs)   bands (ev):

   -31.6814  -0.7771   4.6488   9.1437  14.4623  19.3326  19.4794  21.1941
    21.9932  23.9326

          k = 0.0000 0.3089-0.2195 (  3317 PWs)   bands (ev):

   -31.6813  -0.6970   4.0076  10.8104  14.3676  17.4859  19.6976  19.8029
    22.3957  22.6787

          k = 0.0000 0.4633-0.1097 (  3311 PWs)   bands (ev):

   -31.6390   0.9669   6.2471   9.7212  10.9107  15.5233  18.2184  19.3235
    20.8174  22.6581

          k = 0.0000 0.4633-0.2195 (  3314 PWs)   bands (ev):

   -31.6389   1.0840   5.4575  10.3522  12.0995  14.4984  18.5513  19.4775
    20.9514  21.3752

          k = 0.0000 0.6178-0.1097 (  3314 PWs)   bands (ev):

   -31.6112   3.3403   6.5021   8.3242  11.2134  13.0981  16.6183  17.5887
    19.9987  22.0136

          k = 0.0000 0.6178-0.2195 (  3324 PWs)   bands (ev):

   -31.6112   3.5196   6.6757   7.3044  10.9562  14.6467  17.9264  17.9784
    19.7900  20.7188

          k =-0.1337 0.3861-0.1097 (  3316 PWs)   bands (ev):

   -31.6529   0.2734   5.6141   9.8149  12.6085  15.6665  17.5483  20.3930
    21.0687  23.7668

          k =-0.1337 0.3861-0.2195 (  3314 PWs)   bands (ev):

   -31.6528   0.3753   4.8861  11.5921  12.6332  15.9256  16.3210  18.3830
    21.0349  24.4759

          k =-0.1337 0.5405-0.1097 (  3315 PWs)   bands (ev):

   -31.6178   2.3435   7.4730   8.4513  11.3787  13.9947  14.6815  18.0144
    19.9359  23.7042

          k =-0.1337 0.5405-0.2195 (  3314 PWs)   bands (ev):

   -31.6178   2.4902   6.5820   8.7025  12.2883  13.7772  15.0835  18.3275
    19.4766  22.7302

          k =-0.2675 0.6178-0.1097 (  3316 PWs)   bands (ev):

   -31.5992   4.3753   7.4890   9.0646  10.9589  12.1372  13.1998  16.0379
    17.8487  21.2191

          k =-0.2675 0.6178-0.2195 (  3307 PWs)   bands (ev):

   -31.5992   4.5674   7.6729   8.1768  10.9578  11.6854  13.7090  16.8932
    19.0314  22.0610

     the Fermi energy is    14.5352 ev

!    total energy              =     -30.99674376 Ry
     estimated scf accuracy    <          9.7E-09 Ry
     smearing contrib. (-TS)   =      -0.00057500 Ry
     internal energy E=F+TS    =     -30.99616876 Ry

     The total energy is F=E-TS. E is the sum of the following terms:
     one-electron contribution =       6.44572108 Ry
     hartree contribution      =       3.01217065 Ry
     xc contribution           =     -10.38965217 Ry
     ewald contribution        =     -30.06440831 Ry

     convergence has been achieved in   8 iterations

     Forces acting on atoms (cartesian axes, Ry/au):

     atom    1 type  1   force =     0.00000000    0.00000000   -0.03085052
     atom    2 type  1   force =     0.00000000    0.00000000    0.03085052
     atom    3 type  2   force =     0.00000000    0.00000000    0.00000000
     The non-local contrib.  to forces
     atom    1 type  1   force =     0.00000000    0.00000000   -0.08955488
     atom    2 type  1   force =     0.00000000   -0.00000000    0.08955488
     atom    3 type  2   force =    -0.00000000    0.00000000    0.00000000
     The ionic contribution  to forces
     atom    1 type  1   force =     0.00000001   -0.00000001   -0.23399457
     atom    2 type  1   force =    -0.00000001    0.00000001    0.23399457
     atom    3 type  2   force =     0.00000000    0.00000000   -0.00000000
     The local contribution  to forces
     atom    1 type  1   force =    -0.00000001    0.00000001    0.29171432
     atom    2 type  1   force =     0.00000001   -0.00000001   -0.29171432
     atom    3 type  2   force =     0.00000000    0.00000000    0.00000000
     The core correction contribution to forces
     atom    1 type  1   force =    -0.00000000    0.00000000    0.00110593
     atom    2 type  1   force =     0.00000000   -0.00000000   -0.00110593
     atom    3 type  2   force =     0.00000000    0.00000000    0.00000000
     The Hubbard contrib.    to forces
     atom    1 type  1   force =     0.00000000    0.00000000    0.00000000
     atom    2 type  1   force =     0.00000000    0.00000000    0.00000000
     atom    3 type  2   force =     0.00000000    0.00000000    0.00000000
     The SCF correction term to forces
     atom    1 type  1   force =     0.00000000   -0.00000000   -0.00012133
     atom    2 type  1   force =    -0.00000000    0.00000000    0.00012133
     atom    3 type  2   force =     0.00000000    0.00000000   -0.00000000

     Total force =     0.043629     Total SCF correction =     0.000172


     Computing stress (Cartesian axis) and pressure

          total   stress  (Ry/bohr**3)                   (kbar)     P=      963.50
   0.00531624   0.00000000  -0.00000000          782.05        0.00       -0.00
   0.00000000   0.00531624  -0.00000000            0.00      782.05       -0.00
   0.00000000   0.00000000   0.00901678            0.00        0.00     1326.41

     Energy error            =      7.2E-02 Ry
     Gradient error          =      3.1E-02 Ry/Bohr
     Cell gradient error     =      8.3E+02 kbar

     number of scf cycles    =   3
     number of bfgs steps    =   2

     enthalpy           old  =     -30.3285588100 Ry
     enthalpy           new  =     -30.4009276268 Ry

     CASE: enthalpy          _new < enthalpy          _old

     new trust radius        =       0.1523525777 bohr
ibrav =      4
 celldm(1) =      4.91647554
 celldm(3) =      1.88841542
Input lattice vectors:
     0.85061408     0.00000000    -0.00000000
    -0.42530704     0.73665340    -0.00000000
    -0.00000000    -0.00000000     1.60631274
New lattice vectors in INITIAL alat:
     0.85061408     0.00000000     0.00000000
    -0.42530704     0.73665340     0.00000000
     0.00000000     0.00000000     1.60631274
New lattice vectors in NEW alat (for information only):
     1.00000000     0.00000000     0.00000000
    -0.50000000     0.86602540     0.00000000
     0.00000000     0.00000000     1.88841542
Discrepancy in bohr =     0.000000    0.000000    0.000000
     new conv_thr            =       0.0000000031 Ry

     new unit-cell volume =    194.35236 a.u.^3 (    28.80005 Ang^3 )
     density =      3.63888 g/cm^3

CELL_PARAMETERS (alat=  5.77991321)
   0.850614076   0.000000000   0.000000000
  -0.425307038   0.736653399   0.000000000
   0.000000000   0.000000000   1.606312740

ATOMIC_POSITIONS (crystal)
Si            0.3333333300        0.6666666700        0.6885314720
Si            0.6666666700        0.3333333300        0.3114685280
Li           -0.0000000000       -0.0000000000        0.0000000000



     Writing config-only to output data dir ./output/SiLi.save/
     NEW-OLD atomic charge density approx. for the potential
     extrapolated charge   12.07804, renormalised to   11.00000

     total cpu time spent up to now is       30.4 secs

     Self-consistent Calculation

     iteration #  1     ecut=    80.00 Ry     beta= 0.70
     Davidson diagonalization with overlap
     c_bands:  1 eigenvalues not converged
     ethr =  1.00E-06,  avg # of iterations =  9.7

     total cpu time spent up to now is       31.7 secs

     total energy              =     -31.10232219 Ry
     estimated scf accuracy    <       0.00238114 Ry

     iteration #  2     ecut=    80.00 Ry     beta= 0.70
     Davidson diagonalization with overlap
     ethr =  2.16E-05,  avg # of iterations =  3.3

     total cpu time spent up to now is       32.5 secs

     total energy              =     -31.11045284 Ry
     estimated scf accuracy    <       0.01308833 Ry

     iteration #  3     ecut=    80.00 Ry     beta= 0.70
     Davidson diagonalization with overlap
     ethr =  2.16E-05,  avg # of iterations =  2.0

     total cpu time spent up to now is       33.0 secs

     total energy              =     -31.11099047 Ry
     estimated scf accuracy    <       0.00196355 Ry

     iteration #  4     ecut=    80.00 Ry     beta= 0.70
     Davidson diagonalization with overlap
     ethr =  1.79E-05,  avg # of iterations =  1.0

     total cpu time spent up to now is       33.4 secs

     total energy              =     -31.11049979 Ry
     estimated scf accuracy    <       0.00093335 Ry

     iteration #  5     ecut=    80.00 Ry     beta= 0.70
     Davidson diagonalization with overlap
     ethr =  8.48E-06,  avg # of iterations =  2.1

     total cpu time spent up to now is       34.0 secs

     total energy              =     -31.11072914 Ry
     estimated scf accuracy    <       0.00009247 Ry

     iteration #  6     ecut=    80.00 Ry     beta= 0.70
     Davidson diagonalization with overlap
     ethr =  8.41E-07,  avg # of iterations =  2.0

     total cpu time spent up to now is       34.5 secs

     total energy              =     -31.11074465 Ry
     estimated scf accuracy    <       0.00000012 Ry

     iteration #  7     ecut=    80.00 Ry     beta= 0.70
     Davidson diagonalization with overlap
     ethr =  1.12E-09,  avg # of iterations =  4.1

     total cpu time spent up to now is       35.1 secs

     total energy              =     -31.11074493 Ry
     estimated scf accuracy    <       0.00000059 Ry

     iteration #  8     ecut=    80.00 Ry     beta= 0.70
     Davidson diagonalization with overlap
     ethr =  1.12E-09,  avg # of iterations =  2.0

     total cpu time spent up to now is       35.6 secs

     total energy              =     -31.11074505 Ry
     estimated scf accuracy    <          8.3E-09 Ry

     iteration #  9     ecut=    80.00 Ry     beta= 0.70
     Davidson diagonalization with overlap
     ethr =  7.54E-11,  avg # of iterations =  1.9

     total cpu time spent up to now is       36.1 secs

     End of self-consistent calculation

          k = 0.0000 0.0000 0.0000 (  3357 PWs)   bands (ev):

   -33.0079  -2.9261   2.3136   6.1813  18.9528  21.0482  21.7954  21.7954
    22.3498  22.3498

          k = 0.0000 0.0000 0.1038 (  3327 PWs)   bands (ev):

   -33.0078  -2.9012   2.0401   6.7595  16.9126  21.8590  21.8590  22.4875
    22.4875  23.1764

          k = 0.0000 0.0000 0.2075 (  3309 PWs)   bands (ev):

   -33.0078  -2.8488   1.6019   8.0113  14.5249  22.0028  22.0029  22.8696
    22.8696  25.0149

          k = 0.0000 0.0000-0.3113 (  3314 PWs)   bands (ev):

   -33.0077  -2.8212   1.4154   8.8265  13.3431  22.0860  22.0860  23.2100
    24.4075  24.4075

          k = 0.0000 0.1508 0.0000 (  3325 PWs)   bands (ev):

   -32.9968  -2.5873   2.6606   6.4010  17.5574  19.3344  19.6419  20.9484
    22.8364  23.8674

          k = 0.0000 0.1508 0.1038 (  3311 PWs)   bands (ev):

   -32.9967  -2.5598   2.3670   7.0003  16.9988  17.9051  19.7448  22.1448
    22.5669  23.8002

          k = 0.0000 0.1508 0.2075 (  3316 PWs)   bands (ev):

   -32.9967  -2.5017   1.9029   8.2903  14.6406  18.2121  20.0001  21.4269
    22.7162  22.7706

          k = 0.0000 0.1508-0.3113 (  3318 PWs)   bands (ev):

   -32.9967  -2.4709   1.7064   9.1426  13.4220  18.4592  20.1733  21.0506
    22.3077  22.6446

          k = 0.0000 0.3017 0.0000 (  3304 PWs)   bands (ev):

   -32.9687  -1.5751   3.6939   7.0522  13.1922  17.8167  18.5009  19.2344
    19.8337  22.1120

          k = 0.0000 0.3017 0.1038 (  3310 PWs)   bands (ev):

   -32.9687  -1.5402   3.3384   7.7058  13.3565  17.1479  17.9243  18.1673
    20.6937  21.9970

          k = 0.0000 0.3017 0.2075 (  3317 PWs)   bands (ev):

   -32.9686  -1.4649   2.7984   9.0837  13.6161  14.8520  17.5511  18.1947
    20.9236  21.0169

          k = 0.0000 0.3017-0.3113 (  3310 PWs)   bands (ev):

   -32.9686  -1.4241   2.5732  10.0581  13.1045  14.2390  17.3567  18.3815
    20.4522  20.8821

          k = 0.0000 0.4525 0.0000 (  3306 PWs)   bands (ev):

   -32.9366   0.0964   5.3807   7.9498   9.2985  14.4516  16.5954  16.7904
    18.7112  21.7763

          k = 0.0000 0.4525 0.1038 (  3311 PWs)   bands (ev):

   -32.9366   0.1438   4.9001   8.7290   9.2977  14.1780  16.7050  17.2598
    17.8919  20.7762

          k = 0.0000 0.4525 0.2075 (  3314 PWs)   bands (ev):

   -32.9366   0.2481   4.2479   9.3088  10.2128  13.4025  16.4759  16.9829
    18.5591  19.6783

          k = 0.0000 0.4525-0.3113 (  3314 PWs)   bands (ev):

   -32.9366   0.3061   3.9863   9.2947  11.6429  12.1591  16.2116  17.1780
    19.1107  19.1987

          k = 0.0000 0.6033 0.0000 (  3330 PWs)   bands (ev):

   -32.9157   2.3779   5.4149   7.7402   9.4401  10.9694  14.3947  15.9846
    18.3166  21.2072

          k = 0.0000 0.6033 0.1038 (  3314 PWs)   bands (ev):

   -32.9157   2.4508   5.3559   7.4329   9.0757  12.0067  14.6710  16.0948
    18.0136  20.1597

          k = 0.0000 0.6033 0.2075 (  3324 PWs)   bands (ev):

   -32.9157   2.6090   5.3539   6.5829   9.1231  13.4606  15.5529  16.3763
    17.3915  19.0520

          k = 0.0000 0.6033-0.3113 (  3318 PWs)   bands (ev):

   -32.9157   2.6948   5.5363   5.9964   9.2308  14.0195  16.5757  16.6510
    16.9651  18.5690

          k = 0.1306 0.2262 0.0000 (  3309 PWs)   bands (ev):

   -32.9772  -1.9117   3.3508   6.8393  15.4264  15.7763  19.9241  20.8002
    20.8183  22.2781

          k = 0.1306 0.2262 0.1038 (  3307 PWs)   bands (ev):

   -32.9772  -1.8791   3.0158   7.4847  15.3144  15.8348  18.2002  19.9639
    20.5890  23.4614

          k = 0.1306 0.2262 0.2075 (  3319 PWs)   bands (ev):

   -32.9771  -1.8095   2.5011   8.8492  14.4328  16.0678  16.7601  18.9644
    20.1381  24.4219

          k = 0.1306 0.2262-0.3113 (  3300 PWs)   bands (ev):

   -32.9771  -1.7723   2.2858   9.7642  13.4713  16.3015  16.4263  18.5339
    19.9515  24.5560

          k = 0.1306 0.3771 0.0000 (  3310 PWs)   bands (ev):

   -32.9471  -0.5690   4.7144   7.6911  11.3332  14.1035  16.6426  18.2178
    19.6716  21.2637

          k = 0.1306 0.3771 0.1038 (  3316 PWs)   bands (ev):

   -32.9471  -0.5266   4.2918   8.4045  11.4614  14.0302  16.1307  17.8251
    19.3643  20.3805

          k = 0.1306 0.3771 0.2075 (  3314 PWs)   bands (ev):

   -32.9471  -0.4344   3.6819   9.8153  11.7261  13.9456  14.8548  16.6848
    18.6550  21.5233

          k = 0.1306 0.3771-0.3113 (  3298 PWs)   bands (ev):

   -32.9471  -0.3838   3.4319  10.7556  11.8928  13.3754  14.6329  15.8705
    18.6028  22.4541

          k = 0.1306 0.5279 0.0000 (  3317 PWs)   bands (ev):

   -32.9206   1.4186   6.6006   7.4435   9.1282  12.6669  13.3621  15.4130
    18.7067  21.0599

          k = 0.1306 0.5279 0.1038 (  3315 PWs)   bands (ev):

   -32.9206   1.4768   5.9923   7.8056   9.4323  12.5961  13.6405  15.4838
    18.5124  20.1912

          k = 0.1306 0.5279 0.2075 (  3314 PWs)   bands (ev):

   -32.9206   1.6052   5.3334   7.8152  10.2175  13.0433  13.3731  15.8648
    18.1774  19.0413

          k = 0.1306 0.5279-0.3113 (  3308 PWs)   bands (ev):

   -32.9206   1.6769   5.0809   7.7343  10.6875  12.8110  13.8983  15.4800
    18.1396  19.1801

          k = 0.1306 0.6787 0.0000 (  3334 PWs)   bands (ev):

   -32.9101   3.6495   4.5081   8.8694   9.9525  10.0898  12.7465  14.1134
    18.3937  20.8233

          k = 0.1306 0.6787 0.1038 (  3317 PWs)   bands (ev):

   -32.9101   3.7673   4.5034   8.2602   8.9785  11.8304  12.9902  14.2348
    17.8988  21.1186

          k = 0.1306 0.6787 0.2075 (  3320 PWs)   bands (ev):

   -32.9101   4.0643   4.4931   7.1076   8.7988  12.9841  14.0386  14.8796
    16.9849  19.8961

          k = 0.1306 0.6787-0.3113 (  3322 PWs)   bands (ev):

   -32.9101   4.2704   4.4857   6.6036   8.7368  13.0972  15.0457  15.9063
    16.2353  18.5117

          k = 0.2612 0.4525 0.0000 (  3306 PWs)   bands (ev):

   -32.9226   1.0937   6.3702   8.6860   9.7727  10.4750  14.8390  16.0079
    16.3118  19.9144

          k = 0.2612 0.4525 0.1038 (  3316 PWs)   bands (ev):

   -32.9226   1.1481   5.8361   9.4501   9.9417  10.4314  14.2738  15.1418
    17.8412  19.7474

          k = 0.2612 0.4525 0.2075 (  3300 PWs)   bands (ev):

   -32.9226   1.2683   5.1280  10.0531  10.3305  11.1948  13.2591  14.4561
    18.5062  20.2931

          k = 0.2612 0.4525-0.3113 (  3298 PWs)   bands (ev):

   -32.9226   1.3357   4.8427  10.2485  10.2787  12.4366  12.9750  13.3841
    18.2295  21.7980

          k = 0.2612 0.6033 0.0000 (  3314 PWs)   bands (ev):

   -32.9066   3.3704   6.3594   8.6478   9.4004  10.2770  11.9150  13.9637
    15.1290  19.1569

          k = 0.2612 0.6033 0.1038 (  3316 PWs)   bands (ev):

   -32.9066   3.4464   6.3267   8.3079   9.3291  10.1157  13.0409  13.0904
    16.1118  19.1781

          k = 0.2612 0.6033 0.2075 (  3307 PWs)   bands (ev):

   -32.9066   3.6147   6.3342   7.4998   9.3461  10.1862  12.6461  14.4437
    17.3423  19.2778

          k = 0.2612 0.6033-0.3113 (  3302 PWs)   bands (ev):

   -32.9065   3.7086   6.4669   6.9765   9.6238   9.9366  12.5800  15.2419
    17.8816  19.2568

          k = 0.3919 0.6787 0.0000 (  3318 PWs)   bands (ev):

   -32.9010   5.6774   5.6774   6.8222  10.5270  11.2791  11.2791  12.9258
    12.9258  18.4929

          k = 0.3919 0.6787 0.1038 (  3315 PWs)   bands (ev):

   -32.9010   5.7887   5.7887   6.7615  10.3043  10.3043  10.6714  14.2008
    14.2008  18.4011

          k = 0.3919 0.6787 0.2075 (  3318 PWs)   bands (ev):

   -32.9010   6.0648   6.0648   6.6494   9.1914   9.1914  10.9602  16.1829
    16.1829  18.2037

          k = 0.3919 0.6787-0.3113 (  3324 PWs)   bands (ev):

   -32.9010   6.2494   6.2494   6.5973   8.7152   8.7152  11.1061  17.5010
    17.5010  18.0974

          k = 0.0000 0.1508-0.1038 (  3311 PWs)   bands (ev):

   -32.9967  -2.5597   2.3667   7.0034  16.5374  18.8148  19.7438  21.5865
    22.1936  23.5899

          k = 0.0000 0.1508-0.2075 (  3316 PWs)   bands (ev):

   -32.9967  -2.5016   1.9026   8.2963  14.5421  18.5318  20.0000  21.3658
    22.3185  22.6963

          k = 0.0000 0.3017-0.1038 (  3310 PWs)   bands (ev):

   -32.9687  -1.5396   3.3363   7.7340  13.1014  17.4058  17.9228  18.7953
    20.2265  21.9484

          k = 0.0000 0.3017-0.2075 (  3317 PWs)   bands (ev):

   -32.9686  -1.4643   2.7970   9.1507  12.9884  15.5472  17.7524  18.1931
    20.6481  20.9035

          k = 0.0000 0.4525-0.1038 (  3311 PWs)   bands (ev):

   -32.9366   0.1445   4.9139   8.6031   9.4458  13.7623  16.7041  17.4329
    19.0846  20.7553

          k = 0.0000 0.4525-0.2075 (  3314 PWs)   bands (ev):

   -32.9366   0.2488   4.2560   9.1851  10.4898  12.8033  16.9819  17.2444
    19.2289  19.6698

          k = 0.0000 0.6033-0.1038 (  3314 PWs)   bands (ev):

   -32.9157   2.4449   5.4988   6.9964   9.8130  11.2825  14.9297  16.0945
    18.3619  20.1535

          k = 0.0000 0.6033-0.2075 (  3324 PWs)   bands (ev):

   -32.9157   2.6010   5.6330   6.1518   9.4745  12.8025  15.9742  16.3760
    18.1827  19.0494

          k =-0.1306 0.3771-0.1038 (  3316 PWs)   bands (ev):

   -32.9471  -0.5262   4.2919   8.4401  11.3062  14.2651  15.7659  18.3640
    18.9197  21.3920

          k =-0.1306 0.3771-0.2075 (  3314 PWs)   bands (ev):

   -32.9471  -0.4339   3.6821   9.9557  11.3544  14.4380  14.6317  16.5802
    18.7980  22.2688

          k =-0.1306 0.5279-0.1038 (  3315 PWs)   bands (ev):

   -32.9206   1.4758   6.1388   7.3979   9.9430  12.2657  13.3015  16.1845
    17.9577  21.7707

          k =-0.1306 0.5279-0.2075 (  3314 PWs)   bands (ev):

   -32.9206   1.6039   5.3951   7.5912  10.8573  12.0313  13.5975  16.6192
    17.2970  20.4357

          k =-0.2612 0.6033-0.1038 (  3316 PWs)   bands (ev):

   -32.9066   3.4416   6.4559   7.8388   9.6398  10.7225  11.5632  14.2546
    15.7774  19.3071

          k =-0.2612 0.6033-0.2075 (  3307 PWs)   bands (ev):

   -32.9066   3.6080   6.6136   7.0348   9.6756  10.2493  12.1883  14.8805
    16.9067  19.9657

     the Fermi energy is    13.0359 ev

!    total energy              =     -31.11074506 Ry
     estimated scf accuracy    <          4.6E-11 Ry
     smearing contrib. (-TS)   =      -0.00061210 Ry
     internal energy E=F+TS    =     -31.11013296 Ry

     The total energy is F=E-TS. E is the sum of the following terms:
     one-electron contribution =       5.11157823 Ry
     hartree contribution      =       3.05206147 Ry
     xc contribution           =     -10.19568332 Ry
     ewald contribution        =     -29.07808934 Ry

     convergence has been achieved in   9 iterations

     Forces acting on atoms (cartesian axes, Ry/au):

     atom    1 type  1   force =     0.00000000    0.00000000   -0.04627530
     atom    2 type  1   force =     0.00000000    0.00000000    0.04627530
     atom    3 type  2   force =     0.00000000    0.00000000    0.00000000
     The non-local contrib.  to forces
     atom    1 type  1   force =    -0.00000000   -0.00000000   -0.13294892
     atom    2 type  1   force =     0.00000000    0.00000000    0.13294892
     atom    3 type  2   force =    -0.00000000    0.00000000    0.00000000
     The ionic contribution  to forces
     atom    1 type  1   force =     0.00000001   -0.00000001   -0.22770502
     atom    2 type  1   force =    -0.00000001    0.00000001    0.22770502
     atom    3 type  2   force =     0.00000000    0.00000000   -0.00000000
     The local contribution  to forces
     atom    1 type  1   force =    -0.00000001    0.00000000    0.30955565
     atom    2 type  1   force =     0.00000001   -0.00000000   -0.30955565
     atom    3 type  2   force =     0.00000000    0.00000000    0.00000000
     The core correction contribution to forces
     atom    1 type  1   force =    -0.00000000    0.00000000    0.00482420
     atom    2 type  1   force =     0.00000000   -0.00000000   -0.00482420
     atom    3 type  2   force =     0.00000000    0.00000000    0.00000000
     The Hubbard contrib.    to forces
     atom    1 type  1   force =     0.00000000    0.00000000    0.00000000
     atom    2 type  1   force =     0.00000000    0.00000000    0.00000000
     atom    3 type  2   force =     0.00000000    0.00000000    0.00000000
     The SCF correction term to forces
     atom    1 type  1   force =    -0.00000000    0.00000000   -0.00000121
     atom    2 type  1   force =     0.00000000   -0.00000000    0.00000121
     atom    3 type  2   force =    -0.00000000    0.00000000    0.00000000

     Total force =     0.065443     Total SCF correction =     0.000002


     Computing stress (Cartesian axis) and pressure

          total   stress  (Ry/bohr**3)                   (kbar)     P=      623.46
   0.00330689   0.00000000   0.00000000          486.46        0.00        0.00
   0.00000000   0.00330689   0.00000000            0.00      486.46        0.00
   0.00000000   0.00000000   0.00610087            0.00        0.00      897.47

     Energy error            =      4.9E-02 Ry
     Gradient error          =      4.6E-02 Ry/Bohr
     Cell gradient error     =      4.0E+02 kbar

     number of scf cycles    =   4
     number of bfgs steps    =   3

     enthalpy           old  =     -30.4009276268 Ry
     enthalpy           new  =     -30.4501548104 Ry

     CASE: enthalpy          _new < enthalpy          _old

     new trust radius        =       0.3012285925 bohr
ibrav =      4
 celldm(1) =      4.76645549
 celldm(3) =      2.15829111
Input lattice vectors:
     0.82465866     0.00000000    -0.00000000
    -0.41232933     0.71417535    -0.00000000
     0.00000000     0.00000000     1.77985346
New lattice vectors in INITIAL alat:
     0.82465866     0.00000000     0.00000000
    -0.41232933     0.71417535     0.00000000
     0.00000000     0.00000000     1.77985346
New lattice vectors in NEW alat (for information only):
     1.00000000     0.00000000     0.00000000
    -0.50000000     0.86602540     0.00000000
     0.00000000     0.00000000     2.15829111
Discrepancy in bohr =     0.000000    0.000000    0.000000
     new conv_thr            =       0.0000000046 Ry

     new unit-cell volume =    202.40782 a.u.^3 (    29.99374 Ang^3 )
     density =      3.49406 g/cm^3

CELL_PARAMETERS (alat=  5.77991321)
   0.824658661   0.000000000   0.000000000
  -0.412329330   0.714175350   0.000000000
   0.000000000   0.000000000   1.779853459

ATOMIC_POSITIONS (crystal)
Si            0.3333333300        0.6666666700        0.6702670046
Si            0.6666666700        0.3333333300        0.3297329954
Li           -0.0000000000       -0.0000000000        0.0000000000



     Writing config-only to output data dir ./output/SiLi.save/
     NEW-OLD atomic charge density approx. for the potential
     extrapolated charge   11.43755, renormalised to   11.00000

     total cpu time spent up to now is       37.4 secs

     Self-consistent Calculation

     iteration #  1     ecut=    80.00 Ry     beta= 0.70
     Davidson diagonalization with overlap
     c_bands:  1 eigenvalues not converged
[...]
        k(   61) = (  -0.2764323   0.6383931  -0.0893208), wk =   0.0493827
        k(   62) = (  -0.2764323   0.6383931  -0.1786417), wk =   0.0493827

     Dense  grid:    19555 G-vectors     FFT dimensions: (  27,  27,  64)

     Estimated max dynamical RAM per process >      16.37 MB

     Estimated total dynamical RAM >     130.94 MB

     Initial potential from superposition of free atoms

     starting charge      10.9942, renormalised to      11.0000
     Starting wfcs are   10 randomized atomic wfcs

     total cpu time spent up to now is       69.3 secs

     Self-consistent Calculation

     iteration #  1     ecut=    80.00 Ry     beta= 0.70
     Davidson diagonalization with overlap
     c_bands:  5 eigenvalues not converged
     c_bands:  1 eigenvalues not converged
     c_bands:  1 eigenvalues not converged
     c_bands:  1 eigenvalues not converged
     c_bands:  1 eigenvalues not converged
     c_bands:  1 eigenvalues not converged
     c_bands:  1 eigenvalues not converged
     c_bands:  1 eigenvalues not converged
     c_bands:  1 eigenvalues not converged
     c_bands:  1 eigenvalues not converged
     c_bands:  1 eigenvalues not converged
     c_bands:  1 eigenvalues not converged
     c_bands:  1 eigenvalues not converged
     c_bands:  1 eigenvalues not converged
     c_bands:  1 eigenvalues not converged
     c_bands:  1 eigenvalues not converged
     c_bands:  1 eigenvalues not converged
     c_bands:  1 eigenvalues not converged
     c_bands:  1 eigenvalues not converged
     c_bands:  1 eigenvalues not converged
     c_bands:  1 eigenvalues not converged
     c_bands:  1 eigenvalues not converged
     c_bands:  1 eigenvalues not converged
     c_bands:  1 eigenvalues not converged
     c_bands:  1 eigenvalues not converged
     c_bands:  1 eigenvalues not converged
     ethr =  1.00E-06,  avg # of iterations = 17.9

     total cpu time spent up to now is       70.8 secs

     total energy              =     -31.11978208 Ry
     estimated scf accuracy    <       0.12085965 Ry

     iteration #  2     ecut=    80.00 Ry     beta= 0.70
     Davidson diagonalization with overlap
     ethr =  1.10E-03,  avg # of iterations =  2.4

     total cpu time spent up to now is       71.2 secs

     total energy              =     -31.11766488 Ry
     estimated scf accuracy    <       0.47040560 Ry

     iteration #  3     ecut=    80.00 Ry     beta= 0.70
     Davidson diagonalization with overlap
     ethr =  1.10E-03,  avg # of iterations =  2.0

     total cpu time spent up to now is       71.6 secs

     total energy              =     -31.18841949 Ry
     estimated scf accuracy    <       0.00073973 Ry

     iteration #  4     ecut=    80.00 Ry     beta= 0.70
     Davidson diagonalization with overlap
     ethr =  6.72E-06,  avg # of iterations =  5.4

     total cpu time spent up to now is       72.2 secs

     total energy              =     -31.18878067 Ry
     estimated scf accuracy    <       0.00058313 Ry

     iteration #  5     ecut=    80.00 Ry     beta= 0.70
     Davidson diagonalization with overlap
     ethr =  5.30E-06,  avg # of iterations =  1.4

     total cpu time spent up to now is       72.5 secs

     total energy              =     -31.18886092 Ry
     estimated scf accuracy    <       0.00000207 Ry

     iteration #  6     ecut=    80.00 Ry     beta= 0.70
     Davidson diagonalization with overlap
     ethr =  1.88E-08,  avg # of iterations =  3.7

     total cpu time spent up to now is       72.9 secs

     total energy              =     -31.18886311 Ry
     estimated scf accuracy    <       0.00000385 Ry

     iteration #  7     ecut=    80.00 Ry     beta= 0.70
     Davidson diagonalization with overlap
     ethr =  1.88E-08,  avg # of iterations =  1.8

     total cpu time spent up to now is       73.3 secs

     total energy              =     -31.18886359 Ry
     estimated scf accuracy    <       0.00000003 Ry

     iteration #  8     ecut=    80.00 Ry     beta= 0.70
     Davidson diagonalization with overlap
     ethr =  2.76E-10,  avg # of iterations =  3.0

     total cpu time spent up to now is       73.7 secs

     total energy              =     -31.18886360 Ry
     estimated scf accuracy    <          6.6E-10 Ry

     iteration #  9     ecut=    80.00 Ry     beta= 0.70
     Davidson diagonalization with overlap
     ethr =  5.96E-12,  avg # of iterations =  2.9

     total cpu time spent up to now is       74.1 secs

     total energy              =     -31.18886360 Ry
     estimated scf accuracy    <          2.5E-10 Ry

     iteration # 10     ecut=    80.00 Ry     beta= 0.70
     Davidson diagonalization with overlap
     ethr =  2.26E-12,  avg # of iterations =  1.2

     total cpu time spent up to now is       74.4 secs

     End of self-consistent calculation

          k = 0.0000 0.0000 0.0000 (  2443 PWs)   bands (ev):

   -33.4296  -3.9217   0.2653   5.0103  13.8025  16.9765  24.3589  24.3589
    24.5935  24.5935

          k = 0.0000 0.0000 0.0893 (  2473 PWs)   bands (ev):

   -33.4296  -3.9196   0.2168   5.2161  12.8026  18.2934  24.3776  24.3776
    24.6485  24.6485

          k = 0.0000 0.0000 0.1786 (  2455 PWs)   bands (ev):

   -33.4296  -3.9154   0.1253   5.6790  11.4585  20.6112  24.4169  24.4169
    24.7740  24.7740

          k = 0.0000 0.0000-0.2680 (  2466 PWs)   bands (ev):

   -33.4296  -3.9133   0.0821   5.9507  10.8760  22.2781  24.4377  24.4377
    24.8478  24.8478

          k = 0.0000 0.1596 0.0000 (  2463 PWs)   bands (ev):

   -33.4136  -3.5339   0.6546   5.3103  14.1236  16.9226  20.0347  21.8355
    23.2298  24.9774

          k = 0.0000 0.1596 0.0893 (  2454 PWs)   bands (ev):

   -33.4136  -3.5306   0.5989   5.5295  13.0784  18.0746  20.2431  21.8769
    23.1589  25.2352

          k = 0.0000 0.1596 0.1786 (  2458 PWs)   bands (ev):

   -33.4136  -3.5239   0.4944   6.0258  11.6821  19.4531  21.1044  21.9635
    23.0442  24.8274

          k = 0.0000 0.1596-0.2680 (  2456 PWs)   bands (ev):

   -33.4136  -3.5206   0.4452   6.3214  11.0689  19.8141  22.0090  22.1327
    22.9159  24.6544

          k = 0.0000 0.3192 0.0000 (  2443 PWs)   bands (ev):

   -33.3732  -2.3756   1.8136   6.2051  13.8793  15.5603  17.6418  18.5034
    19.8469  22.4259

          k = 0.0000 0.3192 0.0893 (  2451 PWs)   bands (ev):

   -33.3732  -2.3689   1.7362   6.4591  13.8371  14.3490  17.9864  19.5876
    19.8896  22.7453

          k = 0.0000 0.3192 0.1786 (  2440 PWs)   bands (ev):

   -33.3732  -2.3551   1.5932   7.0512  12.3024  14.5298  17.9217  19.9822
    21.2410  22.8935

          k = 0.0000 0.3192-0.2680 (  2432 PWs)   bands (ev):

   -33.3732  -2.3481   1.5266   7.4280  11.5347  14.7283  17.8935  20.0332
    21.7737  22.6931

          k = 0.0000 0.4788 0.0000 (  2440 PWs)   bands (ev):

   -33.3270  -0.4632   3.7059   7.6480   9.6431  13.8046  16.5035  17.0862
    18.5218  20.0072

          k = 0.0000 0.4788 0.0893 (  2440 PWs)   bands (ev):

   -33.3270  -0.4508   3.5888   7.9373   9.7417  13.4623  15.5436  17.4386
    18.5657  21.0783

          k = 0.0000 0.4788 0.1786 (  2435 PWs)   bands (ev):

   -33.3270  -0.4258   3.3859   8.5982   9.9199  12.4552  14.7855  18.3361
    18.6625  21.5795

          k = 0.0000 0.4788-0.2680 (  2434 PWs)   bands (ev):

   -33.3270  -0.4131   3.2962   9.0589   9.9593  11.8087  14.6505  18.7167
    19.0671  21.3651

          k = 0.0000 0.6384 0.0000 (  2430 PWs)   bands (ev):

   -33.2968   2.1700   5.3012   6.6210   9.3612   9.9879  13.9464  17.8601
    18.5319  20.6440

          k = 0.0000 0.6384 0.0893 (  2427 PWs)   bands (ev):

   -33.2968   2.1931   5.2009   6.6823   8.8844  10.7421  14.0957  17.3049
    17.9046  20.9891

          k = 0.0000 0.6384 0.1786 (  2422 PWs)   bands (ev):

   -33.2968   2.2335   5.1605   6.4533   8.8117  11.6000  14.5088  15.8877
    18.0036  20.0492

          k = 0.0000 0.6384-0.2680 (  2428 PWs)   bands (ev):

   -33.2968   2.2502   5.2357   6.1867   8.9346  11.9400  14.8147  15.3572
    18.0594  19.3019

          k = 0.1382 0.2394 0.0000 (  2443 PWs)   bands (ev):

   -33.3854  -2.7608   1.4289   5.9087  14.6312  16.2110  17.6252  18.5299
    21.0433  21.9752

          k = 0.1382 0.2394 0.0893 (  2449 PWs)   bands (ev):

   -33.3854  -2.7552   1.3586   6.1561  13.4946  16.8330  17.5688  19.2482
    20.9686  21.8386

          k = 0.1382 0.2394 0.1786 (  2442 PWs)   bands (ev):

   -33.3854  -2.7438   1.2284   6.7188  12.0628  17.2219  17.5213  20.1214
    20.8455  22.6028

          k = 0.1382 0.2394-0.2680 (  2446 PWs)   bands (ev):

   -33.3854  -2.7380   1.1676   7.0606  11.4229  17.3280  17.5125  20.1513
    20.8412  24.1528

          k = 0.1382 0.3990 0.0000 (  2438 PWs)   bands (ev):

   -33.3421  -1.2252   2.9575   7.0930  12.0611  14.9338  16.0318  16.9922
    18.2967  19.9212

          k = 0.1382 0.3990 0.0893 (  2437 PWs)   bands (ev):

   -33.3421  -1.2152   2.8577   7.3805  12.2179  14.1270  15.3759  17.2836
    18.6410  20.3302

          k = 0.1382 0.3990 0.1786 (  2435 PWs)   bands (ev):

   -33.3421  -1.1946   2.6780   8.0579  12.3024  12.7979  15.1800  16.9868
    18.8763  21.1855

          k = 0.1382 0.3990-0.2680 (  2440 PWs)   bands (ev):

   -33.3421  -1.1841   2.5960   8.5170  11.6349  12.8504  15.2172  16.6530
    18.9745  21.9257

          k = 0.1382 0.5586 0.0000 (  2427 PWs)   bands (ev):

   -33.3039   1.0500   5.1473   7.8434   8.8291  11.9575  14.3758  15.3456
    18.4468  19.0383

          k = 0.1382 0.5586 0.0893 (  2433 PWs)   bands (ev):

   -33.3039   1.0671   4.9905   7.9942   9.0021  11.9337  14.0977  15.7189
    17.5501  18.5749

          k = 0.1382 0.5586 0.1786 (  2433 PWs)   bands (ev):

   -33.3039   1.1005   4.7572   7.9832   9.7547  11.6806  13.7042  16.1274
    16.7682  18.2496

          k = 0.1382 0.5586-0.2680 (  2434 PWs)   bands (ev):

   -33.3039   1.1168   4.6672   7.9116  10.6423  10.9762  13.7871  15.4764
    17.6676  17.7993

          k = 0.1382 0.7182 0.0000 (  2416 PWs)   bands (ev):

   -33.2888   3.9097   4.1174   7.8531   8.8025  10.2009  13.4504  14.0540
    18.1553  20.9877

          k = 0.1382 0.7182 0.0893 (  2425 PWs)   bands (ev):

   -33.2888   3.9580   4.1080   7.8422   8.2421  11.0390  13.5358  14.0577
    17.7968  19.4457

          k = 0.1382 0.7182 0.1786 (  2430 PWs)   bands (ev):

   -33.2888   4.0595   4.0951   7.4713   7.9721  12.4368  13.6383  14.1580
    16.9984  17.5979

          k = 0.1382 0.7182-0.2680 (  2420 PWs)   bands (ev):

   -33.2888   4.0737   4.1319   7.2214   7.9773  13.4660  13.6265  14.1068
    16.5553  16.6508

          k = 0.2764 0.4788 0.0000 (  2451 PWs)   bands (ev):

   -33.3068   0.6742   4.8173   8.5490  10.6438  10.7137  14.5373  15.4155
    16.9682  18.7951

          k = 0.2764 0.4788 0.0893 (  2441 PWs)   bands (ev):

   -33.3068   0.6892   4.6843   8.8910  10.5993  10.8014  14.2669  14.9266
    16.9303  18.3086

          k = 0.2764 0.4788 0.1786 (  2444 PWs)   bands (ev):

   -33.3068   0.7203   4.4514   9.6383  10.6274  10.9642  13.2977  14.3307
    16.5696  19.4410

          k = 0.2764 0.4788-0.2680 (  2434 PWs)   bands (ev):

   -33.3068   0.7363   4.3469  10.0063  10.7729  11.2086  12.4653  14.1004
    16.5278  20.4232

          k = 0.2764 0.6384 0.0000 (  2431 PWs)   bands (ev):

   -33.2837   3.2897   6.3875   7.6596   9.7472  10.3877  11.4172  14.0989
    14.6347  18.4141

          k = 0.2764 0.6384 0.0893 (  2434 PWs)   bands (ev):

   -33.2837   3.3134   6.2953   7.7071   9.5984  10.2655  12.0394  13.4919
    15.3588  17.9830

          k = 0.2764 0.6384 0.1786 (  2431 PWs)   bands (ev):

   -33.2837   3.3575   6.2444   7.4862   9.5633  10.3909  12.6809  13.1965
    16.0520  17.2792

          k = 0.2764 0.6384-0.2680 (  2432 PWs)   bands (ev):

   -33.2837   3.3774   6.2963   7.2418   9.7014  10.4018  12.8217  13.2954
    16.1118  17.2114

          k = 0.4146 0.7182 0.0000 (  2424 PWs)   bands (ev):

   -33.2757   6.0989   6.0989   6.4144   9.5785  11.1171  11.1171  12.7428
    12.7428  17.2695

          k = 0.4146 0.7182 0.0893 (  2430 PWs)   bands (ev):

   -33.2757   6.1402   6.1402   6.3844   9.6654  10.5943  10.5943  13.5168
    13.5168  17.0689

          k = 0.4146 0.7182 0.1786 (  2436 PWs)   bands (ev):

   -33.2757   6.2300   6.2300   6.3275   9.8421   9.9627   9.9627  14.8543
    14.8543  16.6890

          k = 0.4146 0.7182-0.2680 (  2442 PWs)   bands (ev):

   -33.2757   6.2792   6.2792   6.3005   9.7176   9.7176   9.9326  15.7114
    15.7114  16.5067

          k = 0.0000 0.1596-0.0893 (  2454 PWs)   bands (ev):

   -33.4136  -3.5306   0.5988   5.5309  13.0470  18.3184  20.0146  21.8726
    23.0619  24.8624

          k = 0.0000 0.1596-0.1786 (  2458 PWs)   bands (ev):

   -33.4136  -3.5239   0.4943   6.0277  11.6658  19.8023  20.8245  21.9587
    22.7653  24.8412

          k = 0.0000 0.3192-0.0893 (  2451 PWs)   bands (ev):

   -33.3732  -2.3688   1.7357   6.4727  13.1103  15.4248  18.2290  18.8663
    19.8880  22.7333

          k = 0.0000 0.3192-0.1786 (  2440 PWs)   bands (ev):

   -33.3732  -2.3550   1.5927   7.0720  12.0289  14.9724  18.0154  19.9805
    20.8623  22.8918

          k = 0.0000 0.4788-0.0893 (  2440 PWs)   bands (ev):

   -33.3270  -0.4512   3.5946   7.9983   9.5711  13.5100  15.5259  18.5313
    18.5651  19.8125

          k = 0.0000 0.4788-0.1786 (  2435 PWs)   bands (ev):

   -33.3270  -0.4262   3.3910   8.7830   9.5540  12.5967  14.8715  18.6619
    19.1660  20.3707

          k = 0.0000 0.6384-0.0893 (  2427 PWs)   bands (ev):

   -33.2968   2.1857   5.3868   6.3274   9.3921  10.3306  14.0283  17.9044
    18.3386  19.5777

          k = 0.0000 0.6384-0.1786 (  2422 PWs)   bands (ev):

   -33.2968   2.2254   5.3701   6.1090   9.1171  11.3195  14.3010  16.7441
    18.0034  19.2160

          k =-0.1382 0.3990-0.0893 (  2437 PWs)   bands (ev):

   -33.3421  -1.2152   2.8582   7.4015  11.8822  15.0736  15.1885  16.5758
    19.1702  20.0635

          k =-0.1382 0.3990-0.1786 (  2435 PWs)   bands (ev):

   -33.3421  -1.1947   2.6785   8.0973  11.6431  13.6514  15.2730  16.5026
    19.0751  21.6283

          k =-0.1382 0.5586-0.0893 (  2433 PWs)   bands (ev):

   -33.3039   1.0652   5.0315   7.7813   9.2259  11.7754  14.4096  15.3722
    17.5846  19.3623

          k =-0.1382 0.5586-0.1786 (  2433 PWs)   bands (ev):

   -33.3039   1.0985   4.7898   7.8374  10.0205  11.3434  14.2720  15.2631
    17.1916  18.8579

          k =-0.2764 0.6384-0.0893 (  2434 PWs)   bands (ev):

   -33.2837   3.3081   6.4565   7.3696   9.8626  10.5535  11.4030  14.1065
    14.8328  18.4577

          k =-0.2764 0.6384-0.1786 (  2431 PWs)   bands (ev):

   -33.2837   3.3517   6.4224   7.1657   9.8623  10.4060  12.1170  13.8117
    15.3851  18.5768

     the Fermi energy is    12.2825 ev

!    total energy              =     -31.18886360 Ry
     estimated scf accuracy    <          2.2E-11 Ry
     smearing contrib. (-TS)   =       0.00053151 Ry
     internal energy E=F+TS    =     -31.18939511 Ry

     The total energy is F=E-TS. E is the sum of the following terms:
     one-electron contribution =       4.86119868 Ry
     hartree contribution      =       2.94588772 Ry
     xc contribution           =     -10.17321629 Ry
     ewald contribution        =     -28.82326523 Ry

     convergence has been achieved in  10 iterations

     Forces acting on atoms (cartesian axes, Ry/au):

     atom    1 type  1   force =    -0.00000000   -0.00000000    0.00000668
     atom    2 type  1   force =     0.00000000    0.00000000   -0.00000668
     atom    3 type  2   force =     0.00000000    0.00000000    0.00000000
     The non-local contrib.  to forces
     atom    1 type  1   force =     0.00000000   -0.00000000   -0.09045228
     atom    2 type  1   force =     0.00000000    0.00000000    0.09045228
     atom    3 type  2   force =     0.00000000    0.00000000    0.00000000
     The ionic contribution  to forces
     atom    1 type  1   force =     0.00000000   -0.00000000    0.40920956
     atom    2 type  1   force =    -0.00000000    0.00000000   -0.40920956
     atom    3 type  2   force =    -0.00000000    0.00000000   -0.00000000
     The local contribution  to forces
     atom    1 type  1   force =    -0.00000001    0.00000001   -0.32146989
     atom    2 type  1   force =     0.00000001   -0.00000001    0.32146989
     atom    3 type  2   force =     0.00000000    0.00000000    0.00000000
     The core correction contribution to forces
     atom    1 type  1   force =    -0.00000000    0.00000000    0.00272652
     atom    2 type  1   force =     0.00000000   -0.00000000   -0.00272652
     atom    3 type  2   force =     0.00000000    0.00000000    0.00000000
     The Hubbard contrib.    to forces
     atom    1 type  1   force =     0.00000000    0.00000000    0.00000000
     atom    2 type  1   force =     0.00000000    0.00000000    0.00000000
     atom    3 type  2   force =     0.00000000    0.00000000    0.00000000
     The SCF correction term to forces
     atom    1 type  1   force =    -0.00000000    0.00000000   -0.00000722
     atom    2 type  1   force =     0.00000000   -0.00000000    0.00000722
     atom    3 type  2   force =     0.00000000   -0.00000000    0.00000000

     Total force =     0.000009     Total SCF correction =     0.000010
     SCF correction compared to forces is large: reduce conv_thr to get better values


     Computing stress (Cartesian axis) and pressure

          total   stress  (Ry/bohr**3)                   (kbar)     P=      500.80
   0.00340196   0.00000000   0.00000000          500.45        0.00        0.00
   0.00000000   0.00340196   0.00000000            0.00      500.45        0.00
  -0.00000000  -0.00000000   0.00340914           -0.00       -0.00      501.50


     Writing all to output data dir ./output/SiLi.save/

     init_run     :      0.96s CPU      1.28s WALL (       2 calls)
     electrons    :     44.41s CPU     59.60s WALL (      12 calls)
     update_pot   :      2.78s CPU      2.85s WALL (      10 calls)
     forces       :      2.13s CPU      2.20s WALL (      12 calls)
     stress       :      7.93s CPU      8.32s WALL (      12 calls)

     Called by init_run:
     wfcinit      :      0.29s CPU      0.30s WALL (       2 calls)
     potinit      :      0.22s CPU      0.42s WALL (       2 calls)
     hinit0       :      0.42s CPU      0.49s WALL (       2 calls)

     Called by electrons:
     c_bands      :     38.53s CPU     52.14s WALL (      92 calls)
     sum_band     :      5.15s CPU      5.38s WALL (      92 calls)
     v_of_rho     :      0.76s CPU      1.33s WALL (     103 calls)
     mix_rho      :      0.07s CPU      0.10s WALL (      92 calls)

     Called by c_bands:
     init_us_2    :      1.26s CPU      1.36s WALL (   13020 calls)
     init_us_2:cp :      1.24s CPU      1.34s WALL (   13020 calls)
     cegterg      :     35.36s CPU     36.82s WALL (    5704 calls)

     Called by *egterg:
     cdiaghg      :      2.67s CPU      2.80s WALL (   23281 calls)
     h_psi        :     29.28s CPU     30.45s WALL (   24087 calls)
     g_psi        :      0.16s CPU      0.17s WALL (   18259 calls)

     Called by h_psi:
     h_psi:calbec :      1.99s CPU      2.08s WALL (   24087 calls)
     vloc_psi     :     25.85s CPU     26.87s WALL (   24087 calls)
     add_vuspsi   :      1.28s CPU      1.34s WALL (   24087 calls)

     General routines
     calbec       :      2.46s CPU      2.56s WALL (   27807 calls)
     fft          :      0.97s CPU      1.69s WALL (    1329 calls)
     ffts         :      0.04s CPU      0.08s WALL (      92 calls)
     fftw         :     26.38s CPU     27.37s WALL (  392370 calls)

     Parallel routines

     PWSCF        :     58.50s CPU   1m15.33s WALL


   This run was terminated on:  12:52:45  27Dec2024            

=------------------------------------------------------------------------------=
   JOB DONE.
=------------------------------------------------------------------------------=
