
     Program PWSCF v.7.2 starts on 10Jan2025 at 22: 9: 6 

     This program is part of the open-source Quantum ESPRESSO suite
     for quantum simulation of materials; please cite
         "P. Giannozzi et al., J. Phys.:Condens. Matter 21 395502 (2009);
         "P. Giannozzi et al., J. Phys.:Condens. Matter 29 465901 (2017);
         "P. Giannozzi et al., J. Chem. Phys. 152 154105 (2020);
          URL http://www.quantum-espresso.org", 
     in publications or presentations arising from this work. More details at
     http://www.quantum-espresso.org/quote

     Parallel version (MPI & OpenMP), running on       8 processor cores
     Number of MPI processes:                 8
     Threads/MPI process:                     1

     MPI processes distributed on     1 nodes
     482036 MiB available memory on the printing compute node when the environment starts

     Waiting for input...
     Reading input from standard input

     Current dimensions of program PWSCF are:
     Max number of different atomic species (ntypx) = 10
     Max number of k-points (npk) =  40000
     Max angular momentum in pseudopotentials (lmaxx) =  4

     R & G space division:  proc/nbgrp/npool/nimage =       8
     Subspace diagonalization in iterative solution of the eigenvalue problem:
     a serial algorithm will be used


     Parallelization info
     --------------------
     sticks:   dense  smooth     PW     G-vecs:    dense   smooth      PW
     Min         148     148     50                 2914     2914     579
     Max         149     149     51                 2917     2917     581
     Sum        1187    1187    401                23323    23323    4635

     Using Slab Decomposition



     bravais-lattice index     =            7
     lattice parameter (alat)  =       4.8558  a.u.
     unit-cell volume          =     172.2105 (a.u.)^3
     number of atoms/cell      =            3
     number of atomic types    =            2
     number of electrons       =        10.00
     number of Kohn-Sham states=            9
     kinetic-energy cutoff     =     100.0000  Ry
     charge density cutoff     =     400.0000  Ry
     scf convergence threshold =      1.0E-08
     mixing beta               =       0.7000
     number of iterations used =            8  plain     mixing
     energy convergence thresh.=      1.0E-04
     force convergence thresh. =      1.0E-03
     press convergence thresh. =      1.0E+00
     Exchange-correlation= PBE
                           (   1   4   3   4   0   0   0)
     nstep                     =           50


     celldm(1)=   4.855781  celldm(2)=   0.000000  celldm(3)=   3.008239
     celldm(4)=   0.000000  celldm(5)=   0.000000  celldm(6)=   0.000000

     crystal axes: (cart. coord. in units of alat)
               a(1) = (   0.500000  -0.500000   1.504120 )  
               a(2) = (   0.500000   0.500000   1.504120 )  
               a(3) = (  -0.500000  -0.500000   1.504120 )  

     reciprocal axes: (cart. coord. in units 2 pi/alat)
               b(1) = (  1.000000 -1.000000  0.000000 )  
               b(2) = (  0.000000  1.000000  0.332420 )  
               b(3) = ( -1.000000  0.000000  0.332420 )  


     PseudoPot. # 1 for Si read from file:
     ../pseudo/Si_ONCV_PBE_sr.upf
     MD5 check sum: e543d271109d17c80368dfa7c482276d
     Pseudo is Norm-conserving + core correction, Zval =  4.0
     Generated using ONCVPSP code by D. R. Hamann
     Using radial grid of 1510 points,  6 beta functions with: 
                l(1) =   0
                l(2) =   0
                l(3) =   1
                l(4) =   1
                l(5) =   2
                l(6) =   2

     PseudoPot. # 2 for Li read from file:
     ../pseudo/Li_ONCV_PBE_sr.upf
     MD5 check sum: 50ff420e78310ffa21704f3361e624a4
     Pseudo is Norm-conserving, Zval =  3.0
     Generated using ONCVPSP code by D. R. Hamann
     Using radial grid of 1944 points,  4 beta functions with: 
                l(1) =   0
                l(2) =   0
                l(3) =   1
                l(4) =   1

     atomic species   valence    mass     pseudopotential
        Si             4.00    28.08550     Si( 1.00)
        Li             3.00     6.94100     Li( 1.00)

     16 Sym. Ops., with inversion, found



   Cartesian axes

     site n.     atom                  positions (alat units)
         1           Si  tau(   1) = (   0.0000000   0.0000000   1.5041197  )
         2           Li  tau(   2) = (   0.0000000   0.0000000   0.6111419  )
         3           Li  tau(   3) = (   0.0000000   0.0000000   2.3970976  )

     number of k points=   149  Marzari-Vanderbilt smearing, width (Ry)=  0.0200

     Number of k-points >= 100: set verbosity='high' to print them.

     Dense  grid:    23323 G-vectors     FFT dimensions: (  54,  54,  54)

     Estimated max dynamical RAM per process >      23.43 MB

     Estimated total dynamical RAM >     187.45 MB

     Initial potential from superposition of free atoms

     starting charge       9.9903, renormalised to      10.0000
     Starting wfcs are    8 randomized atomic wfcs +    1 random wfcs

     total cpu time spent up to now is        2.2 secs

     Self-consistent Calculation

     iteration #  1     ecut=   100.00 Ry     beta= 0.70
     Davidson diagonalization with overlap
     ethr =  1.00E-02,  avg # of iterations =  5.8

     Threshold (ethr) on eigenvalues was too large:
     Diagonalizing with lowered threshold

     Davidson diagonalization with overlap
     ethr =  5.08E-04,  avg # of iterations =  1.5

     total cpu time spent up to now is        6.5 secs

     total energy              =     -37.12611262 Ry
     estimated scf accuracy    <       0.05120492 Ry

     iteration #  2     ecut=   100.00 Ry     beta= 0.70
     Davidson diagonalization with overlap
     ethr =  5.12E-04,  avg # of iterations =  2.3

     total cpu time spent up to now is        8.3 secs

     total energy              =     -37.13693600 Ry
     estimated scf accuracy    <       0.01777723 Ry

     iteration #  3     ecut=   100.00 Ry     beta= 0.70
     Davidson diagonalization with overlap
     ethr =  1.78E-04,  avg # of iterations =  2.0

     total cpu time spent up to now is       10.0 secs

     total energy              =     -37.14055266 Ry
     estimated scf accuracy    <       0.00031400 Ry

     iteration #  4     ecut=   100.00 Ry     beta= 0.70
     Davidson diagonalization with overlap
     ethr =  3.14E-06,  avg # of iterations =  4.4

     total cpu time spent up to now is       12.1 secs

     total energy              =     -37.14057525 Ry
     estimated scf accuracy    <       0.00000579 Ry

     iteration #  5     ecut=   100.00 Ry     beta= 0.70
     Davidson diagonalization with overlap
     ethr =  5.79E-08,  avg # of iterations =  2.1

     total cpu time spent up to now is       13.9 secs

     total energy              =     -37.14057711 Ry
     estimated scf accuracy    <       0.00000035 Ry

     iteration #  6     ecut=   100.00 Ry     beta= 0.70
     Davidson diagonalization with overlap
     ethr =  3.46E-09,  avg # of iterations =  2.1

     total cpu time spent up to now is       15.6 secs

     End of self-consistent calculation

     Number of k-points >= 100: set verbosity='high' to print the bands.

     the Fermi energy is    10.3859 ev

!    total energy              =     -37.14057721 Ry
     estimated scf accuracy    <          8.3E-09 Ry
     smearing contrib. (-TS)   =       0.00017552 Ry
     internal energy E=F+TS    =     -37.14075272 Ry

     The total energy is F=E-TS. E is the sum of the following terms:
     one-electron contribution =      -7.68237615 Ry
     hartree contribution      =       5.85363410 Ry
     xc contribution           =     -10.33264723 Ry
     ewald contribution        =     -24.97936344 Ry

     convergence has been achieved in   6 iterations

     Forces acting on atoms (cartesian axes, Ry/au):

     atom    1 type  1   force =     0.00000000    0.00000000    0.00000000
     atom    2 type  2   force =     0.00000000    0.00000000   -0.08705538
     atom    3 type  2   force =    -0.00000000    0.00000000    0.08705538
     The non-local contrib.  to forces
     atom    1 type  1   force =     0.00000000    0.00000000   -0.00000000
     atom    2 type  2   force =     0.00000000    0.00000000    0.00991628
     atom    3 type  2   force =    -0.00000000    0.00000000   -0.00991628
     The ionic contribution  to forces
     atom    1 type  1   force =    -0.00000000   -0.00000000    0.00000000
     atom    2 type  2   force =     0.00000000    0.00000000   -0.57752282
     atom    3 type  2   force =    -0.00000000   -0.00000000    0.57752282
     The local contribution  to forces
     atom    1 type  1   force =     0.00000000    0.00000000   -0.00000000
     atom    2 type  2   force =    -0.00000000   -0.00000000    0.48061497
     atom    3 type  2   force =    -0.00000000   -0.00000000   -0.48061497
     The core correction contribution to forces
     atom    1 type  1   force =     0.00000000    0.00000000   -0.00000000
     atom    2 type  2   force =     0.00000000    0.00000000    0.00000000
     atom    3 type  2   force =     0.00000000    0.00000000    0.00000000
     The Hubbard contrib.    to forces
     atom    1 type  1   force =     0.00000000    0.00000000    0.00000000
     atom    2 type  2   force =     0.00000000    0.00000000    0.00000000
     atom    3 type  2   force =     0.00000000    0.00000000    0.00000000
     The SCF correction term to forces
     atom    1 type  1   force =    -0.00000000    0.00000000   -0.00000000
     atom    2 type  2   force =     0.00000000   -0.00000000   -0.00006381
     atom    3 type  2   force =    -0.00000000    0.00000000    0.00006381

     Total force =     0.123115     Total SCF correction =     0.000090


     Computing stress (Cartesian axis) and pressure

          total   stress  (Ry/bohr**3)                   (kbar)     P=      508.07
   0.00375234   0.00000000   0.00000000          551.99        0.00        0.00
   0.00000000   0.00375234  -0.00000000            0.00      551.99       -0.00
   0.00000000  -0.00000000   0.00285663            0.00       -0.00      420.23


     BFGS Geometry Optimization
     Energy error            =      0.0E+00 Ry
     Gradient error          =      8.7E-02 Ry/Bohr
     Cell gradient error     =      8.0E+01 kbar

     number of scf cycles    =   1
     number of bfgs steps    =   0

     enthalpy           new  =     -36.5552457028 Ry

     new trust radius        =       0.0870553793 bohr
ibrav =      7
 celldm(1) =      4.89868202
 celldm(3) =      2.94146715
Input lattice vectors:
     0.50441757    -0.50441757     1.48372770
     0.50441757     0.50441757     1.48372770
    -0.50441757    -0.50441757     1.48372770
New lattice vectors in INITIAL alat:
     0.50441757    -0.50441757     1.48372770
     0.50441757     0.50441757     1.48372770
    -0.50441757    -0.50441757     1.48372770
New lattice vectors in NEW alat (for information only):
     0.50000000    -0.50000000     1.47073357
     0.50000000     0.50000000     1.47073357
    -0.50000000    -0.50000000     1.47073357
Discrepancy in bohr =     0.000000    0.000000    0.000000
     new conv_thr            =       0.0000000100 Ry

     new unit-cell volume =    172.89075 a.u.^3 (    25.61977 Ang^3 )
     density =      2.72011 g/cm^3

CELL_PARAMETERS (alat=  4.85578056)
   0.504417566  -0.504417566   1.483727698
   0.504417566   0.504417566   1.483727698
  -0.504417566  -0.504417566   1.483727698

ATOMIC_POSITIONS (crystal)
Si           -0.0000000000        0.5000000000        0.5000000000
Li           -0.0000000000        0.1971963033        0.1971963033
Li           -0.0000000000        0.8028036967        0.8028036967



     Writing config-only to output data dir ./output/SiLi.save/
     NEW-OLD atomic charge density approx. for the potential
     extrapolated charge   10.03931, renormalised to   10.00000

     total cpu time spent up to now is       17.2 secs

     Self-consistent Calculation

     iteration #  1     ecut=   100.00 Ry     beta= 0.70
     Davidson diagonalization with overlap
     c_bands:  1 eigenvalues not converged
     ethr =  1.00E-06,  avg # of iterations =  7.6

     total cpu time spent up to now is       20.9 secs

     total energy              =     -37.15784941 Ry
     estimated scf accuracy    <       0.00049636 Ry

     iteration #  2     ecut=   100.00 Ry     beta= 0.70
     Davidson diagonalization with overlap
     ethr =  4.96E-06,  avg # of iterations =  2.4

     total cpu time spent up to now is       22.8 secs

     total energy              =     -37.15806113 Ry
     estimated scf accuracy    <       0.00032635 Ry

     iteration #  3     ecut=   100.00 Ry     beta= 0.70
     Davidson diagonalization with overlap
     ethr =  3.26E-06,  avg # of iterations =  1.5

     total cpu time spent up to now is       24.4 secs

     total energy              =     -37.15810764 Ry
     estimated scf accuracy    <       0.00000555 Ry

     iteration #  4     ecut=   100.00 Ry     beta= 0.70
     Davidson diagonalization with overlap
     ethr =  5.55E-08,  avg # of iterations =  2.1

     total cpu time spent up to now is       26.2 secs

     total energy              =     -37.15810950 Ry
     estimated scf accuracy    <       0.00000075 Ry

     iteration #  5     ecut=   100.00 Ry     beta= 0.70
     Davidson diagonalization with overlap
     ethr =  7.55E-09,  avg # of iterations =  1.9

     total cpu time spent up to now is       27.8 secs

     End of self-consistent calculation

     Number of k-points >= 100: set verbosity='high' to print the bands.

     the Fermi energy is    10.1879 ev

!    total energy              =     -37.15810964 Ry
     estimated scf accuracy    <          3.5E-09 Ry
     smearing contrib. (-TS)   =       0.00023471 Ry
     internal energy E=F+TS    =     -37.15834435 Ry

     The total energy is F=E-TS. E is the sum of the following terms:
     one-electron contribution =      -7.58356492 Ry
     hartree contribution      =       5.79760226 Ry
     xc contribution           =     -10.33001011 Ry
     ewald contribution        =     -25.04237158 Ry

     convergence has been achieved in   5 iterations

     Forces acting on atoms (cartesian axes, Ry/au):

     atom    1 type  1   force =     0.00000000   -0.00000000   -0.00000000
     atom    2 type  2   force =    -0.00000000   -0.00000000   -0.07007395
     atom    3 type  2   force =    -0.00000000    0.00000000    0.07007395
     The non-local contrib.  to forces
     atom    1 type  1   force =    -0.00000000    0.00000000    0.00000000
     atom    2 type  2   force =     0.00000000    0.00000000    0.00791824
     atom    3 type  2   force =    -0.00000000   -0.00000000   -0.00791824
     The ionic contribution  to forces
     atom    1 type  1   force =     0.00000000    0.00000000    0.00000000
     atom    2 type  2   force =    -0.00000000   -0.00000000   -0.48049509
     atom    3 type  2   force =     0.00000000    0.00000000    0.48049509
     The local contribution  to forces
     atom    1 type  1   force =     0.00000000    0.00000000   -0.00000000
     atom    2 type  2   force =    -0.00000000   -0.00000000    0.40247550
     atom    3 type  2   force =    -0.00000000   -0.00000000   -0.40247550
     The core correction contribution to forces
     atom    1 type  1   force =    -0.00000000    0.00000000   -0.00000000
     atom    2 type  2   force =     0.00000000    0.00000000    0.00000000
     atom    3 type  2   force =     0.00000000    0.00000000    0.00000000
     The Hubbard contrib.    to forces
     atom    1 type  1   force =     0.00000000    0.00000000    0.00000000
     atom    2 type  2   force =     0.00000000    0.00000000    0.00000000
     atom    3 type  2   force =     0.00000000    0.00000000    0.00000000
     The SCF correction term to forces
     atom    1 type  1   force =    -0.00000000    0.00000000    0.00000000
     atom    2 type  2   force =     0.00000000    0.00000000    0.00002741
     atom    3 type  2   force =     0.00000000   -0.00000000   -0.00002741

     Total force =     0.099100     Total SCF correction =     0.000039


     Computing stress (Cartesian axis) and pressure

          total   stress  (Ry/bohr**3)                   (kbar)     P=      502.18
   0.00353053  -0.00000000  -0.00000000          519.36       -0.00       -0.00
   0.00000000   0.00353053   0.00000000            0.00      519.36        0.00
  -0.00000000   0.00000000   0.00318016           -0.00        0.00      467.82

     Energy error            =      1.5E-02 Ry
     Gradient error          =      7.0E-02 Ry/Bohr
     Cell gradient error     =      3.2E+01 kbar

     number of scf cycles    =   2
     number of bfgs steps    =   1

     enthalpy           old  =     -36.5552457028 Ry
     enthalpy           new  =     -36.5704659262 Ry

     CASE: enthalpy          _new < enthalpy          _old

     new trust radius        =       0.1288126956 bohr
ibrav =      7
 celldm(1) =      4.93157852
 celldm(3) =      2.88827237
Input lattice vectors:
     0.50780492    -0.50780492     1.46667892
     0.50780492     0.50780492     1.46667892
    -0.50780492    -0.50780492     1.46667892
New lattice vectors in INITIAL alat:
     0.50780492    -0.50780492     1.46667892
     0.50780492     0.50780492     1.46667892
    -0.50780492    -0.50780492     1.46667892
New lattice vectors in NEW alat (for information only):
     0.50000000    -0.50000000     1.44413619
     0.50000000     0.50000000     1.44413619
    -0.50000000    -0.50000000     1.44413619
Discrepancy in bohr =     0.000000    0.000000    0.000000
     new conv_thr            =       0.0000000070 Ry

     new unit-cell volume =    173.20723 a.u.^3 (    25.66666 Ang^3 )
     density =      2.71514 g/cm^3

CELL_PARAMETERS (alat=  4.85578056)
   0.507804921  -0.507804921   1.466678921
   0.507804921   0.507804921   1.466678921
  -0.507804921  -0.507804921   1.466678921

ATOMIC_POSITIONS (crystal)
Si           -0.0000000000        0.5000000000        0.5000000000
Li           -0.0000000000        0.1882567583        0.1882567583
Li           -0.0000000000        0.8117432417        0.8117432417



     Writing config-only to output data dir ./output/SiLi.save/
     NEW-OLD atomic charge density approx. for the potential
     extrapolated charge   10.01825, renormalised to   10.00000

     total cpu time spent up to now is       29.4 secs

     Self-consistent Calculation

     iteration #  1     ecut=   100.00 Ry     beta= 0.70
     Davidson diagonalization with overlap
     c_bands:  1 eigenvalues not converged
     ethr =  1.00E-06,  avg # of iterations =  7.9

     total cpu time spent up to now is       33.0 secs

     total energy              =     -37.17356969 Ry
     estimated scf accuracy    <       0.00097499 Ry

     iteration #  2     ecut=   100.00 Ry     beta= 0.70
     Davidson diagonalization with overlap
     ethr =  9.75E-06,  avg # of iterations =  2.1

     total cpu time spent up to now is       34.7 secs

     total energy              =     -37.17386071 Ry
     estimated scf accuracy    <       0.00036359 Ry

     iteration #  3     ecut=   100.00 Ry     beta= 0.70
     Davidson diagonalization with overlap
     ethr =  3.64E-06,  avg # of iterations =  1.9

     total cpu time spent up to now is       36.3 secs

     total energy              =     -37.17392708 Ry
     estimated scf accuracy    <       0.00000191 Ry

     iteration #  4     ecut=   100.00 Ry     beta= 0.70
     Davidson diagonalization with overlap
     ethr =  1.91E-08,  avg # of iterations =  2.1

     total cpu time spent up to now is       38.0 secs

     total energy              =     -37.17392753 Ry
     estimated scf accuracy    <       0.00000018 Ry

     iteration #  5     ecut=   100.00 Ry     beta= 0.70
     Davidson diagonalization with overlap
     ethr =  1.82E-09,  avg # of iterations =  2.0

     total cpu time spent up to now is       39.5 secs

     End of self-consistent calculation

     Number of k-points >= 100: set verbosity='high' to print the bands.

     the Fermi energy is     9.9592 ev

!    total energy              =     -37.17392757 Ry
     estimated scf accuracy    <          4.3E-09 Ry
     smearing contrib. (-TS)   =       0.00029948 Ry
     internal energy E=F+TS    =     -37.17422706 Ry

     The total energy is F=E-TS. E is the sum of the following terms:
     one-electron contribution =      -7.44588635 Ry
     hartree contribution      =       5.73069824 Ry
     xc contribution           =     -10.33092602 Ry
     ewald contribution        =     -25.12811293 Ry

     convergence has been achieved in   5 iterations

     Forces acting on atoms (cartesian axes, Ry/au):

     atom    1 type  1   force =    -0.00000000   -0.00000000    0.00000000
     atom    2 type  2   force =     0.00000000    0.00000000   -0.04273194
     atom    3 type  2   force =    -0.00000000   -0.00000000    0.04273194
     The non-local contrib.  to forces
     atom    1 type  1   force =    -0.00000000    0.00000000    0.00000000
     atom    2 type  2   force =    -0.00000000   -0.00000000    0.00455295
     atom    3 type  2   force =     0.00000000    0.00000000   -0.00455295
     The ionic contribution  to forces
     atom    1 type  1   force =    -0.00000000   -0.00000000    0.00000000
     atom    2 type  2   force =    -0.00000000   -0.00000000   -0.30583115
     atom    3 type  2   force =    -0.00000000    0.00000000    0.30583115
     The local contribution  to forces
     atom    1 type  1   force =     0.00000000    0.00000000   -0.00000000
     atom    2 type  2   force =    -0.00000000   -0.00000000    0.25859911
     atom    3 type  2   force =     0.00000000    0.00000000   -0.25859911
     The core correction contribution to forces
     atom    1 type  1   force =     0.00000000    0.00000000   -0.00000000
     atom    2 type  2   force =     0.00000000    0.00000000    0.00000000
     atom    3 type  2   force =     0.00000000    0.00000000    0.00000000
     The Hubbard contrib.    to forces
     atom    1 type  1   force =     0.00000000    0.00000000    0.00000000
     atom    2 type  2   force =     0.00000000    0.00000000    0.00000000
     atom    3 type  2   force =     0.00000000    0.00000000    0.00000000
     The SCF correction term to forces
     atom    1 type  1   force =    -0.00000000    0.00000000   -0.00000000
     atom    2 type  2   force =     0.00000000   -0.00000000   -0.00005284
     atom    3 type  2   force =    -0.00000000    0.00000000    0.00005284

     Total force =     0.060432     Total SCF correction =     0.000075


     Computing stress (Cartesian axis) and pressure

          total   stress  (Ry/bohr**3)                   (kbar)     P=      502.01
   0.00337584   0.00000000   0.00000000          496.60        0.00        0.00
   0.00000000   0.00337584  -0.00000000            0.00      496.60       -0.00
   0.00000000  -0.00000000   0.00348603            0.00       -0.00      512.81

     Energy error            =      1.5E-02 Ry
     Gradient error          =      4.3E-02 Ry/Bohr
     Cell gradient error     =      1.3E+01 kbar

     number of scf cycles    =   3
     number of bfgs steps    =   2

     enthalpy           old  =     -36.5704659262 Ry
     enthalpy           new  =     -36.5852081759 Ry

     CASE: enthalpy          _new < enthalpy          _old

     new trust radius        =       0.1811655402 bohr
ibrav =      7
 celldm(1) =      4.95290353
 celldm(3) =      2.86383755
Input lattice vectors:
     0.51000076    -0.51000076     1.46055932
     0.51000076     0.51000076     1.46055932
    -0.51000076    -0.51000076     1.46055932
New lattice vectors in INITIAL alat:
     0.51000076    -0.51000076     1.46055932
     0.51000076     0.51000076     1.46055932
    -0.51000076    -0.51000076     1.46055932
New lattice vectors in NEW alat (for information only):
     0.50000000    -0.50000000     1.43191877
     0.50000000     0.50000000     1.43191877
    -0.50000000    -0.50000000     1.43191877
Discrepancy in bohr =     0.000000    0.000000    0.000000
     new conv_thr            =       0.0000000043 Ry

     new unit-cell volume =    173.97947 a.u.^3 (    25.78110 Ang^3 )
     density =      2.70309 g/cm^3

CELL_PARAMETERS (alat=  4.85578056)
   0.510000758  -0.510000758   1.460559321
   0.510000758   0.510000758   1.460559321
  -0.510000758  -0.510000758   1.460559321

ATOMIC_POSITIONS (crystal)
Si           -0.0000000000        0.5000000000        0.5000000000
Li           -0.0000000000        0.1755378014        0.1755378014
Li           -0.0000000000        0.8244621986        0.8244621986



     Writing config-only to output data dir ./output/SiLi.save/
     NEW-OLD atomic charge density approx. for the potential
     extrapolated charge   10.04434, renormalised to   10.00000

     total cpu time spent up to now is       40.9 secs

     Self-consistent Calculation

     iteration #  1     ecut=   100.00 Ry     beta= 0.70
     Davidson diagonalization with overlap
     ethr =  1.00E-06,  avg # of iterations =  8.5

     total cpu time spent up to now is       44.7 secs

     total energy              =     -37.18306261 Ry
     estimated scf accuracy    <       0.00302539 Ry

     iteration #  2     ecut=   100.00 Ry     beta= 0.70
     Davidson diagonalization with overlap
     ethr =  3.03E-05,  avg # of iterations =  2.0

     total cpu time spent up to now is       46.4 secs

     total energy              =     -37.18400066 Ry
     estimated scf accuracy    <       0.00082103 Ry

     iteration #  3     ecut=   100.00 Ry     beta= 0.70
     Davidson diagonalization with overlap
     ethr =  8.21E-06,  avg # of iterations =  1.8

     total cpu time spent up to now is       47.9 secs

     total energy              =     -37.18414810 Ry
     estimated scf accuracy    <       0.00000410 Ry

     iteration #  4     ecut=   100.00 Ry     beta= 0.70
     Davidson diagonalization with overlap
     ethr =  4.10E-08,  avg # of iterations =  2.3

     total cpu time spent up to now is       49.6 secs

     total energy              =     -37.18414942 Ry
     estimated scf accuracy    <       0.00000041 Ry

     iteration #  5     ecut=   100.00 Ry     beta= 0.70
     Davidson diagonalization with overlap
     ethr =  4.13E-09,  avg # of iterations =  1.9

     total cpu time spent up to now is       51.1 secs

     total energy              =     -37.18414951 Ry
     estimated scf accuracy    <          7.6E-09 Ry

     iteration #  6     ecut=   100.00 Ry     beta= 0.70
     Davidson diagonalization with overlap
     ethr =  7.63E-11,  avg # of iterations =  2.5

     total cpu time spent up to now is       52.7 secs

     End of self-consistent calculation

     Number of k-points >= 100: set verbosity='high' to print the bands.

     the Fermi energy is     9.7002 ev

!    total energy              =     -37.18414951 Ry
     estimated scf accuracy    <          7.2E-11 Ry
     smearing contrib. (-TS)   =       0.00047901 Ry
     internal energy E=F+TS    =     -37.18462852 Ry

     The total energy is F=E-TS. E is the sum of the following terms:
     one-electron contribution =      -7.39456589 Ry
     hartree contribution      =       5.68819932 Ry
     xc contribution           =     -10.33298369 Ry
     ewald contribution        =     -25.14527826 Ry

     convergence has been achieved in   6 iterations

     Forces acting on atoms (cartesian axes, Ry/au):

     atom    1 type  1   force =     0.00000000    0.00000000    0.00000000
     atom    2 type  2   force =     0.00000000    0.00000000    0.00093056
     atom    3 type  2   force =    -0.00000000   -0.00000000   -0.00093056
     The non-local contrib.  to forces
     atom    1 type  1   force =    -0.00000000   -0.00000000    0.00000000
     atom    2 type  2   force =    -0.00000000    0.00000000    0.00256652
     atom    3 type  2   force =     0.00000000    0.00000000   -0.00256652
     The ionic contribution  to forces
     atom    1 type  1   force =    -0.00000000    0.00000000   -0.00000000
     atom    2 type  2   force =    -0.00000000   -0.00000000    0.01174697
     atom    3 type  2   force =    -0.00000000   -0.00000000   -0.01174697
     The local contribution  to forces
     atom    1 type  1   force =     0.00000000   -0.00000000   -0.00000000
     atom    2 type  2   force =    -0.00000000   -0.00000000   -0.01337837
     atom    3 type  2   force =     0.00000000    0.00000000    0.01337837
     The core correction contribution to forces
     atom    1 type  1   force =     0.00000000    0.00000000   -0.00000000
     atom    2 type  2   force =     0.00000000    0.00000000    0.00000000
     atom    3 type  2   force =     0.00000000    0.00000000    0.00000000
     The Hubbard contrib.    to forces
     atom    1 type  1   force =     0.00000000    0.00000000    0.00000000
     atom    2 type  2   force =     0.00000000    0.00000000    0.00000000
     atom    3 type  2   force =     0.00000000    0.00000000    0.00000000
     The SCF correction term to forces
     atom    1 type  1   force =     0.00000000   -0.00000000   -0.00000000
     atom    2 type  2   force =     0.00000000    0.00000000   -0.00000456
     atom    3 type  2   force =    -0.00000000    0.00000000    0.00000456

     Total force =     0.001316     Total SCF correction =     0.000006


     Computing stress (Cartesian axis) and pressure

          total   stress  (Ry/bohr**3)                   (kbar)     P=      506.34
   0.00334346  -0.00000000  -0.00000000          491.84       -0.00       -0.00
   0.00000000   0.00334346   0.00000000            0.00      491.84        0.00
  -0.00000000   0.00000000   0.00363922           -0.00        0.00      535.35

     Energy error            =      7.6E-03 Ry
     Gradient error          =      9.3E-04 Ry/Bohr
     Cell gradient error     =      3.5E+01 kbar

     number of scf cycles    =   4
     number of bfgs steps    =   3

     enthalpy           old  =     -36.5852081759 Ry
     enthalpy           new  =     -36.5928053293 Ry

     CASE: enthalpy          _new < enthalpy          _old

     new trust radius        =       0.0155802579 bohr
ibrav =      7
 celldm(1) =      4.94722978
 celldm(3) =      2.88405526
Input lattice vectors:
     0.50941653    -0.50941653     1.46918543
     0.50941653     0.50941653     1.46918543
    -0.50941653    -0.50941653     1.46918543
New lattice vectors in INITIAL alat:
     0.50941653    -0.50941653     1.46918543
     0.50941653     0.50941653     1.46918543
    -0.50941653    -0.50941653     1.46918543
New lattice vectors in NEW alat (for information only):
     0.50000000    -0.50000000     1.44202763
     0.50000000     0.50000000     1.44202763
    -0.50000000    -0.50000000     1.44202763
Discrepancy in bohr =     0.000000    0.000000    0.000000
     new conv_thr            =            1.0E-10 Ry

     new unit-cell volume =    174.60627 a.u.^3 (    25.87398 Ang^3 )
     density =      2.69339 g/cm^3

CELL_PARAMETERS (alat=  4.85578056)
   0.509416531  -0.509416531   1.469185428
   0.509416531   0.509416531   1.469185428
  -0.509416531  -0.509416531   1.469185428

ATOMIC_POSITIONS (crystal)
Si            0.0000000000        0.5000000000        0.5000000000
Li            0.0000000000        0.1758778620        0.1758778620
Li            0.0000000000        0.8241221380        0.8241221380



     Writing config-only to output data dir ./output/SiLi.save/
     NEW-OLD atomic charge density approx. for the potential
     extrapolated charge   10.03586, renormalised to   10.00000

     total cpu time spent up to now is       54.2 secs

     Self-consistent Calculation

     iteration #  1     ecut=   100.00 Ry     beta= 0.70
     Davidson diagonalization with overlap
     ethr =  1.00E-06,  avg # of iterations =  4.0

     Threshold (ethr) on eigenvalues was too large:
     Diagonalizing with lowered threshold

     Davidson diagonalization with overlap
     ethr =  5.53E-08,  avg # of iterations =  1.5

     total cpu time spent up to now is       57.9 secs

     total energy              =     -37.18647644 Ry
     estimated scf accuracy    <       0.00000564 Ry

     iteration #  2     ecut=   100.00 Ry     beta= 0.70
     Davidson diagonalization with overlap
     ethr =  5.64E-08,  avg # of iterations =  2.5

     total cpu time spent up to now is       59.6 secs

     total energy              =     -37.18649426 Ry
     estimated scf accuracy    <       0.00000769 Ry

     iteration #  3     ecut=   100.00 Ry     beta= 0.70
     Davidson diagonalization with overlap
     ethr =  5.64E-08,  avg # of iterations =  1.2

     total cpu time spent up to now is       60.9 secs

     total energy              =     -37.18649421 Ry
     estimated scf accuracy    <       0.00000145 Ry

     iteration #  4     ecut=   100.00 Ry     beta= 0.70
     Davidson diagonalization with overlap
     ethr =  1.45E-08,  avg # of iterations =  1.0

     total cpu time spent up to now is       62.3 secs

     total energy              =     -37.18649399 Ry
     estimated scf accuracy    <       0.00000042 Ry

     iteration #  5     ecut=   100.00 Ry     beta= 0.70
     Davidson diagonalization with overlap
     ethr =  4.20E-09,  avg # of iterations =  2.0

     total cpu time spent up to now is       63.8 secs

     total energy              =     -37.18649407 Ry
     estimated scf accuracy    <          3.5E-09 Ry

     iteration #  6     ecut=   100.00 Ry     beta= 0.70
     Davidson diagonalization with overlap
     ethr =  3.46E-11,  avg # of iterations =  2.5

     total cpu time spent up to now is       65.4 secs

     total energy              =     -37.18649407 Ry
     estimated scf accuracy    <          4.5E-10 Ry

     iteration #  7     ecut=   100.00 Ry     beta= 0.70
     Davidson diagonalization with overlap
     ethr =  4.53E-12,  avg # of iterations =  2.0

     total cpu time spent up to now is       66.9 secs

     End of self-consistent calculation

     Number of k-points >= 100: set verbosity='high' to print the bands.

     the Fermi energy is     9.6847 ev

!    total energy              =     -37.18649407 Ry
     estimated scf accuracy    <          3.5E-12 Ry
     smearing contrib. (-TS)   =       0.00043532 Ry
     internal energy E=F+TS    =     -37.18692940 Ry

     The total energy is F=E-TS. E is the sum of the following terms:
     one-electron contribution =      -7.43436040 Ry
     hartree contribution      =       5.69218340 Ry
     xc contribution           =     -10.32885262 Ry
     ewald contribution        =     -25.11589977 Ry

     convergence has been achieved in   7 iterations

     Forces acting on atoms (cartesian axes, Ry/au):

     atom    1 type  1   force =     0.00000000    0.00000000    0.00000000
     atom    2 type  2   force =     0.00000000    0.00000000   -0.00036711
     atom    3 type  2   force =    -0.00000000   -0.00000000    0.00036711
     The non-local contrib.  to forces
     atom    1 type  1   force =     0.00000000    0.00000000    0.00000000
     atom    2 type  2   force =    -0.00000000   -0.00000000    0.00423273
     atom    3 type  2   force =     0.00000000    0.00000000   -0.00423273
     The ionic contribution  to forces
     atom    1 type  1   force =    -0.00000000    0.00000000   -0.00000000
     atom    2 type  2   force =    -0.00000000   -0.00000000    0.00519858
     atom    3 type  2   force =    -0.00000000   -0.00000000   -0.00519858
     The local contribution  to forces
     atom    1 type  1   force =     0.00000000   -0.00000000   -0.00000000
     atom    2 type  2   force =    -0.00000000   -0.00000000   -0.00979691
     atom    3 type  2   force =     0.00000000    0.00000000    0.00979691
     The core correction contribution to forces
     atom    1 type  1   force =    -0.00000000   -0.00000000   -0.00000000
     atom    2 type  2   force =     0.00000000    0.00000000    0.00000000
     atom    3 type  2   force =     0.00000000    0.00000000    0.00000000
     The Hubbard contrib.    to forces
     atom    1 type  1   force =     0.00000000    0.00000000    0.00000000
     atom    2 type  2   force =     0.00000000    0.00000000    0.00000000
     atom    3 type  2   force =     0.00000000    0.00000000    0.00000000
     The SCF correction term to forces
     atom    1 type  1   force =    -0.00000000   -0.00000000    0.00000000
     atom    2 type  2   force =     0.00000000    0.00000000   -0.00000150
     atom    3 type  2   force =    -0.00000000    0.00000000    0.00000150

     Total force =     0.000519     Total SCF correction =     0.000002


     Computing stress (Cartesian axis) and pressure

          total   stress  (Ry/bohr**3)                   (kbar)     P=      497.63
   0.00331573   0.00000000  -0.00000000          487.76        0.00       -0.00
  -0.00000000   0.00331573  -0.00000000           -0.00      487.76       -0.00
   0.00000000  -0.00000000   0.00351691            0.00       -0.00      517.36

     Energy error            =      2.1E-04 Ry
     Gradient error          =      3.7E-04 Ry/Bohr
     Cell gradient error     =      1.7E+01 kbar

     number of scf cycles    =   5
     number of bfgs steps    =   4

     enthalpy           old  =     -36.5928053293 Ry
     enthalpy           new  =     -36.5930194324 Ry

     CASE: enthalpy          _new < enthalpy          _old

     new trust radius        =       0.0232749850 bohr
ibrav =      7
 celldm(1) =      4.92501055
 celldm(3) =      2.92258126
Input lattice vectors:
     0.50712862    -0.50712862     1.48212459
     0.50712862     0.50712862     1.48212459
    -0.50712862    -0.50712862     1.48212459
New lattice vectors in INITIAL alat:
     0.50712862    -0.50712862     1.48212459
     0.50712862     0.50712862     1.48212459
    -0.50712862    -0.50712862     1.48212459
New lattice vectors in NEW alat (for information only):
     0.50000000    -0.50000000     1.46129063
     0.50000000     0.50000000     1.46129063
    -0.50000000    -0.50000000     1.46129063
Discrepancy in bohr =     0.000000    0.000000    0.000000
     new conv_thr            =            1.0E-10 Ry

     new unit-cell volume =    174.56537 a.u.^3 (    25.86792 Ang^3 )
     density =      2.69402 g/cm^3

CELL_PARAMETERS (alat=  4.85578056)
   0.507128616  -0.507128616   1.482124589
   0.507128616   0.507128616   1.482124589
  -0.507128616  -0.507128616   1.482124589

ATOMIC_POSITIONS (crystal)
Si            0.0000000000        0.5000000000        0.5000000000
Li            0.0000000000        0.1760108520        0.1760108520
Li            0.0000000000        0.8239891480        0.8239891480



     Writing config-only to output data dir ./output/SiLi.save/
     NEW-OLD atomic charge density approx. for the potential
     extrapolated charge    9.99766, renormalised to   10.00000

     total cpu time spent up to now is       68.3 secs

     Self-consistent Calculation

     iteration #  1     ecut=   100.00 Ry     beta= 0.70
     Davidson diagonalization with overlap
     ethr =  1.00E-06,  avg # of iterations =  5.0

     Threshold (ethr) on eigenvalues was too large:
     Diagonalizing with lowered threshold

     Davidson diagonalization with overlap
     ethr =  1.29E-08,  avg # of iterations =  2.4

     total cpu time spent up to now is       72.1 secs

     total energy              =     -37.18653756 Ry
     estimated scf accuracy    <       0.00000135 Ry

     iteration #  2     ecut=   100.00 Ry     beta= 0.70
     Davidson diagonalization with overlap
     ethr =  1.35E-08,  avg # of iterations =  1.9

     total cpu time spent up to now is       73.6 secs

     total energy              =     -37.18653783 Ry
     estimated scf accuracy    <       0.00000018 Ry

     iteration #  3     ecut=   100.00 Ry     beta= 0.70
     Davidson diagonalization with overlap
     ethr =  1.79E-09,  avg # of iterations =  1.9

     total cpu time spent up to now is       75.1 secs

     total energy              =     -37.18653787 Ry
     estimated scf accuracy    <       0.00000001 Ry

     iteration #  4     ecut=   100.00 Ry     beta= 0.70
     Davidson diagonalization with overlap
     ethr =  1.37E-10,  avg # of iterations =  1.3

     total cpu time spent up to now is       76.4 secs

     total energy              =     -37.18653787 Ry
     estimated scf accuracy    <          2.5E-10 Ry

     iteration #  5     ecut=   100.00 Ry     beta= 0.70
     Davidson diagonalization with overlap
     ethr =  2.51E-12,  avg # of iterations =  2.4

     total cpu time spent up to now is       77.9 secs

     End of self-consistent calculation

     Number of k-points >= 100: set verbosity='high' to print the bands.

     the Fermi energy is     9.7334 ev

!    total energy              =     -37.18653787 Ry
     estimated scf accuracy    <          1.2E-11 Ry
     smearing contrib. (-TS)   =       0.00030517 Ry
     internal energy E=F+TS    =     -37.18684304 Ry

     The total energy is F=E-TS. E is the sum of the following terms:
     one-electron contribution =      -7.42744603 Ry
     hartree contribution      =       5.68920979 Ry
     xc contribution           =     -10.32969490 Ry
     ewald contribution        =     -25.11891189 Ry

     convergence has been achieved in   5 iterations

     Forces acting on atoms (cartesian axes, Ry/au):

     atom    1 type  1   force =    -0.00000000    0.00000000    0.00000000
     atom    2 type  2   force =     0.00000000   -0.00000000   -0.00058405
     atom    3 type  2   force =    -0.00000000   -0.00000000    0.00058405
     The non-local contrib.  to forces
     atom    1 type  1   force =     0.00000000   -0.00000000   -0.00000000
     atom    2 type  2   force =    -0.00000000   -0.00000000    0.00690510
     atom    3 type  2   force =     0.00000000    0.00000000   -0.00690510
     The ionic contribution  to forces
     atom    1 type  1   force =    -0.00000000    0.00000000   -0.00000000
     atom    2 type  2   force =    -0.00000000   -0.00000000    0.00679390
     atom    3 type  2   force =    -0.00000000   -0.00000000   -0.00679390
     The local contribution  to forces
     atom    1 type  1   force =    -0.00000000    0.00000000   -0.00000000
     atom    2 type  2   force =    -0.00000000   -0.00000000   -0.01428420
     atom    3 type  2   force =     0.00000000    0.00000000    0.01428420
     The core correction contribution to forces
     atom    1 type  1   force =    -0.00000000    0.00000000    0.00000000
     atom    2 type  2   force =     0.00000000    0.00000000    0.00000000
     atom    3 type  2   force =     0.00000000    0.00000000    0.00000000
     The Hubbard contrib.    to forces
     atom    1 type  1   force =     0.00000000    0.00000000    0.00000000
     atom    2 type  2   force =     0.00000000    0.00000000    0.00000000
     atom    3 type  2   force =     0.00000000    0.00000000    0.00000000
     The SCF correction term to forces
     atom    1 type  1   force =     0.00000000   -0.00000000    0.00000000
     atom    2 type  2   force =    -0.00000000   -0.00000000    0.00000115
     atom    3 type  2   force =    -0.00000000    0.00000000   -0.00000115

     Total force =     0.000826     Total SCF correction =     0.000002


     Computing stress (Cartesian axis) and pressure

          total   stress  (Ry/bohr**3)                   (kbar)     P=      496.45
   0.00336139  -0.00000000  -0.00000000          494.48       -0.00       -0.00
  -0.00000000   0.00336139   0.00000000           -0.00      494.48        0.00
  -0.00000000   0.00000000   0.00340151           -0.00        0.00      500.38

     Energy error            =      1.8E-04 Ry
     Gradient error          =      5.8E-04 Ry/Bohr
     Cell gradient error     =      5.5E+00 kbar

     number of scf cycles    =   6
     number of bfgs steps    =   5

     enthalpy           old  =     -36.5930194324 Ry
     enthalpy           new  =     -36.5932022328 Ry

     CASE: enthalpy          _new < enthalpy          _old

     new trust radius        =       0.0046496105 bohr
ibrav =      7
 celldm(1) =      4.91702999
 celldm(3) =      2.93247558
Input lattice vectors:
     0.50630686    -0.50630686     1.48473250
     0.50630686     0.50630686     1.48473250
    -0.50630686    -0.50630686     1.48473250
New lattice vectors in INITIAL alat:
     0.50630686    -0.50630686     1.48473250
     0.50630686     0.50630686     1.48473250
    -0.50630686    -0.50630686     1.48473250
New lattice vectors in NEW alat (for information only):
     0.50000000    -0.50000000     1.46623779
     0.50000000     0.50000000     1.46623779
    -0.50000000    -0.50000000     1.46623779
Discrepancy in bohr =     0.000000    0.000000    0.000000
     new conv_thr            =            1.0E-10 Ry

     new unit-cell volume =    174.30626 a.u.^3 (    25.82952 Ang^3 )
     density =      2.69802 g/cm^3

CELL_PARAMETERS (alat=  4.85578056)
   0.506306858  -0.506306858   1.484732497
   0.506306858   0.506306858   1.484732497
  -0.506306858  -0.506306858   1.484732497

ATOMIC_POSITIONS (crystal)
Si           -0.0000000000        0.5000000000        0.5000000000
Li            0.0000000000        0.1759199807        0.1759199807
Li            0.0000000000        0.8240800193        0.8240800193



     Writing config-only to output data dir ./output/SiLi.save/
     NEW-OLD atomic charge density approx. for the potential
     extrapolated charge    9.98515, renormalised to   10.00000

     total cpu time spent up to now is       79.3 secs

     Self-consistent Calculation

     iteration #  1     ecut=   100.00 Ry     beta= 0.70
     Davidson diagonalization with overlap
     ethr =  1.00E-06,  avg # of iterations =  2.3

     Threshold (ethr) on eigenvalues was too large:
     Diagonalizing with lowered threshold

     Davidson diagonalization with overlap
     ethr =  8.60E-09,  avg # of iterations =  2.9

     total cpu time spent up to now is       82.7 secs

     total energy              =     -37.18566780 Ry
     estimated scf accuracy    <       0.00000086 Ry

     iteration #  2     ecut=   100.00 Ry     beta= 0.70
     Davidson diagonalization with overlap
     ethr =  8.62E-09,  avg # of iterations =  2.6

     total cpu time spent up to now is       84.3 secs

     total energy              =     -37.18567051 Ry
     estimated scf accuracy    <       0.00000094 Ry

     iteration #  3     ecut=   100.00 Ry     beta= 0.70
     Davidson diagonalization with overlap
     ethr =  8.62E-09,  avg # of iterations =  1.1

     total cpu time spent up to now is       85.7 secs

     total energy              =     -37.18567050 Ry
     estimated scf accuracy    <       0.00000018 Ry

     iteration #  4     ecut=   100.00 Ry     beta= 0.70
     Davidson diagonalization with overlap
     ethr =  1.80E-09,  avg # of iterations =  1.0

     total cpu time spent up to now is       87.0 secs

     total energy              =     -37.18567047 Ry
     estimated scf accuracy    <       0.00000006 Ry

     iteration #  5     ecut=   100.00 Ry     beta= 0.70
     Davidson diagonalization with overlap
     ethr =  5.74E-10,  avg # of iterations =  2.0

     total cpu time spent up to now is       88.5 secs

     total energy              =     -37.18567048 Ry
     estimated scf accuracy    <          1.9E-09 Ry

     iteration #  6     ecut=   100.00 Ry     beta= 0.70
     Davidson diagonalization with overlap
     ethr =  1.89E-11,  avg # of iterations =  2.0

     total cpu time spent up to now is       89.9 secs

     End of self-consistent calculation

     Number of k-points >= 100: set verbosity='high' to print the bands.

     the Fermi energy is     9.7603 ev

!    total energy              =     -37.18567048 Ry
     estimated scf accuracy    <          8.0E-12 Ry
     smearing contrib. (-TS)   =       0.00027061 Ry
     internal energy E=F+TS    =     -37.18594109 Ry

     The total energy is F=E-TS. E is the sum of the following terms:
     one-electron contribution =      -7.40902684 Ry
     hartree contribution      =       5.68631687 Ry
     xc contribution           =     -10.33169071 Ry
     ewald contribution        =     -25.13154041 Ry

     convergence has been achieved in   6 iterations

     Forces acting on atoms (cartesian axes, Ry/au):

     atom    1 type  1   force =     0.00000000    0.00000000   -0.00000000
     atom    2 type  2   force =     0.00000000    0.00000000   -0.00012258
     atom    3 type  2   force =    -0.00000000   -0.00000000    0.00012258
     The non-local contrib.  to forces
     atom    1 type  1   force =     0.00000000    0.00000000   -0.00000000
     atom    2 type  2   force =    -0.00000000   -0.00000000    0.00743652
     atom    3 type  2   force =     0.00000000    0.00000000   -0.00743652
     The ionic contribution  to forces
     atom    1 type  1   force =    -0.00000000   -0.00000000   -0.00000000
     atom    2 type  2   force =    -0.00000000   -0.00000000    0.01073961
     atom    3 type  2   force =    -0.00000000   -0.00000000   -0.01073961
     The local contribution  to forces
     atom    1 type  1   force =     0.00000000    0.00000000   -0.00000000
     atom    2 type  2   force =    -0.00000000   -0.00000000   -0.01829706
     atom    3 type  2   force =     0.00000000    0.00000000    0.01829706
     The core correction contribution to forces
     atom    1 type  1   force =    -0.00000000    0.00000000   -0.00000000
     atom    2 type  2   force =     0.00000000    0.00000000    0.00000000
     atom    3 type  2   force =     0.00000000    0.00000000    0.00000000
     The Hubbard contrib.    to forces
     atom    1 type  1   force =     0.00000000    0.00000000    0.00000000
     atom    2 type  2   force =     0.00000000    0.00000000    0.00000000
     atom    3 type  2   force =     0.00000000    0.00000000    0.00000000
     The SCF correction term to forces
     atom    1 type  1   force =     0.00000000    0.00000000   -0.00000000
     atom    2 type  2   force =    -0.00000000   -0.00000000   -0.00000165
     atom    3 type  2   force =     0.00000000    0.00000000    0.00000165

     Total force =     0.000173     Total SCF correction =     0.000002


     Computing stress (Cartesian axis) and pressure

          total   stress  (Ry/bohr**3)                   (kbar)     P=      499.28
   0.00339274   0.00000000  -0.00000000          499.09        0.00       -0.00
   0.00000000   0.00339274   0.00000000            0.00      499.09        0.00
   0.00000000   0.00000000   0.00339671            0.00        0.00      499.67

     Energy error            =      1.3E-05 Ry
     Gradient error          =      1.2E-04 Ry/Bohr
     Cell gradient error     =      9.1E-01 kbar
ibrav =      7
 celldm(1) =      4.91702999
 celldm(3) =      2.93247558
Input lattice vectors:
     0.50630686    -0.50630686     1.48473250
     0.50630686     0.50630686     1.48473250
    -0.50630686    -0.50630686     1.48473250
New lattice vectors in INITIAL alat:
     0.50630686    -0.50630686     1.48473250
     0.50630686     0.50630686     1.48473250
    -0.50630686    -0.50630686     1.48473250
New lattice vectors in NEW alat (for information only):
     0.50000000    -0.50000000     1.46623779
     0.50000000     0.50000000     1.46623779
    -0.50000000    -0.50000000     1.46623779
Discrepancy in bohr =     0.000000    0.000000    0.000000

     bfgs converged in   7 scf cycles and   6 bfgs steps
     (criteria: energy <  1.0E-04 Ry, force <  1.0E-03 Ry/Bohr, cell <  1.0E+00 kbar)

     End of BFGS Geometry Optimization

     Final enthalpy           =     -36.5932155512 Ry

     File ./output/SiLi.bfgs deleted, as requested
Begin final coordinates
     new unit-cell volume =    174.30626 a.u.^3 (    25.82952 Ang^3 )
     density =      2.69802 g/cm^3

CELL_PARAMETERS (alat=  4.85578056)
   0.506306858  -0.506306858   1.484732497
   0.506306858   0.506306858   1.484732497
  -0.506306858  -0.506306858   1.484732497

ATOMIC_POSITIONS (crystal)
Si           -0.0000000000        0.5000000000        0.5000000000
Li            0.0000000000        0.1759199807        0.1759199807
Li            0.0000000000        0.8240800193        0.8240800193
End final coordinates



     Writing config-only to output data dir ./output/SiLi.save/

     Final scf calculation at the relaxed structure.
     The G-vectors are recalculated for the final unit cell
     Results may differ from those at the preceding step.

     Parallelization info
     --------------------
     sticks:   dense  smooth     PW     G-vecs:    dense   smooth      PW
     Min         148     148     50                 2944     2944     583
     Max         149     149     51                 2946     2946     585
     Sum        1191    1191    401                23557    23557    4667

     Using Slab Decomposition



     bravais-lattice index     =            7
     lattice parameter (alat)  =       4.8558  a.u.
     unit-cell volume          =     174.3063 (a.u.)^3
     number of atoms/cell      =            3
     number of atomic types    =            2
     number of electrons       =        10.00
     number of Kohn-Sham states=            9
     kinetic-energy cutoff     =     100.0000  Ry
     charge density cutoff     =     400.0000  Ry
     scf convergence threshold =      1.0E-10
     mixing beta               =       0.7000
     number of iterations used =            8  plain     mixing
     press convergence thresh. =      1.0E+00
     Exchange-correlation= PBE
                           (   1   4   3   4   0   0   0)

     celldm(1)=   4.855781  celldm(2)=   0.000000  celldm(3)=   3.008239
     celldm(4)=   0.000000  celldm(5)=   0.000000  celldm(6)=   0.000000

     crystal axes: (cart. coord. in units of alat)
               a(1) = (   0.506307  -0.506307   1.484732 )  
               a(2) = (   0.506307   0.506307   1.484732 )  
               a(3) = (  -0.506307  -0.506307   1.484732 )  

     reciprocal axes: (cart. coord. in units 2 pi/alat)
               b(1) = (  0.987543 -0.987543 -0.000000 )  
               b(2) = (  0.000000  0.987543  0.336761 )  
               b(3) = ( -0.987543 -0.000000  0.336761 )  


     PseudoPot. # 1 for Si read from file:
     ../pseudo/Si_ONCV_PBE_sr.upf
     MD5 check sum: e543d271109d17c80368dfa7c482276d
     Pseudo is Norm-conserving + core correction, Zval =  4.0
     Generated using ONCVPSP code by D. R. Hamann
     Using radial grid of 1510 points,  6 beta functions with: 
                l(1) =   0
                l(2) =   0
                l(3) =   1
                l(4) =   1
                l(5) =   2
                l(6) =   2

     PseudoPot. # 2 for Li read from file:
     ../pseudo/Li_ONCV_PBE_sr.upf
     MD5 check sum: 50ff420e78310ffa21704f3361e624a4
     Pseudo is Norm-conserving, Zval =  3.0
     Generated using ONCVPSP code by D. R. Hamann
     Using radial grid of 1944 points,  4 beta functions with: 
                l(1) =   0
                l(2) =   0
                l(3) =   1
                l(4) =   1

     atomic species   valence    mass     pseudopotential
        Si             4.00    28.08550     Si( 1.00)
        Li             3.00     6.94100     Li( 1.00)

     16 Sym. Ops., with inversion, found



   Cartesian axes

     site n.     atom                  positions (alat units)
         1           Si  tau(   1) = (  -0.0000000  -0.0000000   1.4847325  )
         2           Li  tau(   2) = (   0.0000000  -0.0000000   0.5223882  )
         3           Li  tau(   3) = (   0.0000000  -0.0000000   2.4470768  )

     number of k points=   149  Marzari-Vanderbilt smearing, width (Ry)=  0.0200

     Number of k-points >= 100: set verbosity='high' to print them.

     Dense  grid:    23557 G-vectors     FFT dimensions: (  54,  54,  54)

     Estimated max dynamical RAM per process >      23.57 MB

     Estimated total dynamical RAM >     188.60 MB

     Initial potential from superposition of free atoms

     starting charge       9.9903, renormalised to      10.0000
     Starting wfcs are    8 randomized atomic wfcs +    1 random wfcs

     total cpu time spent up to now is       91.7 secs

     Self-consistent Calculation

     iteration #  1     ecut=   100.00 Ry     beta= 0.70
     Davidson diagonalization with overlap
     c_bands:  1 eigenvalues not converged
     c_bands:  1 eigenvalues not converged
     c_bands:  1 eigenvalues not converged
     c_bands:  1 eigenvalues not converged
     c_bands:  1 eigenvalues not converged
     c_bands:  1 eigenvalues not converged
     c_bands:  1 eigenvalues not converged
     c_bands:  1 eigenvalues not converged
     c_bands:  1 eigenvalues not converged
     c_bands:  1 eigenvalues not converged
     c_bands:  1 eigenvalues not converged
     c_bands:  1 eigenvalues not converged
     c_bands:  1 eigenvalues not converged
     c_bands:  1 eigenvalues not converged
     c_bands:  1 eigenvalues not converged
     c_bands:  1 eigenvalues not converged
     c_bands:  1 eigenvalues not converged
     c_bands:  1 eigenvalues not converged
     c_bands:  1 eigenvalues not converged
     c_bands:  1 eigenvalues not converged
     c_bands:  1 eigenvalues not converged
     c_bands:  2 eigenvalues not converged
     c_bands:  1 eigenvalues not converged
     c_bands:  1 eigenvalues not converged
     c_bands:  1 eigenvalues not converged
     c_bands:  1 eigenvalues not converged
     c_bands:  1 eigenvalues not converged
     c_bands:  1 eigenvalues not converged
     c_bands:  1 eigenvalues not converged
     ethr =  1.00E-06,  avg # of iterations = 17.0

     total cpu time spent up to now is       97.2 secs

     total energy              =     -37.18375434 Ry
     estimated scf accuracy    <       0.01715738 Ry

     iteration #  2     ecut=   100.00 Ry     beta= 0.70
     Davidson diagonalization with overlap
     ethr =  1.72E-04,  avg # of iterations =  1.7

     total cpu time spent up to now is       98.7 secs

     total energy              =     -37.18521609 Ry
     estimated scf accuracy    <       0.00227685 Ry

     iteration #  3     ecut=   100.00 Ry     beta= 0.70
     Davidson diagonalization with overlap
     ethr =  2.28E-05,  avg # of iterations =  2.0

     total cpu time spent up to now is      100.2 secs

     total energy              =     -37.18563284 Ry
     estimated scf accuracy    <       0.00026780 Ry

     iteration #  4     ecut=   100.00 Ry     beta= 0.70
     Davidson diagonalization with overlap
     ethr =  2.68E-06,  avg # of iterations =  2.3

     total cpu time spent up to now is      101.7 secs

     total energy              =     -37.18566995 Ry
     estimated scf accuracy    <       0.00000096 Ry

     iteration #  5     ecut=   100.00 Ry     beta= 0.70
     Davidson diagonalization with overlap
     ethr =  9.61E-09,  avg # of iterations =  3.6

     total cpu time spent up to now is      103.4 secs

     total energy              =     -37.18567086 Ry
     estimated scf accuracy    <       0.00000014 Ry

     iteration #  6     ecut=   100.00 Ry     beta= 0.70
     Davidson diagonalization with overlap
     ethr =  1.44E-09,  avg # of iterations =  1.9

     total cpu time spent up to now is      104.9 secs

     total energy              =     -37.18567090 Ry
     estimated scf accuracy    <          9.6E-09 Ry

     iteration #  7     ecut=   100.00 Ry     beta= 0.70
     Davidson diagonalization with overlap
     ethr =  9.62E-11,  avg # of iterations =  2.0

     total cpu time spent up to now is      106.3 secs

     total energy              =     -37.18567090 Ry
     estimated scf accuracy    <          3.2E-10 Ry

     iteration #  8     ecut=   100.00 Ry     beta= 0.70
     Davidson diagonalization with overlap
     ethr =  3.21E-12,  avg # of iterations =  2.0

     total cpu time spent up to now is      107.8 secs

     End of self-consistent calculation

     Number of k-points >= 100: set verbosity='high' to print the bands.

     the Fermi energy is     9.7603 ev

!    total energy              =     -37.18567090 Ry
     estimated scf accuracy    <          6.5E-13 Ry
     smearing contrib. (-TS)   =       0.00027061 Ry
     internal energy E=F+TS    =     -37.18594151 Ry

     The total energy is F=E-TS. E is the sum of the following terms:
     one-electron contribution =      -7.40902247 Ry
     hartree contribution      =       5.68631346 Ry
     xc contribution           =     -10.33169209 Ry
     ewald contribution        =     -25.13154041 Ry

     convergence has been achieved in   8 iterations

     Forces acting on atoms (cartesian axes, Ry/au):

     atom    1 type  1   force =    -0.00000000   -0.00000000    0.00000000
     atom    2 type  2   force =     0.00000000   -0.00000000   -0.00012427
     atom    3 type  2   force =     0.00000000    0.00000000    0.00012427
     The non-local contrib.  to forces
     atom    1 type  1   force =     0.00000000    0.00000000    0.00000000
     atom    2 type  2   force =    -0.00000000   -0.00000000    0.00743686
     atom    3 type  2   force =     0.00000000    0.00000000   -0.00743686
     The ionic contribution  to forces
     atom    1 type  1   force =     0.00000000    0.00000000    0.00000000
     atom    2 type  2   force =    -0.00000000   -0.00000000    0.01073961
     atom    3 type  2   force =    -0.00000000    0.00000000   -0.01073961
     The local contribution  to forces
     atom    1 type  1   force =    -0.00000000   -0.00000000   -0.00000000
     atom    2 type  2   force =    -0.00000000   -0.00000000   -0.01830071
     atom    3 type  2   force =    -0.00000000    0.00000000    0.01830071
     The core correction contribution to forces
     atom    1 type  1   force =    -0.00000000   -0.00000000   -0.00000000
     atom    2 type  2   force =     0.00000000    0.00000000    0.00000000
     atom    3 type  2   force =     0.00000000    0.00000000    0.00000000
     The Hubbard contrib.    to forces
     atom    1 type  1   force =     0.00000000    0.00000000    0.00000000
     atom    2 type  2   force =     0.00000000    0.00000000    0.00000000
     atom    3 type  2   force =     0.00000000    0.00000000    0.00000000
     The SCF correction term to forces
     atom    1 type  1   force =    -0.00000000   -0.00000000   -0.00000000
     atom    2 type  2   force =     0.00000000   -0.00000000   -0.00000002
     atom    3 type  2   force =     0.00000000    0.00000000    0.00000002

     Total force =     0.000176     Total SCF correction =     0.000000


     Computing stress (Cartesian axis) and pressure

          total   stress  (Ry/bohr**3)                   (kbar)     P=      499.28
   0.00339274  -0.00000000  -0.00000000          499.09       -0.00       -0.00
   0.00000000   0.00339274   0.00000000            0.00      499.09        0.00
  -0.00000000   0.00000000   0.00339672           -0.00        0.00      499.68


     Writing all to output data dir ./output/SiLi.save/

     init_run     :      1.69s CPU      2.59s WALL (       2 calls)
     electrons    :     89.51s CPU     95.02s WALL (       8 calls)
     update_pot   :      1.51s CPU      1.56s WALL (       6 calls)
     forces       :      1.65s CPU      1.73s WALL (       8 calls)
     stress       :      7.12s CPU      7.42s WALL (       8 calls)

     Called by init_run:
     wfcinit      :      1.04s CPU      1.08s WALL (       2 calls)
     potinit      :      0.29s CPU      0.89s WALL (       2 calls)
     hinit0       :      0.31s CPU      0.44s WALL (       2 calls)

     Called by electrons:
     c_bands      :     75.85s CPU     80.56s WALL (      52 calls)
     sum_band     :     12.74s CPU     13.18s WALL (      52 calls)
     v_of_rho     :      1.05s CPU      1.93s WALL (      56 calls)
     mix_rho      :      0.04s CPU      0.06s WALL (      52 calls)

     Called by c_bands:
     init_us_2    :      1.62s CPU      1.74s WALL (   18178 calls)
     init_us_2:cp :      1.59s CPU      1.72s WALL (   18178 calls)
     cegterg      :     72.94s CPU     75.19s WALL (    7748 calls)

     Called by *egterg:
     cdiaghg      :      2.81s CPU      3.00s WALL (   28432 calls)
     h_psi        :     67.37s CPU     69.34s WALL (   30220 calls)
     g_psi        :      0.17s CPU      0.17s WALL (   22174 calls)

     Called by h_psi:
     h_psi:calbec :      1.96s CPU      2.01s WALL (   30220 calls)
     vloc_psi     :     64.04s CPU     65.92s WALL (   30220 calls)
     add_vuspsi   :      1.19s CPU      1.23s WALL (   30220 calls)

     General routines
     calbec       :      2.46s CPU      2.54s WALL (   36180 calls)
     fft          :      1.01s CPU      2.10s WALL (     762 calls)
     ffts         :      0.05s CPU      0.07s WALL (      52 calls)
     fftw         :     66.41s CPU     68.30s WALL (  457276 calls)

     Parallel routines

     PWSCF        :   1m41.94s CPU   1m49.34s WALL


   This run was terminated on:  22:10:55  10Jan2025            

=------------------------------------------------------------------------------=
   JOB DONE.
=------------------------------------------------------------------------------=
