
     Program PWSCF v.7.2 starts on 27Dec2024 at 13:57:45 

     This program is part of the open-source Quantum ESPRESSO suite
     for quantum simulation of materials; please cite
         "P. Giannozzi et al., J. Phys.:Condens. Matter 21 395502 (2009);
         "P. Giannozzi et al., J. Phys.:Condens. Matter 29 465901 (2017);
         "P. Giannozzi et al., J. Chem. Phys. 152 154105 (2020);
          URL http://www.quantum-espresso.org", 
     in publications or presentations arising from this work. More details at
     http://www.quantum-espresso.org/quote

     Parallel version (MPI & OpenMP), running on       8 processor cores
     Number of MPI processes:                 8
     Threads/MPI process:                     1

     MPI processes distributed on     1 nodes
     482511 MiB available memory on the printing compute node when the environment starts

     Waiting for input...
     Reading input from standard input

     Current dimensions of program PWSCF are:
     Max number of different atomic species (ntypx) = 10
     Max number of k-points (npk) =  40000
     Max angular momentum in pseudopotentials (lmaxx) =  4

     R & G space division:  proc/nbgrp/npool/nimage =       8
     Subspace diagonalization in iterative solution of the eigenvalue problem:
     a serial algorithm will be used


     Parallelization info
     --------------------
     sticks:   dense  smooth     PW     G-vecs:    dense   smooth      PW
     Min         316     316     93                 9404     9404    1501
     Max         317     317     94                 9406     9406    1503
     Sum        2531    2531    747                75237    75237   12015

     Using Slab Decomposition



     bravais-lattice index     =            7
     lattice parameter (alat)  =      12.4720  a.u.
     unit-cell volume          =     777.3997 (a.u.)^3
     number of atoms/cell      =            6
     number of atomic types    =            2
     number of electrons       =        20.00
     number of Kohn-Sham states=           14
     kinetic-energy cutoff     =      80.0000  Ry
     charge density cutoff     =     320.0000  Ry
     scf convergence threshold =      1.0E-08
     mixing beta               =       0.7000
     number of iterations used =            8  plain     mixing
     energy convergence thresh.=      1.0E-04
     force convergence thresh. =      1.0E-03
     press convergence thresh. =      1.0E+00
     Exchange-correlation= PBE
                           (   1   4   3   4   0   0   0)
     nstep                     =           50


     celldm(1)=  12.472038  celldm(2)=   0.000000  celldm(3)=   0.801424
     celldm(4)=   0.000000  celldm(5)=   0.000000  celldm(6)=   0.000000

     crystal axes: (cart. coord. in units of alat)
               a(1) = (   0.500000  -0.500000   0.400712 )  
               a(2) = (   0.500000   0.500000   0.400712 )  
               a(3) = (  -0.500000  -0.500000   0.400712 )  

     reciprocal axes: (cart. coord. in units 2 pi/alat)
               b(1) = (  1.000000 -1.000000  0.000000 )  
               b(2) = (  0.000000  1.000000  1.247780 )  
               b(3) = ( -1.000000  0.000000  1.247780 )  


     PseudoPot. # 1 for Si read from file:
     ../pseudo/Si_ONCV_PBE_sr.upf
     MD5 check sum: e543d271109d17c80368dfa7c482276d
     Pseudo is Norm-conserving + core correction, Zval =  4.0
     Generated using ONCVPSP code by D. R. Hamann
     Using radial grid of 1510 points,  6 beta functions with: 
                l(1) =   0
                l(2) =   0
                l(3) =   1
                l(4) =   1
                l(5) =   2
                l(6) =   2

     PseudoPot. # 2 for Li read from file:
     ../pseudo/Li_ONCV_PBE_sr.upf
     MD5 check sum: 50ff420e78310ffa21704f3361e624a4
     Pseudo is Norm-conserving, Zval =  3.0
     Generated using ONCVPSP code by D. R. Hamann
     Using radial grid of 1944 points,  4 beta functions with: 
                l(1) =   0
                l(2) =   0
                l(3) =   1
                l(4) =   1

     atomic species   valence    mass     pseudopotential
        Si             4.00    28.08550     Si( 1.00)
        Li             3.00     6.94100     Li( 1.00)

     16 Sym. Ops., with inversion, found ( 8 have fractional translation)



   Cartesian axes

     site n.     atom                  positions (alat units)
         1           Si  tau(   1) = (   0.0000000   0.0000000   0.0000000  )
         2           Si  tau(   2) = (   0.0000000   0.0000000   0.4007118  )
         3           Li  tau(   3) = (   0.1590045   0.3409955   0.4007118  )
         4           Li  tau(   4) = (   0.8409955   0.6590045   0.4007118  )
         5           Li  tau(   5) = (   0.6590045   0.1590045   0.4007118  )
         6           Li  tau(   6) = (   0.3409955   0.8409955   0.4007118  )

     number of k points=    39  Marzari-Vanderbilt smearing, width (Ry)=  0.0200
                       cart. coord. in units 2pi/alat
        k(    1) = (   0.0000000   0.0000000   0.0000000), wk =   0.0250000
        k(    2) = (  -0.2000000   0.0000000   0.2495559), wk =   0.0500000
        k(    3) = (  -0.4000000   0.0000000   0.4991118), wk =   0.0500000
        k(    4) = (   0.0000000   0.2500000   0.3119449), wk =   0.1000000
        k(    5) = (  -0.2000000   0.2500000   0.5615008), wk =   0.0500000
        k(    6) = (  -0.4000000   0.2500000   0.8110567), wk =   0.0500000
        k(    7) = (   0.4000000   0.2500000  -0.1871669), wk =   0.0500000
        k(    8) = (   0.2000000   0.2500000   0.0623890), wk =   0.0500000
        k(    9) = (   0.0000000  -0.5000000  -0.6238898), wk =   0.0500000
        k(   10) = (  -0.2000000  -0.5000000  -0.3743339), wk =   0.0500000
        k(   11) = (  -0.4000000  -0.5000000  -0.1247780), wk =   0.0500000
        k(   12) = (   0.2500000  -0.2500000   0.0000000), wk =   0.0500000
        k(   13) = (   0.0500000  -0.2500000   0.2495559), wk =   0.0500000
        k(   14) = (  -0.1500000  -0.2500000   0.4991118), wk =   0.0500000
        k(   15) = (   0.6500000  -0.2500000  -0.4991118), wk =   0.0500000
        k(   16) = (   0.4500000  -0.2500000  -0.2495559), wk =   0.0500000
        k(   17) = (   0.0500000   0.0000000   0.5615008), wk =   0.0500000
        k(   18) = (  -0.1500000   0.0000000   0.8110567), wk =   0.0500000
        k(   19) = (   0.6500000   0.0000000  -0.1871669), wk =   0.0500000
        k(   20) = (   0.4500000   0.0000000   0.0623890), wk =   0.0500000
        k(   21) = (   0.2500000  -0.7500000  -0.6238898), wk =   0.0500000
        k(   22) = (   0.0500000  -0.7500000  -0.3743339), wk =   0.0500000
        k(   23) = (  -0.1500000  -0.7500000  -0.1247780), wk =   0.0500000
        k(   24) = (   0.6500000  -0.7500000  -1.1230016), wk =   0.0500000
        k(   25) = (   0.4500000  -0.7500000  -0.8734457), wk =   0.0500000
        k(   26) = (   0.2500000  -0.5000000  -0.3119449), wk =   0.1000000
        k(   27) = (   0.0500000  -0.5000000  -0.0623890), wk =   0.0500000
        k(   28) = (  -0.1500000  -0.5000000   0.1871669), wk =   0.0500000
        k(   29) = (   0.6500000  -0.5000000  -0.8110567), wk =   0.0500000
        k(   30) = (   0.4500000  -0.5000000  -0.5615008), wk =   0.0500000
        k(   31) = (  -0.5000000   0.5000000   0.0000000), wk =   0.0250000
        k(   32) = (  -0.7000000   0.5000000   0.2495559), wk =   0.0500000
        k(   33) = (  -0.9000000   0.5000000   0.4991118), wk =   0.0500000
        k(   34) = (  -0.7000000   0.7500000   0.5615008), wk =   0.0500000
        k(   35) = (  -0.9000000   0.7500000   0.8110567), wk =   0.0500000
        k(   36) = (  -0.1000000   0.7500000  -0.1871669), wk =   0.0500000
        k(   37) = (  -0.3000000   0.7500000   0.0623890), wk =   0.0500000
        k(   38) = (  -0.7000000   0.0000000  -0.3743339), wk =   0.0500000
        k(   39) = (  -0.9000000   0.0000000  -0.1247780), wk =   0.0500000

     Dense  grid:    75237 G-vectors     FFT dimensions: (  60,  60,  60)

     Estimated max dynamical RAM per process >      29.97 MB

     Estimated total dynamical RAM >     239.75 MB

     Initial potential from superposition of free atoms

     starting charge      19.9805, renormalised to      20.0000
     Starting wfcs are   16 randomized atomic wfcs

     total cpu time spent up to now is        4.0 secs

     Self-consistent Calculation

     iteration #  1     ecut=    80.00 Ry     beta= 0.70
     Davidson diagonalization with overlap
     ethr =  1.00E-02,  avg # of iterations =  5.5

     Threshold (ethr) on eigenvalues was too large:
     Diagonalizing with lowered threshold

     Davidson diagonalization with overlap
     ethr =  6.27E-04,  avg # of iterations =  2.2

     total cpu time spent up to now is        7.0 secs

     total energy              =     -74.47797796 Ry
     estimated scf accuracy    <       0.11453744 Ry

     iteration #  2     ecut=    80.00 Ry     beta= 0.70
     Davidson diagonalization with overlap
     ethr =  5.73E-04,  avg # of iterations =  2.8

     total cpu time spent up to now is        8.4 secs

     total energy              =     -74.50108877 Ry
     estimated scf accuracy    <       0.08149733 Ry

     iteration #  3     ecut=    80.00 Ry     beta= 0.70
     Davidson diagonalization with overlap
     ethr =  4.07E-04,  avg # of iterations =  2.0

     total cpu time spent up to now is        9.7 secs

     total energy              =     -74.51621763 Ry
     estimated scf accuracy    <       0.00060250 Ry

     iteration #  4     ecut=    80.00 Ry     beta= 0.70
     Davidson diagonalization with overlap
     c_bands:  1 eigenvalues not converged
     ethr =  3.01E-06,  avg # of iterations =  7.6

     total cpu time spent up to now is       11.4 secs

     total energy              =     -74.51634909 Ry
     estimated scf accuracy    <       0.00011052 Ry

     iteration #  5     ecut=    80.00 Ry     beta= 0.70
     Davidson diagonalization with overlap
     ethr =  5.53E-07,  avg # of iterations =  2.1

     total cpu time spent up to now is       12.7 secs

     total energy              =     -74.51637139 Ry
     estimated scf accuracy    <       0.00000094 Ry

     iteration #  6     ecut=    80.00 Ry     beta= 0.70
     Davidson diagonalization with overlap
     ethr =  4.70E-09,  avg # of iterations =  3.6

     total cpu time spent up to now is       14.1 secs

     total energy              =     -74.51637172 Ry
     estimated scf accuracy    <       0.00000013 Ry

     iteration #  7     ecut=    80.00 Ry     beta= 0.70
     Davidson diagonalization with overlap
     ethr =  6.26E-10,  avg # of iterations =  2.0

     total cpu time spent up to now is       15.4 secs

     total energy              =     -74.51637176 Ry
     estimated scf accuracy    <       0.00000002 Ry

     iteration #  8     ecut=    80.00 Ry     beta= 0.70
     Davidson diagonalization with overlap
     ethr =  9.66E-11,  avg # of iterations =  2.0

     total cpu time spent up to now is       16.5 secs

     End of self-consistent calculation

          k = 0.0000 0.0000 0.0000 (  9407 PWs)   bands (ev):

   -43.4977 -43.4913 -43.4859 -43.4859  -6.0659  -1.3736   0.0060   0.8848
     0.8848   2.6660   3.8395   3.8395   4.2818   5.0558

          k =-0.2000 0.0000 0.2496 (  9404 PWs)   bands (ev):

   -43.4965 -43.4913 -43.4866 -43.4865  -5.8361  -2.6189   0.7327   0.9004
     1.5164   2.6377   2.7639   3.3341   4.4816   5.9819

          k =-0.4000 0.0000 0.4991 (  9402 PWs)   bands (ev):

   -43.4938 -43.4916 -43.4879 -43.4876  -5.1563  -4.0588   0.7908   1.0979
     1.4338   1.7293   3.8258   4.4508   4.7204   6.3672

          k = 0.0000 0.2500 0.3119 (  9389 PWs)   bands (ev):

   -43.4960 -43.4913 -43.4869 -43.4868  -5.7075  -3.0030   0.7054   0.9253
     2.0145   2.3318   2.4689   3.6213   4.5520   6.2313

          k =-0.2000 0.2500 0.5615 (  9387 PWs)   bands (ev):

   -43.4937 -43.4915 -43.4880 -43.4878  -4.9866  -4.2952   0.7181   1.0281
     1.4607   2.0954   3.8525   4.5226   4.5971   5.6711

          k =-0.4000 0.2500 0.8111 (  9390 PWs)   bands (ev):

   -43.4932 -43.4913 -43.4889 -43.4875  -5.2507  -3.8374  -0.0340   1.1812
     1.4327   2.8025   3.0867   4.1537   5.5820   6.3536

          k = 0.4000 0.2500-0.1872 (  9396 PWs)   bands (ev):

   -43.4955 -43.4910 -43.4881 -43.4863  -5.8247  -2.3319  -0.3094   0.8230
     1.0776   2.5688   3.6209   4.0876   5.1770   5.7157

          k = 0.2000 0.2500 0.0624 (  9400 PWs)   bands (ev):

   -43.4967 -43.4913 -43.4870 -43.4860  -5.9845  -1.5703   0.0073   0.0386
     1.0029   3.2880   3.6059   3.8789   4.5808   5.3408

          k = 0.0000-0.5000-0.6239 (  9410 PWs)   bands (ev):

   -43.4924 -43.4924 -43.4880 -43.4880  -4.6565  -4.6565   1.0114   1.0114
     1.3845   1.3845   4.7123   4.7123   5.0854   5.0854

          k =-0.2000-0.5000-0.3743 (  9397 PWs)   bands (ev):

   -43.4940 -43.4912 -43.4886 -43.4872  -5.4513  -3.4714  -0.0353   1.0902
     1.7022   2.4986   2.8195   4.2800   5.4900   6.3841

          k =-0.4000-0.5000-0.1248 (  9390 PWs)   bands (ev):

   -43.4950 -43.4904 -43.4893 -43.4861  -5.8473  -1.9773  -0.6648   0.2941
     1.1363   2.7843   4.1686   4.3413   4.8846   5.2883

          k = 0.2500-0.2500 0.0000 (  9411 PWs)   bands (ev):

   -43.4965 -43.4912 -43.4872 -43.4860  -5.9848  -1.4215  -0.1608  -0.1228
     1.0278   3.3675   3.7780   4.0077   4.2999   5.4779

          k = 0.0500-0.2500 0.2496 (  9401 PWs)   bands (ev):

   -43.4963 -43.4913 -43.4868 -43.4865  -5.8184  -2.6377   0.5477   0.8931
     1.4871   2.5714   2.8240   3.5307   4.7511   5.9411

          k =-0.1500-0.2500 0.4991 (  9388 PWs)   bands (ev):

   -43.4943 -43.4913 -43.4878 -43.4875  -5.2081  -4.0013   0.7525   1.2570
     1.4353   2.0162   3.8431   3.8922   4.4117   6.3570

          k = 0.6500-0.2500-0.4991 (  9392 PWs)   bands (ev):

   -43.4927 -43.4917 -43.4887 -43.4877  -5.0461  -4.1626   0.1298   1.1980
     1.2946   2.6238   3.6950   4.0477   5.3842   6.3120

          k = 0.4500-0.2500-0.2496 (  9401 PWs)   bands (ev):

   -43.4949 -43.4910 -43.4884 -43.4866  -5.7189  -2.7312  -0.2982   1.0671
     1.3543   2.2419   3.4104   4.2188   5.4002   5.9036

          k = 0.0500 0.0000 0.5615 (  9409 PWs)   bands (ev):

   -43.4943 -43.4911 -43.4878 -43.4878  -5.0563  -4.2244   0.9851   0.9863
     2.0574   2.0664   3.0322   3.5331   4.5994   5.6018

          k =-0.1500 0.0000 0.8111 (  9385 PWs)   bands (ev):

   -43.4918 -43.4914 -43.4890 -43.4888  -5.1424  -3.9553   0.3074   0.3539
     2.3155   2.6271   2.9633   3.0853   4.6877   7.2088

          k = 0.6500 0.0000-0.1872 (  9378 PWs)   bands (ev):

   -43.4937 -43.4910 -43.4884 -43.4879  -5.7199  -2.4416  -0.0903   0.1134
     0.6515   2.6780   3.4074   3.9758   5.5876   7.0200

          k = 0.4500 0.0000 0.0624 (  9410 PWs)   bands (ev):

   -43.4957 -43.4912 -43.4872 -43.4868  -5.9198  -1.6180  -0.1122   0.0389
     0.3521   3.3459   3.6962   4.1303   4.9139   5.8154

          k = 0.2500-0.7500-0.6239 (  9388 PWs)   bands (ev):

   -43.4930 -43.4917 -43.4881 -43.4880  -4.7381  -4.5677   0.5458   1.0008
     1.4066   2.2584   3.8825   4.8343   5.0016   5.1648

          k = 0.0500-0.7500-0.3743 (  9368 PWs)   bands (ev):

   -43.4922 -43.4913 -43.4890 -43.4884  -5.3386  -3.5932   0.1242   0.3492
     2.2113   2.3788   2.8129   3.4083   5.2337   7.6237

          k =-0.1500-0.7500-0.1248 (  9381 PWs)   bands (ev):

   -43.4932 -43.4905 -43.4895 -43.4878  -5.7530  -2.0709  -0.3704   0.0896
     0.2045   2.4843   3.8507   4.1763   5.4198   7.2942

          k = 0.6500-0.7500-1.1230 (  9380 PWs)   bands (ev):

   -43.4942 -43.4905 -43.4894 -43.4869  -5.8003  -2.0263  -0.5262   0.1829
     0.6023   2.8078   3.8018   4.1778   5.1032   6.2850

          k = 0.4500-0.7500-0.8734 (  9402 PWs)   bands (ev):

   -43.4943 -43.4911 -43.4885 -43.4870  -5.4681  -3.4507  -0.0794   1.2897
     1.5971   2.5179   2.8734   4.4010   5.3879   6.3444

          k = 0.2500-0.5000-0.3119 (  9398 PWs)   bands (ev):

   -43.4944 -43.4909 -43.4888 -43.4869  -5.5877  -3.1190  -0.2486   1.0992
     1.8005   2.0304   3.2025   4.2743   5.5189   6.1476

          k = 0.0500-0.5000-0.0624 (  9410 PWs)   bands (ev):

   -43.4953 -43.4912 -43.4875 -43.4869  -5.8943  -1.6348  -0.1649  -0.0885
     0.3284   3.2099   3.7701   4.2228   4.9261   6.0263

          k =-0.1500-0.5000 0.1872 (  9390 PWs)   bands (ev):

   -43.4950 -43.4911 -43.4881 -43.4868  -5.7918  -2.3691  -0.2262   0.6362
     0.7971   2.7462   3.4431   4.0746   5.3889   6.0492

          k = 0.6500-0.5000-0.8111 (  9399 PWs)   bands (ev):

   -43.4936 -43.4911 -43.4889 -43.4872  -5.2836  -3.7958  -0.1260   1.1835
     1.5829   2.8655   3.1268   4.7596   5.4344   6.1795

          k = 0.4500-0.5000-0.5615 (  9393 PWs)   bands (ev):

   -43.4928 -43.4919 -43.4885 -43.4878  -4.8819  -4.3850   0.1531   0.5922
     2.0503   2.4859   4.4036   5.3455   5.4891   5.7893

          k =-0.5000 0.5000 0.0000 (  9398 PWs)   bands (ev):

   -43.4952 -43.4903 -43.4895 -43.4860  -5.8967  -1.4621  -0.7453  -0.3064
     1.1439   3.3048   3.9135   4.3969   4.8931   5.0478

          k =-0.7000 0.5000 0.2496 (  9396 PWs)   bands (ev):

   -43.4947 -43.4907 -43.4890 -43.4866  -5.6991  -2.7478  -0.4257   1.1060
     1.3263   2.1910   3.5760   4.3049   5.4125   5.8086

          k =-0.9000 0.5000 0.4991 (  9391 PWs)   bands (ev):

   -43.4932 -43.4917 -43.4882 -43.4877  -5.1038  -4.1111   0.4872   1.0844
     1.4194   1.9985   3.7647   4.4162   5.1287   6.3738

          k =-0.7000 0.7500 0.5615 (  9394 PWs)   bands (ev):

   -43.4934 -43.4916 -43.4881 -43.4878  -4.9590  -4.3205   0.5937   0.8388
     1.6610   2.1146   4.1335   4.4919   4.8987   5.6982

          k =-0.9000 0.7500 0.8111 (  9380 PWs)   bands (ev):

   -43.4922 -43.4916 -43.4889 -43.4882  -5.1788  -3.9185   0.1889   0.5808
     2.0176   2.6386   3.0050   3.3652   5.0731   7.1110

          k =-0.1000 0.7500-0.1872 (  9373 PWs)   bands (ev):

   -43.4929 -43.4907 -43.4893 -43.4881  -5.6834  -2.4746  -0.2449   0.1523
     0.5930   2.4303   3.6010   3.9657   5.5866   7.3387

          k =-0.3000 0.7500 0.0624 (  9372 PWs)   bands (ev):

   -43.4940 -43.4903 -43.4896 -43.4870  -5.8235  -1.6771  -0.5412  -0.2747
     0.4703   2.8011   4.0314   4.3149   4.8445   6.5508

          k =-0.7000 0.0000-0.3743 (  9384 PWs)   bands (ev):

   -43.4926 -43.4914 -43.4888 -43.4882  -5.3573  -3.5749   0.1862   0.3446
     2.2461   2.3698   2.6868   3.5398   5.3600   7.5199

          k =-0.9000 0.0000-0.1248 (  9372 PWs)   bands (ev):

   -43.4914 -43.4904 -43.4896 -43.4895  -5.7014  -2.1149  -0.1703  -0.1469
     0.0089   2.0129   4.1355   4.1850   5.7083   7.7963

     the Fermi energy is     2.8694 ev

!    total energy              =     -74.51637176 Ry
     estimated scf accuracy    <          2.8E-11 Ry
     smearing contrib. (-TS)   =       0.00032966 Ry
     internal energy E=F+TS    =     -74.51670143 Ry

     The total energy is F=E-TS. E is the sum of the following terms:
     one-electron contribution =     -33.50222993 Ry
     hartree contribution      =      15.42955934 Ry
     xc contribution           =     -19.44757418 Ry
     ewald contribution        =     -36.99645666 Ry

     convergence has been achieved in   8 iterations

     Forces acting on atoms (cartesian axes, Ry/au):

     atom    1 type  1   force =    -0.00000000    0.00000000    0.00000000
     atom    2 type  1   force =     0.00000000    0.00000000   -0.00000000
     atom    3 type  2   force =     0.00322332   -0.00322332   -0.00000000
     atom    4 type  2   force =    -0.00322332    0.00322332   -0.00000000
     atom    5 type  2   force =     0.00322332    0.00322332   -0.00000000
     atom    6 type  2   force =    -0.00322332   -0.00322332   -0.00000000
     The non-local contrib.  to forces
     atom    1 type  1   force =    -0.00000000   -0.00000000   -0.00000000
     atom    2 type  1   force =    -0.00000000    0.00000000    0.00000000
     atom    3 type  2   force =    -0.03357260    0.03357260    0.00000000
     atom    4 type  2   force =     0.03357260   -0.03357260    0.00000000
     atom    5 type  2   force =    -0.03357260   -0.03357260   -0.00000000
     atom    6 type  2   force =     0.03357260    0.03357260    0.00000000
     The ionic contribution  to forces
     atom    1 type  1   force =    -0.00000000   -0.00000000   -0.00000000
     atom    2 type  1   force =     0.00000000    0.00000000    0.00000000
     atom    3 type  2   force =    -0.27361944    0.27361944    0.00000000
     atom    4 type  2   force =     0.27361944   -0.27361944    0.00000000
     atom    5 type  2   force =    -0.27361944   -0.27361944    0.00000000
     atom    6 type  2   force =     0.27361944    0.27361944    0.00000000
     The local contribution  to forces
     atom    1 type  1   force =    -0.00000000    0.00000000    0.00000000
     atom    2 type  1   force =    -0.00000000    0.00000000    0.00000000
     atom    3 type  2   force =     0.31041512   -0.31041512   -0.00000000
     atom    4 type  2   force =    -0.31041512    0.31041512   -0.00000000
     atom    5 type  2   force =     0.31041512    0.31041512   -0.00000000
     atom    6 type  2   force =    -0.31041512   -0.31041512   -0.00000000
     The core correction contribution to forces
     atom    1 type  1   force =     0.00000000   -0.00000000    0.00000000
     atom    2 type  1   force =    -0.00000000   -0.00000000   -0.00000000
     atom    3 type  2   force =     0.00000000    0.00000000    0.00000000
     atom    4 type  2   force =     0.00000000    0.00000000    0.00000000
     atom    5 type  2   force =     0.00000000    0.00000000    0.00000000
     atom    6 type  2   force =     0.00000000    0.00000000    0.00000000
     The Hubbard contrib.    to forces
     atom    1 type  1   force =     0.00000000    0.00000000    0.00000000
     atom    2 type  1   force =     0.00000000    0.00000000    0.00000000
     atom    3 type  2   force =     0.00000000    0.00000000    0.00000000
     atom    4 type  2   force =     0.00000000    0.00000000    0.00000000
     atom    5 type  2   force =     0.00000000    0.00000000    0.00000000
     atom    6 type  2   force =     0.00000000    0.00000000    0.00000000
     The SCF correction term to forces
     atom    1 type  1   force =     0.00000000    0.00000000    0.00000000
     atom    2 type  1   force =     0.00000000    0.00000000    0.00000000
     atom    3 type  2   force =     0.00000025   -0.00000025   -0.00000000
     atom    4 type  2   force =    -0.00000025    0.00000025   -0.00000000
     atom    5 type  2   force =     0.00000025    0.00000025   -0.00000000
     atom    6 type  2   force =    -0.00000025   -0.00000025   -0.00000000

     Total force =     0.009117     Total SCF correction =     0.000001


     Computing stress (Cartesian axis) and pressure

          total   stress  (Ry/bohr**3)                   (kbar)     P=       -9.90
   0.00014712   0.00000000   0.00000000           21.64        0.00        0.00
   0.00000000   0.00014712  -0.00000000            0.00       21.64       -0.00
   0.00000000   0.00000000  -0.00049614            0.00        0.00      -72.99


     BFGS Geometry Optimization
     Energy error            =      0.0E+00 Ry
     Gradient error          =      3.2E-03 Ry/Bohr
     Cell gradient error     =      5.7E+02 kbar

     number of scf cycles    =   1
     number of bfgs steps    =   0

     enthalpy           new  =     -71.8740438705 Ry

     new trust radius        =       0.5000000000 bohr
ibrav =      7
 celldm(1) =     11.53842940
 celldm(3) =      0.78859603
Input lattice vectors:
     0.46257194    -0.46257194     0.36478240
     0.46257194     0.46257194     0.36478240
    -0.46257194    -0.46257194     0.36478240
New lattice vectors in INITIAL alat:
     0.46257194    -0.46257194     0.36478240
     0.46257194     0.46257194     0.36478240
    -0.46257194    -0.46257194     0.36478240
New lattice vectors in NEW alat (for information only):
     0.50000000    -0.50000000     0.39429801
     0.50000000     0.50000000     0.39429801
    -0.50000000    -0.50000000     0.39429801
Discrepancy in bohr =     0.000000    0.000000    0.000000
     new conv_thr            =       0.0000000100 Ry

     new unit-cell volume =    605.70991 a.u.^3 (    89.75695 Ang^3 )
     density =      1.55283 g/cm^3

CELL_PARAMETERS (alat= 12.47203771)
   0.462571941  -0.462571941   0.364782395
   0.462571941   0.462571941   0.364782395
  -0.462571941  -0.462571941   0.364782395

ATOMIC_POSITIONS (crystal)
Si           -0.0000000000        0.0000000000        0.0000000000
Si            0.0000000000        0.5000000000        0.5000000000
Li           -0.1815150531        0.8407575266        0.3407575266
Li            0.1815150531        1.1592424734       -0.3407575266
Li            0.5000000000        0.6592424734       -0.1592424734
Li           -0.5000000000        1.3407575266        0.1592424734



     Writing config-only to output data dir ./output/SiLi.save/
     NEW-OLD atomic charge density approx. for the potential
     extrapolated charge   14.33647, renormalised to   20.00000

     total cpu time spent up to now is       20.4 secs

     Self-consistent Calculation

     iteration #  1     ecut=    80.00 Ry     beta= 0.70
     Davidson diagonalization with overlap
     c_bands:  1 eigenvalues not converged
     c_bands:  1 eigenvalues not converged
     ethr =  1.00E-06,  avg # of iterations = 11.1

     total cpu time spent up to now is       24.0 secs

     total energy              =     -74.12070300 Ry
     estimated scf accuracy    <       0.27956414 Ry

     iteration #  2     ecut=    80.00 Ry     beta= 0.70
     Davidson diagonalization with overlap
     ethr =  1.40E-03,  avg # of iterations =  2.9

     total cpu time spent up to now is       25.5 secs

     total energy              =     -74.45960189 Ry
     estimated scf accuracy    <       0.42299733 Ry

     iteration #  3     ecut=    80.00 Ry     beta= 0.70
     Davidson diagonalization with overlap
     ethr =  1.40E-03,  avg # of iterations =  1.6

     total cpu time spent up to now is       26.6 secs

     total energy              =     -74.47935727 Ry
     estimated scf accuracy    <       0.04196335 Ry

     iteration #  4     ecut=    80.00 Ry     beta= 0.70
     Davidson diagonalization with overlap
     ethr =  2.10E-04,  avg # of iterations =  2.0

     total cpu time spent up to now is       27.8 secs

     total energy              =     -74.48190709 Ry
     estimated scf accuracy    <       0.00377618 Ry

     iteration #  5     ecut=    80.00 Ry     beta= 0.70
     Davidson diagonalization with overlap
     ethr =  1.89E-05,  avg # of iterations =  3.5

     total cpu time spent up to now is       29.1 secs

     total energy              =     -74.48284976 Ry
     estimated scf accuracy    <       0.00004520 Ry

     iteration #  6     ecut=    80.00 Ry     beta= 0.70
     Davidson diagonalization with overlap
     ethr =  2.26E-07,  avg # of iterations =  4.3

     total cpu time spent up to now is       30.6 secs

     total energy              =     -74.48287100 Ry
     estimated scf accuracy    <       0.00000677 Ry

     iteration #  7     ecut=    80.00 Ry     beta= 0.70
     Davidson diagonalization with overlap
     ethr =  3.38E-08,  avg # of iterations =  1.9

     total cpu time spent up to now is       31.8 secs

     total energy              =     -74.48287177 Ry
     estimated scf accuracy    <       0.00000040 Ry

     iteration #  8     ecut=    80.00 Ry     beta= 0.70
     Davidson diagonalization with overlap
     ethr =  2.01E-09,  avg # of iterations =  2.4

     total cpu time spent up to now is       33.0 secs

     End of self-consistent calculation

          k = 0.0000 0.0000 0.0000 (  9407 PWs)   bands (ev):

   -41.6261 -41.6071 -41.5940 -41.5940  -5.5177   0.8785   0.8847   1.9191
     1.9191   4.4006   5.6513   5.9713   5.9713   6.4313

          k =-0.2162-0.0000 0.2741 (  9404 PWs)   bands (ev):

   -41.6227 -41.6070 -41.5958 -41.5955  -5.2442  -1.2944   1.8000   1.9446
     3.3413   4.1191   4.3146   5.0976   6.0077   7.9925

          k =-0.4324-0.0000 0.5483 (  9402 PWs)   bands (ev):

   -41.6146 -41.6078 -41.5997 -41.5988  -4.4289  -3.0943   1.9054   2.1973
     2.6937   3.0152   6.0658   6.2974   6.5024   8.7101

          k = 0.0000 0.2702 0.3427 (  9389 PWs)   bands (ev):

   -41.6209 -41.6070 -41.5968 -41.5963  -5.0907  -1.7836   1.7828   1.9790
     3.6501   3.9380   4.0446   5.4099   6.1374   8.2884

          k =-0.2162 0.2702 0.6168 (  9387 PWs)   bands (ev):

   -41.6141 -41.6076 -41.5998 -41.5993  -4.2283  -3.3737   1.7818   2.2072
     2.6334   3.4825   5.4251   6.5301   6.8612   8.2536

          k =-0.4324 0.2702 0.8909 (  9390 PWs)   bands (ev):

   -41.6129 -41.6071 -41.6026 -41.5984  -4.5373  -2.8406   0.9455   2.3220
     2.6641   4.3324   5.2019   5.8596   7.6525   8.4026

          k = 0.4324 0.2702-0.2056 (  9396 PWs)   bands (ev):

   -41.6196 -41.6069 -41.5994 -41.5950  -5.2307  -0.9613   0.6283   2.1162
     2.5652   4.0104   5.3966   5.8420   7.1154   7.5945

          k = 0.2162 0.2702 0.0685 (  9400 PWs)   bands (ev):

   -41.6232 -41.6072 -41.5966 -41.5941  -5.4218   0.1822   0.9798   1.3335
     2.1010   4.9273   5.4008   5.8545   6.2165   7.0304

          k =-0.0000-0.5405-0.6853 (  9410 PWs)   bands (ev):

   -41.6105 -41.6105 -41.6000 -41.6000  -3.8240  -3.8240   2.1540   2.1540
     2.5983   2.5983   6.5379   6.5379   7.5242   7.5242

          k =-0.2162-0.5405-0.4112 (  9397 PWs)   bands (ev):

   -41.6154 -41.6069 -41.6013 -41.5974  -4.7810  -2.3900   0.9453   2.2063
     2.9951   4.3107   4.5525   6.0430   7.4220   8.5875

          k =-0.4324-0.5405-0.1371 (  9390 PWs)   bands (ev):

   -41.6182 -41.6066 -41.6017 -41.5945  -5.2580  -0.5004   0.2247   1.8258
     2.2380   4.2685   5.9129   6.2286   6.9072   7.2574

          k = 0.2702-0.2702 0.0000 (  9411 PWs)   bands (ev):

   -41.6228 -41.6072 -41.5970 -41.5940  -5.4223   0.6652   0.7942   0.8343
     2.1230   5.0542   5.6505   5.8068   6.0669   7.1867

          k = 0.0540-0.2702 0.2741 (  9401 PWs)   bands (ev):

   -41.6220 -41.6070 -41.5963 -41.5956  -5.2231  -1.3252   1.5950   1.9466
     3.3117   4.0357   4.3770   5.2992   6.3555   7.9345

          k =-0.1621-0.2702 0.5483 (  9388 PWs)   bands (ev):

   -41.6161 -41.6072 -41.5993 -41.5984  -4.4937  -3.0143   1.8233   2.4712
     2.5837   3.4047   5.4571   6.1419   6.2606   8.9702

          k = 0.7026-0.2702-0.5483 (  9392 PWs)   bands (ev):

   -41.6113 -41.6084 -41.6022 -41.5991  -4.2890  -3.2355   1.1320   2.3604
     2.4858   4.1043   5.6239   6.0085   7.4927   8.3934

          k = 0.4864-0.2702-0.2741 (  9401 PWs)   bands (ev):

   -41.6180 -41.6067 -41.6005 -41.5957  -5.1034  -1.4739   0.6426   2.1684
     3.1565   3.6270   5.1051   5.9816   7.3069   7.9845

          k = 0.0540-0.0000 0.6168 (  9409 PWs)   bands (ev):

   -41.6159 -41.6065 -41.5993 -41.5993  -4.3155  -3.2755   2.0525   2.0565
     3.4434   3.4791   4.3430   5.3958   6.9626   8.2012

          k =-0.1621-0.0000 0.8909 (  9385 PWs)   bands (ev):

   -41.6085 -41.6077 -41.6028 -41.6019  -4.3974  -3.0012   1.3110   1.3479
     3.5626   4.2433   4.7014   5.0914   6.6662   9.6169

          k = 0.7026 0.0000-0.2056 (  9378 PWs)   bands (ev):

   -41.6147 -41.6069 -41.6002 -41.5991  -5.1020  -1.1518   0.8810   1.0625
     2.3759   3.9993   5.1512   5.9045   7.6692   8.9520

          k = 0.4864 0.0000 0.0685 (  9410 PWs)   bands (ev):

   -41.6204 -41.6073 -41.5970 -41.5963  -5.3443   0.0441   1.0396   1.1102
     1.4768   4.8990   5.5603   6.1202   6.6142   7.3726

          k = 0.2702-0.8107-0.6853 (  9388 PWs)   bands (ev):

   -41.6122 -41.6084 -41.6003 -41.6000  -3.9299  -3.7065   1.5986   2.1611
     2.5876   3.6644   5.4502   6.8267   7.5097   7.5496

          k = 0.0540-0.8107-0.4112 (  9368 PWs)   bands (ev):

   -41.6104 -41.6072 -41.6027 -41.6006  -4.6383  -2.5624   1.1104   1.3485
     3.5770   4.2262   4.4894   5.1103   7.3190   9.9502

          k =-0.1621-0.8107-0.1371 (  9381 PWs)   bands (ev):

   -41.6133 -41.6065 -41.6024 -41.5988  -5.1413  -0.6978   0.5398   1.1706
     1.7002   3.7817   5.7349   6.2426   7.4103   9.2902

          k = 0.7026-0.8107-1.2336 (  9380 PWs)   bands (ev):

   -41.6160 -41.6065 -41.6020 -41.5964  -5.2001  -0.6061   0.3742   1.6152
     1.7715   4.2218   5.4884   6.2174   7.1322   8.3200

          k = 0.4864-0.8107-0.9595 (  9402 PWs)   bands (ev):

   -41.6160 -41.6067 -41.6012 -41.5970  -4.8019  -2.3598   0.8956   2.4346
     2.8623   4.3911   4.5710   6.1936   7.2370   8.6051

          k = 0.2702-0.5405-0.3427 (  9398 PWs)   bands (ev):

   -41.6163 -41.6065 -41.6016 -41.5966  -4.9451  -1.9588   0.7000   2.2112
     3.2223   3.8542   4.8288   6.0293   7.4310   8.3724

          k = 0.0540-0.5405-0.0685 (  9410 PWs)   bands (ev):

   -41.6192 -41.6072 -41.5979 -41.5966  -5.3136  -0.0034   0.8666   1.1084
     1.4422   4.7010   5.6555   6.2530   6.6636   7.6233

          k =-0.1621-0.5405 0.2056 (  9390 PWs)   bands (ev):

   -41.6182 -41.6070 -41.5996 -41.5962  -5.1905  -1.0274   0.7218   1.6873
     2.4878   4.2104   5.1005   5.8940   7.4345   7.9689

          k = 0.7026-0.5405-0.8909 (  9399 PWs)   bands (ev):

   -41.6140 -41.6067 -41.6026 -41.5977  -4.5792  -2.7826   0.8446   2.3656
     2.7932   4.4160   5.2363   6.5833   7.2522   8.3598

          k = 0.4864-0.5405-0.6168 (  9393 PWs)   bands (ev):

   -41.6114 -41.6087 -41.6014 -41.5994  -4.0952  -3.4955   1.1686   1.6778
     3.3677   3.9208   6.5781   7.1184   7.4750   7.9097

          k =-0.5405 0.5405-0.0000 (  9398 PWs)   bands (ev):

   -41.6185 -41.6068 -41.6016 -41.5941  -5.3176   0.1330   0.4821   0.7499
     2.2354   5.0846   5.2188   6.5980   6.8838   7.0326

          k =-0.7566 0.5405 0.2741 (  9396 PWs)   bands (ev):

   -41.6171 -41.6063 -41.6017 -41.5957  -5.0793  -1.4994   0.4973   2.2153
     3.1155   3.5681   5.3291   6.0475   7.3198   7.9590

          k =-0.9728 0.5405 0.5483 (  9391 PWs)   bands (ev):

   -41.6130 -41.6083 -41.6006 -41.5990  -4.3626  -3.1659   1.5518   2.1999
     2.6729   3.3251   5.9947   6.2125   7.0480   8.6502

          k =-0.7566 0.8107 0.6168 (  9394 PWs)   bands (ev):

   -41.6134 -41.6080 -41.6001 -41.5994  -4.1935  -3.4084   1.6544   1.9772
     2.8771   3.4971   5.7564   6.8013   6.8786   8.2611

          k =-0.9728 0.8107 0.8909 (  9380 PWs)   bands (ev):

   -41.6099 -41.6080 -41.6027 -41.6003  -4.4449  -2.9516   1.1845   1.6203
     3.3117   4.1578   4.9858   5.1420   7.1341   9.4915

          k =-0.1081 0.8107-0.2056 (  9373 PWs)   bands (ev):

   -41.6125 -41.6064 -41.6024 -41.5997  -5.0567  -1.2069   0.6829   1.1204
     2.3181   3.7109   5.4063   5.9233   7.6778   9.3689

          k =-0.3243 0.8107 0.0685 (  9372 PWs)   bands (ev):

   -41.6154 -41.6067 -41.6021 -41.5968  -5.2277  -0.1236   0.3505   1.1480
     1.4828   4.1814   5.8452   6.4527   6.7601   8.6327

          k =-0.7566-0.0000-0.4112 (  9384 PWs)   bands (ev):

   -41.6113 -41.6073 -41.6021 -41.6002  -4.6622  -2.5369   1.1980   1.3334
     3.6397   4.0531   4.4767   5.2521   7.4700   9.8097

          k =-0.9728-0.0000-0.1371 (  9372 PWs)   bands (ev):

   -41.6085 -41.6064 -41.6037 -41.6023  -5.0768  -0.7859   0.7528   0.7747
     1.6348   3.2459   6.1960   6.2736   7.7231   9.6740

     the Fermi energy is     4.4614 ev

!    total energy              =     -74.48287184 Ry
     estimated scf accuracy    <          6.2E-09 Ry
     smearing contrib. (-TS)   =       0.00073550 Ry
     internal energy E=F+TS    =     -74.48360733 Ry

     The total energy is F=E-TS. E is the sum of the following terms:
     one-electron contribution =     -28.86028466 Ry
     hartree contribution      =      14.42016531 Ry
     xc contribution           =     -19.83623325 Ry
     ewald contribution        =     -40.20725473 Ry

     convergence has been achieved in   8 iterations

     Forces acting on atoms (cartesian axes, Ry/au):

     atom    1 type  1   force =     0.00000000    0.00000000   -0.00000000
     atom    2 type  1   force =    -0.00000000    0.00000000    0.00000000
     atom    3 type  2   force =    -0.00658562    0.00658562   -0.00000000
     atom    4 type  2   force =     0.00658562   -0.00658562    0.00000000
     atom    5 type  2   force =    -0.00658562   -0.00658562   -0.00000000
     atom    6 type  2   force =     0.00658562    0.00658562    0.00000000
     The non-local contrib.  to forces
     atom    1 type  1   force =    -0.00000000    0.00000000    0.00000000
     atom    2 type  1   force =    -0.00000000    0.00000000    0.00000000
     atom    3 type  2   force =    -0.03326621    0.03326621    0.00000000
     atom    4 type  2   force =     0.03326621   -0.03326621   -0.00000000
     atom    5 type  2   force =    -0.03326621   -0.03326621    0.00000000
     atom    6 type  2   force =     0.03326621    0.03326621    0.00000000
     The ionic contribution  to forces
     atom    1 type  1   force =    -0.00000000    0.00000000   -0.00000000
     atom    2 type  1   force =     0.00000000   -0.00000000    0.00000000
     atom    3 type  2   force =    -0.32639453    0.32639453    0.00000000
     atom    4 type  2   force =     0.32639453   -0.32639453    0.00000000
     atom    5 type  2   force =    -0.32639453   -0.32639453    0.00000000
     atom    6 type  2   force =     0.32639453    0.32639453    0.00000000
     The local contribution  to forces
     atom    1 type  1   force =    -0.00000000   -0.00000000    0.00000000
     atom    2 type  1   force =    -0.00000000    0.00000000   -0.00000000
     atom    3 type  2   force =     0.35310600   -0.35310600    0.00000000
     atom    4 type  2   force =    -0.35310600    0.35310600   -0.00000000
     atom    5 type  2   force =     0.35310600    0.35310600    0.00000000
     atom    6 type  2   force =    -0.35310600   -0.35310600   -0.00000000
     The core correction contribution to forces
     atom    1 type  1   force =    -0.00000000   -0.00000000    0.00000000
     atom    2 type  1   force =    -0.00000000    0.00000000   -0.00000000
     atom    3 type  2   force =     0.00000000    0.00000000    0.00000000
     atom    4 type  2   force =     0.00000000    0.00000000    0.00000000
     atom    5 type  2   force =     0.00000000    0.00000000    0.00000000
     atom    6 type  2   force =     0.00000000    0.00000000    0.00000000
     The Hubbard contrib.    to forces
     atom    1 type  1   force =     0.00000000    0.00000000    0.00000000
     atom    2 type  1   force =     0.00000000    0.00000000    0.00000000
     atom    3 type  2   force =     0.00000000    0.00000000    0.00000000
     atom    4 type  2   force =     0.00000000    0.00000000    0.00000000
     atom    5 type  2   force =     0.00000000    0.00000000    0.00000000
     atom    6 type  2   force =     0.00000000    0.00000000    0.00000000
     The SCF correction term to forces
     atom    1 type  1   force =    -0.00000000   -0.00000000    0.00000000
     atom    2 type  1   force =     0.00000000    0.00000000    0.00000000
     atom    3 type  2   force =    -0.00003088    0.00003088   -0.00000000
     atom    4 type  2   force =     0.00003088   -0.00003088    0.00000000
     atom    5 type  2   force =    -0.00003088   -0.00003088   -0.00000000
     atom    6 type  2   force =     0.00003088    0.00003088    0.00000000

     Total force =     0.018627     Total SCF correction =     0.000087


     Computing stress (Cartesian axis) and pressure

          total   stress  (Ry/bohr**3)                   (kbar)     P=       95.92
   0.00096463  -0.00000000   0.00000000          141.90       -0.00        0.00
  -0.00000000   0.00096463  -0.00000000           -0.00      141.90       -0.00
   0.00000000   0.00000000   0.00002694            0.00        0.00        3.96

     Energy error            =      5.5E-01 Ry
     Gradient error          =      6.6E-03 Ry/Bohr
     Cell gradient error     =      5.0E+02 kbar

     number of scf cycles    =   2
     number of bfgs steps    =   1

     enthalpy           old  =     -71.8740438705 Ry
     enthalpy           new  =     -72.4241056893 Ry

     CASE: enthalpy          _new < enthalpy          _old

     new trust radius        =       0.7272264595 bohr
ibrav =      7
 celldm(1) =     10.35938904
 celldm(3) =      0.74857900
Input lattice vectors:
     0.41530459    -0.41530459     0.31088830
     0.41530459     0.41530459     0.31088830
    -0.41530459    -0.41530459     0.31088830
New lattice vectors in INITIAL alat:
     0.41530459    -0.41530459     0.31088830
     0.41530459     0.41530459     0.31088830
    -0.41530459    -0.41530459     0.31088830
New lattice vectors in NEW alat (for information only):
     0.50000000    -0.50000000     0.37428950
     0.50000000     0.50000000     0.37428950
    -0.50000000    -0.50000000     0.37428950
Discrepancy in bohr =     0.000000    0.000000    0.000000
     new conv_thr            =       0.0000000007 Ry

     new unit-cell volume =    416.11184 a.u.^3 (    61.66141 Ang^3 )
     density =      2.26037 g/cm^3

CELL_PARAMETERS (alat= 12.47203771)
   0.415304591  -0.415304591   0.310888297
   0.415304591   0.415304591   0.310888297
  -0.415304591  -0.415304591   0.310888297

ATOMIC_POSITIONS (crystal)
Si           -0.0000000000        0.0000000000        0.0000000000
Si            0.0000000000        0.5000000000        0.5000000000
Li           -0.1834886116        0.8417443058        0.3417443058
Li            0.1834886116        1.1582556942       -0.3417443058
Li            0.5000000000        0.6582556942       -0.1582556942
Li           -0.5000000000        1.3417443058        0.1582556942



     Writing config-only to output data dir ./output/SiLi.save/
     NEW-OLD atomic charge density approx. for the potential

     negative rho (up, down):  1.082E-04 0.000E+00
     extrapolated charge   10.89603, renormalised to   20.00000

     total cpu time spent up to now is       36.8 secs

     Self-consistent Calculation

     iteration #  1     ecut=    80.00 Ry     beta= 0.70
     Davidson diagonalization with overlap
     c_bands:  1 eigenvalues not converged
     c_bands:  1 eigenvalues not converged
     c_bands:  1 eigenvalues not converged
     c_bands:  1 eigenvalues not converged
     c_bands:  1 eigenvalues not converged
     c_bands:  1 eigenvalues not converged
     c_bands:  1 eigenvalues not converged
     c_bands:  1 eigenvalues not converged
     ethr =  1.00E-06,  avg # of iterations = 14.5

     total cpu time spent up to now is       40.6 secs

     total energy              =     -73.49551228 Ry
     estimated scf accuracy    <       0.89934432 Ry

     iteration #  2     ecut=    80.00 Ry     beta= 0.70
     Davidson diagonalization with overlap
     ethr =  4.50E-03,  avg # of iterations =  2.4

     total cpu time spent up to now is       42.1 secs

     total energy              =     -74.10933141 Ry
     estimated scf accuracy    <       0.38369689 Ry

     iteration #  3     ecut=    80.00 Ry     beta= 0.70
     Davidson diagonalization with overlap
     ethr =  1.92E-03,  avg # of iterations =  2.0

     total cpu time spent up to now is       43.2 secs

     total energy              =     -74.15933143 Ry
     estimated scf accuracy    <       0.00843508 Ry

     iteration #  4     ecut=    80.00 Ry     beta= 0.70
     Davidson diagonalization with overlap
     ethr =  4.22E-05,  avg # of iterations =  4.9

     total cpu time spent up to now is       44.6 secs

     total energy              =     -74.15995584 Ry
     estimated scf accuracy    <       0.00085579 Ry

     iteration #  5     ecut=    80.00 Ry     beta= 0.70
     Davidson diagonalization with overlap
     ethr =  4.28E-06,  avg # of iterations =  3.8

     total cpu time spent up to now is       45.9 secs

     total energy              =     -74.16006716 Ry
     estimated scf accuracy    <       0.00000825 Ry

     iteration #  6     ecut=    80.00 Ry     beta= 0.70
     Davidson diagonalization with overlap
     ethr =  4.13E-08,  avg # of iterations =  3.6

     total cpu time spent up to now is       47.4 secs

     total energy              =     -74.16007083 Ry
     estimated scf accuracy    <       0.00000083 Ry

     iteration #  7     ecut=    80.00 Ry     beta= 0.70
     Davidson diagonalization with overlap
     ethr =  4.16E-09,  avg # of iterations =  2.1

     total cpu time spent up to now is       48.6 secs

     total energy              =     -74.16007101 Ry
     estimated scf accuracy    <          6.8E-09 Ry

     iteration #  8     ecut=    80.00 Ry     beta= 0.70
     Davidson diagonalization with overlap
     c_bands:  1 eigenvalues not converged
     ethr =  3.42E-11,  avg # of iterations =  4.5

     total cpu time spent up to now is       50.2 secs

     End of self-consistent calculation

          k = 0.0000 0.0000 0.0000 (  9407 PWs)   bands (ev):

   -38.4484 -38.3634 -38.3178 -38.3178  -4.2150   3.0020   3.9573   3.9573
     5.7302   7.6490   8.2238   9.1680   9.1680  10.4837

          k =-0.2408-0.0000 0.3217 (  9404 PWs)   bands (ev):

   -38.4333 -38.3640 -38.3252 -38.3246  -3.8743   1.1583   3.9092   4.0125
     6.9177   7.2884   7.8543   8.3749   8.8578  12.1570

          k =-0.4816-0.0000 0.6433 (  9402 PWs)   bands (ev):

   -38.3973 -38.3667 -38.3434 -38.3392  -2.8441  -1.1283   4.1294   4.3723
     5.2126   5.5648   9.6902   9.6966  11.0416  12.7300

          k =-0.0000 0.3010 0.4021 (  9389 PWs)   bands (ev):

   -38.4255 -38.3640 -38.3294 -38.3280  -3.6818   0.5506   3.9193   4.0672
     6.4050   6.7914   8.5941   8.7160   9.1000  12.4416

          k =-0.2408 0.3010 0.7237 (  9387 PWs)   bands (ev):

   -38.3940 -38.3668 -38.3439 -38.3418  -2.5812  -1.4820   3.9325   4.5662
     4.9412   6.2137   8.3452  10.1032  11.6780  13.3032

          k =-0.4816 0.3010 1.0454 (  9390 PWs)   bands (ev):

   -38.3909 -38.3636 -38.3549 -38.3371  -3.0057  -0.8268   3.0028   4.5755
     5.0981   7.2940   8.8603  10.0996  11.3935  12.4140

          k = 0.4816 0.3010-0.2412 (  9396 PWs)   bands (ev):

   -38.4211 -38.3680 -38.3354 -38.3224  -3.8955   1.4450   2.6062   4.2605
     6.7186   6.9357   8.7491   9.0703  10.6907  11.5730

          k = 0.2408 0.3010 0.0804 (  9400 PWs)   bands (ev):

   -38.4365 -38.3662 -38.3260 -38.3186  -4.1201   2.5616   2.9753   4.0728
     5.9104   7.9012   8.4655   9.5576   9.7705  10.5235

          k = 0.0000-0.6020-0.8041 (  9410 PWs)   bands (ev):

   -38.3786 -38.3786 -38.3446 -38.3446  -2.0692  -2.0692   4.4093   4.4093
     5.0429   5.0429   9.9173   9.9173  12.3239  12.3239

          k =-0.2408-0.6020-0.4825 (  9397 PWs)   bands (ev):

   -38.4022 -38.3648 -38.3467 -38.3330  -3.3161  -0.2577   2.9929   4.4107
     5.5315   7.2496   9.0335   9.4663  10.9421  12.8718

          k =-0.4816-0.6020-0.1608 (  9390 PWs)   bands (ev):

   -38.4146 -38.3732 -38.3388 -38.3203  -3.9497   1.8731   2.1581   4.3511
     6.0637   7.0732   8.9691  10.1572  10.5896  11.5865

          k = 0.3010-0.3010 0.0000 (  9411 PWs)   bands (ev):

   -38.4349 -38.3670 -38.3271 -38.3182  -4.1263   2.7033   2.8156   4.0757
     5.7035   8.1351   8.3495   9.8501  10.1820  10.4642

          k = 0.0602-0.3010 0.3217 (  9401 PWs)   bands (ev):

   -38.4307 -38.3643 -38.3271 -38.3249  -3.8534   1.1035   3.6810   4.0359
     6.8234   7.3464   7.8276   8.5639   9.3096  12.0403

          k =-0.1806-0.3010 0.6433 (  9388 PWs)   bands (ev):

   -38.4029 -38.3648 -38.3414 -38.3375  -2.9185  -1.0134   3.9661   4.8274
     4.9120   6.1399   8.4003   9.7066  11.0270  13.1078

          k = 0.7826-0.3010-0.6433 (  9392 PWs)   bands (ev):

   -38.3835 -38.3681 -38.3543 -38.3407  -2.6814  -1.3240   3.2233   4.6566
     4.8518   6.9942   8.6762  10.7242  11.6311  12.2114

          k = 0.5418-0.3010-0.3217 (  9401 PWs)   bands (ev):

   -38.4142 -38.3674 -38.3398 -38.3255  -3.7351   0.8533   2.6314   4.3245
     6.2611   7.5670   8.3861   9.2231  10.7652  12.3461

          k = 0.0602 0.0000 0.7237 (  9409 PWs)   bands (ev):

   -38.4007 -38.3631 -38.3414 -38.3414  -2.6806  -1.3386   4.1806   4.1898
     6.1342   6.2804   6.8368   8.8558  11.9990  12.9314

          k =-0.1806-0.0000 1.0454 (  9385 PWs)   bands (ev):

   -38.3713 -38.3668 -38.3566 -38.3516  -2.8319  -1.0451   3.3714   3.3814
     5.9163   7.3333   7.8622   9.8638  10.7162  13.9088

          k = 0.7826-0.0000-0.2412 (  9378 PWs)   bands (ev):

   -38.4023 -38.3690 -38.3394 -38.3359  -3.7576   1.1119   2.9013   3.0202
     6.4944   6.8667   8.5081   9.5409  12.0894  12.9473

          k = 0.5418-0.0000 0.0804 (  9410 PWs)   bands (ev):

   -38.4257 -38.3678 -38.3277 -38.3258  -4.0431   2.2915   3.0881   3.2272
     5.8682   7.7566   8.8810   9.7158  10.2503  10.7078

          k = 0.3010-0.9030-0.8041 (  9388 PWs)   bands (ev):

   -38.3851 -38.3706 -38.3462 -38.3446  -2.2025  -1.9178   3.7531   4.4789
     4.9161   6.4256   8.3778  10.5034  12.0989  12.7724

          k = 0.0602-0.9030-0.4825 (  9368 PWs)   bands (ev):

   -38.3829 -38.3648 -38.3528 -38.3460  -3.1495  -0.5069   3.1485   3.3948
     5.9695   7.4137   8.4073   9.1712  11.4118  14.1433

          k =-0.1806-0.9030-0.1608 (  9381 PWs)   bands (ev):

   -38.3962 -38.3725 -38.3446 -38.3334  -3.8209   1.5059   2.4760   3.1603
     6.0030   6.4363   9.1885  10.3640  11.8852  13.1529

          k = 0.7826-0.9030-1.4475 (  9380 PWs)   bands (ev):

   -38.4063 -38.3728 -38.3408 -38.3269  -3.8858   1.6706   2.3112   3.6800
     6.0365   6.9996   8.5623  10.2777  11.7522  11.9852

          k = 0.5418-0.9030-1.1258 (  9402 PWs)   bands (ev):

   -38.4045 -38.3646 -38.3463 -38.3313  -3.3404  -0.2126   2.9372   4.6797
     5.3691   7.3789   9.0809   9.5300  10.6571  12.8111

          k = 0.3010-0.6020-0.4021 (  9398 PWs)   bands (ev):

   -38.4066 -38.3661 -38.3448 -38.3292  -3.5332   0.2684   2.7057   4.3969
     5.8182   7.9026   8.3850   9.3219  10.8983  12.9244

          k = 0.0602-0.6020-0.0804 (  9410 PWs)   bands (ev):

   -38.4210 -38.3687 -38.3307 -38.3266  -4.0127   2.2030   2.8759   3.2490
     5.8402   7.4659   8.9806   9.9434  10.5675  11.0054

          k =-0.1806-0.6020 0.2412 (  9390 PWs)   bands (ev):

   -38.4158 -38.3682 -38.3361 -38.3268  -3.8525   1.3253   2.7099   3.7625
     6.7491   7.1127   8.2236   9.3104  11.3582  11.8127

          k = 0.7826-0.6020-1.0454 (  9399 PWs)   bands (ev):

   -38.3951 -38.3628 -38.3543 -38.3344  -3.0568  -0.7457   2.8952   4.7440
     5.1546   7.4243   9.4355  10.1195  10.7181  12.4112

          k = 0.5418-0.6020-0.7237 (  9393 PWs)   bands (ev):

   -38.3827 -38.3704 -38.3510 -38.3423  -2.4277  -1.6530   3.2945   3.9137
     5.9311   6.7186  10.1252  10.2888  11.3335  12.0396

          k =-0.6020 0.6020-0.0000 (  9398 PWs)   bands (ev):

   -38.4160 -38.3752 -38.3372 -38.3185  -4.0293   2.0526   2.4536   4.3449
     5.3682   7.8525   8.4088  10.1831  11.3589  11.5353

          k =-0.8428 0.6020 0.3217 (  9396 PWs)   bands (ev):

   -38.4102 -38.3684 -38.3426 -38.3256  -3.7113   0.8122   2.4706   4.3801
     6.1650   7.4991   8.7126   9.3209  10.7735  12.5985

          k =-1.0835 0.6020 0.6433 (  9391 PWs)   bands (ev):

   -38.3911 -38.3682 -38.3471 -38.3401  -2.7673  -1.2285   3.7154   4.4206
     5.1583   5.9358   9.4857  10.3689  11.1070  12.7528

          k =-0.8428 0.9030 0.7237 (  9394 PWs)   bands (ev):

   -38.3912 -38.3681 -38.3453 -38.3419  -2.5413  -1.5314   3.8084   4.2859
     5.2601   6.2108   8.7471  10.4981  11.4448  13.0803

          k =-1.0835 0.9030 1.0454 (  9380 PWs)   bands (ev):

   -38.3797 -38.3659 -38.3556 -38.3451  -2.8914  -0.9786   3.2425   3.7263
     5.7384   7.1271   8.1293   9.9528  11.2431  13.7501

          k =-0.1204 0.9030-0.2412 (  9373 PWs)   bands (ev):

   -38.3930 -38.3704 -38.3459 -38.3372  -3.7088   1.0210   2.6382   3.1081
     6.1016   6.8626   8.8528   9.7370  12.0798  13.5039

          k =-0.3612 0.9030 0.0804 (  9372 PWs)   bands (ev):

   -38.4043 -38.3742 -38.3408 -38.3274  -3.9273   1.9891   2.2758   3.5045
     5.6226   6.8700   8.9144  10.8367  11.4175  12.4013

          k =-0.8428 0.0000-0.4825 (  9384 PWs)   bands (ev):

   -38.3869 -38.3652 -38.3501 -38.3442  -3.1776  -0.4709   3.2864   3.3542
     6.0432   7.1568   8.5511   9.1836  11.6124  13.9803

          k =-1.0835 0.0000-0.1608 (  9372 PWs)   bands (ev):

   -38.3789 -38.3723 -38.3572 -38.3380  -3.7491   1.3530   2.6862   2.7005
     5.6099   6.1906  10.2593  10.4486  11.7915  13.5416

     the Fermi energy is     7.8983 ev

!    total energy              =     -74.16007101 Ry
     estimated scf accuracy    <          4.7E-10 Ry
     smearing contrib. (-TS)   =      -0.00000589 Ry
     internal energy E=F+TS    =     -74.16006512 Ry

     The total energy is F=E-TS. E is the sum of the following terms:
     one-electron contribution =     -20.89286366 Ry
     hartree contribution      =      12.88902094 Ry
     xc contribution           =     -20.56252038 Ry
     ewald contribution        =     -45.59370202 Ry

     convergence has been achieved in   8 iterations

     Forces acting on atoms (cartesian axes, Ry/au):

     atom    1 type  1   force =     0.00000000   -0.00000000   -0.00000000
     atom    2 type  1   force =    -0.00000000    0.00000000   -0.00000000
     atom    3 type  2   force =    -0.02766578    0.02766578   -0.00000000
     atom    4 type  2   force =     0.02766578   -0.02766578    0.00000000
     atom    5 type  2   force =    -0.02766578   -0.02766578   -0.00000000
     atom    6 type  2   force =     0.02766578    0.02766578   -0.00000000
     The non-local contrib.  to forces
     atom    1 type  1   force =     0.00000000    0.00000000    0.00000000
     atom    2 type  1   force =     0.00000000    0.00000000    0.00000000
     atom    3 type  2   force =    -0.02630636    0.02630636   -0.00000000
     atom    4 type  2   force =     0.02630636   -0.02630636    0.00000000
     atom    5 type  2   force =    -0.02630636   -0.02630636   -0.00000000
     atom    6 type  2   force =     0.02630636    0.02630636   -0.00000000
     The ionic contribution  to forces
     atom    1 type  1   force =    -0.00000000    0.00000000   -0.00000000
     atom    2 type  1   force =     0.00000000    0.00000000   -0.00000000
     atom    3 type  2   force =    -0.41703602    0.41703602    0.00000000
     atom    4 type  2   force =     0.41703602   -0.41703602    0.00000000
     atom    5 type  2   force =    -0.41703602   -0.41703602   -0.00000000
     atom    6 type  2   force =     0.41703602    0.41703602   -0.00000000
     The local contribution  to forces
     atom    1 type  1   force =    -0.00000000   -0.00000000    0.00000000
     atom    2 type  1   force =    -0.00000000   -0.00000000   -0.00000000
     atom    3 type  2   force =     0.41567304   -0.41567304    0.00000000
     atom    4 type  2   force =    -0.41567304    0.41567304    0.00000000
     atom    5 type  2   force =     0.41567304    0.41567304    0.00000000
     atom    6 type  2   force =    -0.41567304   -0.41567304   -0.00000000
     The core correction contribution to forces
     atom    1 type  1   force =    -0.00000000   -0.00000000    0.00000000
     atom    2 type  1   force =    -0.00000000   -0.00000000    0.00000000
     atom    3 type  2   force =     0.00000000    0.00000000    0.00000000
     atom    4 type  2   force =     0.00000000    0.00000000    0.00000000
     atom    5 type  2   force =     0.00000000    0.00000000    0.00000000
     atom    6 type  2   force =     0.00000000    0.00000000    0.00000000
     The Hubbard contrib.    to forces
     atom    1 type  1   force =     0.00000000    0.00000000    0.00000000
     atom    2 type  1   force =     0.00000000    0.00000000    0.00000000
     atom    3 type  2   force =     0.00000000    0.00000000    0.00000000
     atom    4 type  2   force =     0.00000000    0.00000000    0.00000000
     atom    5 type  2   force =     0.00000000    0.00000000    0.00000000
     atom    6 type  2   force =     0.00000000    0.00000000    0.00000000
     The SCF correction term to forces
     atom    1 type  1   force =     0.00000000    0.00000000    0.00000000
     atom    2 type  1   force =     0.00000000   -0.00000000   -0.00000000
     atom    3 type  2   force =     0.00000355   -0.00000355    0.00000000
     atom    4 type  2   force =    -0.00000355    0.00000355   -0.00000000
     atom    5 type  2   force =     0.00000355    0.00000355    0.00000000
     atom    6 type  2   force =    -0.00000355   -0.00000355   -0.00000000

     Total force =     0.078251     Total SCF correction =     0.000010


     Computing stress (Cartesian axis) and pressure

          total   stress  (Ry/bohr**3)                   (kbar)     P=      534.07
   0.00358990   0.00000000   0.00000000          528.09        0.00        0.00
   0.00000000   0.00358990  -0.00000000            0.00      528.09       -0.00
   0.00000000  -0.00000000   0.00371189            0.00       -0.00      546.04

     Energy error            =      3.2E-01 Ry
     Gradient error          =      2.8E-02 Ry/Bohr
     Cell gradient error     =      4.6E+01 kbar

     number of scf cycles    =   3
     number of bfgs steps    =   2

     enthalpy           old  =     -72.4241056893 Ry
     enthalpy           new  =     -72.7457356057 Ry

     CASE: enthalpy          _new < enthalpy          _old

     new trust radius        =       0.0419351354 bohr
ibrav =      7
 celldm(1) =     10.41956000
 celldm(3) =      0.75190617
Input lattice vectors:
     0.41771683    -0.41771683     0.31408386
     0.41771683     0.41771683     0.31408386
    -0.41771683    -0.41771683     0.31408386
New lattice vectors in INITIAL alat:
     0.41771683    -0.41771683     0.31408386
     0.41771683     0.41771683     0.31408386
    -0.41771683    -0.41771683     0.31408386
New lattice vectors in NEW alat (for information only):
     0.50000000    -0.50000000     0.37595309
     0.50000000     0.50000000     0.37595309
    -0.50000000    -0.50000000     0.37595309
Discrepancy in bohr =     0.000000    0.000000    0.000000
     new conv_thr            =       0.0000000028 Ry

     new unit-cell volume =    425.28669 a.u.^3 (    63.02099 Ang^3 )
     density =      2.21160 g/cm^3

CELL_PARAMETERS (alat= 12.47203771)
   0.417716825  -0.417716825   0.314083860
   0.417716825   0.417716825   0.314083860
  -0.417716825  -0.417716825   0.314083860

ATOMIC_POSITIONS (crystal)
Si            0.0000000000       -0.0000000000       -0.0000000000
Si           -0.0000000000        0.5000000000        0.5000000000
Li           -0.1868945371        0.8434472685        0.3434472685
Li            0.1868945371        1.1565527315       -0.3434472685
Li            0.5000000000        0.6565527315       -0.1565527315
Li           -0.5000000000        1.3434472685        0.1565527315



     Writing config-only to output data dir ./output/SiLi.save/
     NEW-OLD atomic charge density approx. for the potential
     extrapolated charge   20.43105, renormalised to   20.00000

     total cpu time spent up to now is       54.0 secs

     Self-consistent Calculation

     iteration #  1     ecut=    80.00 Ry     beta= 0.70
     Davidson diagonalization with overlap
     ethr =  1.00E-06,  avg # of iterations =  6.1

     total cpu time spent up to now is       56.1 secs

     total energy              =     -74.19378120 Ry
     estimated scf accuracy    <       0.00098528 Ry

     iteration #  2     ecut=    80.00 Ry     beta= 0.70
     Davidson diagonalization with overlap
     ethr =  4.93E-06,  avg # of iterations =  3.5

     total cpu time spent up to now is       57.6 secs

     total energy              =     -74.19562374 Ry
     estimated scf accuracy    <       0.00172711 Ry

     iteration #  3     ecut=    80.00 Ry     beta= 0.70
     Davidson diagonalization with overlap
     ethr =  4.93E-06,  avg # of iterations =  1.9

     total cpu time spent up to now is       58.8 secs

     total energy              =     -74.19570071 Ry
     estimated scf accuracy    <       0.00023684 Ry

     iteration #  4     ecut=    80.00 Ry     beta= 0.70
     Davidson diagonalization with overlap
     ethr =  1.18E-06,  avg # of iterations =  1.2

     total cpu time spent up to now is       59.8 secs

     total energy              =     -74.19565599 Ry
     estimated scf accuracy    <       0.00009871 Ry

     iteration #  5     ecut=    80.00 Ry     beta= 0.70
     Davidson diagonalization with overlap
     ethr =  4.94E-07,  avg # of iterations =  2.1

     total cpu time spent up to now is       61.0 secs

     total energy              =     -74.19567259 Ry
     estimated scf accuracy    <       0.00000043 Ry

     iteration #  6     ecut=    80.00 Ry     beta= 0.70
     Davidson diagonalization with overlap
     ethr =  2.17E-09,  avg # of iterations =  4.2

     total cpu time spent up to now is       62.4 secs

     total energy              =     -74.19567303 Ry
     estimated scf accuracy    <       0.00000013 Ry

     iteration #  7     ecut=    80.00 Ry     beta= 0.70
     Davidson diagonalization with overlap
     ethr =  6.64E-10,  avg # of iterations =  1.5

     total cpu time spent up to now is       63.6 secs

     total energy              =     -74.19567303 Ry
     estimated scf accuracy    <       0.00000001 Ry

     iteration #  8     ecut=    80.00 Ry     beta= 0.70
     Davidson diagonalization with overlap
     ethr =  5.11E-11,  avg # of iterations =  2.3

     total cpu time spent up to now is       64.8 secs

     End of self-consistent calculation

          k = 0.0000 0.0000 0.0000 (  9407 PWs)   bands (ev):

   -38.6467 -38.5669 -38.5249 -38.5249  -4.3045   2.8591   3.8549   3.8549
     5.4199   7.4271   8.0180   9.0138   9.0138  10.1505

          k =-0.2394-0.0000 0.3184 (  9404 PWs)   bands (ev):

   -38.6329 -38.5676 -38.5316 -38.5310  -3.9663   1.0120   3.7962   3.8966
     6.7307   7.0973   7.5491   8.1509   8.6589  11.8162

          k =-0.4788-0.0000 0.6368 (  9402 PWs)   bands (ev):

   -38.5999 -38.5718 -38.5471 -38.5437  -2.9455  -1.2488   3.9963   4.2326
     5.0520   5.3975   9.4579   9.4844  10.7098  12.4698

          k = 0.0000 0.2992 0.3980 (  9389 PWs)   bands (ev):

   -38.6258 -38.5680 -38.5352 -38.5339  -3.7755   0.4104   3.8017   3.9455
     6.2244   6.6055   8.2923   8.4898   8.8900  12.1047

          k =-0.2394 0.2992 0.7164 (  9387 PWs)   bands (ev):

   -38.5971 -38.5722 -38.5476 -38.5457  -2.6888  -1.5949   3.7919   4.4109
     4.7996   6.0551   8.1463   9.8521  11.3726  12.9775

          k =-0.4788 0.2992 1.0348 (  9390 PWs)   bands (ev):

   -38.5941 -38.5684 -38.5580 -38.5420  -3.0982  -0.9543   2.8613   4.4380
     4.9398   7.1215   8.6509   9.7814  11.1364  12.1122

          k = 0.4788 0.2992-0.2388 (  9396 PWs)   bands (ev):

   -38.6216 -38.5698 -38.5425 -38.5290  -3.9796   1.2995   2.4761   4.1462
     6.4987   6.6705   8.5399   8.8487  10.4532  11.2914

          k = 0.2394 0.2992 0.0796 (  9400 PWs)   bands (ev):

   -38.6357 -38.5687 -38.5332 -38.5256  -4.2056   2.4198   2.8536   3.9623
     5.6058   7.6979   8.2622   9.3385   9.5467  10.2470

          k =-0.0000-0.5985-0.7960 (  9410 PWs)   bands (ev):

   -38.5830 -38.5830 -38.5482 -38.5482  -2.1789  -2.1789   4.2659   4.2659
     4.8867   4.8867   9.6901   9.6901  12.0174  12.0174

          k =-0.2394-0.5985-0.4776 (  9397 PWs)   bands (ev):

   -38.6043 -38.5683 -38.5516 -38.5384  -3.4066  -0.3907   2.8561   4.2799
     5.3654   7.0707   8.7632   9.2029  10.6993  12.5591

          k =-0.4788-0.5985-0.1592 (  9390 PWs)   bands (ev):

   -38.6160 -38.5731 -38.5467 -38.5271  -4.0296   1.7306   2.0246   4.2400
     5.7700   6.8824   8.7487   9.9180  10.3376  11.3095

          k = 0.2992-0.2992 0.0000 (  9411 PWs)   bands (ev):

   -38.6343 -38.5692 -38.5344 -38.5252  -4.2107   2.5670   2.6921   3.9617
     5.3986   7.9156   8.1676   9.5930   9.9192  10.2063

          k = 0.0598-0.2992 0.3184 (  9401 PWs)   bands (ev):

   -38.6305 -38.5679 -38.5334 -38.5312  -3.9445   0.9579   3.5627   3.9196
     6.6377   7.1554   7.5212   8.3409   9.1079  11.7519

          k =-0.1795-0.2992 0.6368 (  9388 PWs)   bands (ev):

   -38.6052 -38.5699 -38.5455 -38.5420  -3.0221  -1.1330   3.8331   4.6879
     4.7560   5.9719   8.2004   9.4669  10.7074  12.7972

          k = 0.7780-0.2992-0.6368 (  9392 PWs)   bands (ev):

   -38.5874 -38.5735 -38.5566 -38.5450  -2.7780  -1.4460   3.0788   4.5121
     4.7005   6.8299   8.4739  10.4245  11.3178  11.9407

          k = 0.5386-0.2992-0.3184 (  9401 PWs)   bands (ev):

   -38.6153 -38.5693 -38.5465 -38.5317  -3.8203   0.7106   2.4987   4.2052
     6.0828   7.2702   8.1813   8.9992  10.5284  12.0522

          k = 0.0598-0.0000 0.7164 (  9409 PWs)   bands (ev):

   -38.6032 -38.5686 -38.5454 -38.5453  -2.7905  -1.4498   4.0401   4.0490
     5.9743   6.1157   6.6721   8.6081  11.6728  12.6112

          k =-0.1795-0.0000 1.0348 (  9385 PWs)   bands (ev):

   -38.5761 -38.5721 -38.5588 -38.5554  -2.9182  -1.1731   3.2243   3.2333
     5.7721   7.1518   7.6773   9.5576  10.3781  13.6236

          k = 0.7780-0.0000-0.2388 (  9378 PWs)   bands (ev):

   -38.6038 -38.5704 -38.5453 -38.5431  -3.8343   0.9717   2.7686   2.8790
     6.3367   6.5437   8.2948   9.3233  11.7718  12.6939

          k = 0.5386-0.0000 0.0796 (  9410 PWs)   bands (ev):

   -38.6256 -38.5698 -38.5344 -38.5332  -4.1242   2.1547   2.9682   3.0963
     5.5497   7.5701   8.6676   9.5068  10.0177  10.4802

          k = 0.2992-0.8977-0.7960 (  9388 PWs)   bands (ev):

   -38.5890 -38.5757 -38.5495 -38.5482  -2.3146  -2.0246   3.6059   4.3301
     4.7696   6.2709   8.1791  10.2420  11.8220  12.4034

          k = 0.0598-0.8977-0.4776 (  9368 PWs)   bands (ev):

   -38.5863 -38.5683 -38.5571 -38.5507  -3.2331  -0.6393   3.0044   3.2504
     5.8212   7.2253   8.2097   8.8375  11.1000  13.8838

          k =-0.1795-0.8977-0.1592 (  9381 PWs)   bands (ev):

   -38.5982 -38.5725 -38.5513 -38.5406  -3.8935   1.3699   2.3358   3.0222
     5.7499   6.2099   8.9679  10.1216  11.5645  12.9139

          k = 0.7780-0.8977-1.4327 (  9380 PWs)   bands (ev):

   -38.6079 -38.5728 -38.5484 -38.5336  -3.9622   1.5318   2.1747   3.5521
     5.7499   6.7975   8.3573  10.0380  11.4295  11.7453

          k = 0.5386-0.8977-1.1144 (  9402 PWs)   bands (ev):

   -38.6065 -38.5680 -38.5514 -38.5367  -3.4318  -0.3457   2.8014   4.5525
     5.2035   7.1980   8.7934   9.2868  10.4149  12.5499

          k = 0.2992-0.5985-0.3980 (  9398 PWs)   bands (ev):

   -38.6084 -38.5683 -38.5510 -38.5350  -3.6200   0.1302   2.5702   4.2717
     5.6470   7.6986   8.0986   9.0920  10.6609  12.6036

          k = 0.0598-0.5985-0.0796 (  9410 PWs)   bands (ev):

   -38.6212 -38.5704 -38.5375 -38.5338  -4.0920   2.0678   2.7487   3.1202
     5.5198   7.2857   8.7663   9.7287  10.3176  10.7729

          k =-0.1795-0.5985 0.2388 (  9390 PWs)   bands (ev):

   -38.6166 -38.5699 -38.5430 -38.5333  -3.9344   1.1819   2.5783   3.6374
     6.4898   6.8812   8.0228   9.0946  11.1315  11.5194

          k = 0.7780-0.5985-1.0348 (  9399 PWs)   bands (ev):

   -38.5981 -38.5673 -38.5578 -38.5394  -3.1511  -0.8730   2.7555   4.5845
     5.0244   7.2504   9.1871   9.8632  10.4579  12.1307

          k = 0.5386-0.5985-0.7164 (  9393 PWs)   bands (ev):

   -38.5869 -38.5757 -38.5537 -38.5461  -2.5315  -1.7681   3.1495   3.7619
     5.7919   6.5635   9.9030  10.0709  11.0482  11.7329

          k =-0.5985 0.5985-0.0000 (  9398 PWs)   bands (ev):

   -38.6173 -38.5747 -38.5454 -38.5255  -4.1079   1.9194   2.3223   4.2376
     5.0618   7.6657   8.1808   9.9401  11.0544  11.2067

          k =-0.8379 0.5985 0.3184 (  9396 PWs)   bands (ev):

   -38.6117 -38.5696 -38.5496 -38.5318  -3.7952   0.6699   2.3360   4.2604
     5.9876   7.2055   8.5023   9.0968  10.5350  12.2676

          k =-1.0773 0.5985 0.6368 (  9391 PWs)   bands (ev):

   -38.5942 -38.5733 -38.5504 -38.5445  -2.8665  -1.3498   3.5749   4.2803
     4.9995   5.7733   9.2649  10.1290  10.7769  12.4801

          k =-0.8379 0.8977 0.7164 (  9394 PWs)   bands (ev):

   -38.5945 -38.5734 -38.5488 -38.5458  -2.6479  -1.6450   3.6681   4.1304
     5.1187   6.0536   8.5409  10.2397  11.1576  12.7554

          k =-1.0773 0.8977 1.0348 (  9380 PWs)   bands (ev):

   -38.5837 -38.5710 -38.5581 -38.5495  -2.9799  -1.1064   3.0971   3.5814
     5.5884   6.9487   7.9378   9.6317  10.9174  13.4877

          k =-0.1197 0.8977-0.2388 (  9373 PWs)   bands (ev):

   -38.5953 -38.5709 -38.5522 -38.5442  -3.7828   0.8821   2.4971   2.9676
     5.9457   6.5421   8.6352   9.5130  11.7552  13.2482

          k =-0.3591 0.8977 0.0796 (  9372 PWs)   bands (ev):

   -38.6061 -38.5738 -38.5484 -38.5344  -4.0014   1.8574   2.1387   3.3743
     5.3173   6.6829   8.7077  10.5746  11.0996  12.1556

          k =-0.8379 0.0000-0.4776 (  9384 PWs)   bands (ev):

   -38.5900 -38.5689 -38.5544 -38.5492  -3.2624  -0.6033   3.1462   3.2089
     5.8925   6.9703   8.3500   8.8516  11.2979  13.7137

          k =-1.0773-0.0000-0.1592 (  9372 PWs)   bands (ev):

   -38.5811 -38.5723 -38.5630 -38.5460  -3.8174   1.2196   2.5405   2.5535
     5.4733   5.8564  10.0145  10.2030  11.4787  13.2873

     the Fermi energy is     7.6672 ev

!    total energy              =     -74.19567304 Ry
     estimated scf accuracy    <          9.7E-11 Ry
     smearing contrib. (-TS)   =       0.00035793 Ry
     internal energy E=F+TS    =     -74.19603097 Ry

     The total energy is F=E-TS. E is the sum of the following terms:
     one-electron contribution =     -21.29229192 Ry
     hartree contribution      =      12.92979066 Ry
     xc contribution           =     -20.51015669 Ry
     ewald contribution        =     -45.32337302 Ry

     convergence has been achieved in   8 iterations

     Forces acting on atoms (cartesian axes, Ry/au):

     atom    1 type  1   force =     0.00000000    0.00000000   -0.00000000
     atom    2 type  1   force =     0.00000000    0.00000000   -0.00000000
     atom    3 type  2   force =    -0.02377228    0.02377228    0.00000000
     atom    4 type  2   force =     0.02377228   -0.02377228   -0.00000000
     atom    5 type  2   force =    -0.02377228   -0.02377228    0.00000000
     atom    6 type  2   force =     0.02377228    0.02377228   -0.00000000
     The non-local contrib.  to forces
     atom    1 type  1   force =    -0.00000000    0.00000000    0.00000000
     atom    2 type  1   force =    -0.00000000    0.00000000    0.00000000
     atom    3 type  2   force =    -0.02746832    0.02746832    0.00000000
     atom    4 type  2   force =     0.02746832   -0.02746832   -0.00000000
     atom    5 type  2   force =    -0.02746832   -0.02746832    0.00000000
     atom    6 type  2   force =     0.02746832    0.02746832   -0.00000000
     The ionic contribution  to forces
     atom    1 type  1   force =    -0.00000000    0.00000000   -0.00000000
     atom    2 type  1   force =     0.00000000   -0.00000000    0.00000000
     atom    3 type  2   force =    -0.39271435    0.39271435    0.00000000
     atom    4 type  2   force =     0.39271435   -0.39271435    0.00000000
     atom    5 type  2   force =    -0.39271435   -0.39271435    0.00000000
     atom    6 type  2   force =     0.39271435    0.39271435   -0.00000000
     The local contribution  to forces
     atom    1 type  1   force =    -0.00000000   -0.00000000    0.00000000
     atom    2 type  1   force =    -0.00000000   -0.00000000   -0.00000000
     atom    3 type  2   force =     0.39640691   -0.39640691    0.00000000
     atom    4 type  2   force =    -0.39640691    0.39640691   -0.00000000
     atom    5 type  2   force =     0.39640691    0.39640691    0.00000000
     atom    6 type  2   force =    -0.39640691   -0.39640691   -0.00000000
     The core correction contribution to forces
     atom    1 type  1   force =    -0.00000000   -0.00000000    0.00000000
     atom    2 type  1   force =    -0.00000000   -0.00000000   -0.00000000
     atom    3 type  2   force =     0.00000000    0.00000000    0.00000000
     atom    4 type  2   force =     0.00000000    0.00000000    0.00000000
     atom    5 type  2   force =     0.00000000    0.00000000    0.00000000
     atom    6 type  2   force =     0.00000000    0.00000000    0.00000000
     The Hubbard contrib.    to forces
     atom    1 type  1   force =     0.00000000    0.00000000    0.00000000
     atom    2 type  1   force =     0.00000000    0.00000000    0.00000000
     atom    3 type  2   force =     0.00000000    0.00000000    0.00000000
     atom    4 type  2   force =     0.00000000    0.00000000    0.00000000
     atom    5 type  2   force =     0.00000000    0.00000000    0.00000000
     atom    6 type  2   force =     0.00000000    0.00000000    0.00000000
     The SCF correction term to forces
     atom    1 type  1   force =     0.00000000    0.00000000   -0.00000000
     atom    2 type  1   force =    -0.00000000   -0.00000000    0.00000000
     atom    3 type  2   force =     0.00000347   -0.00000347   -0.00000000
     atom    4 type  2   force =    -0.00000347    0.00000347   -0.00000000
     atom    5 type  2   force =     0.00000347    0.00000347    0.00000000
     atom    6 type  2   force =    -0.00000347   -0.00000347   -0.00000000

     Total force =     0.067238     Total SCF correction =     0.000010


     Computing stress (Cartesian axis) and pressure

          total   stress  (Ry/bohr**3)                   (kbar)     P=      489.71
   0.00333948   0.00000000   0.00000000          491.26        0.00        0.00
  -0.00000000   0.00333948  -0.00000000           -0.00      491.26       -0.00
   0.00000000   0.00000000   0.00330787            0.00        0.00      486.60

     Energy error            =      4.4E-03 Ry
     Gradient error          =      2.4E-02 Ry/Bohr
     Cell gradient error     =      1.3E+01 kbar

     number of scf cycles    =   4
     number of bfgs steps    =   3

     enthalpy           old  =     -72.7457356057 Ry
     enthalpy           new  =     -72.7501529414 Ry

     CASE: enthalpy          _new < enthalpy          _old

     new trust radius        =       0.0738415899 bohr
ibrav =      7
 celldm(1) =     10.43878164
 celldm(3) =      0.75378631
Input lattice vectors:
     0.41848741    -0.41848741     0.31545009
     0.41848741     0.41848741     0.31545009
    -0.41848741    -0.41848741     0.31545009
New lattice vectors in INITIAL alat:
     0.41848741    -0.41848741     0.31545009
     0.41848741     0.41848741     0.31545009
    -0.41848741    -0.41848741     0.31545009
New lattice vectors in NEW alat (for information only):
     0.50000000    -0.50000000     0.37689316
     0.50000000     0.50000000     0.37689316
    -0.50000000    -0.50000000     0.37689316
Discrepancy in bohr =     0.000000    0.000000    0.000000
     new conv_thr            =       0.0000000024 Ry

     new unit-cell volume =    428.71403 a.u.^3 (    63.52886 Ang^3 )
     density =      2.19392 g/cm^3

CELL_PARAMETERS (alat= 12.47203771)
   0.418487415  -0.418487415   0.315450086
   0.418487415   0.418487415   0.315450086
  -0.418487415  -0.418487415   0.315450086

ATOMIC_POSITIONS (crystal)
Si            0.0000000000       -0.0000000000       -0.0000000000
Si           -0.0000000000        0.5000000000        0.5000000000
Li           -0.1969168200        0.8484584100        0.3484584100
Li            0.1969168200        1.1515415900       -0.3484584100
Li            0.5000000000        0.6515415900       -0.1515415900
Li           -0.5000000000        1.3484584100        0.1515415900



     Writing config-only to output data dir ./output/SiLi.save/
     NEW-OLD atomic charge density approx. for the potential
     extrapolated charge   20.15973, renormalised to   20.00000

     total cpu time spent up to now is       68.5 secs

     Self-consistent Calculation

     iteration #  1     ecut=    80.00 Ry     beta= 0.70
     Davidson diagonalization with overlap
     ethr =  1.00E-06,  avg # of iterations =  8.0

     total cpu time spent up to now is       70.9 secs

     total energy              =     -74.21438352 Ry
     estimated scf accuracy    <       0.00122619 Ry

     iteration #  2     ecut=    80.00 Ry     beta= 0.70
     Davidson diagonalization with overlap
     ethr =  6.13E-06,  avg # of iterations =  2.3

     total cpu time spent up to now is       72.3 secs

     total energy              =     -74.21501136 Ry
     estimated scf accuracy    <       0.00094964 Ry

     iteration #  3     ecut=    80.00 Ry     beta= 0.70
     Davidson diagonalization with overlap
     ethr =  4.75E-06,  avg # of iterations =  1.8

     total cpu time spent up to now is       73.3 secs

     total energy              =     -74.21513097 Ry
     estimated scf accuracy    <       0.00002285 Ry

     iteration #  4     ecut=    80.00 Ry     beta= 0.70
     Davidson diagonalization with overlap
     ethr =  1.14E-07,  avg # of iterations =  2.4

     total cpu time spent up to now is       74.5 secs

     total energy              =     -74.21513326 Ry
     estimated scf accuracy    <       0.00000262 Ry

     iteration #  5     ecut=    80.00 Ry     beta= 0.70
     Davidson diagonalization with overlap
     ethr =  1.31E-08,  avg # of iterations =  2.1

     total cpu time spent up to now is       75.5 secs

     total energy              =     -74.21513354 Ry
     estimated scf accuracy    <       0.00000010 Ry

     iteration #  6     ecut=    80.00 Ry     beta= 0.70
     Davidson diagonalization with overlap
     ethr =  5.07E-10,  avg # of iterations =  3.7

     total cpu time spent up to now is       76.7 secs

     total energy              =     -74.21513359 Ry
     estimated scf accuracy    <          9.8E-09 Ry

     iteration #  7     ecut=    80.00 Ry     beta= 0.70
     Davidson diagonalization with overlap
     ethr =  4.88E-11,  avg # of iterations =  2.0

     total cpu time spent up to now is       77.8 secs

     End of self-consistent calculation

          k = 0.0000 0.0000 0.0000 (  9407 PWs)   bands (ev):

   -38.7268 -38.6444 -38.6025 -38.6025  -4.3264   2.8405   3.8893   3.8893
     5.3673   7.3334   7.8642   9.0334   9.0334   9.9702

          k =-0.2390-0.0000 0.3170 (  9404 PWs)   bands (ev):

   -38.7135 -38.6462 -38.6084 -38.6078  -3.9860   0.9993   3.8168   3.9003
     6.6575   7.0322   7.4797   8.0507   8.5617  11.5476

          k =-0.4779-0.0000 0.6340 (  9402 PWs)   bands (ev):

   -38.6820 -38.6543 -38.6206 -38.6185  -2.9601  -1.2594   3.9850   4.1908
     5.0123   5.3388   9.3448   9.3992  10.5993  12.3503

          k =-0.0000 0.2987 0.3963 (  9389 PWs)   bands (ev):

   -38.7066 -38.6472 -38.6115 -38.6104  -3.7941   0.3991   3.8157   3.9371
     6.1576   6.5391   8.2212   8.3854   8.7941  11.8435

          k =-0.2390 0.2987 0.7133 (  9387 PWs)   bands (ev):

   -38.6792 -38.6555 -38.6212 -38.6194  -2.7093  -1.5973   3.7501   4.3611
     4.7720   6.0442   8.0566   9.7145  11.2837  12.7655

          k =-0.4779 0.2987 1.0303 (  9390 PWs)   bands (ev):

   -38.6771 -38.6510 -38.6303 -38.6170  -3.1005  -0.9754   2.8093   4.4134
     4.8913   7.1062   8.5724   9.6671  10.9954  11.9322

          k = 0.4779 0.2987-0.2378 (  9396 PWs)   bands (ev):

   -38.7030 -38.6447 -38.6219 -38.6061  -3.9876   1.2799   2.4427   4.1618
     6.4246   6.5832   8.4748   8.7529  10.3193  11.1824

          k = 0.2390 0.2987 0.0793 (  9400 PWs)   bands (ev):

   -38.7162 -38.6448 -38.6119 -38.6031  -4.2200   2.4044   2.8397   3.9877
     5.5353   7.5984   8.1745   9.2779   9.4609  10.0890

          k = 0.0000-0.5974-0.7925 (  9410 PWs)   bands (ev):

[...]
        k(   12) = (   0.3039091  -0.3039091   0.0000000), wk =   0.0500000
        k(   13) = (   0.0607818  -0.3039091   0.3177906), wk =   0.0500000
        k(   14) = (  -0.1823454  -0.3039091   0.6355811), wk =   0.0500000
        k(   15) = (   0.7901635  -0.3039091  -0.6355811), wk =   0.0500000
        k(   16) = (   0.5470363  -0.3039091  -0.3177906), wk =   0.0500000
        k(   17) = (   0.0607818   0.0000000   0.7150288), wk =   0.0500000
        k(   18) = (  -0.1823454  -0.0000000   1.0328193), wk =   0.0500000
        k(   19) = (   0.7901635   0.0000000  -0.2383429), wk =   0.0500000
        k(   20) = (   0.5470363  -0.0000000   0.0794476), wk =   0.0500000
        k(   21) = (   0.3039091  -0.9117272  -0.7944764), wk =   0.0500000
        k(   22) = (   0.0607818  -0.9117272  -0.4766858), wk =   0.0500000
        k(   23) = (  -0.1823454  -0.9117272  -0.1588953), wk =   0.0500000
        k(   24) = (   0.7901635  -0.9117272  -1.4300575), wk =   0.0500000
        k(   25) = (   0.5470363  -0.9117272  -1.1122669), wk =   0.0500000
        k(   26) = (   0.3039091  -0.6078181  -0.3972382), wk =   0.1000000
        k(   27) = (   0.0607818  -0.6078181  -0.0794476), wk =   0.0500000
        k(   28) = (  -0.1823454  -0.6078181   0.2383429), wk =   0.0500000
        k(   29) = (   0.7901635  -0.6078181  -1.0328193), wk =   0.0500000
        k(   30) = (   0.5470363  -0.6078181  -0.7150288), wk =   0.0500000
        k(   31) = (  -0.6078181   0.6078181  -0.0000000), wk =   0.0250000
        k(   32) = (  -0.8509454   0.6078181   0.3177906), wk =   0.0500000
        k(   33) = (  -1.0940726   0.6078181   0.6355811), wk =   0.0500000
        k(   34) = (  -0.8509454   0.9117272   0.7150288), wk =   0.0500000
        k(   35) = (  -1.0940726   0.9117272   1.0328193), wk =   0.0500000
        k(   36) = (  -0.1215636   0.9117272  -0.2383429), wk =   0.0500000
        k(   37) = (  -0.3646909   0.9117272   0.0794476), wk =   0.0500000
        k(   38) = (  -0.8509454   0.0000000  -0.4766858), wk =   0.0500000
        k(   39) = (  -1.0940726   0.0000000  -0.1588953), wk =   0.0500000

     Dense  grid:    39967 G-vectors     FFT dimensions: (  48,  48,  48)

     Estimated max dynamical RAM per process >      21.38 MB

     Estimated total dynamical RAM >     171.00 MB

     Initial potential from superposition of free atoms

     starting charge      19.9805, renormalised to      20.0000
     Starting wfcs are   16 randomized atomic wfcs

     total cpu time spent up to now is      142.6 secs

     Self-consistent Calculation

     iteration #  1     ecut=    80.00 Ry     beta= 0.70
     Davidson diagonalization with overlap
     c_bands:  1 eigenvalues not converged
     c_bands:  1 eigenvalues not converged
     c_bands:  1 eigenvalues not converged
     c_bands:  1 eigenvalues not converged
     c_bands:  1 eigenvalues not converged
     c_bands:  1 eigenvalues not converged
     c_bands:  1 eigenvalues not converged
     c_bands:  1 eigenvalues not converged
     c_bands:  1 eigenvalues not converged
     c_bands:  1 eigenvalues not converged
     c_bands:  1 eigenvalues not converged
     c_bands:  1 eigenvalues not converged
     c_bands:  1 eigenvalues not converged
     ethr =  1.00E-06,  avg # of iterations = 17.7

     total cpu time spent up to now is      144.6 secs

     total energy              =     -74.14889547 Ry
     estimated scf accuracy    <       0.07491006 Ry

     iteration #  2     ecut=    80.00 Ry     beta= 0.70
     Davidson diagonalization with overlap
     ethr =  3.75E-04,  avg # of iterations =  2.1

     total cpu time spent up to now is      145.2 secs

     total energy              =     -74.16610496 Ry
     estimated scf accuracy    <       0.03255430 Ry

     iteration #  3     ecut=    80.00 Ry     beta= 0.70
     Davidson diagonalization with overlap
     ethr =  1.63E-04,  avg # of iterations =  2.0

     total cpu time spent up to now is      145.7 secs

     total energy              =     -74.17221991 Ry
     estimated scf accuracy    <       0.00037475 Ry

     iteration #  4     ecut=    80.00 Ry     beta= 0.70
     Davidson diagonalization with overlap
     ethr =  1.87E-06,  avg # of iterations =  4.3

     total cpu time spent up to now is      146.4 secs

     total energy              =     -74.17226931 Ry
     estimated scf accuracy    <       0.00001970 Ry

     iteration #  5     ecut=    80.00 Ry     beta= 0.70
     Davidson diagonalization with overlap
     ethr =  9.85E-08,  avg # of iterations =  2.1

     total cpu time spent up to now is      147.0 secs

     total energy              =     -74.17227381 Ry
     estimated scf accuracy    <       0.00000030 Ry

     iteration #  6     ecut=    80.00 Ry     beta= 0.70
     Davidson diagonalization with overlap
     ethr =  1.49E-09,  avg # of iterations =  3.4

     total cpu time spent up to now is      147.6 secs

     total energy              =     -74.17227389 Ry
     estimated scf accuracy    <       0.00000005 Ry

     iteration #  7     ecut=    80.00 Ry     beta= 0.70
     Davidson diagonalization with overlap
     ethr =  2.37E-10,  avg # of iterations =  2.0

     total cpu time spent up to now is      148.1 secs

     total energy              =     -74.17227390 Ry
     estimated scf accuracy    <          1.6E-09 Ry

     iteration #  8     ecut=    80.00 Ry     beta= 0.70
     Davidson diagonalization with overlap
     ethr =  7.94E-12,  avg # of iterations =  2.3

     total cpu time spent up to now is      148.7 secs

     End of self-consistent calculation

          k = 0.0000 0.0000 0.0000 (  5031 PWs)   bands (ev):

   -38.4757 -38.3670 -38.2933 -38.2933  -4.0452   3.2493   4.4122   4.4122
     5.9012   7.8387   7.9967   9.4781   9.4781  10.1889

          k =-0.2431-0.0000 0.3178 (  4992 PWs)   bands (ev):

   -38.4608 -38.3723 -38.2981 -38.2977  -3.6951   1.4145   4.3085   4.3333
     6.9180   7.3502   7.9637   8.5381   8.8756  11.4835

          k =-0.4863-0.0000 0.6356 (  4998 PWs)   bands (ev):

   -38.4254 -38.3910 -38.3065 -38.3057  -2.6398  -0.8919   4.3870   4.5063
     5.3673   5.6640   9.7772   9.7969  11.0116  12.7588

          k = 0.0000 0.3039 0.3972 (  4991 PWs)   bands (ev):

   -38.4532 -38.3755 -38.3004 -38.2997  -3.4976   0.8045   4.2905   4.3382
     6.4352   6.8527   8.6957   8.8624   9.1321  11.8422

          k =-0.2431 0.3039 0.7150 (  4992 PWs)   bands (ev):

   -38.4216 -38.3942 -38.3071 -38.3056  -2.4031  -1.2072   4.0354   4.6777
     5.1345   6.5556   8.4099  10.0999  11.7499  13.0015

          k =-0.4863 0.3039 1.0328 (  4988 PWs)   bands (ev):

   -38.4225 -38.3877 -38.3139 -38.3045  -2.7462  -0.6439   3.0812   4.8093
     5.1967   7.5984   8.9928  10.0433  11.3264  12.2760

          k = 0.4863 0.3039-0.2383 (  4990 PWs)   bands (ev):

   -38.4514 -38.3685 -38.3126 -38.2963  -3.6669   1.6492   2.7673   4.6681
     6.7144   6.9259   8.8720   9.1591  10.6283  11.5496

          k = 0.2431 0.3039 0.0794 (  4988 PWs)   bands (ev):

   -38.4649 -38.3665 -38.3039 -38.2938  -3.9190   2.7956   3.2229   4.5016
     6.0097   7.8663   8.4682   9.6770   9.8642  10.3359

          k =-0.0000-0.6078-0.7945 (  4992 PWs)   bands (ev):

   -38.4067 -38.4067 -38.3075 -38.3075  -1.8489  -1.8489   4.5549   4.5549
     5.2124   5.2124   9.9897   9.9897  12.2967  12.2967

          k =-0.2431-0.6078-0.4767 (  4992 PWs)   bands (ev):

   -38.4326 -38.3810 -38.3125 -38.3025  -3.0749  -0.0630   3.1165   4.6885
     5.6024   7.4535   9.1080   9.5029  10.9121  12.6300

          k =-0.4863-0.6078-0.1589 (  4982 PWs)   bands (ev):

   -38.4484 -38.3641 -38.3214 -38.2950  -3.6996   2.0734   2.2701   4.8000
     6.0363   7.0054   8.9049  10.1613  10.7806  11.6572

          k = 0.3039-0.3039 0.0000 (  4975 PWs)   bands (ev):

   -38.4638 -38.3658 -38.3060 -38.2935  -3.9192   2.9413   3.0412   4.4953
     5.7997   8.1283   8.2647   9.8801  10.2435  10.3677

          k = 0.0608-0.3039 0.3178 (  4985 PWs)   bands (ev):

   -38.4584 -38.3724 -38.3002 -38.2979  -3.6660   1.3480   3.9999   4.3873
     6.8348   7.4129   7.9180   8.7084   9.3691  11.5277

          k =-0.1823-0.3039 0.6356 (  4997 PWs)   bands (ev):

   -38.4305 -38.3886 -38.3060 -38.3035  -2.7399  -0.7401   4.1480   4.9408
     5.1117   6.3807   8.4644   9.7549  11.0881  12.8199

          k = 0.7902-0.3039-0.6356 (  4988 PWs)   bands (ev):

   -38.4148 -38.3952 -38.3123 -38.3061  -2.4157  -1.1434   3.2840   4.8224
     5.0058   7.3517   8.7912  10.7075  11.3482  12.2608

          k = 0.5470-0.3039-0.3178 (  4990 PWs)   bands (ev):

   -38.4450 -38.3715 -38.3141 -38.2982  -3.4986   1.0497   2.7712   4.6968
     6.2701   7.5438   8.5971   9.2916  10.7398  12.2057

          k = 0.0608 0.0000 0.7150 (  4991 PWs)   bands (ev):

   -38.4275 -38.3904 -38.3053 -38.3053  -2.5299  -1.0054   4.2512   4.2608
     6.3721   6.6046   7.0029   8.8646  12.1181  12.5632

          k =-0.1823-0.0000 1.0328 (  4987 PWs)   bands (ev):

   -38.4095 -38.3922 -38.3135 -38.3132  -2.4809  -0.9070   3.3541   3.3795
     6.1547   7.6284   8.1897   9.8425  10.3691  13.9256

          k = 0.7902 0.0000-0.2383 (  4983 PWs)   bands (ev):

   -38.4351 -38.3690 -38.3130 -38.3116  -3.4514   1.2666   3.0286   3.0700
     6.7057   6.7842   8.5731   9.7611  11.9339  13.1325

          k = 0.5470-0.0000 0.0794 (  4990 PWs)   bands (ev):

   -38.4550 -38.3661 -38.3046 -38.3032  -3.8034   2.4955   3.3461   3.4155
     5.8594   7.8928   8.7950   9.8925  10.3723  10.8647

          k = 0.3039-0.9117-0.7945 (  4995 PWs)   bands (ev):

   -38.4126 -38.4005 -38.3079 -38.3075  -2.0243  -1.6440   3.8028   4.6246
     5.0857   6.8194   8.4503  10.4567  12.1978  12.4320

          k = 0.0608-0.9117-0.4767 (  4991 PWs)   bands (ev):

   -38.4180 -38.3841 -38.3144 -38.3120  -2.8218  -0.3619   3.1735   3.4362
     6.1753   7.6415   8.6963   9.0683  11.1544  14.3205

          k =-0.1823-0.9117-0.1589 (  4992 PWs)   bands (ev):

   -38.4323 -38.3652 -38.3208 -38.3103  -3.4888   1.6582   2.5008   3.2342
     6.0132   6.5839   9.1725  10.6389  11.8127  13.3921

          k = 0.7902-0.9117-1.4301 (  4981 PWs)   bands (ev):

   -38.4406 -38.3648 -38.3211 -38.3022  -3.5964   1.8416   2.3863   3.9000
     6.0024   7.0915   8.5300  10.5552  11.7166  12.1449

          k = 0.5470-0.9117-1.1123 (  4990 PWs)   bands (ev):

   -38.4347 -38.3804 -38.3126 -38.3009  -3.1107  -0.0078   3.0686   5.0050
     5.4445   7.5909   9.1313   9.5582  10.6018  12.6348

          k = 0.3039-0.6078-0.3972 (  4980 PWs)   bands (ev):

   -38.4379 -38.3757 -38.3148 -38.3003  -3.2886   0.4590   2.8244   4.7261
     5.8551   8.0023   8.5108   9.3957  10.8987  12.5807

          k = 0.0608-0.6078-0.0794 (  4983 PWs)   bands (ev):

   -38.4510 -38.3657 -38.3083 -38.3038  -3.7570   2.3987   3.0575   3.4517
     5.8066   7.6160   8.8802  10.1342  10.7041  11.1636

          k =-0.1823-0.6078 0.2383 (  4985 PWs)   bands (ev):

   -38.4464 -38.3689 -38.3125 -38.3009  -3.6008   1.5099   2.8557   4.0265
     6.7674   7.1198   8.3160   9.4961  11.4282  11.7641

          k = 0.7902-0.6078-1.0328 (  4990 PWs)   bands (ev):

   -38.4263 -38.3861 -38.3140 -38.3022  -2.8217  -0.5441   2.9927   4.7879
     5.5509   7.7514   9.4608  10.0982  10.6481  12.3005

          k = 0.5470-0.6078-0.7150 (  4990 PWs)   bands (ev):

   -38.4129 -38.3990 -38.3105 -38.3060  -2.2031  -1.4397   3.3723   3.9720
     6.3634   7.1302  10.1323  10.3031  11.1007  11.6982

          k =-0.6078 0.6078-0.0000 (  4972 PWs)   bands (ev):

   -38.4505 -38.3615 -38.3231 -38.2937  -3.7783   2.1617   2.6844   4.8247
     5.3108   7.6794   8.3896  10.0687  11.4908  11.6148

          k =-0.8509 0.6078 0.3178 (  4984 PWs)   bands (ev):

   -38.4423 -38.3710 -38.3172 -38.2982  -3.4643   1.0013   2.5856   4.7567
     6.1697   7.4719   8.9038   9.4226  10.7687  12.3503

          k =-1.0941 0.6078 0.6356 (  4990 PWs)   bands (ev):

   -38.4203 -38.3932 -38.3089 -38.3060  -2.5350  -1.0217   3.8531   4.6019
     5.2954   6.1263   9.6000  10.4675  10.9316  12.7761

          k =-0.8509 0.9117 0.7150 (  4993 PWs)   bands (ev):

   -38.4193 -38.3956 -38.3080 -38.3057  -2.3517  -1.2752   3.9264   4.3602
     5.5104   6.5561   8.7829  10.4413  11.5059  12.7996

          k =-1.0941 0.9117 1.0328 (  5001 PWs)   bands (ev):

   -38.4140 -38.3908 -38.3135 -38.3101  -2.5734  -0.8275   3.2672   3.7902
     5.9182   7.3926   8.4087   9.8988  10.9397  13.9486

          k =-0.1216 0.9117-0.2383 (  4994 PWs)   bands (ev):

   -38.4291 -38.3684 -38.3189 -38.3122  -3.3726   1.1644   2.6593   3.1583
     6.3450   6.7769   8.9253  10.0072  11.8686  13.7711

          k =-0.3647 0.9117 0.0794 (  4993 PWs)   bands (ev):

   -38.4395 -38.3630 -38.3223 -38.3039  -3.6242   2.1619   2.3391   3.6834
     5.5586   7.0355   8.7995  11.1114  11.4949  12.5865

          k =-0.8509 0.0000-0.4767 (  4994 PWs)   bands (ev):

   -38.4205 -38.3837 -38.3127 -38.3116  -2.8655  -0.3192   3.3520   3.4065
     6.2236   7.3695   8.8169   9.0919  11.3477  14.1236

          k =-1.0941 0.0000-0.1589 (  5007 PWs)   bands (ev):

   -38.4228 -38.3648 -38.3206 -38.3204  -3.3664   1.4898   2.6395   2.6459
     5.9978   6.0481  10.3837  10.7046  11.5250  13.7455

     the Fermi energy is     7.9778 ev

!    total energy              =     -74.17227390 Ry
     estimated scf accuracy    <          1.4E-11 Ry
     smearing contrib. (-TS)   =       0.00040087 Ry
     internal energy E=F+TS    =     -74.17267477 Ry

     The total energy is F=E-TS. E is the sum of the following terms:
     one-electron contribution =     -19.94765016 Ry
     hartree contribution      =      12.46671185 Ry
     xc contribution           =     -20.51619210 Ry
     ewald contribution        =     -46.17554436 Ry

     convergence has been achieved in   8 iterations

     Forces acting on atoms (cartesian axes, Ry/au):

     atom    1 type  1   force =    -0.00000000   -0.00000000    0.00000000
     atom    2 type  1   force =     0.00000000    0.00000000   -0.00000000
     atom    3 type  2   force =    -0.00001120    0.00001120   -0.00000000
     atom    4 type  2   force =     0.00001120   -0.00001120    0.00000000
     atom    5 type  2   force =    -0.00001120   -0.00001120   -0.00000000
     atom    6 type  2   force =     0.00001120    0.00001120   -0.00000000
     The non-local contrib.  to forces
     atom    1 type  1   force =     0.00000000    0.00000000   -0.00000000
     atom    2 type  1   force =     0.00000000    0.00000000   -0.00000000
     atom    3 type  2   force =    -0.03607391    0.03607391   -0.00000000
     atom    4 type  2   force =     0.03607391   -0.03607391    0.00000000
     atom    5 type  2   force =    -0.03607391   -0.03607391   -0.00000000
     atom    6 type  2   force =     0.03607391    0.03607391   -0.00000000
     The ionic contribution  to forces
     atom    1 type  1   force =    -0.00000000    0.00000000   -0.00000000
     atom    2 type  1   force =     0.00000000   -0.00000000   -0.00000000
     atom    3 type  2   force =    -0.16854929    0.16854929   -0.00000000
     atom    4 type  2   force =     0.16854929   -0.16854929   -0.00000000
     atom    5 type  2   force =    -0.16854929   -0.16854929    0.00000000
     atom    6 type  2   force =     0.16854929    0.16854929    0.00000000
     The local contribution  to forces
     atom    1 type  1   force =     0.00000000   -0.00000000    0.00000000
     atom    2 type  1   force =     0.00000000   -0.00000000    0.00000000
     atom    3 type  2   force =     0.20461214   -0.20461214   -0.00000000
     atom    4 type  2   force =    -0.20461214    0.20461214    0.00000000
     atom    5 type  2   force =     0.20461214    0.20461214   -0.00000000
     atom    6 type  2   force =    -0.20461214   -0.20461214    0.00000000
     The core correction contribution to forces
     atom    1 type  1   force =    -0.00000000   -0.00000000    0.00000000
     atom    2 type  1   force =    -0.00000000    0.00000000    0.00000000
     atom    3 type  2   force =     0.00000000    0.00000000    0.00000000
     atom    4 type  2   force =     0.00000000    0.00000000    0.00000000
     atom    5 type  2   force =     0.00000000    0.00000000    0.00000000
     atom    6 type  2   force =     0.00000000    0.00000000    0.00000000
     The Hubbard contrib.    to forces
     atom    1 type  1   force =     0.00000000    0.00000000    0.00000000
     atom    2 type  1   force =     0.00000000    0.00000000    0.00000000
     atom    3 type  2   force =     0.00000000    0.00000000    0.00000000
     atom    4 type  2   force =     0.00000000    0.00000000    0.00000000
     atom    5 type  2   force =     0.00000000    0.00000000    0.00000000
     atom    6 type  2   force =     0.00000000    0.00000000    0.00000000
     The SCF correction term to forces
     atom    1 type  1   force =    -0.00000000   -0.00000000    0.00000000
     atom    2 type  1   force =     0.00000000   -0.00000000   -0.00000000
     atom    3 type  2   force =    -0.00000013    0.00000013    0.00000000
     atom    4 type  2   force =     0.00000013   -0.00000013    0.00000000
     atom    5 type  2   force =    -0.00000013   -0.00000013   -0.00000000
     atom    6 type  2   force =     0.00000013    0.00000013   -0.00000000

     Total force =     0.000032     Total SCF correction =     0.000000


     Computing stress (Cartesian axis) and pressure

          total   stress  (Ry/bohr**3)                   (kbar)     P=      500.13
   0.00339889   0.00000000   0.00000000          499.99        0.00        0.00
   0.00000000   0.00339889  -0.00000000            0.00      499.99       -0.00
   0.00000000  -0.00000000   0.00340172            0.00       -0.00      500.41


     Writing all to output data dir ./output/SiLi.save/

     init_run     :      2.50s CPU      4.58s WALL (       2 calls)
     electrons    :     95.59s CPU    109.37s WALL (      11 calls)
     update_pot   :      6.84s CPU      6.93s WALL (       9 calls)
     forces       :      5.13s CPU      5.22s WALL (      11 calls)
     stress       :     22.46s CPU     23.50s WALL (      11 calls)

     Called by init_run:
     wfcinit      :      1.03s CPU      2.68s WALL (       2 calls)
     potinit      :      0.53s CPU      0.63s WALL (       2 calls)
     hinit0       :      0.84s CPU      1.08s WALL (       2 calls)

     Called by electrons:
     c_bands      :     82.54s CPU     93.98s WALL (      85 calls)
     sum_band     :     11.59s CPU     13.34s WALL (      85 calls)
     v_of_rho     :      1.45s CPU      1.97s WALL (      93 calls)
     mix_rho      :      0.13s CPU      0.19s WALL (      85 calls)

     Called by c_bands:
     init_us_2    :      2.30s CPU      2.61s WALL (    7566 calls)
     init_us_2:cp :      2.29s CPU      2.60s WALL (    7566 calls)
     cegterg      :     77.35s CPU     87.06s WALL (    3315 calls)

     Called by *egterg:
     cdiaghg      :      2.81s CPU      2.97s WALL (   13431 calls)
     h_psi        :     67.63s CPU     78.53s WALL (   13977 calls)
     g_psi        :      0.33s CPU      0.34s WALL (   10584 calls)

     Called by h_psi:
     h_psi:calbec :      4.31s CPU      4.78s WALL (   13977 calls)
     vloc_psi     :     59.29s CPU     69.47s WALL (   13977 calls)
     add_vuspsi   :      3.81s CPU      4.04s WALL (   13977 calls)

     General routines
     calbec       :      5.48s CPU      5.97s WALL (   16122 calls)
     fft          :      1.43s CPU      2.27s WALL (    1206 calls)
     ffts         :      0.06s CPU      0.10s WALL (      85 calls)
     fftw         :     61.10s CPU     71.58s WALL (  315460 calls)

     Parallel routines

     PWSCF        :   2m12.86s CPU   2m30.42s WALL


   This run was terminated on:  14: 0:16  27Dec2024            

=------------------------------------------------------------------------------=
   JOB DONE.
=------------------------------------------------------------------------------=
