
     Program PWSCF v.7.2 starts on 10Jan2025 at 22: 9:19 

     This program is part of the open-source Quantum ESPRESSO suite
     for quantum simulation of materials; please cite
         "P. Giannozzi et al., J. Phys.:Condens. Matter 21 395502 (2009);
         "P. Giannozzi et al., J. Phys.:Condens. Matter 29 465901 (2017);
         "P. Giannozzi et al., J. Chem. Phys. 152 154105 (2020);
          URL http://www.quantum-espresso.org", 
     in publications or presentations arising from this work. More details at
     http://www.quantum-espresso.org/quote

     Parallel version (MPI & OpenMP), running on       8 processor cores
     Number of MPI processes:                 8
     Threads/MPI process:                     1

     MPI processes distributed on     1 nodes
     481446 MiB available memory on the printing compute node when the environment starts

     Waiting for input...
     Reading input from standard input

     Current dimensions of program PWSCF are:
     Max number of different atomic species (ntypx) = 10
     Max number of k-points (npk) =  40000
     Max angular momentum in pseudopotentials (lmaxx) =  4

     R & G space division:  proc/nbgrp/npool/nimage =       8
     Subspace diagonalization in iterative solution of the eigenvalue problem:
     a serial algorithm will be used


     Parallelization info
     --------------------
     sticks:   dense  smooth     PW     G-vecs:    dense   smooth      PW
     Min          69      69     20                 3001     3001     484
     Max          70      70     21                 3010     3010     491
     Sum         559     559    163                24059    24059    3893

     Using Slab Decomposition



     bravais-lattice index     =            4
     lattice parameter (alat)  =       4.5014  a.u.
     unit-cell volume          =     178.0471 (a.u.)^3
     number of atoms/cell      =            3
     number of atomic types    =            2
     number of electrons       =        10.00
     number of Kohn-Sham states=            9
     kinetic-energy cutoff     =     100.0000  Ry
     charge density cutoff     =     400.0000  Ry
     scf convergence threshold =      1.0E-08
     mixing beta               =       0.7000
     number of iterations used =            8  plain     mixing
     energy convergence thresh.=      1.0E-04
     force convergence thresh. =      1.0E-03
     press convergence thresh. =      1.0E+00
     Exchange-correlation= PBE
                           (   1   4   3   4   0   0   0)
     nstep                     =           50


     celldm(1)=   4.501387  celldm(2)=   0.000000  celldm(3)=   2.254059
     celldm(4)=   0.000000  celldm(5)=   0.000000  celldm(6)=   0.000000

     crystal axes: (cart. coord. in units of alat)
               a(1) = (   1.000000   0.000000   0.000000 )  
               a(2) = (  -0.500000   0.866025   0.000000 )  
               a(3) = (   0.000000   0.000000   2.254059 )  

     reciprocal axes: (cart. coord. in units 2 pi/alat)
               b(1) = (  1.000000  0.577350 -0.000000 )  
               b(2) = (  0.000000  1.154701  0.000000 )  
               b(3) = (  0.000000 -0.000000  0.443644 )  


     PseudoPot. # 1 for Si read from file:
     ../pseudo/Si_ONCV_PBE_sr.upf
     MD5 check sum: e543d271109d17c80368dfa7c482276d
     Pseudo is Norm-conserving + core correction, Zval =  4.0
     Generated using ONCVPSP code by D. R. Hamann
     Using radial grid of 1510 points,  6 beta functions with: 
                l(1) =   0
                l(2) =   0
                l(3) =   1
                l(4) =   1
                l(5) =   2
                l(6) =   2

     PseudoPot. # 2 for Li read from file:
     ../pseudo/Li_ONCV_PBE_sr.upf
     MD5 check sum: 50ff420e78310ffa21704f3361e624a4
     Pseudo is Norm-conserving, Zval =  3.0
     Generated using ONCVPSP code by D. R. Hamann
     Using radial grid of 1944 points,  4 beta functions with: 
                l(1) =   0
                l(2) =   0
                l(3) =   1
                l(4) =   1

     atomic species   valence    mass     pseudopotential
        Si             4.00    28.08550     Si( 1.00)
        Li             3.00     6.94100     Li( 1.00)

     12 Sym. Ops. (no inversion) found



   Cartesian axes

     site n.     atom                  positions (alat units)
         1           Si  tau(   1) = (   0.0000000   0.0000000   0.0000000  )
         2           Li  tau(   2) = (   0.5000000   0.2886751   1.4905460  )
         3           Li  tau(   3) = (   0.5000000   0.2886751   0.7635128  )

     number of k points=    70  Marzari-Vanderbilt smearing, width (Ry)=  0.0200
                       cart. coord. in units 2pi/alat
        k(    1) = (   0.0000000   0.0000000   0.0000000), wk =   0.0025000
        k(    2) = (   0.0000000   0.0000000   0.0554555), wk =   0.0050000
        k(    3) = (   0.0000000   0.0000000   0.1109110), wk =   0.0050000
        k(    4) = (   0.0000000   0.0000000   0.1663666), wk =   0.0050000
        k(    5) = (   0.0000000   0.0000000  -0.2218221), wk =   0.0025000
        k(    6) = (   0.0000000   0.1154701   0.0000000), wk =   0.0150000
        k(    7) = (   0.0000000   0.1154701   0.0554555), wk =   0.0300000
        k(    8) = (   0.0000000   0.1154701   0.1109110), wk =   0.0300000
        k(    9) = (   0.0000000   0.1154701   0.1663666), wk =   0.0300000
        k(   10) = (   0.0000000   0.1154701  -0.2218221), wk =   0.0150000
        k(   11) = (   0.0000000   0.2309401   0.0000000), wk =   0.0150000
        k(   12) = (   0.0000000   0.2309401   0.0554555), wk =   0.0300000
        k(   13) = (   0.0000000   0.2309401   0.1109110), wk =   0.0300000
        k(   14) = (   0.0000000   0.2309401   0.1663666), wk =   0.0300000
        k(   15) = (   0.0000000   0.2309401  -0.2218221), wk =   0.0150000
        k(   16) = (   0.0000000   0.3464102   0.0000000), wk =   0.0150000
        k(   17) = (   0.0000000   0.3464102   0.0554555), wk =   0.0300000
        k(   18) = (   0.0000000   0.3464102   0.1109110), wk =   0.0300000
        k(   19) = (   0.0000000   0.3464102   0.1663666), wk =   0.0300000
        k(   20) = (   0.0000000   0.3464102  -0.2218221), wk =   0.0150000
        k(   21) = (   0.0000000   0.4618802   0.0000000), wk =   0.0150000
        k(   22) = (   0.0000000   0.4618802   0.0554555), wk =   0.0300000
        k(   23) = (   0.0000000   0.4618802   0.1109110), wk =   0.0300000
        k(   24) = (   0.0000000   0.4618802   0.1663666), wk =   0.0300000
        k(   25) = (   0.0000000   0.4618802  -0.2218221), wk =   0.0150000
        k(   26) = (   0.0000000  -0.5773503   0.0000000), wk =   0.0075000
        k(   27) = (   0.0000000  -0.5773503   0.0554555), wk =   0.0150000
        k(   28) = (   0.0000000  -0.5773503   0.1109110), wk =   0.0150000
        k(   29) = (   0.0000000  -0.5773503   0.1663666), wk =   0.0150000
        k(   30) = (   0.0000000  -0.5773503  -0.2218221), wk =   0.0075000
        k(   31) = (   0.1000000   0.1732051   0.0000000), wk =   0.0150000
        k(   32) = (   0.1000000   0.1732051   0.0554555), wk =   0.0300000
        k(   33) = (   0.1000000   0.1732051   0.1109110), wk =   0.0300000
        k(   34) = (   0.1000000   0.1732051   0.1663666), wk =   0.0300000
        k(   35) = (   0.1000000   0.1732051  -0.2218221), wk =   0.0150000
        k(   36) = (   0.1000000   0.2886751   0.0000000), wk =   0.0300000
        k(   37) = (   0.1000000   0.2886751   0.0554555), wk =   0.0600000
        k(   38) = (   0.1000000   0.2886751   0.1109110), wk =   0.0600000
        k(   39) = (   0.1000000   0.2886751   0.1663666), wk =   0.0600000
        k(   40) = (   0.1000000   0.2886751  -0.2218221), wk =   0.0300000
        k(   41) = (   0.1000000   0.4041452   0.0000000), wk =   0.0300000
        k(   42) = (   0.1000000   0.4041452   0.0554555), wk =   0.0600000
        k(   43) = (   0.1000000   0.4041452   0.1109110), wk =   0.0600000
        k(   44) = (   0.1000000   0.4041452   0.1663666), wk =   0.0600000
        k(   45) = (   0.1000000   0.4041452  -0.2218221), wk =   0.0300000
        k(   46) = (   0.1000000   0.5196152   0.0000000), wk =   0.0300000
        k(   47) = (   0.1000000   0.5196152   0.0554555), wk =   0.0600000
        k(   48) = (   0.1000000   0.5196152   0.1109110), wk =   0.0600000
        k(   49) = (   0.1000000   0.5196152   0.1663666), wk =   0.0600000
        k(   50) = (   0.1000000   0.5196152  -0.2218221), wk =   0.0300000
        k(   51) = (   0.2000000   0.3464102   0.0000000), wk =   0.0150000
        k(   52) = (   0.2000000   0.3464102   0.0554555), wk =   0.0300000
        k(   53) = (   0.2000000   0.3464102   0.1109110), wk =   0.0300000
        k(   54) = (   0.2000000   0.3464102   0.1663666), wk =   0.0300000
        k(   55) = (   0.2000000   0.3464102  -0.2218221), wk =   0.0150000
        k(   56) = (   0.2000000   0.4618802   0.0000000), wk =   0.0300000
        k(   57) = (   0.2000000   0.4618802   0.0554555), wk =   0.0600000
        k(   58) = (   0.2000000   0.4618802   0.1109110), wk =   0.0600000
        k(   59) = (   0.2000000   0.4618802   0.1663666), wk =   0.0600000
        k(   60) = (   0.2000000   0.4618802  -0.2218221), wk =   0.0300000
        k(   61) = (   0.2000000   0.5773503   0.0000000), wk =   0.0150000
        k(   62) = (   0.2000000   0.5773503   0.0554555), wk =   0.0300000
        k(   63) = (   0.2000000   0.5773503   0.1109110), wk =   0.0300000
        k(   64) = (   0.2000000   0.5773503   0.1663666), wk =   0.0300000
        k(   65) = (   0.2000000   0.5773503  -0.2218221), wk =   0.0150000
        k(   66) = (   0.3000000   0.5196152   0.0000000), wk =   0.0150000
        k(   67) = (   0.3000000   0.5196152   0.0554555), wk =   0.0300000
        k(   68) = (   0.3000000   0.5196152   0.1109110), wk =   0.0300000
        k(   69) = (   0.3000000   0.5196152   0.1663666), wk =   0.0300000
        k(   70) = (   0.3000000   0.5196152  -0.2218221), wk =   0.0150000

     Dense  grid:    24059 G-vectors     FFT dimensions: (  30,  30,  72)

     Estimated max dynamical RAM per process >      18.82 MB

     Estimated total dynamical RAM >     150.55 MB

     Initial potential from superposition of free atoms

     starting charge       9.9903, renormalised to      10.0000
     Starting wfcs are    8 randomized atomic wfcs +    1 random wfcs

     total cpu time spent up to now is        1.7 secs

     Self-consistent Calculation

     iteration #  1     ecut=   100.00 Ry     beta= 0.70
     Davidson diagonalization with overlap
     ethr =  1.00E-02,  avg # of iterations =  6.0

     Threshold (ethr) on eigenvalues was too large:
     Diagonalizing with lowered threshold

     Davidson diagonalization with overlap
     ethr =  6.49E-04,  avg # of iterations =  1.4

     total cpu time spent up to now is        3.1 secs

     total energy              =     -37.07934714 Ry
     estimated scf accuracy    <       0.06569019 Ry

     iteration #  2     ecut=   100.00 Ry     beta= 0.70
     Davidson diagonalization with overlap
     ethr =  6.57E-04,  avg # of iterations =  2.8

     total cpu time spent up to now is        3.6 secs

     total energy              =     -37.06198536 Ry
     estimated scf accuracy    <       0.26080972 Ry

     iteration #  3     ecut=   100.00 Ry     beta= 0.70
     Davidson diagonalization with overlap
     ethr =  6.57E-04,  avg # of iterations =  2.0

     total cpu time spent up to now is        4.0 secs

     total energy              =     -37.11119607 Ry
     estimated scf accuracy    <       0.00280792 Ry

     iteration #  4     ecut=   100.00 Ry     beta= 0.70
     Davidson diagonalization with overlap
     ethr =  2.81E-05,  avg # of iterations =  2.7

     total cpu time spent up to now is        4.5 secs

     total energy              =     -37.11159542 Ry
     estimated scf accuracy    <       0.00000970 Ry

     iteration #  5     ecut=   100.00 Ry     beta= 0.70
     Davidson diagonalization with overlap
     ethr =  9.70E-08,  avg # of iterations =  3.2

     total cpu time spent up to now is        5.1 secs

     total energy              =     -37.11160009 Ry
     estimated scf accuracy    <       0.00000059 Ry

     iteration #  6     ecut=   100.00 Ry     beta= 0.70
     Davidson diagonalization with overlap
     ethr =  5.86E-09,  avg # of iterations =  1.6

     total cpu time spent up to now is        5.6 secs

     total energy              =     -37.11160017 Ry
     estimated scf accuracy    <       0.00000002 Ry

     iteration #  7     ecut=   100.00 Ry     beta= 0.70
     Davidson diagonalization with overlap
     ethr =  1.63E-10,  avg # of iterations =  2.7

     total cpu time spent up to now is        6.0 secs

     End of self-consistent calculation

          k = 0.0000 0.0000 0.0000 (  3015 PWs)   bands (ev):

   -36.8157 -36.3259  -5.1471   3.3630   6.7290  15.0540  20.2305  23.6796
    23.6797

          k = 0.0000 0.0000 0.0555 (  3027 PWs)   bands (ev):

   -36.8155 -36.3262  -5.1451   3.3166   6.8591  14.6096  20.8833  23.6938
    23.6938

          k = 0.0000 0.0000 0.1109 (  2990 PWs)   bands (ev):

   -36.8148 -36.3270  -5.1400   3.2130   7.1868  13.7251  22.4097  23.7287
    23.7287

          k = 0.0000 0.0000 0.1664 (  2978 PWs)   bands (ev):

   -36.8141 -36.3277  -5.1350   3.1189   7.5465  12.9558  23.7648  23.7648
    24.3067

          k = 0.0000 0.0000-0.2218 (  2972 PWs)   bands (ev):

   -36.8138 -36.3280  -5.1329   3.0822   7.7107  12.6478  23.7800  23.7800
    25.2321

          k = 0.0000 0.1155 0.0000 (  3009 PWs)   bands (ev):

   -36.7974 -36.3113  -4.8208   3.6290   6.8751  15.2190  20.1081  20.1387
    21.8367

          k = 0.0000 0.1155 0.0555 (  3008 PWs)   bands (ev):

   -36.7971 -36.3116  -4.8186   3.5754   7.0183  14.7527  20.0590  20.8469
    21.8509

          k = 0.0000 0.1155 0.1109 (  2997 PWs)   bands (ev):

   -36.7965 -36.3123  -4.8131   3.4571   7.3781  13.8299  20.0753  21.8860
    22.3209

          k = 0.0000 0.1155 0.1664 (  2997 PWs)   bands (ev):

   -36.7958 -36.3130  -4.8077   3.3511   7.7748  13.0238  20.0960  21.9224
    23.9397

          k = 0.0000 0.1155-0.2218 (  3008 PWs)   bands (ev):

   -36.7956 -36.3133  -4.8054   3.3100   7.9577  12.6977  20.1048  21.9379
    24.6992

          k = 0.0000 0.2309 0.0000 (  2989 PWs)   bands (ev):

   -36.7492 -36.2730  -3.8477   4.4252   7.2884  14.6064  16.7306  19.4627
    19.9453

          k = 0.0000 0.2309 0.0555 (  2998 PWs)   bands (ev):

   -36.7490 -36.2732  -3.8448   4.3456   7.4750  14.3733  16.3638  19.9615
    20.0588

          k = 0.0000 0.2309 0.1109 (  3002 PWs)   bands (ev):

   -36.7484 -36.2738  -3.8378   4.1775   7.9386  13.6851  15.9789  20.0017
    20.9270

          k = 0.0000 0.2309 0.1664 (  3003 PWs)   bands (ev):

   -36.7479 -36.2744  -3.8308   4.0333   8.4598  12.9008  15.8409  20.0437
    21.2994

          k = 0.0000 0.2309-0.2218 (  2994 PWs)   bands (ev):

   -36.7476 -36.2746  -3.8279   3.9788   8.7113  12.5441  15.8109  20.0617
    21.3636

          k = 0.0000 0.3464 0.0000 (  2996 PWs)   bands (ev):

   -36.6893 -36.2254  -2.2459   5.7386   7.6807  11.0551  17.0665  17.1009
    18.5745

          k = 0.0000 0.3464 0.0555 (  3005 PWs)   bands (ev):

   -36.6891 -36.2255  -2.2415   5.5926   7.9414  11.0155  16.2561  17.5494
    18.5927

          k = 0.0000 0.3464 0.1109 (  3009 PWs)   bands (ev):

   -36.6887 -36.2260  -2.2309   5.3211   8.5479  10.8681  15.3664  17.6320
    18.6380

          k = 0.0000 0.3464 0.1664 (  3015 PWs)   bands (ev):

   -36.6883 -36.2264  -2.2201   5.1104   9.2803  10.5407  14.7027  17.5693
    18.6856

          k = 0.0000 0.3464-0.2218 (  3016 PWs)   bands (ev):

   -36.6881 -36.2266  -2.2156   5.0340   9.9737  10.0045  14.4592  17.5316
    18.7062

          k = 0.0000 0.4619 0.0000 (  3004 PWs)   bands (ev):

   -36.6406 -36.1867  -0.0545   5.9207   7.4848   9.9700  13.9149  16.4585
    17.7489

          k = 0.0000 0.4619 0.0555 (  3009 PWs)   bands (ev):

   -36.6405 -36.1868  -0.0470   5.9414   7.2986  10.2317  13.9178  16.4578
    17.7684

          k = 0.0000 0.4619 0.1109 (  3009 PWs)   bands (ev):

   -36.6402 -36.1872  -0.0286   6.0050   6.9228  10.7856  13.9921  16.2857
    17.8173

          k = 0.0000 0.4619 0.1664 (  3011 PWs)   bands (ev):

   -36.6399 -36.1875  -0.0100   6.1181   6.5658  11.2751  14.2945  15.6960
    17.8691

          k = 0.0000 0.4619-0.2218 (  3012 PWs)   bands (ev):

   -36.6397 -36.1877  -0.0021   6.2940   6.3015  11.4607  14.8928  14.9375
    17.8914

          k = 0.0000-0.5774 0.0000 (  3016 PWs)   bands (ev):

   -36.6220 -36.1719   2.2375   3.2717   8.8181  10.3565  12.0516  15.4891
    17.4733

          k = 0.0000-0.5774 0.0555 (  3014 PWs)   bands (ev):

   -36.6219 -36.1720   2.2471   3.2953   8.3474  10.9736  12.0638  15.5425
    17.4933

          k = 0.0000-0.5774 0.1109 (  3020 PWs)   bands (ev):

   -36.6216 -36.1723   2.2702   3.3571   7.6756  11.7201  12.4889  15.6781
    17.5435

          k = 0.0000-0.5774 0.1664 (  3014 PWs)   bands (ev):

   -36.6213 -36.1726   2.2930   3.4267   7.1993  11.7782  13.8045  15.8189
    16.9486

          k = 0.0000-0.5774-0.2218 (  3008 PWs)   bands (ev):

   -36.6212 -36.1727   2.3024   3.4584   7.0277  11.7686  15.2174  15.3989
    15.9987

          k = 0.1000 0.1732 0.0000 (  3009 PWs)   bands (ev):

   -36.7641 -36.2848  -4.1710   4.1605   7.1606  15.3763  17.2509  19.2477
    19.8329

          k = 0.1000 0.1732 0.0555 (  3013 PWs)   bands (ev):

   -36.7639 -36.2851  -4.1684   4.0905   7.3318  14.9078  17.2237  19.1050
    20.6363

          k = 0.1000 0.1732 0.1109 (  3002 PWs)   bands (ev):

   -36.7633 -36.2857  -4.1620   3.9401   7.7589  13.9506  17.2104  19.0734
    22.0866

          k = 0.1000 0.1732 0.1664 (  2997 PWs)   bands (ev):

   -36.7627 -36.2863  -4.1555   3.8092   8.2349  13.0858  17.2174  19.0983
    23.1426

          k = 0.1000 0.1732-0.2218 (  2990 PWs)   bands (ev):

   -36.7625 -36.2866  -4.1529   3.7592   8.4599  12.7244  17.2223  19.1137
    23.0390

          k = 0.1000 0.2887 0.0000 (  2999 PWs)   bands (ev):

   -36.7100 -36.2418  -2.8832   5.2192   7.6645  12.9536  15.4631  18.2001
    18.7162

          k = 0.1000 0.2887 0.0555 (  2997 PWs)   bands (ev):

   -36.7099 -36.2420  -2.8795   5.1064   7.8985  12.8944  15.2029  17.6733
    19.2953

          k = 0.1000 0.2887 0.1109 (  3002 PWs)   bands (ev):

   -36.7094 -36.2425  -2.8705   4.8818   8.4687  12.6536  14.6321  17.3712
    19.4189

          k = 0.1000 0.2887 0.1664 (  2998 PWs)   bands (ev):

   -36.7089 -36.2430  -2.8615   4.6988   9.1320  12.1716  14.2252  17.3147
    19.2017

          k = 0.1000 0.2887-0.2218 (  3004 PWs)   bands (ev):

   -36.7088 -36.2432  -2.8577   4.6311   9.4867  11.8474  14.1098  17.3182
    19.0918

          k = 0.1000 0.4041 0.0000 (  2998 PWs)   bands (ev):

   -36.6557 -36.1987  -0.9830   6.7756   7.4365  10.0897  14.5813  15.6683
    18.0236

          k = 0.1000 0.4041 0.0555 (  2992 PWs)   bands (ev):

   -36.6556 -36.1988  -0.9771   6.5276   7.6875  10.1876  14.4656  15.6893
    17.7365

          k = 0.1000 0.4041 0.1109 (  3003 PWs)   bands (ev):

   -36.6553 -36.1992  -0.9626   6.1760   8.0373  10.4618  14.1623  15.7350
    17.1770

          k = 0.1000 0.4041 0.1664 (  3009 PWs)   bands (ev):

   -36.6549 -36.1996  -0.9480   5.9304   8.2697  10.8082  13.8028  15.7532
    16.7599

          k = 0.1000 0.4041-0.2218 (  3008 PWs)   bands (ev):

   -36.6548 -36.1998  -0.9419   5.8437   8.3480  10.9839  13.6250  15.7421
    16.6297

          k = 0.1000 0.5196 0.0000 (  3021 PWs)   bands (ev):

   -36.6221 -36.1720   1.4548   4.6186   8.5884  10.3582  12.8070  13.7014
    16.7983

          k = 0.1000 0.5196 0.0555 (  3012 PWs)   bands (ev):

   -36.6219 -36.1721   1.4647   4.6442   8.2304  10.7989  12.7751  13.8318
    16.6814

          k = 0.1000 0.5196 0.1109 (  3011 PWs)   bands (ev):

   -36.6217 -36.1724   1.4889   4.7128   7.6495  11.5166  12.8356  14.1536
    16.4127

          k = 0.1000 0.5196 0.1664 (  3005 PWs)   bands (ev):

   -36.6214 -36.1727   1.5135   4.7940   7.2094  11.8689  13.2318  14.5224
    16.2833

          k = 0.1000 0.5196-0.2218 (  3010 PWs)   bands (ev):

   -36.6213 -36.1728   1.5239   4.8328   7.0450  11.9228  13.5189  14.6604
    16.6573

          k = 0.2000 0.3464 0.0000 (  2997 PWs)   bands (ev):

   -36.6615 -36.2033  -1.2951   6.5350   8.1445  10.9024  12.5798  17.6829
    18.4065

          k = 0.2000 0.3464 0.0555 (  2994 PWs)   bands (ev):

   -36.6614 -36.2035  -1.2897   6.3458   8.4503  10.9154  12.4985  17.1887
    17.8197

          k = 0.2000 0.3464 0.1109 (  3003 PWs)   bands (ev):

   -36.6610 -36.2038  -1.2766   6.0210   9.1178  10.9440  12.2246  16.5611
    17.1193

          k = 0.2000 0.3464 0.1664 (  3004 PWs)   bands (ev):

   -36.6607 -36.2042  -1.2633   5.7802   9.8938  10.9476  11.7518  16.2357
    16.5755

          k = 0.2000 0.3464-0.2218 (  3010 PWs)   bands (ev):

   -36.6605 -36.2044  -1.2577   5.6942  10.4623  10.8193  11.4149  16.2340
    16.2868

          k = 0.2000 0.4619 0.0000 (  3010 PWs)   bands (ev):

   -36.6222 -36.1720   0.8789   6.8033   8.3074   9.4871  11.7272  14.5655
    16.9015

          k = 0.2000 0.4619 0.0555 (  3011 PWs)   bands (ev):

   -36.6221 -36.1722   0.8873   6.8208   8.0776   9.6962  11.8343  14.3972
    16.7664

          k = 0.2000 0.4619 0.1109 (  3009 PWs)   bands (ev):

   -36.6218 -36.1725   0.9079   6.8722   7.6786  10.0326  12.0924  14.0732
    16.6245

          k = 0.2000 0.4619 0.1664 (  3018 PWs)   bands (ev):

   -36.6215 -36.1728   0.9289   6.9587   7.3402  10.2746  12.3236  13.8419
    16.6640

          k = 0.2000 0.4619-0.2218 (  3020 PWs)   bands (ev):

   -36.6214 -36.1729   0.9377   7.0686   7.1413  10.3619  12.4002  13.7743
    16.7693

          k = 0.2000 0.5774 0.0000 (  3023 PWs)   bands (ev):

   -36.6071 -36.1601   3.1605   4.1700   9.5710   9.7262  11.8051  12.6028
    15.6716

          k = 0.2000 0.5774 0.0555 (  3010 PWs)   bands (ev):

   -36.6070 -36.1602   3.1699   4.1933   9.1764   9.8351  12.0164  12.7999
    15.5431

          k = 0.2000 0.5774 0.1109 (  3013 PWs)   bands (ev):

   -36.6068 -36.1605   3.1926   4.2535   8.6001   9.9400  11.9560  13.7562
    15.2983

          k = 0.2000 0.5774 0.1664 (  3017 PWs)   bands (ev):

   -36.6065 -36.1607   3.2151   4.3204   8.1695  10.0410  11.7647  14.9360
    15.2806

          k = 0.2000 0.5774-0.2218 (  3010 PWs)   bands (ev):

   -36.6064 -36.1609   3.2244   4.3504   8.0118  10.0870  11.6775  14.9661
    16.3952

          k = 0.3000 0.5196 0.0000 (  3025 PWs)   bands (ev):

   -36.6015 -36.1556   3.2618   5.8825   7.1272  10.1390  12.3323  13.2360
    14.8015

          k = 0.3000 0.5196 0.0555 (  3025 PWs)   bands (ev):

   -36.6014 -36.1557   3.2731   5.8968   7.1678   9.8353  12.3091  13.2688
    15.3988

          k = 0.3000 0.5196 0.1109 (  3015 PWs)   bands (ev):

   -36.6011 -36.1559   3.3009   5.9331   7.2808   9.2811  11.8393  13.9261
    15.8955

          k = 0.3000 0.5196 0.1664 (  3022 PWs)   bands (ev):

   -36.6009 -36.1562   3.3293   5.9721   7.4295   8.8156  11.4265  14.4298
    16.5433

          k = 0.3000 0.5196-0.2218 (  3032 PWs)   bands (ev):

   -36.6008 -36.1563   3.3412   5.9892   7.5121   8.6223  11.2748  14.5420
    17.5805

     the Fermi energy is     9.4669 ev

!    total energy              =     -37.11160017 Ry
     estimated scf accuracy    <          1.4E-10 Ry
     smearing contrib. (-TS)   =       0.00004810 Ry
     internal energy E=F+TS    =     -37.11164828 Ry

     The total energy is F=E-TS. E is the sum of the following terms:
     one-electron contribution =      -7.95885762 Ry
     hartree contribution      =       5.83356696 Ry
     xc contribution           =     -10.36271251 Ry
     ewald contribution        =     -24.62364511 Ry

     convergence has been achieved in   7 iterations

     Forces acting on atoms (cartesian axes, Ry/au):

     atom    1 type  1   force =     0.00000000    0.00000000    0.00000000
     atom    2 type  2   force =     0.00000000   -0.00000000    0.02910151
     atom    3 type  2   force =     0.00000000    0.00000000   -0.02910151
     The non-local contrib.  to forces
     atom    1 type  1   force =     0.00000000    0.00000000    0.00000000
     atom    2 type  2   force =     0.00000000   -0.00000000   -0.05816567
     atom    3 type  2   force =     0.00000000   -0.00000000    0.05816567
     The ionic contribution  to forces
     atom    1 type  1   force =    -0.00000000   -0.00000000   -0.00000000
     atom    2 type  2   force =     0.00000001    0.00000000   -0.18404073
     atom    3 type  2   force =    -0.00000001    0.00000000    0.18404073
     The local contribution  to forces
     atom    1 type  1   force =     0.00000000    0.00000000   -0.00000000
     atom    2 type  2   force =    -0.00000044    0.00000025    0.27129475
     atom    3 type  2   force =     0.00000044    0.00000025   -0.27129475
     The core correction contribution to forces
     atom    1 type  1   force =     0.00000000    0.00000000   -0.00000000
     atom    2 type  2   force =     0.00000000    0.00000000    0.00000000
     atom    3 type  2   force =     0.00000000    0.00000000    0.00000000
     The Hubbard contrib.    to forces
     atom    1 type  1   force =     0.00000000    0.00000000    0.00000000
     atom    2 type  2   force =     0.00000000    0.00000000    0.00000000
     atom    3 type  2   force =     0.00000000    0.00000000    0.00000000
     The SCF correction term to forces
     atom    1 type  1   force =     0.00000000    0.00000000   -0.00000000
     atom    2 type  2   force =     0.00000000   -0.00000000    0.00001315
     atom    3 type  2   force =    -0.00000000   -0.00000000   -0.00001315

     Total force =     0.041156     Total SCF correction =     0.000019


     Computing stress (Cartesian axis) and pressure

          total   stress  (Ry/bohr**3)                   (kbar)     P=      546.67
   0.00330732  -0.00000000   0.00000000          486.52       -0.00        0.00
  -0.00000000   0.00330732   0.00000000           -0.00      486.52        0.00
   0.00000000   0.00000000   0.00453395            0.00        0.00      666.97


     BFGS Geometry Optimization
     Energy error            =      0.0E+00 Ry
     Gradient error          =      2.9E-02 Ry/Bohr
     Cell gradient error     =      1.7E+02 kbar

     number of scf cycles    =   1
     number of bfgs steps    =   0

     enthalpy           new  =     -36.5064303774 Ry

     new trust radius        =       0.0757251227 bohr
ibrav =      4
 celldm(1) =      4.49107797
 celldm(3) =      2.32333958
Input lattice vectors:
     0.99770984    -0.00000000     0.00000000
    -0.49885492     0.86404206     0.00000000
     0.00000000     0.00000000     2.31801875
New lattice vectors in INITIAL alat:
     0.99770984     0.00000000     0.00000000
    -0.49885492     0.86404206     0.00000000
     0.00000000     0.00000000     2.31801875
New lattice vectors in NEW alat (for information only):
     1.00000000     0.00000000     0.00000000
    -0.50000000     0.86602540     0.00000000
     0.00000000     0.00000000     2.32333958
Discrepancy in bohr =     0.000000    0.000000    0.000000
     new conv_thr            =       0.0000000100 Ry

     new unit-cell volume =    182.26157 a.u.^3 (    27.00838 Ang^3 )
     density =      2.58026 g/cm^3

CELL_PARAMETERS (alat=  4.50138688)
   0.997709837   0.000000000   0.000000000
  -0.498854918   0.864042064   0.000000000
   0.000000000   0.000000000   2.318018752

ATOMIC_POSITIONS (crystal)
Si            0.0000000000        0.0000000000        0.0000000000
Li            0.6666666700        0.3333333300        0.6641401637
Li            0.6666666600        0.3333333300        0.3358598363



     Writing config-only to output data dir ./output/SiLi.save/
     NEW-OLD atomic charge density approx. for the potential
     extrapolated charge   10.23101, renormalised to   10.00000

     total cpu time spent up to now is        7.3 secs

     Self-consistent Calculation

     iteration #  1     ecut=   100.00 Ry     beta= 0.70
     Davidson diagonalization with overlap
     ethr =  1.00E-06,  avg # of iterations =  6.9

     total cpu time spent up to now is        8.2 secs

     total energy              =     -37.13096814 Ry
     estimated scf accuracy    <       0.00039142 Ry

     iteration #  2     ecut=   100.00 Ry     beta= 0.70
     Davidson diagonalization with overlap
     ethr =  3.91E-06,  avg # of iterations =  2.6

     total cpu time spent up to now is        8.8 secs

     total energy              =     -37.13158005 Ry
     estimated scf accuracy    <       0.00057363 Ry

     iteration #  3     ecut=   100.00 Ry     beta= 0.70
     Davidson diagonalization with overlap
     ethr =  3.91E-06,  avg # of iterations =  1.7

     total cpu time spent up to now is        9.3 secs

     total energy              =     -37.13169419 Ry
     estimated scf accuracy    <       0.00008239 Ry

     iteration #  4     ecut=   100.00 Ry     beta= 0.70
     Davidson diagonalization with overlap
     ethr =  8.24E-07,  avg # of iterations =  1.0

     total cpu time spent up to now is        9.7 secs

     total energy              =     -37.13167878 Ry
     estimated scf accuracy    <       0.00003046 Ry

     iteration #  5     ecut=   100.00 Ry     beta= 0.70
     Davidson diagonalization with overlap
     ethr =  3.05E-07,  avg # of iterations =  1.9

     total cpu time spent up to now is       10.2 secs

     total energy              =     -37.13168262 Ry
     estimated scf accuracy    <       0.00000032 Ry

     iteration #  6     ecut=   100.00 Ry     beta= 0.70
     Davidson diagonalization with overlap
     ethr =  3.24E-09,  avg # of iterations =  1.8

     total cpu time spent up to now is       10.6 secs

     End of self-consistent calculation

          k = 0.0000 0.0000 0.0000 (  3015 PWs)   bands (ev):

   -36.9190 -36.5540  -5.4301   3.0035   6.3537  14.2567  19.1454  23.5741
    23.5741

          k = 0.0000 0.0000 0.0539 (  3027 PWs)   bands (ev):

   -36.9188 -36.5542  -5.4287   2.9675   6.4644  13.8459  19.7627  23.5843
    23.5843

          k = 0.0000 0.0000 0.1079 (  2990 PWs)   bands (ev):

   -36.9182 -36.5548  -5.4253   2.8859   6.7439  13.0313  21.2139  23.6095
    23.6095

          k = 0.0000 0.0000 0.1618 (  2978 PWs)   bands (ev):

   -36.9177 -36.5554  -5.4219   2.8108   7.0502  12.3296  23.0353  23.6352
    23.6352

          k = 0.0000 0.0000-0.2157 (  2972 PWs)   bands (ev):

   -36.9174 -36.5557  -5.4205   2.7812   7.1890  12.0517  23.6460  23.6460
    25.1440

          k = 0.0000 0.1157 0.0000 (  3009 PWs)   bands (ev):

   -36.9007 -36.5389  -5.1010   3.2741   6.5165  14.4404  19.0561  19.9836
    21.7420

          k = 0.0000 0.1157 0.0539 (  3008 PWs)   bands (ev):

   -36.9005 -36.5391  -5.0994   3.2321   6.6388  14.0049  19.5705  20.1008
    21.7527

          k = 0.0000 0.1157 0.1079 (  2997 PWs)   bands (ev):

   -36.8999 -36.5397  -5.0957   3.1382   6.9474  13.1494  19.8781  21.2420
    21.7790

          k = 0.0000 0.1157 0.1618 (  2997 PWs)   bands (ev):

   -36.8994 -36.5403  -5.0920   3.0527   7.2874  12.4111  19.9190  21.8061
    22.9269

          k = 0.0000 0.1157-0.2157 (  3008 PWs)   bands (ev):

   -36.8992 -36.5405  -5.0905   3.0193   7.4429  12.1162  19.9298  21.8175
    24.1466

          k = 0.0000 0.2315 0.0000 (  2989 PWs)   bands (ev):

   -36.8525 -36.4992  -4.1194   4.0835   6.9810  14.1974  16.1833  18.6068
    19.8534

          k = 0.0000 0.2315 0.0539 (  2998 PWs)   bands (ev):

   -36.8523 -36.4994  -4.1174   4.0204   7.1417  13.9068  15.9010  19.2508
    19.8658

          k = 0.0000 0.2315 0.1079 (  3002 PWs)   bands (ev):

   -36.8519 -36.4999  -4.1126   3.8841   7.5452  13.1622  15.6355  19.8964
    20.3553

          k = 0.0000 0.2315 0.1618 (  3003 PWs)   bands (ev):

   -36.8514 -36.5004  -4.1077   3.7650   7.9993  12.3999  15.5434  19.9281
    21.0455

          k = 0.0000 0.2315-0.2157 (  2994 PWs)   bands (ev):

   -36.8512 -36.5006  -4.1057   3.7195   8.2161  12.0683  15.5232  19.9415
    21.2101

          k = 0.0000 0.3472 0.0000 (  2996 PWs)   bands (ev):

   -36.7926 -36.4500  -2.5037   5.4181   7.4820  10.7698  16.4507  16.6486
    18.4845

          k = 0.0000 0.3472 0.0539 (  3005 PWs)   bands (ev):

   -36.7925 -36.4502  -2.5005   5.3013   7.7102  10.7244  15.6588  17.1474
    18.4986

          k = 0.0000 0.3472 0.1079 (  3009 PWs)   bands (ev):

   -36.7922 -36.4505  -2.4929   5.0752   8.2618  10.5619  14.7749  17.3491
    18.5334

          k = 0.0000 0.3472 0.1618 (  3015 PWs)   bands (ev):

   -36.7918 -36.4509  -2.4851   4.8947   8.9461  10.2220  14.1371  17.3570
    18.5696

          k = 0.0000 0.3472-0.2157 (  3016 PWs)   bands (ev):

   -36.7917 -36.4511  -2.4819   4.8286   9.5120   9.7887  13.9075  17.3419
    18.5851

          k = 0.0000 0.4629 0.0000 (  3004 PWs)   bands (ev):

   -36.7440 -36.4101  -0.2932   5.7686   7.1942   9.6870  13.5984  16.1326
    17.6602

          k = 0.0000 0.4629 0.0539 (  3009 PWs)   bands (ev):

   -36.7439 -36.4102  -0.2876   5.7883   7.0351   9.9191  13.6034  16.0912
    17.6754

          k = 0.0000 0.4629 0.1079 (  3009 PWs)   bands (ev):

   -36.7436 -36.4105  -0.2739   5.8488   6.7049  10.4264  13.6683  15.8253
    17.7132

          k = 0.0000 0.4629 0.1618 (  3011 PWs)   bands (ev):

   -36.7434 -36.4107  -0.2600   5.9560   6.3832  10.8959  13.9172  15.2114
    17.7527

          k = 0.0000 0.4629-0.2157 (  3012 PWs)   bands (ev):

   -36.7433 -36.4108  -0.2542   6.0929   6.1680  11.0826  14.3336  14.6112
    17.7697

          k = 0.0000-0.5787 0.0000 (  3016 PWs)   bands (ev):

   -36.7253 -36.3948   2.0050   3.0954   8.5633  10.1347  11.7185  15.1893
    17.3851

          k = 0.0000-0.5787 0.0539 (  3014 PWs)   bands (ev):

   -36.7253 -36.3949   2.0121   3.1153   8.1528  10.6892  11.7335  15.2301
    17.4007

          k = 0.0000-0.5787 0.1079 (  3020 PWs)   bands (ev):

   -36.7250 -36.3951   2.0290   3.1664   7.5492  11.4076  12.1146  15.3326
    17.4396

          k = 0.0000-0.5787 0.1618 (  3014 PWs)   bands (ev):

   -36.7248 -36.3953   2.0457   3.2226   7.1207  11.4832  13.3438  15.4318
    16.3770

          k = 0.0000-0.5787-0.2157 (  3008 PWs)   bands (ev):

   -36.7247 -36.3954   2.0526   3.2477   6.9673  11.4793  14.6673  14.9041
    15.5741

          k = 0.1002 0.1736 0.0000 (  3009 PWs)   bands (ev):

   -36.8674 -36.5115  -4.4456   3.8144   6.8351  14.6805  17.0762  18.8623
    19.0261

          k = 0.1002 0.1736 0.0539 (  3013 PWs)   bands (ev):

   -36.8672 -36.5117  -4.4438   3.7591   6.9822  14.2227  17.0485  18.8254
    19.7258

          k = 0.1002 0.1736 0.1079 (  3002 PWs)   bands (ev):

   -36.8668 -36.5122  -4.4393   3.6380   7.3521  13.3149  17.0333  18.8509
    21.1397

          k = 0.1002 0.1736 0.1618 (  2997 PWs)   bands (ev):

   -36.8663 -36.5127  -4.4349   3.5306   7.7648  12.5140  17.0363  18.8858
    22.6778

          k = 0.1002 0.1736-0.2157 (  2990 PWs)   bands (ev):

   -36.8661 -36.5129  -4.4331   3.4893   7.9581  12.1852  17.0395  18.9012
    23.0426

          k = 0.1002 0.2893 0.0000 (  2999 PWs)   bands (ev):

   -36.8134 -36.4671  -3.1466   4.8902   7.4087  12.7103  15.0865  17.6952
    18.0797

          k = 0.1002 0.2893 0.0539 (  2997 PWs)   bands (ev):

   -36.8132 -36.4672  -3.1439   4.8000   7.6115  12.6388  14.7838  17.2363
    18.7922

          k = 0.1002 0.2893 0.1079 (  3002 PWs)   bands (ev):

   -36.8129 -36.4676  -3.1376   4.6150   8.1152  12.3588  14.2080  17.0303
    19.1867

          k = 0.1002 0.2893 0.1618 (  2998 PWs)   bands (ev):

   -36.8125 -36.4680  -3.1312   4.4606   8.7024  11.8497  13.8526  17.0030
    19.0937

          k = 0.1002 0.2893-0.2157 (  3004 PWs)   bands (ev):

   -36.8123 -36.4682  -3.1285   4.4029   9.0089  11.5385  13.7584  17.0093
    19.0168

          k = 0.1002 0.4051 0.0000 (  2998 PWs)   bands (ev):

   -36.7591 -36.4225  -1.2298   6.4714   7.3016   9.7850  14.3920  15.3419
    17.5177

          k = 0.1002 0.4051 0.0539 (  2992 PWs)   bands (ev):

   -36.7590 -36.4226  -1.2255   6.2772   7.5094   9.8658  14.2476  15.3825
    17.2389

          k = 0.1002 0.4051 0.1079 (  3003 PWs)   bands (ev):

   -36.7587 -36.4229  -1.2149   5.9740   7.8367  10.0965  13.8849  15.4690
    16.7155

          k = 0.1002 0.4051 0.1618 (  3009 PWs)   bands (ev):

   -36.7584 -36.4232  -1.2042   5.7565   8.0657  10.3964  13.4734  15.5443
    16.3181

          k = 0.1002 0.4051-0.2157 (  3008 PWs)   bands (ev):

   -36.7583 -36.4233  -1.1997   5.6794   8.1440  10.5513  13.2767  15.5708
    16.1810

          k = 0.1002 0.5208 0.0000 (  3021 PWs)   bands (ev):

   -36.7254 -36.3948   1.2272   4.4437   8.3204  10.1296  12.4926  13.5703
    16.3838

          k = 0.1002 0.5208 0.0539 (  3012 PWs)   bands (ev):

   -36.7253 -36.3949   1.2347   4.4655   8.0131  10.5210  12.4829  13.6709
    16.2729

          k = 0.1002 0.5208 0.1079 (  3011 PWs)   bands (ev):

   -36.7251 -36.3952   1.2529   4.5228   7.4992  11.1936  12.5691  13.9243
    16.0153

          k = 0.1002 0.5208 0.1618 (  3005 PWs)   bands (ev):

   -36.7249 -36.3954   1.2714   4.5886   7.1086  11.5690  12.9613  14.1956
    15.8651

          k = 0.1002 0.5208-0.2157 (  3010 PWs)   bands (ev):

   -36.7248 -36.3955   1.2791   4.6192   6.9640  11.6412  13.2652  14.2747
    16.0948

          k = 0.2005 0.3472 0.0000 (  2997 PWs)   bands (ev):

   -36.7649 -36.4272  -1.5448   6.2263   7.9732  10.6962  12.3148  17.3826
    17.9496

          k = 0.2005 0.3472 0.0539 (  2994 PWs)   bands (ev):

   -36.7648 -36.4274  -1.5409   6.0744   8.2400  10.7038  12.2242  16.7901
    17.4502

          k = 0.2005 0.3472 0.1079 (  3003 PWs)   bands (ev):

   -36.7645 -36.4277  -1.5313   5.7999   8.8531  10.7147  11.9312  16.1385
    16.8528

          k = 0.2005 0.3472 0.1618 (  3004 PWs)   bands (ev):

   -36.7642 -36.4280  -1.5216   5.5906   9.5968  10.6702  11.4656  15.7923
    16.3943

          k = 0.2005 0.3472-0.2157 (  3010 PWs)   bands (ev):

   -36.7641 -36.4281  -1.5176   5.5152  10.2517  10.3672  11.1896  15.7074
    16.2125

          k = 0.2005 0.4629 0.0000 (  3010 PWs)   bands (ev):

   -36.7256 -36.3949   0.6472   6.6482   8.0270   9.3263  11.4717  14.2941
    16.6412

          k = 0.2005 0.4629 0.0539 (  3011 PWs)   bands (ev):

   -36.7255 -36.3950   0.6535   6.6649   7.8326   9.5155  11.5570  14.1597
    16.4452

          k = 0.2005 0.4629 0.1079 (  3009 PWs)   bands (ev):

   -36.7253 -36.3953   0.6690   6.7150   7.4777   9.8419  11.7702  13.8928
    16.2064

          k = 0.2005 0.4629 0.1618 (  3018 PWs)   bands (ev):

   -36.7250 -36.3955   0.6846   6.8023   7.1650  10.0845  11.9791  13.6943
    16.1134

          k = 0.2005 0.4629-0.2157 (  3020 PWs)   bands (ev):

   -36.7250 -36.3956   0.6912   6.9323   6.9548  10.1719  12.0576  13.6328
    16.1215

          k = 0.2005 0.5787 0.0000 (  3023 PWs)   bands (ev):

   -36.7105 -36.3826   2.9326   3.9960   9.4393   9.4820  11.5970  12.2988
    15.3656

          k = 0.2005 0.5787 0.0539 (  3010 PWs)   bands (ev):

   -36.7105 -36.3826   2.9395   4.0152   9.0130   9.6642  11.7830  12.4878
    15.2410

          k = 0.2005 0.5787 0.1079 (  3013 PWs)   bands (ev):

   -36.7103 -36.3829   2.9562   4.0643   8.4852   9.7748  11.7456  13.3780
    15.0018

          k = 0.2005 0.5787 0.1618 (  3017 PWs)   bands (ev):

   -36.7101 -36.3831   2.9729   4.1177   8.0974   9.8640  11.5938  14.5685
    14.8973

          k = 0.2005 0.5787-0.2157 (  3010 PWs)   bands (ev):

   -36.7100 -36.3832   2.9798   4.1412   7.9566   9.9022  11.5243  14.6829
    15.9008

          k = 0.3007 0.5208 0.0000 (  3025 PWs)   bands (ev):

   -36.7049 -36.3779   3.0450   5.6759   7.0188   9.8949  12.1115  12.9822
    14.5796

          k = 0.3007 0.5208 0.0539 (  3025 PWs)   bands (ev):

   -36.7048 -36.3780   3.0536   5.6874   7.0543   9.6304  12.1272  12.9830
    15.1192

          k = 0.3007 0.5208 0.1079 (  3015 PWs)   bands (ev):

   -36.7046 -36.3782   3.0747   5.7164   7.1517   9.1378  11.7316  13.5694
    15.5372

          k = 0.3007 0.5208 0.1618 (  3022 PWs)   bands (ev):

   -36.7044 -36.3784   3.0961   5.7471   7.2757   8.7254  11.3636  14.0707
    16.1054

          k = 0.3007 0.5208-0.2157 (  3032 PWs)   bands (ev):

   -36.7043 -36.3785   3.1051   5.7604   7.3411   8.5586  11.2280  14.1965
    17.1315

     the Fermi energy is     9.2134 ev

!    total energy              =     -37.13168266 Ry
     estimated scf accuracy    <          9.3E-09 Ry
     smearing contrib. (-TS)   =       0.00018623 Ry
     internal energy E=F+TS    =     -37.13186890 Ry

     The total energy is F=E-TS. E is the sum of the following terms:
     one-electron contribution =      -8.22459732 Ry
     hartree contribution      =       5.87580053 Ry
     xc contribution           =     -10.34295740 Ry
     ewald contribution        =     -24.44011472 Ry

     convergence has been achieved in   6 iterations

     Forces acting on atoms (cartesian axes, Ry/au):

     atom    1 type  1   force =     0.00000000    0.00000000    0.00000000
     atom    2 type  2   force =     0.00000000    0.00000000    0.02247403
     atom    3 type  2   force =     0.00000000    0.00000000   -0.02247403
     The non-local contrib.  to forces
     atom    1 type  1   force =     0.00000000    0.00000000    0.00000000
     atom    2 type  2   force =    -0.00000000   -0.00000000   -0.03761030
     atom    3 type  2   force =     0.00000000    0.00000000    0.03761030
     The ionic contribution  to forces
     atom    1 type  1   force =    -0.00000000   -0.00000000   -0.00000000
     atom    2 type  2   force =     0.00000000    0.00000000   -0.36680360
     atom    3 type  2   force =    -0.00000000    0.00000000    0.36680360
     The local contribution  to forces
     atom    1 type  1   force =     0.00000000    0.00000000    0.00000000
     atom    2 type  2   force =    -0.00000044    0.00000025    0.42675711
     atom    3 type  2   force =     0.00000044    0.00000025   -0.42675711
     The core correction contribution to forces
     atom    1 type  1   force =     0.00000000    0.00000000   -0.00000000
     atom    2 type  2   force =     0.00000000    0.00000000    0.00000000
     atom    3 type  2   force =     0.00000000    0.00000000    0.00000000
     The Hubbard contrib.    to forces
     atom    1 type  1   force =     0.00000000    0.00000000    0.00000000
     atom    2 type  2   force =     0.00000000    0.00000000    0.00000000
     atom    3 type  2   force =     0.00000000    0.00000000    0.00000000
     The SCF correction term to forces
     atom    1 type  1   force =    -0.00000000    0.00000000   -0.00000000
     atom    2 type  2   force =     0.00000000   -0.00000000    0.00013082
     atom    3 type  2   force =    -0.00000000   -0.00000000   -0.00013082

     Total force =     0.031783     Total SCF correction =     0.000185


     Computing stress (Cartesian axis) and pressure

          total   stress  (Ry/bohr**3)                   (kbar)     P=      507.88
   0.00322784   0.00000000   0.00000000          474.83        0.00        0.00
   0.00000000   0.00322784   0.00000000            0.00      474.83        0.00
   0.00000000   0.00000000   0.00390173            0.00        0.00      573.96

     Energy error            =      5.8E-03 Ry
     Gradient error          =      2.2E-02 Ry/Bohr
     Cell gradient error     =      7.4E+01 kbar

     number of scf cycles    =   2
     number of bfgs steps    =   1

     enthalpy           old  =     -36.5064303774 Ry
     enthalpy           new  =     -36.5121881756 Ry

     CASE: enthalpy          _new < enthalpy          _old

     new trust radius        =       0.0848327143 bohr
ibrav =      4
 celldm(1) =      4.44660441
 celldm(3) =      2.42030289
Input lattice vectors:
     0.98782987     0.00000000     0.00000000
    -0.49391493     0.85548576     0.00000000
     0.00000000     0.00000000     2.39084749
New lattice vectors in INITIAL alat:
     0.98782987     0.00000000     0.00000000
    -0.49391493     0.85548576     0.00000000
     0.00000000     0.00000000     2.39084749
New lattice vectors in NEW alat (for information only):
     1.00000000     0.00000000     0.00000000
    -0.50000000     0.86602540     0.00000000
     0.00000000     0.00000000     2.42030289
Discrepancy in bohr =     0.000000    0.000000    0.000000
     new conv_thr            =       0.0000000022 Ry

     new unit-cell volume =    184.28324 a.u.^3 (    27.30796 Ang^3 )
     density =      2.55195 g/cm^3

CELL_PARAMETERS (alat=  4.50138688)
   0.987829868   0.000000000   0.000000000
  -0.493914934   0.855485760   0.000000000
   0.000000000   0.000000000   2.390847486

ATOMIC_POSITIONS (crystal)
Si            0.0000000000        0.0000000000        0.0000000000
Li            0.6666666700        0.3333333300        0.6695865440
Li            0.6666666600        0.3333333300        0.3304134560



     Writing config-only to output data dir ./output/SiLi.save/
     NEW-OLD atomic charge density approx. for the potential
     extrapolated charge   10.10960, renormalised to   10.00000

     total cpu time spent up to now is       11.8 secs

     Self-consistent Calculation

     iteration #  1     ecut=   100.00 Ry     beta= 0.70
     Davidson diagonalization with overlap
     ethr =  1.00E-06,  avg # of iterations =  7.1

     total cpu time spent up to now is       12.9 secs

     total energy              =     -37.14002962 Ry
     estimated scf accuracy    <       0.00272137 Ry

     iteration #  2     ecut=   100.00 Ry     beta= 0.70
     Davidson diagonalization with overlap
     ethr =  2.72E-05,  avg # of iterations =  2.5

     total cpu time spent up to now is       13.4 secs

     total energy              =     -37.14006139 Ry
     estimated scf accuracy    <       0.00858300 Ry

     iteration #  3     ecut=   100.00 Ry     beta= 0.70
     Davidson diagonalization with overlap
     ethr =  2.72E-05,  avg # of iterations =  1.9

     total cpu time spent up to now is       13.8 secs

     total energy              =     -37.14161697 Ry
     estimated scf accuracy    <       0.00004018 Ry

     iteration #  4     ecut=   100.00 Ry     beta= 0.70
     Davidson diagonalization with overlap
     ethr =  4.02E-07,  avg # of iterations =  1.9

     total cpu time spent up to now is       14.3 secs

     total energy              =     -37.14161445 Ry
     estimated scf accuracy    <       0.00001175 Ry

     iteration #  5     ecut=   100.00 Ry     beta= 0.70
     Davidson diagonalization with overlap
     ethr =  1.18E-07,  avg # of iterations =  1.4

     total cpu time spent up to now is       14.7 secs

     total energy              =     -37.14161662 Ry
     estimated scf accuracy    <       0.00000034 Ry

     iteration #  6     ecut=   100.00 Ry     beta= 0.70
     Davidson diagonalization with overlap
     ethr =  3.43E-09,  avg # of iterations =  1.6

     total cpu time spent up to now is       15.1 secs

     total energy              =     -37.14161667 Ry
     estimated scf accuracy    <       0.00000001 Ry

     iteration #  7     ecut=   100.00 Ry     beta= 0.70
     Davidson diagonalization with overlap
     ethr =  1.24E-10,  avg # of iterations =  2.6

     total cpu time spent up to now is       15.5 secs

     End of self-consistent calculation

          k = 0.0000 0.0000 0.0000 (  3015 PWs)   bands (ev):

   -36.9186 -36.6803  -5.7222   2.6996   6.0612  13.5436  18.0737  23.7811
    23.7811

          k = 0.0000 0.0000 0.0523 (  3027 PWs)   bands (ev):

   -36.9184 -36.6805  -5.7214   2.6748   6.1488  13.1693  18.6520  23.7875
    23.7875

          k = 0.0000 0.0000 0.1046 (  2990 PWs)   bands (ev):

   -36.9179 -36.6810  -5.7194   2.6177   6.3706  12.4336  20.0156  23.8032
    23.8032

          k = 0.0000 0.0000 0.1568 (  2978 PWs)   bands (ev):

   -36.9174 -36.6816  -5.7173   2.5641   6.6126  11.8098  21.7285  23.8190
    23.8190

          k = 0.0000 0.0000-0.2091 (  2972 PWs)   bands (ev):

   -36.9172 -36.6818  -5.7165   2.5428   6.7211  11.5665  23.1386  23.8257
    23.8257

          k = 0.0000 0.1169 0.0000 (  3009 PWs)   bands (ev):

   -36.8991 -36.6635  -5.3858   2.9775   6.2465  13.7433  18.0118  20.1495
    22.0250

          k = 0.0000 0.1169 0.0523 (  3008 PWs)   bands (ev):

   -36.8989 -36.6637  -5.3848   2.9482   6.3443  13.3411  18.5854  20.1757
    22.0324

          k = 0.0000 0.1169 0.1046 (  2997 PWs)   bands (ev):

   -36.8984 -36.6642  -5.3826   2.8813   6.5921  12.5608  19.7107  20.4350
    22.0504

          k = 0.0000 0.1169 0.1568 (  2997 PWs)   bands (ev):

   -36.8979 -36.6647  -5.3804   2.8192   6.8643  11.8999  20.0228  21.8254
    22.0687

          k = 0.0000 0.1169-0.2091 (  3008 PWs)   bands (ev):

   -36.8977 -36.6649  -5.3795   2.7947   6.9875  11.6405  20.0525  22.0764
    23.2190

          k = 0.0000 0.2338 0.0000 (  2989 PWs)   bands (ev):

   -36.8478 -36.6193  -4.3826   3.8084   6.7780  13.8435  15.9272  17.7233
    20.1371

          k = 0.0000 0.2338 0.0523 (  2998 PWs)   bands (ev):

   -36.8476 -36.6195  -4.3814   3.7628   6.9095  13.4860  15.7312  18.4018
    20.1459

          k = 0.0000 0.2338 0.1046 (  3002 PWs)   bands (ev):

   -36.8473 -36.6199  -4.3784   3.6619   7.2435  12.7037  15.5710  19.6814
    20.1676

          k = 0.0000 0.2338 0.1568 (  3003 PWs)   bands (ev):

   -36.8469 -36.6203  -4.3754   3.5715   7.6198  11.9796  15.5174  20.1897
    20.8379

          k = 0.0000 0.2338-0.2091 (  2994 PWs)   bands (ev):

   -36.8467 -36.6205  -4.3742   3.5364   7.7971  11.6784  15.5056  20.1990
    21.2895

          k = 0.0000 0.3507 0.0000 (  2996 PWs)   bands (ev):

   -36.7841 -36.5645  -2.7320   5.1773   7.4110  10.6844  15.8904  16.2869
    18.7624

          k = 0.0000 0.3507 0.0523 (  3005 PWs)   bands (ev):

   -36.7840 -36.5646  -2.7300   5.0910   7.6039  10.6298  15.1266  16.8688
    18.7725

          k = 0.0000 0.3507 0.1046 (  3009 PWs)   bands (ev):

   -36.7837 -36.5649  -2.7251   4.9158   8.0894  10.4426  14.2738  17.2522
    18.7976

          k = 0.0000 0.3507 0.1568 (  3015 PWs)   bands (ev):

   -36.7834 -36.5652  -2.7201   4.7708   8.7068  10.0841  13.6881  17.3701
    18.8234

          k = 0.0000 0.3507-0.2091 (  3016 PWs)   bands (ev):

   -36.7833 -36.5654  -2.7181   4.7169   9.1539   9.7331  13.4844  17.3888
    18.8344

          k = 0.0000 0.4676 0.0000 (  3004 PWs)   bands (ev):

   -36.7323 -36.5199  -0.4770   5.7582   6.9994   9.5877  13.4218  15.9576
    17.9336

          k = 0.0000 0.4676 0.0523 (  3009 PWs)   bands (ev):

   -36.7322 -36.5200  -0.4732   5.7763   6.8740   9.7828  13.4261  15.8630
    17.9448

          k = 0.0000 0.4676 0.1046 (  3009 PWs)   bands (ev):

   -36.7320 -36.5203  -0.4639   5.8317   6.6024  10.2272  13.4718  15.4993
    17.9723

          k = 0.0000 0.4676 0.1568 (  3011 PWs)   bands (ev):

   -36.7318 -36.5205  -0.4545   5.9279   6.3291  10.6605  13.6386  14.8998
    18.0008

          k = 0.0000 0.4676-0.2091 (  3012 PWs)   bands (ev):

   -36.7317 -36.5206  -0.4506   6.0304   6.1611  10.8413  13.8521  14.4843
    18.0128

          k = 0.0000-0.5845 0.0000 (  3016 PWs)   bands (ev):

   -36.7124 -36.5029   1.8252   3.0620   8.4149  10.1158  11.5264  15.0796
    17.6570

          k = 0.0000-0.5845 0.0523 (  3014 PWs)   bands (ev):

   -36.7124 -36.5030   1.8300   3.0780   8.0803  10.5938  11.5408  15.1070
    17.6685

          k = 0.0000-0.5845 0.1046 (  3020 PWs)   bands (ev):

   -36.7122 -36.5032   1.8414   3.1184   7.5589  11.2675  11.8751  15.1746
    17.6969

          k = 0.0000-0.5845 0.1568 (  3014 PWs)   bands (ev):

   -36.7120 -36.5033   1.8528   3.1620   7.1836  11.3465  13.0146  15.2275
    15.9381

          k = 0.0000-0.5845-0.2091 (  3008 PWs)   bands (ev):

   -36.7119 -36.5034   1.8575   3.1811   7.0494  11.3463  14.1777  14.6081
    15.3439

          k = 0.1012 0.1753 0.0000 (  3009 PWs)   bands (ev):

   -36.8637 -36.6330  -4.7159   3.5322   6.6090  14.0550  17.1609  17.8866
    19.2095

          k = 0.1012 0.1753 0.0523 (  3013 PWs)   bands (ev):

   -36.8635 -36.6332  -4.7148   3.4926   6.7286  13.6121  17.1223  18.4276
    19.3356

          k = 0.1012 0.1753 0.1046 (  3002 PWs)   bands (ev):

   -36.8631 -36.6336  -4.7121   3.4040   7.0320  12.7618  17.1075  18.9407
    20.2478

          k = 0.1012 0.1753 0.1568 (  2997 PWs)   bands (ev):

   -36.8627 -36.6340  -4.7095   3.3236   7.3703  12.0334  17.1094  19.0445
    21.8205

          k = 0.1012 0.1753-0.2091 (  2990 PWs)   bands (ev):

   -36.8625 -36.6342  -4.7084   3.2922   7.5270  11.7411  17.1115  19.0688
    23.1694

          k = 0.1012 0.2922 0.0000 (  2999 PWs)   bands (ev):

   -36.8062 -36.5835  -3.3886   4.6359   7.2715  12.6639  14.8130  17.4062
    17.5536

          k = 0.1012 0.2922 0.0523 (  2997 PWs)   bands (ev):

   -36.8060 -36.5836  -3.3870   4.5695   7.4402  12.5655  14.4637  17.0958
    18.3255

          k = 0.1012 0.2922 0.1046 (  3002 PWs)   bands (ev):

   -36.8057 -36.5840  -3.3830   4.4287   7.8676  12.2024  13.9313  17.0261
    19.0817

          k = 0.1012 0.2922 0.1568 (  2998 PWs)   bands (ev):

   -36.8054 -36.5843  -3.3790   4.3074   8.3685  11.6375  13.6665  17.0405
    19.2369

          k = 0.1012 0.2922-0.2091 (  3004 PWs)   bands (ev):

   -36.8052 -36.5844  -3.3773   4.2614   8.6242  11.3333  13.6019  17.0540
    19.2157

          k = 0.1012 0.4091 0.0000 (  2998 PWs)   bands (ev):

   -36.7484 -36.5338  -1.4318   6.2572   7.3152   9.6582  14.4300  15.1416
    17.2020

          k = 0.1012 0.4091 0.0523 (  2992 PWs)   bands (ev):

   -36.7483 -36.5339  -1.4289   6.1163   7.4830   9.7172  14.2042  15.2451
    16.9553

          k = 0.1012 0.4091 0.1046 (  3003 PWs)   bands (ev):

   -36.7480 -36.5341  -1.4219   5.8720   7.7864   9.8891  13.7255  15.4125
    16.5145

          k = 0.1012 0.4091 0.1568 (  3009 PWs)   bands (ev):

   -36.7478 -36.5344  -1.4148   5.6891   8.0181  10.1208  13.2444  15.5550
    16.1732

          k = 0.1012 0.4091-0.2091 (  3008 PWs)   bands (ev):

   -36.7477 -36.5345  -1.4119   5.6235   8.1004  10.2432  13.0294  15.6234
    16.0373

          k = 0.1012 0.5260 0.0000 (  3021 PWs)   bands (ev):

   -36.7125 -36.5030   1.0668   4.4019   8.1595  10.0945  12.3224  13.6983
    16.1946

          k = 0.1012 0.5260 0.0523 (  3012 PWs)   bands (ev):

   -36.7125 -36.5030   1.0720   4.4198   7.9133  10.4255  12.3303  13.7716
    16.0836

          k = 0.1012 0.5260 0.1046 (  3011 PWs)   bands (ev):

   -36.7123 -36.5032   1.0845   4.4660   7.4797  11.0373  12.4376  13.9530
    15.8230

          k = 0.1012 0.5260 0.1568 (  3005 PWs)   bands (ev):

   -36.7121 -36.5034   1.0972   4.5178   7.1447  11.4258  12.8235  14.1003
    15.6451

          k = 0.1012 0.5260-0.2091 (  3010 PWs)   bands (ev):

   -36.7120 -36.5035   1.1026   4.5411   7.0209  11.5154  13.1540  14.0748
    15.7517

          k = 0.2025 0.3507 0.0000 (  2997 PWs)   bands (ev):

   -36.7546 -36.5391  -1.7532   6.0058   7.9420  10.6589  12.3089  17.0589
    17.7750

          k = 0.2025 0.3507 0.0523 (  2994 PWs)   bands (ev):

   -36.7545 -36.5392  -1.7506   5.8929   8.1668  10.6604  12.1976  16.3836
    17.4487

          k = 0.2025 0.3507 0.1046 (  3003 PWs)   bands (ev):

   -36.7542 -36.5394  -1.7444   5.6760   8.7138  10.6507  11.8588  15.7640
    16.9723

          k = 0.2025 0.3507 0.1568 (  3004 PWs)   bands (ev):

   -36.7540 -36.5397  -1.7380   5.5040   9.4078  10.5505  11.3871  15.4466
    16.6017

          k = 0.2025 0.3507-0.2091 (  3010 PWs)   bands (ev):

   -36.7539 -36.5398  -1.7354   5.4412  10.0359  10.1852  11.1587  15.3610
    16.4627

          k = 0.2025 0.4676 0.0000 (  3010 PWs)   bands (ev):

   -36.7127 -36.5031   0.4810   6.6347   7.8543   9.3437  11.4704  14.1823
    16.6508

          k = 0.2025 0.4676 0.0523 (  3011 PWs)   bands (ev):

   -36.7126 -36.5031   0.4853   6.6501   7.7014   9.5113  11.5251  14.0916
    16.3242

          k = 0.2025 0.4676 0.1046 (  3009 PWs)   bands (ev):

   -36.7124 -36.5033   0.4959   6.6966   7.4042   9.8325  11.6621  13.9063
    15.9392

          k = 0.2025 0.4676 0.1568 (  3018 PWs)   bands (ev):

   -36.7122 -36.5035   0.5066   6.7771   7.1320  10.0923  11.8003  13.7671
    15.6988

          k = 0.2025 0.4676-0.2091 (  3020 PWs)   bands (ev):

   -36.7122 -36.5036   0.5110   6.8666   6.9735  10.1893  11.8550  13.7243
    15.6237

          k = 0.2025 0.5845 0.0000 (  3023 PWs)   bands (ev):

   -36.6967 -36.4893   2.7688   3.9663   9.3646   9.5006  11.6446  12.1341
    15.3208

          k = 0.2025 0.5845 0.0523 (  3010 PWs)   bands (ev):

   -36.6966 -36.4893   2.7736   3.9813   8.9927   9.6841  11.7610  12.3464
    15.1867

          k = 0.2025 0.5845 0.1046 (  3013 PWs)   bands (ev):

   -36.6964 -36.4895   2.7850   4.0192   8.5237   9.8098  11.7102  13.1895
    14.9331

          k = 0.2025 0.5845 0.1568 (  3017 PWs)   bands (ev):

   -36.6963 -36.4897   2.7965   4.0596   8.1834   9.8941  11.5941  14.3385
    14.7741

          k = 0.2025 0.5845-0.2091 (  3010 PWs)   bands (ev):

   -36.6962 -36.4898   2.8012   4.0771   8.0606   9.9273  11.5421  14.6011
    15.6320

          k = 0.3037 0.5260 0.0000 (  3025 PWs)   bands (ev):

   -36.6906 -36.4841   2.9120   5.5694   7.1349   9.7903  12.1340  12.8636
    14.6548

          k = 0.3037 0.5260 0.0523 (  3025 PWs)   bands (ev):

   -36.6906 -36.4841   2.9181   5.5782   7.1655   9.5749  12.1521  12.8807
    15.1119

          k = 0.3037 0.5260 0.1046 (  3015 PWs)   bands (ev):

   -36.6904 -36.4843   2.9328   5.5999   7.2487   9.1580  11.8175  13.4099
    15.3528

          k = 0.3037 0.5260 0.1568 (  3022 PWs)   bands (ev):

   -36.6903 -36.4845   2.9476   5.6226   7.3518   8.8041  11.4972  13.8941
    15.8416

          k = 0.3037 0.5260-0.2091 (  3032 PWs)   bands (ev):

   -36.6902 -36.4845   2.9538   5.6322   7.4042   8.6627  11.3787  14.0286
    16.9338

     the Fermi energy is     9.1643 ev

!    total energy              =     -37.14161668 Ry
     estimated scf accuracy    <          5.0E-10 Ry
     smearing contrib. (-TS)   =       0.00011109 Ry
     internal energy E=F+TS    =     -37.14172777 Ry

     The total energy is F=E-TS. E is the sum of the following terms:
     one-electron contribution =      -8.43773312 Ry
     hartree contribution      =       5.94219120 Ry
     xc contribution           =     -10.34444019 Ry
     ewald contribution        =     -24.30174565 Ry

     convergence has been achieved in   7 iterations

     Forces acting on atoms (cartesian axes, Ry/au):

     atom    1 type  1   force =     0.00000000   -0.00000000    0.00000000
     atom    2 type  2   force =    -0.00000000   -0.00000000    0.00777348
     atom    3 type  2   force =    -0.00000000    0.00000000   -0.00777348
     The non-local contrib.  to forces
     atom    1 type  1   force =     0.00000000    0.00000000    0.00000000
     atom    2 type  2   force =     0.00000000   -0.00000000   -0.01838192
     atom    3 type  2   force =     0.00000000   -0.00000000    0.01838192
     The ionic contribution  to forces
     atom    1 type  1   force =     0.00000000   -0.00000000   -0.00000000
     atom    2 type  2   force =     0.00000000    0.00000000   -0.68095780
     atom    3 type  2   force =    -0.00000000    0.00000000    0.68095780
     The local contribution  to forces
     atom    1 type  1   force =     0.00000000    0.00000000   -0.00000000
     atom    2 type  2   force =    -0.00000043    0.00000025    0.70713815
     atom    3 type  2   force =     0.00000043    0.00000025   -0.70713815
     The core correction contribution to forces
     atom    1 type  1   force =     0.00000000    0.00000000    0.00000000
     atom    2 type  2   force =     0.00000000    0.00000000    0.00000000
     atom    3 type  2   force =     0.00000000    0.00000000    0.00000000
     The Hubbard contrib.    to forces
     atom    1 type  1   force =     0.00000000    0.00000000    0.00000000
     atom    2 type  2   force =     0.00000000    0.00000000    0.00000000
     atom    3 type  2   force =     0.00000000    0.00000000    0.00000000
     The SCF correction term to forces
     atom    1 type  1   force =     0.00000000    0.00000000    0.00000000
     atom    2 type  2   force =     0.00000000   -0.00000000   -0.00002495
     atom    3 type  2   force =    -0.00000000   -0.00000000    0.00002495

     Total force =     0.010993     Total SCF correction =     0.000035


     Computing stress (Cartesian axis) and pressure

          total   stress  (Ry/bohr**3)                   (kbar)     P=      504.11
   0.00348623  -0.00000000   0.00000000          512.84       -0.00        0.00
  -0.00000000   0.00348623   0.00000000           -0.00      512.84        0.00
   0.00000000   0.00000000   0.00330815            0.00        0.00      486.65

     Energy error            =      3.1E-03 Ry
     Gradient error          =      7.8E-03 Ry/Bohr
     Cell gradient error     =      1.3E+01 kbar

     number of scf cycles    =   3
     number of bfgs steps    =   2

     enthalpy           old  =     -36.5121881756 Ry
     enthalpy           new  =     -36.5152506819 Ry

     CASE: enthalpy          _new < enthalpy          _old

     new trust radius        =       0.0115157961 bohr
ibrav =      4
 celldm(1) =      4.45526397
 celldm(3) =      2.41429561
Input lattice vectors:
     0.98975362    -0.00000000     0.00000000
    -0.49487681     0.85715178     0.00000000
     0.00000000     0.00000000     2.38955783
New lattice vectors in INITIAL alat:
     0.98975362     0.00000000     0.00000000
    -0.49487681     0.85715178     0.00000000
     0.00000000     0.00000000     2.38955783
New lattice vectors in NEW alat (for information only):
     1.00000000     0.00000000     0.00000000
    -0.50000000     0.86602540     0.00000000
     0.00000000     0.00000000     2.41429561
Discrepancy in bohr =     0.000000    0.000000    0.000000
     new conv_thr            =       0.0000000008 Ry

     new unit-cell volume =    184.90191 a.u.^3 (    27.39964 Ang^3 )
     density =      2.54342 g/cm^3

CELL_PARAMETERS (alat=  4.50138688)
   0.989753623   0.000000000   0.000000000
  -0.494876812   0.857151781   0.000000000
   0.000000000   0.000000000   2.389557826

ATOMIC_POSITIONS (crystal)
Si            0.0000000000        0.0000000000        0.0000000000
Li            0.6666666700        0.3333333300        0.6706565735
Li            0.6666666600        0.3333333300        0.3293434265



     Writing config-only to output data dir ./output/SiLi.save/
     NEW-OLD atomic charge density approx. for the potential
     extrapolated charge   10.03343, renormalised to   10.00000

     total cpu time spent up to now is       16.6 secs

     Self-consistent Calculation

     iteration #  1     ecut=   100.00 Ry     beta= 0.70
     Davidson diagonalization with overlap
     ethr =  1.00E-06,  avg # of iterations =  3.2

     total cpu time spent up to now is       17.3 secs

     total energy              =     -37.14388596 Ry
     estimated scf accuracy    <       0.00003434 Ry

     iteration #  2     ecut=   100.00 Ry     beta= 0.70
     Davidson diagonalization with overlap
     ethr =  3.43E-07,  avg # of iterations =  2.0

     total cpu time spent up to now is       17.8 secs

     total energy              =     -37.14389655 Ry
     estimated scf accuracy    <       0.00003733 Ry

     iteration #  3     ecut=   100.00 Ry     beta= 0.70
     Davidson diagonalization with overlap
     ethr =  3.43E-07,  avg # of iterations =  1.6

     total cpu time spent up to now is       18.2 secs

     total energy              =     -37.14390588 Ry
     estimated scf accuracy    <       0.00000700 Ry

     iteration #  4     ecut=   100.00 Ry     beta= 0.70
     Davidson diagonalization with overlap
     ethr =  7.00E-08,  avg # of iterations =  1.0

     total cpu time spent up to now is       18.6 secs

     total energy              =     -37.14390664 Ry
     estimated scf accuracy    <       0.00000019 Ry

     iteration #  5     ecut=   100.00 Ry     beta= 0.70
     Davidson diagonalization with overlap
     ethr =  1.86E-09,  avg # of iterations =  1.6

     total cpu time spent up to now is       19.0 secs

     total energy              =     -37.14390667 Ry
     estimated scf accuracy    <          2.8E-09 Ry

     iteration #  6     ecut=   100.00 Ry     beta= 0.70
     Davidson diagonalization with overlap
     ethr =  2.85E-11,  avg # of iterations =  2.8

     total cpu time spent up to now is       19.5 secs

     End of self-consistent calculation

          k = 0.0000 0.0000 0.0000 (  3015 PWs)   bands (ev):

   -36.9427 -36.7140  -5.7280   2.6961   6.0216  13.5811  18.0242  23.6783
    23.6783

          k = 0.0000 0.0000 0.0523 (  3027 PWs)   bands (ev):

   -36.9425 -36.7143  -5.7272   2.6706   6.1105  13.1969  18.6123  23.6848
    23.6848

          k = 0.0000 0.0000 0.1046 (  2990 PWs)   bands (ev):

   -36.9420 -36.7148  -5.7252   2.6120   6.3353  12.4473  19.9883  23.7008
    23.7008

          k = 0.0000 0.0000 0.1569 (  2978 PWs)   bands (ev):

   -36.9414 -36.7154  -5.7232   2.5571   6.5803  11.8149  21.7033  23.7170
    23.7170

          k = 0.0000 0.0000-0.2092 (  2972 PWs)   bands (ev):

   -36.9412 -36.7156  -5.7224   2.5353   6.6901  11.5686  23.0780  23.7237
    23.7237

          k = 0.0000 0.1167 0.0000 (  3009 PWs)   bands (ev):

   -36.9235 -36.6975  -5.3930   2.9720   6.2083  13.7748  17.9635  20.0523
    21.9072

          k = 0.0000 0.1167 0.0523 (  3008 PWs)   bands (ev):

   -36.9233 -36.6977  -5.3921   2.9419   6.3073  13.3628  18.5450  20.0802
    21.9146

          k = 0.0000 0.1167 0.1046 (  2997 PWs)   bands (ev):

   -36.9228 -36.6982  -5.3900   2.8735   6.5582  12.5694  19.6506  20.3709
    21.9327

          k = 0.0000 0.1167 0.1569 (  2997 PWs)   bands (ev):

   -36.9223 -36.6987  -5.3878   2.8101   6.8335  11.9004  19.9286  21.7976
    21.9511

          k = 0.0000 0.1167-0.2092 (  3008 PWs)   bands (ev):

   -36.9221 -36.6989  -5.3869   2.7850   6.9580  11.6382  19.9562  21.9589
    23.1543

          k = 0.0000 0.2333 0.0000 (  2989 PWs)   bands (ev):

   -36.8731 -36.6540  -4.3942   3.7968   6.7434  13.8218  15.8886  17.6749
    20.0192

          k = 0.0000 0.2333 0.0523 (  2998 PWs)   bands (ev):

   -36.8729 -36.6541  -4.3929   3.7503   6.8763  13.4679  15.6779  18.3620
    20.0280

          k = 0.0000 0.2333 0.1046 (  3002 PWs)   bands (ev):

   -36.8725 -36.6546  -4.3900   3.6479   7.2133  12.6862  15.5066  19.6416
    20.0496

          k = 0.0000 0.2333 0.1569 (  3003 PWs)   bands (ev):

   -36.8721 -36.6550  -4.3871   3.5562   7.5929  11.9595  15.4495  20.0717
    20.7773

          k = 0.0000 0.2333-0.2092 (  2994 PWs)   bands (ev):

   -36.8720 -36.6552  -4.3858   3.5207   7.7718  11.6567  15.4368  20.0811
    21.2092

          k = 0.0000 0.3500 0.0000 (  2996 PWs)   bands (ev):

   -36.8105 -36.5999  -2.7504   5.1552   7.3769  10.6255  15.8853  16.2277
    18.6458

          k = 0.0000 0.3500 0.0523 (  3005 PWs)   bands (ev):

   -36.8104 -36.6001  -2.7484   5.0683   7.5704  10.5713  15.1091  16.8144
    18.6559

          k = 0.0000 0.3500 0.1046 (  3009 PWs)   bands (ev):

   -36.8101 -36.6004  -2.7435   4.8921   8.0571  10.3856  14.2565  17.1835
    18.6809

          k = 0.0000 0.3500 0.1569 (  3015 PWs)   bands (ev):

   -36.8098 -36.6007  -2.7385   4.7465   8.6768  10.0279  13.6692  17.2930
    18.7066

          k = 0.0000 0.3500-0.2092 (  3016 PWs)   bands (ev):

   -36.8096 -36.6008  -2.7365   4.6924   9.1344   9.6681  13.4643  17.3093
    18.7175

          k = 0.0000 0.4667 0.0000 (  3004 PWs)   bands (ev):

   -36.7596 -36.5560  -0.5039   5.7049   6.9612   9.5722  13.3730  15.8946
    17.8181

          k = 0.0000 0.4667 0.0523 (  3009 PWs)   bands (ev):

   -36.7595 -36.5561  -0.5000   5.7233   6.8357   9.7671  13.3779  15.8035
    17.8292

          k = 0.0000 0.4667 0.1046 (  3009 PWs)   bands (ev):

   -36.7593 -36.5564  -0.4907   5.7794   6.5638  10.2120  13.4262  15.4463
    17.8566

          k = 0.0000 0.4667 0.1569 (  3011 PWs)   bands (ev):

   -36.7591 -36.5566  -0.4813   5.8759   6.2902  10.6460  13.5998  14.8459
    17.8849

          k = 0.0000 0.4667-0.2092 (  3012 PWs)   bands (ev):

   -36.7590 -36.5567  -0.4774   5.9736   6.1270  10.8269  13.8274  14.4178
    17.8969

          k = 0.0000-0.5833 0.0000 (  3016 PWs)   bands (ev):

   -36.7401 -36.5392   1.7976   3.0086   8.3557  10.1140  11.4991  14.9980
    17.5418

          k = 0.0000-0.5833 0.0523 (  3014 PWs)   bands (ev):

   -36.7400 -36.5393   1.8024   3.0244   8.0300  10.5826  11.5144  15.0262
    17.5533

          k = 0.0000-0.5833 0.1046 (  3020 PWs)   bands (ev):

   -36.7398 -36.5395   1.8140   3.0644   7.5154  11.2424  11.8563  15.0958
    17.5816

          k = 0.0000-0.5833 0.1569 (  3014 PWs)   bands (ev):

   -36.7396 -36.5397   1.8255   3.1075   7.1430  11.3189  12.9953  15.1543
    15.9136

          k = 0.0000-0.5833-0.2092 (  3008 PWs)   bands (ev):

   -36.7396 -36.5398   1.8302   3.1263   7.0096  11.3187  14.1482  14.5980
    15.2685

          k = 0.1010 0.1750 0.0000 (  3009 PWs)   bands (ev):

   -36.8887 -36.6674  -4.7261   3.5226   6.5733  14.0696  17.0780  17.8397
    19.1092

          k = 0.1010 0.1750 0.0523 (  3013 PWs)   bands (ev):

   -36.8885 -36.6676  -4.7250   3.4822   6.6942  13.6189  17.0406  18.3712
    19.2507

          k = 0.1010 0.1750 0.1046 (  3002 PWs)   bands (ev):

   -36.8881 -36.6681  -4.7223   3.3921   7.0007  12.7584  17.0262  18.8407
    20.2142

          k = 0.1010 0.1750 0.1569 (  2997 PWs)   bands (ev):

   -36.8877 -36.6685  -4.7197   3.3103   7.3421  12.0235  17.0282  18.9372
    21.7957

          k = 0.1010 0.1750-0.2092 (  2990 PWs)   bands (ev):

   -36.8875 -36.6687  -4.7186   3.2785   7.5003  11.7289  17.0304  18.9606
    23.1227

          k = 0.1010 0.2917 0.0000 (  2999 PWs)   bands (ev):

   -36.8322 -36.6187  -3.4044   4.6181   7.2393  12.5983  14.7773  17.3549
    17.4964

          k = 0.1010 0.2917 0.0523 (  2997 PWs)   bands (ev):

   -36.8321 -36.6188  -3.4027   4.5510   7.4091  12.5018  14.4309  17.0210
    18.2792

          k = 0.1010 0.2917 0.1046 (  3002 PWs)   bands (ev):

   -36.8317 -36.6192  -3.3987   4.4088   7.8395  12.1460  13.8940  16.9403
    19.0147

          k = 0.1010 0.2917 0.1569 (  2998 PWs)   bands (ev):

   -36.8314 -36.6195  -3.3947   4.2866   8.3441  11.5876  13.6214  16.9505
    19.1536

          k = 0.1010 0.2917-0.2092 (  3004 PWs)   bands (ev):

   -36.8312 -36.6197  -3.3931   4.2403   8.6022  11.2842  13.5541  16.9627
    19.1299

          k = 0.1010 0.4083 0.0000 (  2998 PWs)   bands (ev):

   -36.7754 -36.5697  -1.4553   6.2266   7.2675   9.6234  14.3532  15.0823
    17.1596

          k = 0.1010 0.4083 0.0523 (  2992 PWs)   bands (ev):

   -36.7753 -36.5698  -1.4524   6.0854   7.4335   9.6846  14.1378  15.1794
    16.9058

          k = 0.1010 0.4083 0.1046 (  3003 PWs)   bands (ev):

   -36.7751 -36.5700  -1.4453   5.8412   7.7316   9.8625  13.6730  15.3414
    16.4529

          k = 0.1010 0.4083 0.1569 (  3009 PWs)   bands (ev):

   -36.7748 -36.5703  -1.4382   5.6585   7.9578  10.1008  13.2001  15.4817
    16.1029

          k = 0.1010 0.4083-0.2092 (  3008 PWs)   bands (ev):

   -36.7747 -36.5704  -1.4353   5.5930   8.0380  10.2264  12.9872  15.5500
    15.9637

          k = 0.1010 0.5250 0.0000 (  3021 PWs)   bands (ev):

   -36.7402 -36.5393   1.0357   4.3507   8.1083  10.0855  12.2829  13.6165
    16.1239

          k = 0.1010 0.5250 0.0523 (  3012 PWs)   bands (ev):

   -36.7401 -36.5394   1.0409   4.3684   7.8665  10.4123  12.2894  13.6914
    16.0140

          k = 0.1010 0.5250 0.1046 (  3011 PWs)   bands (ev):

   -36.7399 -36.5396   1.0535   4.4142   7.4375  11.0197  12.3928  13.8780
    15.7566

          k = 0.1010 0.5250 0.1569 (  3005 PWs)   bands (ev):

   -36.7397 -36.5398   1.0662   4.4653   7.1047  11.4039  12.7721  14.0370
    15.5833

          k = 0.1010 0.5250-0.2092 (  3010 PWs)   bands (ev):

   -36.7397 -36.5399   1.0716   4.4884   6.9817  11.4915  13.0932  14.0251
    15.6930

          k = 0.2021 0.3500 0.0000 (  2997 PWs)   bands (ev):

   -36.7815 -36.5749  -1.7755   5.9776   7.9075  10.6040  12.2313  17.0030
    17.6893

          k = 0.2021 0.3500 0.0523 (  2994 PWs)   bands (ev):

   -36.7814 -36.5750  -1.7729   5.8644   8.1324  10.6059  12.1222  16.3470
    17.3656

          k = 0.2021 0.3500 0.1046 (  3003 PWs)   bands (ev):

   -36.7811 -36.5753  -1.7666   5.6472   8.6789  10.5975  11.7889  15.7266
    16.8933

          k = 0.2021 0.3500 0.1569 (  3004 PWs)   bands (ev):

   -36.7809 -36.5756  -1.7603   5.4750   9.3723  10.5013  11.3209  15.4041
    16.5251

          k = 0.2021 0.3500-0.2092 (  3010 PWs)   bands (ev):

   -36.7808 -36.5757  -1.7576   5.4122  10.0172  10.1225  11.0920  15.3161
    16.3869

          k = 0.2021 0.4667 0.0000 (  3010 PWs)   bands (ev):

   -36.7404 -36.5394   0.4508   6.5812   7.8104   9.2979  11.4213  14.1201
    16.6112

          k = 0.2021 0.4667 0.0523 (  3011 PWs)   bands (ev):

   -36.7403 -36.5395   0.4551   6.5968   7.6586   9.4608  11.4797  14.0298
    16.2793

          k = 0.2021 0.4667 0.1046 (  3009 PWs)   bands (ev):

   -36.7401 -36.5397   0.4657   6.6441   7.3622   9.7717  11.6268  13.8448
    15.8972

          k = 0.2021 0.4667 0.1569 (  3018 PWs)   bands (ev):

   -36.7399 -36.5399   0.4764   6.7251   7.0901  10.0210  11.7762  13.7056
    15.6616

          k = 0.2021 0.4667-0.2092 (  3020 PWs)   bands (ev):

   -36.7398 -36.5400   0.4809   6.8111   6.9353  10.1136  11.8356  13.6629
    15.5890

          k = 0.2021 0.5833 0.0000 (  3023 PWs)   bands (ev):

   -36.7246 -36.5258   2.7379   3.9121   9.3003   9.4397  11.6224  12.0937
    15.2757

          k = 0.2021 0.5833 0.0523 (  3010 PWs)   bands (ev):

   -36.7246 -36.5259   2.7427   3.9270   8.9390   9.6139  11.7284  12.3150
    15.1411

          k = 0.2021 0.5833 0.1046 (  3013 PWs)   bands (ev):

   -36.7244 -36.5261   2.7543   3.9646   8.4755   9.7358  11.6696  13.1641
    14.8880

          k = 0.2021 0.5833 0.1569 (  3017 PWs)   bands (ev):

   -36.7242 -36.5263   2.7658   4.0047   8.1375   9.8186  11.5514  14.3129
    14.7323

          k = 0.2021 0.5833-0.2092 (  3010 PWs)   bands (ev):

   -36.7241 -36.5263   2.7706   4.0221   8.0154   9.8513  11.4989  14.5590
    15.6189

          k = 0.3031 0.5250 0.0000 (  3025 PWs)   bands (ev):

   -36.7187 -36.5207   2.8756   5.5281   7.0569   9.7269  12.1192  12.7968
    14.6334

          k = 0.3031 0.5250 0.0523 (  3025 PWs)   bands (ev):

   -36.7186 -36.5208   2.8817   5.5368   7.0871   9.5154  12.1145  12.8401
    15.0843

          k = 0.3031 0.5250 0.1046 (  3015 PWs)   bands (ev):

   -36.7185 -36.5209   2.8964   5.5586   7.1689   9.1035  11.7663  13.3858
    15.3153

          k = 0.3031 0.5250 0.1569 (  3022 PWs)   bands (ev):

   -36.7183 -36.5211   2.9114   5.5813   7.2697   8.7534  11.4456  13.8713
    15.8055

          k = 0.3031 0.5250-0.2092 (  3032 PWs)   bands (ev):

   -36.7182 -36.5212   2.9176   5.5910   7.3205   8.6138  11.3272  14.0051
    16.9040

     the Fermi energy is     9.1143 ev

!    total energy              =     -37.14390667 Ry
     estimated scf accuracy    <          4.0E-10 Ry
     smearing contrib. (-TS)   =       0.00014156 Ry
     internal energy E=F+TS    =     -37.14404822 Ry

     The total energy is F=E-TS. E is the sum of the following terms:
     one-electron contribution =      -8.50723675 Ry
     hartree contribution      =       5.96303706 Ry
     xc contribution           =     -10.34133881 Ry
     ewald contribution        =     -24.25850972 Ry

     convergence has been achieved in   6 iterations

     Forces acting on atoms (cartesian axes, Ry/au):

     atom    1 type  1   force =     0.00000000    0.00000000    0.00000000
     atom    2 type  2   force =     0.00000000    0.00000000    0.00436838
     atom    3 type  2   force =     0.00000000   -0.00000000   -0.00436838
     The non-local contrib.  to forces
     atom    1 type  1   force =     0.00000000    0.00000000    0.00000000
     atom    2 type  2   force =     0.00000000   -0.00000000   -0.01882285
     atom    3 type  2   force =     0.00000000    0.00000000    0.01882285
     The ionic contribution  to forces
     atom    1 type  1   force =    -0.00000000   -0.00000000   -0.00000000
     atom    2 type  2   force =     0.00000000    0.00000000   -0.72506921
     atom    3 type  2   force =    -0.00000000    0.00000000    0.72506921
     The local contribution  to forces
     atom    1 type  1   force =    -0.00000000    0.00000000    0.00000000
     atom    2 type  2   force =    -0.00000043    0.00000025    0.74823277
     atom    3 type  2   force =     0.00000043    0.00000025   -0.74823277
     The core correction contribution to forces
     atom    1 type  1   force =     0.00000000    0.00000000   -0.00000000
     atom    2 type  2   force =     0.00000000    0.00000000    0.00000000
     atom    3 type  2   force =     0.00000000    0.00000000    0.00000000
     The Hubbard contrib.    to forces
     atom    1 type  1   force =     0.00000000    0.00000000    0.00000000
     atom    2 type  2   force =     0.00000000    0.00000000    0.00000000
     atom    3 type  2   force =     0.00000000    0.00000000    0.00000000
     The SCF correction term to forces
     atom    1 type  1   force =    -0.00000000    0.00000000   -0.00000000
     atom    2 type  2   force =     0.00000000   -0.00000000    0.00002767
     atom    3 type  2   force =    -0.00000000   -0.00000000   -0.00002767

     Total force =     0.006178     Total SCF correction =     0.000039


     Computing stress (Cartesian axis) and pressure

          total   stress  (Ry/bohr**3)                   (kbar)     P=      498.74
   0.00342129  -0.00000000   0.00000000          503.29       -0.00        0.00
  -0.00000000   0.00342129   0.00000000           -0.00      503.29        0.00
   0.00000000  -0.00000000   0.00332853            0.00       -0.00      489.64

     Energy error            =      1.9E-04 Ry
     Gradient error          =      4.4E-03 Ry/Bohr
     Cell gradient error     =      1.0E+01 kbar

     number of scf cycles    =   4
     number of bfgs steps    =   3

     enthalpy           old  =     -36.5152506819 Ry
     enthalpy           new  =     -36.5154378451 Ry

     CASE: enthalpy          _new < enthalpy          _old

     new trust radius        =       0.0131610171 bohr
ibrav =      4
 celldm(1) =      4.46040406
 celldm(3) =      2.40743661
Input lattice vectors:
     0.99089551    -0.00000000     0.00000000
    -0.49544776     0.85814069    -0.00000000
    -0.00000000    -0.00000000     2.38551814
New lattice vectors in INITIAL alat:
     0.99089551     0.00000000     0.00000000
    -0.49544776     0.85814069     0.00000000
     0.00000000     0.00000000     2.38551814
New lattice vectors in NEW alat (for information only):
     1.00000000     0.00000000     0.00000000
    -0.50000000     0.86602540     0.00000000
     0.00000000     0.00000000     2.40743661
Discrepancy in bohr =     0.000000    0.000000    0.000000
     new conv_thr            =       0.0000000002 Ry

     new unit-cell volume =    185.01549 a.u.^3 (    27.41647 Ang^3 )
     density =      2.54185 g/cm^3

CELL_PARAMETERS (alat=  4.50138688)
   0.990895513   0.000000000   0.000000000
  -0.495447756   0.858140687   0.000000000
   0.000000000   0.000000000   2.385518139

ATOMIC_POSITIONS (crystal)
Si            0.0000000000        0.0000000000        0.0000000000
Li            0.6666666700        0.3333333300        0.6718801343
[...]
        k(   55) = (   0.2018376   0.3495930  -0.2095981), wk =   0.0150000
        k(   56) = (   0.2018376   0.4661240   0.0000000), wk =   0.0300000
        k(   57) = (   0.2018376   0.4661240   0.0523995), wk =   0.0600000
        k(   58) = (   0.2018376   0.4661240   0.1047990), wk =   0.0600000
        k(   59) = (   0.2018376   0.4661240   0.1571986), wk =   0.0600000
        k(   60) = (   0.2018376   0.4661240  -0.2095981), wk =   0.0300000
        k(   61) = (   0.2018376   0.5826550   0.0000000), wk =   0.0150000
        k(   62) = (   0.2018376   0.5826550   0.0523995), wk =   0.0300000
        k(   63) = (   0.2018376   0.5826550   0.1047990), wk =   0.0300000
        k(   64) = (   0.2018376   0.5826550   0.1571986), wk =   0.0300000
        k(   65) = (   0.2018376   0.5826550  -0.2095981), wk =   0.0150000
        k(   66) = (   0.3027564   0.5243895   0.0000000), wk =   0.0150000
        k(   67) = (   0.3027564   0.5243895   0.0523995), wk =   0.0300000
        k(   68) = (   0.3027564   0.5243895   0.1047990), wk =   0.0300000
        k(   69) = (   0.3027564   0.5243895   0.1571986), wk =   0.0300000
        k(   70) = (   0.3027564   0.5243895  -0.2095981), wk =   0.0150000

     Dense  grid:    24975 G-vectors     FFT dimensions: (  30,  30,  72)

     Estimated max dynamical RAM per process >      19.08 MB

     Estimated total dynamical RAM >     152.62 MB

     Initial potential from superposition of free atoms

     starting charge       9.9903, renormalised to      10.0000
     Starting wfcs are    8 randomized atomic wfcs +    1 random wfcs

     total cpu time spent up to now is       24.1 secs

     Self-consistent Calculation

     iteration #  1     ecut=   100.00 Ry     beta= 0.70
     Davidson diagonalization with overlap
     c_bands:  2 eigenvalues not converged
     c_bands:  1 eigenvalues not converged
     c_bands:  1 eigenvalues not converged
     c_bands:  1 eigenvalues not converged
     c_bands:  1 eigenvalues not converged
     c_bands:  1 eigenvalues not converged
     c_bands:  1 eigenvalues not converged
     ethr =  1.00E-06,  avg # of iterations = 15.6

     total cpu time spent up to now is       25.6 secs

     total energy              =     -37.12754451 Ry
     estimated scf accuracy    <       0.03762955 Ry

     iteration #  2     ecut=   100.00 Ry     beta= 0.70
     Davidson diagonalization with overlap
     ethr =  3.76E-04,  avg # of iterations =  2.2

     total cpu time spent up to now is       26.0 secs

     total energy              =     -37.11882492 Ry
     estimated scf accuracy    <       0.13172961 Ry

     iteration #  3     ecut=   100.00 Ry     beta= 0.70
     Davidson diagonalization with overlap
     ethr =  3.76E-04,  avg # of iterations =  1.8

     total cpu time spent up to now is       26.4 secs

     total energy              =     -37.14417804 Ry
     estimated scf accuracy    <       0.00160701 Ry

     iteration #  4     ecut=   100.00 Ry     beta= 0.70
     Davidson diagonalization with overlap
     ethr =  1.61E-05,  avg # of iterations =  1.9

     total cpu time spent up to now is       26.8 secs

     total energy              =     -37.14436483 Ry
     estimated scf accuracy    <       0.00001810 Ry

     iteration #  5     ecut=   100.00 Ry     beta= 0.70
     Davidson diagonalization with overlap
     ethr =  1.81E-07,  avg # of iterations =  2.3

     total cpu time spent up to now is       27.3 secs

     total energy              =     -37.14436954 Ry
     estimated scf accuracy    <       0.00000029 Ry

     iteration #  6     ecut=   100.00 Ry     beta= 0.70
     Davidson diagonalization with overlap
     ethr =  2.93E-09,  avg # of iterations =  2.4

     total cpu time spent up to now is       27.7 secs

     total energy              =     -37.14436959 Ry
     estimated scf accuracy    <       0.00000002 Ry

     iteration #  7     ecut=   100.00 Ry     beta= 0.70
     Davidson diagonalization with overlap
     ethr =  1.72E-10,  avg # of iterations =  2.1

     total cpu time spent up to now is       28.1 secs

     End of self-consistent calculation

          k = 0.0000 0.0000 0.0000 (  3113 PWs)   bands (ev):

   -36.9390 -36.7191  -5.7244   2.7144   6.0113  13.6633  18.0254  23.6159
    23.6159

          k = 0.0000 0.0000 0.0524 (  3112 PWs)   bands (ev):

   -36.9388 -36.7193  -5.7236   2.6883   6.1014  13.2680  18.6246  23.6226
    23.6226

          k = 0.0000 0.0000 0.1048 (  3106 PWs)   bands (ev):

   -36.9382 -36.7199  -5.7216   2.6282   6.3290  12.5032  20.0156  23.6388
    23.6388

          k = 0.0000 0.0000 0.1572 (  3124 PWs)   bands (ev):

   -36.9377 -36.7205  -5.7196   2.5721   6.5768  11.8612  21.7343  23.6554
    23.6554

          k = 0.0000 0.0000-0.2096 (  3082 PWs)   bands (ev):

   -36.9374 -36.7208  -5.7188   2.5499   6.6878  11.6117  23.0714  23.6623
    23.6623

          k = 0.0000 0.1165 0.0000 (  3107 PWs)   bands (ev):

   -36.9200 -36.7026  -5.3905   2.9883   6.1993  13.8502  17.9647  19.9974
    21.8365

          k = 0.0000 0.1165 0.0524 (  3095 PWs)   bands (ev):

   -36.9198 -36.7029  -5.3896   2.9576   6.2996  13.4272  18.5551  20.0275
    21.8439

          k = 0.0000 0.1165 0.1048 (  3104 PWs)   bands (ev):

   -36.9193 -36.7034  -5.3874   2.8877   6.5535  12.6192  19.6339  20.3596
    21.8622

          k = 0.0000 0.1165 0.1572 (  3097 PWs)   bands (ev):

   -36.9187 -36.7040  -5.3852   2.8230   6.8318  11.9412  19.8766  21.8254
    21.8808

          k = 0.0000 0.1165-0.2096 (  3100 PWs)   bands (ev):

   -36.9185 -36.7042  -5.3843   2.7975   6.9576  11.6758  19.9022  21.8886
    23.1439

          k = 0.0000 0.2331 0.0000 (  3110 PWs)   bands (ev):

   -36.8701 -36.6594  -4.3946   3.8073   6.7379  13.8359  15.8948  17.6717
    19.9480

          k = 0.0000 0.2331 0.0524 (  3110 PWs)   bands (ev):

   -36.8699 -36.6596  -4.3934   3.7601   6.8722  13.4861  15.6672  18.3688
    19.9569

          k = 0.0000 0.2331 0.1048 (  3116 PWs)   bands (ev):

   -36.8695 -36.6601  -4.3905   3.6561   7.2126  12.7048  15.4832  19.6489
    19.9786

          k = 0.0000 0.2331 0.1572 (  3119 PWs)   bands (ev):

   -36.8691 -36.6605  -4.3875   3.5631   7.5957  11.9748  15.4219  20.0009
    20.7619

          k = 0.0000 0.2331-0.2096 (  3128 PWs)   bands (ev):

   -36.8689 -36.6607  -4.3863   3.5272   7.7764  11.6701  15.4082  20.0103
    21.1727

          k = 0.0000 0.3496 0.0000 (  3122 PWs)   bands (ev):

   -36.8081 -36.6058  -2.7558   5.1557   7.3694  10.6005  15.9225  16.2040
    18.5751

          k = 0.0000 0.3496 0.0524 (  3125 PWs)   bands (ev):

   -36.8080 -36.6059  -2.7538   5.0681   7.5638  10.5465  15.1307  16.7985
    18.5853

          k = 0.0000 0.3496 0.1048 (  3117 PWs)   bands (ev):

   -36.8077 -36.6063  -2.7488   4.8908   8.0522  10.3611  14.2789  17.1530
    18.6104

          k = 0.0000 0.3496 0.1572 (  3119 PWs)   bands (ev):

   -36.8073 -36.6066  -2.7439   4.7444   8.6754  10.0025  13.6907  17.2543
    18.6362

          k = 0.0000 0.3496-0.2096 (  3116 PWs)   bands (ev):

   -36.8072 -36.6068  -2.7418   4.6901   9.1465   9.6304  13.4850  17.2683
    18.6471

          k = 0.0000 0.4661 0.0000 (  3124 PWs)   bands (ev):

   -36.7577 -36.5622  -0.5155   5.6741   6.9459   9.5917  13.3552  15.8717
    17.7478

          k = 0.0000 0.4661 0.0524 (  3132 PWs)   bands (ev):

   -36.7576 -36.5623  -0.5116   5.6927   6.8207   9.7864  13.3611  15.7841
    17.7590

          k = 0.0000 0.4661 0.1048 (  3119 PWs)   bands (ev):

   -36.7574 -36.5626  -0.5022   5.7497   6.5484  10.2312  13.4129  15.4335
    17.9398

          k = 0.0000 0.4661 0.1572 (  3114 PWs)   bands (ev):

   -36.7572 -36.5628  -0.4928   5.8467   6.2743  10.6650  13.5953  14.8315
    17.9821

          k = 0.0000 0.4661-0.2096 (  3114 PWs)   bands (ev):

   -36.7571 -36.5629  -0.4888   5.9407   6.1147  10.8455  13.8403  14.3885
    18.0799

          k = 0.0000-0.5827 0.0000 (  3112 PWs)   bands (ev):

   -36.7384 -36.5455   1.7848   2.9783   8.3194  10.1471  11.5023  14.9566
    17.4717

          k = 0.0000-0.5827 0.0524 (  3110 PWs)   bands (ev):

   -36.7383 -36.5456   1.7897   2.9940   8.0025  10.6067  11.5182  14.9855
    17.4832

          k = 0.0000-0.5827 0.1048 (  3134 PWs)   bands (ev):

   -36.7381 -36.5458   1.8015   3.0338   7.4941  11.2513  11.8703  15.0573
    17.2959

          k = 0.0000-0.5827 0.1572 (  3142 PWs)   bands (ev):

   -36.7379 -36.5460   1.8132   3.0766   7.1238  11.3233  13.0126  15.1210
    15.9331

          k = 0.0000-0.5827-0.2096 (  3148 PWs)   bands (ev):

   -36.7378 -36.5461   1.8180   3.0953   6.9910  11.3228  14.1549  14.6310
    15.2353

          k = 0.1009 0.1748 0.0000 (  3097 PWs)   bands (ev):

   -36.8856 -36.6728  -4.7256   3.5351   6.5668  14.1256  17.0307  17.8400
    19.0624

          k = 0.1009 0.1748 0.0524 (  3112 PWs)   bands (ev):

   -36.8854 -36.6730  -4.7245   3.4940   6.6891  13.6663  16.9947  18.3612
    19.2214

          k = 0.1009 0.1748 0.1048 (  3109 PWs)   bands (ev):

   -36.8849 -36.6735  -4.7218   3.4022   6.9987  12.7941  16.9807  18.7915
    20.2343

          k = 0.1009 0.1748 0.1572 (  3100 PWs)   bands (ev):

   -36.8844 -36.6740  -4.7192   3.3192   7.3436  12.0515  16.9830  18.8823
    21.8252

          k = 0.1009 0.1748-0.2096 (  3092 PWs)   bands (ev):

   -36.8842 -36.6742  -4.7181   3.2869   7.5033  11.7540  16.9852  18.9049
    23.1141

          k = 0.1009 0.2913 0.0000 (  3122 PWs)   bands (ev):

   -36.8296 -36.6244  -3.4078   4.6228   7.2356  12.5661  14.7777  17.3444
    17.4939

          k = 0.1009 0.2913 0.0524 (  3117 PWs)   bands (ev):

   -36.8295 -36.6245  -3.4062   4.5549   7.4068  12.4712  14.4342  16.9953
    18.2784

          k = 0.1009 0.2913 0.1048 (  3121 PWs)   bands (ev):

   -36.8291 -36.6249  -3.4022   4.4113   7.8407  12.1216  13.8931  16.9047
    18.9892

          k = 0.1009 0.2913 0.1572 (  3116 PWs)   bands (ev):

   -36.8287 -36.6253  -3.3982   4.2880   8.3499  11.5683  13.6128  16.9113
    19.1104

          k = 0.1009 0.2913-0.2096 (  3118 PWs)   bands (ev):

   -36.8286 -36.6254  -3.3965   4.2414   8.6112  11.2649  13.5429  16.9226
    19.0838

          k = 0.1009 0.4079 0.0000 (  3122 PWs)   bands (ev):

   -36.7734 -36.5757  -1.4644   6.2189   7.2433   9.6234  14.3133  15.0556
    17.1649

          k = 0.1009 0.4079 0.0524 (  3129 PWs)   bands (ev):

   -36.7733 -36.5759  -1.4614   6.0774   7.4077   9.6868  14.1061  15.1491
    16.9036

          k = 0.1009 0.4079 0.1048 (  3124 PWs)   bands (ev):

   -36.7730 -36.5761  -1.4544   5.8330   7.7012   9.8702  13.6535  15.3080
    16.4383

          k = 0.1009 0.4079 0.1572 (  3127 PWs)   bands (ev):

   -36.7727 -36.5764  -1.4472   5.6504   7.9228  10.1144  13.1886  15.4462
    16.0806

          k = 0.1009 0.4079-0.2096 (  3116 PWs)   bands (ev):

   -36.7726 -36.5765  -1.4443   5.5848   8.0011  10.2426  12.9781  15.5126
    15.9401

          k = 0.1009 0.5244 0.0000 (  3127 PWs)   bands (ev):

   -36.7385 -36.5456   1.0208   4.3215   8.0805  10.1104  12.2737  13.5712
    16.0993

          k = 0.1009 0.5244 0.0524 (  3125 PWs)   bands (ev):

   -36.7384 -36.5457   1.0260   4.3391   7.8431  10.4330  12.2788  13.6482
    15.9896

          k = 0.1009 0.5244 0.1048 (  3135 PWs)   bands (ev):

   -36.7382 -36.5459   1.0388   4.3848   7.4181  11.0358  12.3786  13.8409
    15.7339

          k = 0.1009 0.5244 0.1572 (  3133 PWs)   bands (ev):

   -36.7380 -36.5461   1.0517   4.4357   7.0869  11.4146  12.7521  14.0126
    15.5657

          k = 0.1009 0.5244-0.2096 (  3136 PWs)   bands (ev):

   -36.7379 -36.5462   1.0570   4.4587   6.9643  11.4994  13.0638  14.0140
    15.6823

          k = 0.2018 0.3496 0.0000 (  3121 PWs)   bands (ev):

   -36.7794 -36.5809  -1.7837   5.9725   7.8994  10.5772  12.1947  16.9826
    17.5567

          k = 0.2018 0.3496 0.0524 (  3129 PWs)   bands (ev):

   -36.7793 -36.5810  -1.7811   5.8589   8.1245  10.5794  12.0866  16.3529
    17.3204

          k = 0.2018 0.3496 0.1048 (  3125 PWs)   bands (ev):

   -36.7790 -36.5813  -1.7747   5.6411   8.6712  10.5726  11.7564  15.7361
    16.8511

          k = 0.2018 0.3496 0.1572 (  3127 PWs)   bands (ev):

   -36.7787 -36.5816  -1.7684   5.4686   9.3645  10.4808  11.2891  15.4124
    16.4839

          k = 0.2018 0.3496-0.2096 (  3124 PWs)   bands (ev):

   -36.7786 -36.5817  -1.7657   5.4056  10.0316  10.0845  11.0578  15.3237
    16.3457

          k = 0.2018 0.4661 0.0000 (  3131 PWs)   bands (ev):

   -36.7387 -36.5457   0.4367   6.5502   7.7905   9.2796  11.4142  14.0886
    16.6181

          k = 0.2018 0.4661 0.0524 (  3131 PWs)   bands (ev):

   -36.7386 -36.5458   0.4411   6.5661   7.6398   9.4380  11.4760  13.9990
    16.2758

          k = 0.2018 0.4661 0.1048 (  3129 PWs)   bands (ev):

   -36.7384 -36.5460   0.4518   6.6142   7.3440   9.7394  11.6312  13.8151
    15.8966

          k = 0.2018 0.4661 0.1572 (  3136 PWs)   bands (ev):

   -36.7382 -36.5462   0.4625   6.6960   7.0718   9.9799  11.7884  13.6762
    15.6697

          k = 0.2018 0.4661-0.2096 (  3128 PWs)   bands (ev):

   -36.7381 -36.5463   0.4670   6.7792   6.9199  10.0688  11.8508  13.6336
    15.6022

          k = 0.2018 0.5827 0.0000 (  3141 PWs)   bands (ev):

   -36.7231 -36.5322   2.7230   3.8811   9.2608   9.4060  11.6415  12.0822
    15.2765

          k = 0.2018 0.5827 0.0524 (  3137 PWs)   bands (ev):

   -36.7230 -36.5323   2.7279   3.8960   8.9097   9.5719  11.7309  12.3183
    15.1389

          k = 0.2018 0.5827 0.1048 (  3142 PWs)   bands (ev):

   -36.7228 -36.5325   2.7396   3.9335   8.4510   9.6913  11.6600  13.1780
    14.8826

          k = 0.2018 0.5827 0.1572 (  3139 PWs)   bands (ev):

   -36.7226 -36.5327   2.7513   3.9735   8.1147   9.7734  11.5387  14.3271
    14.7301

          k = 0.2018 0.5827-0.2096 (  3146 PWs)   bands (ev):

   -36.7226 -36.5327   2.7561   3.9909   7.9930   9.8059  11.4854  14.5525
    15.6520

          k = 0.3028 0.5244 0.0000 (  3125 PWs)   bands (ev):

   -36.7172 -36.5271   2.8570   5.5059   7.0092   9.6896  12.1445  12.7565
    14.6578

          k = 0.3028 0.5244 0.0524 (  3124 PWs)   bands (ev):

   -36.7172 -36.5272   2.8631   5.5147   7.0392   9.4820  12.1088  12.8349
    15.1008

          k = 0.3028 0.5244 0.1048 (  3137 PWs)   bands (ev):

   -36.7170 -36.5274   2.8780   5.5366   7.1203   9.0748  11.7437  13.4003
    15.3145

          k = 0.3028 0.5244 0.1572 (  3146 PWs)   bands (ev):

   -36.7168 -36.5275   2.8930   5.5595   7.2198   8.7276  11.4215  13.8852
    15.8109

          k = 0.3028 0.5244-0.2096 (  3170 PWs)   bands (ev):

   -36.7167 -36.5276   2.8994   5.5692   7.2697   8.5893  11.3030  14.0169
    16.6803

     the Fermi energy is     9.0898 ev

!    total energy              =     -37.14436960 Ry
     estimated scf accuracy    <          1.4E-10 Ry
     smearing contrib. (-TS)   =       0.00017877 Ry
     internal energy E=F+TS    =     -37.14454837 Ry

     The total energy is F=E-TS. E is the sum of the following terms:
     one-electron contribution =      -8.55110244 Ry
     hartree contribution      =       5.98228442 Ry
     xc contribution           =     -10.34177458 Ry
     ewald contribution        =     -24.23395577 Ry

     convergence has been achieved in   7 iterations

     Forces acting on atoms (cartesian axes, Ry/au):

     atom    1 type  1   force =     0.00000000    0.00000000    0.00000000
     atom    2 type  2   force =     0.00000000    0.00000000    0.00011606
     atom    3 type  2   force =    -0.00000000    0.00000000   -0.00011606
     The non-local contrib.  to forces
     atom    1 type  1   force =     0.00000000    0.00000000    0.00000000
     atom    2 type  2   force =     0.00000000   -0.00000000   -0.01924895
     atom    3 type  2   force =     0.00000000   -0.00000000    0.01924895
     The ionic contribution  to forces
     atom    1 type  1   force =    -0.00000000   -0.00000000    0.00000000
     atom    2 type  2   force =     0.00000000    0.00000000   -0.77656523
     atom    3 type  2   force =    -0.00000000    0.00000000    0.77656523
     The local contribution  to forces
     atom    1 type  1   force =    -0.00000000    0.00000000    0.00000000
     atom    2 type  2   force =    -0.00000043    0.00000025    0.79591554
     atom    3 type  2   force =     0.00000043    0.00000025   -0.79591554
     The core correction contribution to forces
     atom    1 type  1   force =     0.00000000    0.00000000    0.00000000
     atom    2 type  2   force =     0.00000000    0.00000000    0.00000000
     atom    3 type  2   force =     0.00000000    0.00000000    0.00000000
     The Hubbard contrib.    to forces
     atom    1 type  1   force =     0.00000000    0.00000000    0.00000000
     atom    2 type  2   force =     0.00000000    0.00000000    0.00000000
     atom    3 type  2   force =     0.00000000    0.00000000    0.00000000
     The SCF correction term to forces
     atom    1 type  1   force =    -0.00000000    0.00000000    0.00000000
     atom    2 type  2   force =     0.00000000   -0.00000000    0.00001471
     atom    3 type  2   force =    -0.00000000   -0.00000000   -0.00001471

     Total force =     0.000164     Total SCF correction =     0.000021
     SCF correction compared to forces is large: reduce conv_thr to get better values


     Computing stress (Cartesian axis) and pressure

          total   stress  (Ry/bohr**3)                   (kbar)     P=      499.33
   0.00339508   0.00000000   0.00000000          499.43        0.00        0.00
   0.00000000   0.00339508   0.00000000            0.00      499.43        0.00
  -0.00000000  -0.00000000   0.00339299           -0.00       -0.00      499.13


     Writing all to output data dir ./output/SiLi.save/

     init_run     :      0.93s CPU      1.81s WALL (       2 calls)
     electrons    :     18.14s CPU     20.65s WALL (       6 calls)
     update_pot   :      1.08s CPU      1.10s WALL (       4 calls)
     forces       :      1.06s CPU      1.12s WALL (       6 calls)
     stress       :      3.65s CPU      3.87s WALL (       6 calls)

     Called by init_run:
     wfcinit      :      0.29s CPU      0.30s WALL (       2 calls)
     potinit      :      0.26s CPU      0.83s WALL (       2 calls)
     hinit0       :      0.36s CPU      0.54s WALL (       2 calls)

     Called by electrons:
     c_bands      :     15.42s CPU     17.39s WALL (      39 calls)
     sum_band     :      2.34s CPU      2.44s WALL (      39 calls)
     v_of_rho     :      0.41s CPU      1.36s WALL (      44 calls)
     mix_rho      :      0.05s CPU      0.07s WALL (      39 calls)

     Called by c_bands:
     init_us_2    :      0.59s CPU      0.64s WALL (    6440 calls)
     init_us_2:cp :      0.58s CPU      0.63s WALL (    6440 calls)
     cegterg      :     14.31s CPU     15.08s WALL (    2730 calls)

     Called by *egterg:
     cdiaghg      :      1.04s CPU      1.10s WALL (   10015 calls)
     h_psi        :     12.06s CPU     12.71s WALL (   10505 calls)
     g_psi        :      0.07s CPU      0.07s WALL (    7635 calls)

     Called by h_psi:
     h_psi:calbec :      0.71s CPU      0.77s WALL (   10505 calls)
     vloc_psi     :     10.82s CPU     11.37s WALL (   10505 calls)
     add_vuspsi   :      0.46s CPU      0.48s WALL (   10505 calls)

     General routines
     calbec       :      0.90s CPU      0.97s WALL (   12605 calls)
     fft          :      0.68s CPU      1.88s WALL (     589 calls)
     ffts         :      0.05s CPU      0.07s WALL (      39 calls)
     fftw         :     11.20s CPU     11.71s WALL (  163228 calls)

     Parallel routines

     PWSCF        :     25.11s CPU     29.12s WALL


   This run was terminated on:  22: 9:48  10Jan2025            

=------------------------------------------------------------------------------=
   JOB DONE.
=------------------------------------------------------------------------------=
