
     Program PWSCF v.7.3.1 starts on  3Mar2025 at 21: 9:17 

     This program is part of the open-source Quantum ESPRESSO suite
     for quantum simulation of materials; please cite
         "P. Giannozzi et al., J. Phys.:Condens. Matter 21 395502 (2009);
         "P. Giannozzi et al., J. Phys.:Condens. Matter 29 465901 (2017);
         "P. Giannozzi et al., J. Chem. Phys. 152 154105 (2020);
          URL http://www.quantum-espresso.org", 
     in publications or presentations arising from this work. More details at
     http://www.quantum-espresso.org/quote

     Parallel version (MPI & OpenMP), running on      32 processor cores
     Number of MPI processes:                32
     Threads/MPI process:                     1

     MPI processes distributed on     1 nodes
     491737 MiB available memory on the printing compute node when the environment starts

     Waiting for input...
     Reading input from standard input

     Current dimensions of program PWSCF are:
     Max number of different atomic species (ntypx) = 10
     Max number of k-points (npk) =  40000
     Max angular momentum in pseudopotentials (lmaxx) =  4

     K-points division:     npool     =       2
     R & G space division:  proc/nbgrp/npool/nimage =      16
     Subspace diagonalization in iterative solution of the eigenvalue problem:
     a serial algorithm will be used


     Parallelization info
     --------------------
     sticks:   dense  smooth     PW     G-vecs:    dense   smooth      PW
     Min          91      91     26                 2005     2005     328
     Max          92      92     27                 2007     2007     330
     Sum        1461    1461    431                32087    32087    5269

     Using Slab Decomposition



     bravais-lattice index     =            5
     lattice parameter (alat)  =       9.6382  a.u.
     unit-cell volume          =     405.1668 (a.u.)^3
     number of atoms/cell      =            6
     number of atomic types    =            2
     number of electrons       =        22.00
     number of Kohn-Sham states=           15
     kinetic-energy cutoff     =      70.0000  Ry
     charge density cutoff     =     280.0000  Ry
     scf convergence threshold =      1.0E-08
     mixing beta               =       0.7000
     number of iterations used =            8  plain     mixing
     energy convergence thresh.=      5.0E-04
     force convergence thresh. =      1.0E-03
     press convergence thresh. =      1.0E+00
     Exchange-correlation= PBE
                           (   1   4   3   4   0   0   0)
     nstep                     =           50


     celldm(1)=   9.638168  celldm(2)=   0.000000  celldm(3)=   0.000000
     celldm(4)=   0.708978  celldm(5)=   0.000000  celldm(6)=   0.000000

     crystal axes: (cart. coord. in units of alat)
               a(1) = (   0.381459  -0.220236   0.897767 )  
               a(2) = (   0.000000   0.440471   0.897767 )  
               a(3) = (  -0.381459  -0.220236   0.897767 )  

     reciprocal axes: (cart. coord. in units 2 pi/alat)
               b(1) = (  1.310756 -0.756765  0.371292 )  
               b(2) = (  0.000000  1.513531  0.371292 )  
               b(3) = ( -1.310756 -0.756765  0.371292 )  


     PseudoPot. # 1 for Si read from file:
     ../pseudo/Si_ONCV_PBE_sr.upf
     MD5 check sum: e543d271109d17c80368dfa7c482276d
     Pseudo is Norm-conserving + core correction, Zval =  4.0
     Generated using ONCVPSP code by D. R. Hamann
     Using radial grid of 1510 points,  6 beta functions with: 
                l(1) =   0
                l(2) =   0
                l(3) =   1
                l(4) =   1
                l(5) =   2
                l(6) =   2

     PseudoPot. # 2 for Li read from file:
     ../pseudo/Li_ONCV_PBE_sr.upf
     MD5 check sum: 50ff420e78310ffa21704f3361e624a4
     Pseudo is Norm-conserving, Zval =  3.0
     Generated using ONCVPSP code by D. R. Hamann
     Using radial grid of 1944 points,  4 beta functions with: 
                l(1) =   0
                l(2) =   0
                l(3) =   1
                l(4) =   1

     atomic species   valence    mass     pseudopotential
     Si                4.00    28.08550     Si( 1.00)
     Li                3.00     6.94100     Li( 1.00)

     12 Sym. Ops., with inversion, found



   Cartesian axes

     site n.     atom                  positions (alat units)
         1        Si     tau(   1) = (  -0.0000000  -0.0000000   0.5250405  )
         2        Si     tau(   2) = (   0.0000000  -0.0000000   2.1682598  )
         3        Si     tau(   3) = (  -0.0000000  -0.0000000   1.6152310  )
         4        Si     tau(   4) = (   0.0000000  -0.0000000   1.0780693  )
         5        Li     tau(   5) = (  -0.0000000  -0.0000000   0.0901784  )
         6        Li     tau(   6) = (   0.0000000  -0.0000000   2.6031219  )

     number of k points=    19  Marzari-Vanderbilt smearing, width (Ry)=  0.0200
                       cart. coord. in units 2pi/alat
        k(    1) = (   0.0000000   0.0000000   0.0000000), wk =   0.0160000
        k(    2) = (  -0.2621512  -0.1513531   0.0742583), wk =   0.0960000
        k(    3) = (  -0.5243024  -0.3027062   0.1485167), wk =   0.0960000
        k(    4) = (  -0.2621512   0.1513531   0.1485167), wk =   0.0960000
        k(    5) = (  -0.5243024   0.0000000   0.2227750), wk =   0.1920000
        k(    6) = (   0.5243024   0.6054123  -0.0742583), wk =   0.1920000
        k(    7) = (   0.2621512   0.4540592   0.0000000), wk =   0.0960000
        k(    8) = (  -0.5243024   0.3027062   0.2970333), wk =   0.0960000
        k(    9) = (   0.5243024   0.9081185   0.0000000), wk =   0.0960000
        k(   10) = (   0.0000000  -0.0000000   0.2227750), wk =   0.0320000
        k(   11) = (  -0.2621512  -0.1513531   0.2970333), wk =   0.0960000
        k(   12) = (   0.7864537   0.4540592   0.0000000), wk =   0.0960000
        k(   13) = (   0.5243024   0.3027062   0.0742583), wk =   0.0960000
        k(   14) = (  -0.2621512   0.1513531   0.3712917), wk =   0.0960000
        k(   15) = (   0.7864537   0.7567654   0.0742583), wk =   0.1920000
        k(   16) = (   0.5243024   0.6054123   0.1485167), wk =   0.1920000
        k(   17) = (   0.7864537  -0.4540592  -0.2227750), wk =   0.0960000
        k(   18) = (   0.0000000  -0.0000000   0.4455500), wk =   0.0320000
        k(   19) = (   1.0486049   0.6054123   0.1485167), wk =   0.0960000

     Dense  grid:    32087 G-vectors     FFT dimensions: (  54,  54,  54)

     Estimated max dynamical RAM per process >      13.70 MB

     Estimated total dynamical RAM >     430.59 MB

     Initial potential from superposition of free atoms

     starting charge      21.9884, renormalised to      22.0000
     Starting wfcs are   20 randomized atomic wfcs

     total cpu time spent up to now is        1.1 secs

     per-process dynamical memory:    32.0 Mb

     Self-consistent Calculation

     iteration #  1     ecut=    70.00 Ry     beta= 0.70
     Davidson diagonalization with overlap
     ethr =  1.00E-02,  avg # of iterations =  4.8

     Threshold (ethr) on eigenvalues was too large:
     Diagonalizing with lowered threshold

     Davidson diagonalization with overlap
     ethr =  4.44E-04,  avg # of iterations =  4.7

     total cpu time spent up to now is        1.5 secs

     total energy              =     -61.84336625 Ry
     estimated scf accuracy    <       0.12286764 Ry

     iteration #  2     ecut=    70.00 Ry     beta= 0.70
     Davidson diagonalization with overlap
     ethr =  5.58E-04,  avg # of iterations =  2.8

     total cpu time spent up to now is        1.6 secs

     total energy              =     -61.86190924 Ry
     estimated scf accuracy    <       0.07473080 Ry

     iteration #  3     ecut=    70.00 Ry     beta= 0.70
     Davidson diagonalization with overlap
     ethr =  3.40E-04,  avg # of iterations =  2.6

     total cpu time spent up to now is        1.8 secs

     total energy              =     -61.87972096 Ry
     estimated scf accuracy    <       0.00624097 Ry

     iteration #  4     ecut=    70.00 Ry     beta= 0.70
     Davidson diagonalization with overlap
     ethr =  2.84E-05,  avg # of iterations =  4.2

     total cpu time spent up to now is        2.0 secs

     total energy              =     -61.88101337 Ry
     estimated scf accuracy    <       0.00009142 Ry

     iteration #  5     ecut=    70.00 Ry     beta= 0.70
     Davidson diagonalization with overlap
     ethr =  4.16E-07,  avg # of iterations =  4.6

     total cpu time spent up to now is        2.1 secs

     total energy              =     -61.88104112 Ry
     estimated scf accuracy    <       0.00000656 Ry

     iteration #  6     ecut=    70.00 Ry     beta= 0.70
     Davidson diagonalization with overlap
     ethr =  2.98E-08,  avg # of iterations =  2.9

     total cpu time spent up to now is        2.3 secs

     total energy              =     -61.88104246 Ry
     estimated scf accuracy    <       0.00000028 Ry

     iteration #  7     ecut=    70.00 Ry     beta= 0.70
     Davidson diagonalization with overlap
     ethr =  1.25E-09,  avg # of iterations =  4.0

     total cpu time spent up to now is        2.5 secs

     total energy              =     -61.88104259 Ry
     estimated scf accuracy    <       0.00000006 Ry

     iteration #  8     ecut=    70.00 Ry     beta= 0.70
     Davidson diagonalization with overlap
     ethr =  2.71E-10,  avg # of iterations =  2.5

     total cpu time spent up to now is        2.6 secs

     End of self-consistent calculation

          k = 0.0000 0.0000 0.0000 (  4007 PWs)   bands (ev):

   -42.7746 -32.9839  -2.7606   4.0843   4.5404   8.9900   8.9900   9.2234
     9.2234  11.1410  11.4868  11.4868  11.5526  11.8802  11.8802

          k =-0.2622-0.1514 0.0743 (  4006 PWs)   bands (ev):

   -42.7743 -32.9838  -2.2692   3.7830   5.1918   5.7686   7.4583   8.3467
     9.2413   9.3177  11.6076  11.7027  13.8259  14.3970  15.1623

          k =-0.5243-0.3027 0.1485 (  4010 PWs)   bands (ev):

   -42.7739 -32.9834  -0.8297   1.7385   4.5922   5.9234   6.7166   7.5115
     7.9430   8.5239  10.8028  12.8851  15.1386  16.8482  18.8274

          k =-0.2622 0.1514 0.1485 (  4001 PWs)   bands (ev):

   -42.7743 -32.9838  -2.1933   3.1076   5.7122   6.5688   6.8134   7.1995
     9.1058  10.9299  12.1974  12.7607  13.7317  14.0576  14.4560

          k =-0.5243 0.0000 0.2228 (  4004 PWs)   bands (ev):

   -42.7739 -32.9835  -1.1421   2.9020   3.7331   4.5169   6.3733   8.0058
     9.4992  11.0406  11.4504  12.4139  13.9101  16.0783  16.7720

          k = 0.5243 0.6054-0.0743 (  4005 PWs)   bands (ev):

   -42.7737 -32.9833   0.3107   1.1452   3.6263   4.5270   5.7577   7.2524
     8.9469  11.2978  11.4346  13.8044  14.7643  15.7361  16.2222

          k = 0.2622 0.4541 0.0000 (  4008 PWs)   bands (ev):

   -42.7739 -32.9835  -1.3714   3.8450   3.9880   5.3209   5.6049   6.5715
     8.3632  11.3306  11.5818  13.6959  14.1231  15.4731  15.5628

          k =-0.5243 0.3027 0.2970 (  4003 PWs)   bands (ev):

   -42.7738 -32.9835  -0.5125   2.1517   3.1085   4.7380   5.6439   7.7904
    10.1846  11.4019  12.9221  13.7564  14.1256  15.4078  16.2109

          k = 0.5243 0.9081 0.0000 (  4006 PWs)   bands (ev):

   -42.7737 -32.9834   0.9234   1.2325   2.7160   3.4288   5.4365   9.5657
     9.8664  10.6009  12.8720  13.0419  15.5685  15.7135  16.0547

          k = 0.0000-0.0000 0.2228 (  3980 PWs)   bands (ev):

   -42.7745 -32.9840  -2.5412   2.0683   7.0355   8.5838   8.5838   9.5512
     9.5512  10.7129  10.8054  10.8054  11.9693  13.6207  13.6207

          k =-0.2622-0.1514 0.2970 (  4005 PWs)   bands (ev):

   -42.7743 -32.9839  -1.9102   1.8128   4.9574   7.4776   8.3915   8.8748
     9.1814  10.2392  11.3863  11.9153  12.3423  14.0471  15.5262

          k = 0.7865 0.4541 0.0000 (  4012 PWs)   bands (ev):

   -42.7739 -32.9835  -0.3353   1.3152   2.9486   6.2738   7.4209   8.1479
     8.7167   9.0852  10.4688  13.2837  15.0990  16.7291  16.8868

          k = 0.5243 0.3027 0.0743 (  4005 PWs)   bands (ev):

   -42.7739 -32.9834  -0.8955   2.3527   4.0887   5.5216   6.0428   6.8205
     8.5065   9.3080  12.2018  14.7922  14.8679  16.4589  17.5179

          k =-0.2622 0.1514 0.3713 (  4007 PWs)   bands (ev):

   -42.7743 -32.9840  -1.7226   1.3024   5.5141   6.5771   7.5746   8.4833
    10.2113  11.8623  12.6831  13.3691  13.4405  13.8323  14.4928

          k = 0.7865 0.7568 0.0743 (  4004 PWs)   bands (ev):

   -42.7739 -32.9837  -0.5748   1.5310   3.3143   4.3365   7.4517   9.4149
    10.5657  10.8002  11.3582  12.6662  14.1003  14.4840  15.8982

          k = 0.5243 0.6054 0.1485 (  4005 PWs)   bands (ev):

   -42.7737 -32.9834   0.5093   1.5426   2.6747   3.7585   6.3328   7.6197
     9.5804  10.9962  12.7201  14.1203  14.8523  15.4455  15.9069

          k = 0.7865-0.4541-0.2228 (  4010 PWs)   bands (ev):

   -42.7738 -32.9836   0.0566   1.1638   2.5430   5.7269   5.9305   8.0796
    10.5938  10.9636  12.8903  13.3779  13.9972  15.0984  15.4662

          k = 0.0000-0.0000 0.4456 (  4004 PWs)   bands (ev):

   -42.7745 -32.9844  -2.0282   0.5418   8.5198   8.5198   8.9241   8.9241
     9.8494  10.5659  11.7768  11.7768  12.0822  14.0142  14.6260

          k = 1.0486 0.6054 0.1485 (  4017 PWs)   bands (ev):

   -42.7742 -32.9841  -1.4186   0.6596   5.0208   6.8241   8.2312  10.1579
    10.7135  11.4425  11.5523  12.2125  13.0044  13.4240  14.8463

     the Fermi energy is    12.3769 ev

!    total energy              =     -61.88104260 Ry
     estimated scf accuracy    <          9.1E-10 Ry
     smearing contrib. (-TS)   =      -0.00040239 Ry
     internal energy E=F+TS    =     -61.88064021 Ry

     The total energy is F=E-TS. E is the sum of the following terms:
     one-electron contribution =       4.72565863 Ry
     hartree contribution      =       7.82833158 Ry
     xc contribution           =     -20.24385057 Ry
     ewald contribution        =     -54.19077986 Ry

     convergence has been achieved in   8 iterations

     Forces acting on atoms (cartesian axes, Ry/au):

     atom    1 type  1   force =     0.00000000    0.00000000    0.05298564
     atom    2 type  1   force =     0.00000000    0.00000000   -0.05298564
     atom    3 type  1   force =     0.00000000    0.00000000   -0.00176097
     atom    4 type  1   force =     0.00000000    0.00000000    0.00176097
     atom    5 type  2   force =     0.00000000   -0.00000000    0.95233912
     atom    6 type  2   force =     0.00000000    0.00000000   -0.95233912

     Total force =     1.348896     Total SCF correction =     0.000051


     Computing stress (Cartesian axis) and pressure

          total   stress  (Ry/bohr**3)                   (kbar)     P=      535.38
   0.00256943  -0.00000000   0.00000000          377.98       -0.00        0.00
  -0.00000000   0.00256943   0.00000000           -0.00      377.98        0.00
   0.00000000   0.00000000   0.00577947            0.00        0.00      850.19


     BFGS Geometry Optimization
     Energy error            =      0.0E+00 Ry
     Gradient error          =      9.5E-01 Ry/Bohr
     Cell gradient error     =      3.5E+02 kbar

     number of scf cycles    =   1
     number of bfgs steps    =   0

     enthalpy           new  =     -60.5039087441 Ry

     new trust radius        =       0.5000000000 bohr
ibrav =      5
 celldm(1) =      9.86184152
 celldm(4) =      0.72804919
Input lattice vectors:
     0.37730601    -0.21783772     0.92581836
     0.00000000     0.43567545     0.92581836
    -0.37730601    -0.21783772     0.92581836
New lattice vectors in INITIAL alat:
     0.37730601    -0.21783772     0.92581836
     0.00000000     0.43567545     0.92581836
    -0.37730601    -0.21783772     0.92581836
New lattice vectors in NEW alat (for information only):
     0.36874843    -0.21289701     0.90482013
     0.00000000     0.42579401     0.90482013
    -0.36874843    -0.21289701     0.90482013
Discrepancy in bohr =     0.000000    0.000000    0.000000
     new conv_thr            =       0.0000000100 Ry

     new unit-cell volume =    408.77779 a.u.^3 (    60.57462 Ang^3 )
     density =      3.46019 g/cm^3

CELL_PARAMETERS (alat=  9.63816777)
   0.377306007  -0.217837725   0.925818360
   0.000000000   0.435675449   0.925818360
  -0.377306007  -0.217837725   0.925818360

ATOMIC_POSITIONS (crystal)
Si               0.1960148306        0.1960148306        0.1960148306
Si               0.8039851694        0.8039851694        0.8039851694
Si               0.5996862135        0.5996862135        0.5996862135
Si               0.4003137865        0.4003137865        0.4003137865
Li               0.0527440285        0.0527440285        0.0527440285
Li               0.9472559715        0.9472559715        0.9472559715



     Writing config-only to output data dir ./output/SiLi.save/ :
     XML data file
     NEW-OLD atomic charge density approx. for the potential

     total cpu time spent up to now is        2.9 secs

     per-process dynamical memory:    33.2 Mb

     Self-consistent Calculation

     iteration #  1     ecut=    70.00 Ry     beta= 0.70
     Davidson diagonalization with overlap
     ethr =  1.00E-06,  avg # of iterations = 13.3

     total cpu time spent up to now is        3.4 secs

     total energy              =     -62.17713338 Ry
     estimated scf accuracy    <       0.07571142 Ry

     iteration #  2     ecut=    70.00 Ry     beta= 0.70
     Davidson diagonalization with overlap
     ethr =  3.44E-04,  avg # of iterations =  3.3

     total cpu time spent up to now is        3.6 secs

     total energy              =     -62.18167837 Ry
     estimated scf accuracy    <       0.18017397 Ry

     iteration #  3     ecut=    70.00 Ry     beta= 0.70
     Davidson diagonalization with overlap
     ethr =  3.44E-04,  avg # of iterations =  2.4

     total cpu time spent up to now is        3.7 secs

     total energy              =     -62.21486146 Ry
     estimated scf accuracy    <       0.00022304 Ry

     iteration #  4     ecut=    70.00 Ry     beta= 0.70
     Davidson diagonalization with overlap
     ethr =  1.01E-06,  avg # of iterations =  5.7

     total cpu time spent up to now is        4.0 secs

     total energy              =     -62.21504086 Ry
     estimated scf accuracy    <       0.00014196 Ry

     iteration #  5     ecut=    70.00 Ry     beta= 0.70
     Davidson diagonalization with overlap
     ethr =  6.45E-07,  avg # of iterations =  2.4

     total cpu time spent up to now is        4.1 secs

     total energy              =     -62.21507197 Ry
     estimated scf accuracy    <       0.00000290 Ry

     iteration #  6     ecut=    70.00 Ry     beta= 0.70
     Davidson diagonalization with overlap
     ethr =  1.32E-08,  avg # of iterations =  3.4

     total cpu time spent up to now is        4.3 secs

     total energy              =     -62.21507201 Ry
     estimated scf accuracy    <       0.00000162 Ry

     iteration #  7     ecut=    70.00 Ry     beta= 0.70
     Davidson diagonalization with overlap
     ethr =  7.37E-09,  avg # of iterations =  2.3

     total cpu time spent up to now is        4.4 secs

     End of self-consistent calculation

          k = 0.0000 0.0000 0.0000 (  4007 PWs)   bands (ev):

   -35.6837 -34.5496  -2.7164   3.7210   3.9519   8.8956   8.8956   9.3260
     9.3260  11.3466  11.3466  11.4423  11.8691  12.3327  12.3327

          k =-0.2650-0.1530 0.0720 (  4006 PWs)   bands (ev):

   -35.6828 -34.5493  -2.2333   3.4122   4.9012   5.5534   7.3500   8.3253
     9.3494   9.3912  11.8337  11.9267  13.9293  14.6115  15.3362

          k =-0.5301-0.3060 0.1440 (  4010 PWs)   bands (ev):

   -35.6814 -34.5489  -0.8181   1.7154   4.3975   5.7430   6.5155   7.0960
     8.1744   8.4302  10.7388  12.7286  15.3306  17.2138  18.9376

          k =-0.2650 0.1530 0.1440 (  4001 PWs)   bands (ev):

   -35.6827 -34.5494  -2.1715   2.8093   5.3682   6.2531   6.8417   7.2870
     9.3508  10.8177  12.1593  12.8552  14.0957  14.2242  14.6683

          k =-0.5301 0.0000 0.2160 (  4004 PWs)   bands (ev):

   -35.6815 -34.5492  -1.1469   2.7049   3.7482   4.3828   6.5743   7.5122
     9.1494  11.1693  11.3215  12.3202  14.4202  15.8059  16.2904

          k = 0.5301 0.6121-0.0720 (  4005 PWs)   bands (ev):

   -35.6809 -34.5489   0.3112   1.1261   3.5014   4.4063   5.7773   7.0771
     8.6054  10.6851  11.4506  14.0171  14.7618  15.5693  16.3905

          k = 0.2650 0.4591 0.0000 (  4008 PWs)   bands (ev):

   -35.6817 -34.5489  -1.3377   3.7458   3.8692   4.9341   5.3926   6.6190
     8.2799  11.5084  11.6535  13.7247  13.7573  15.4722  15.6001

          k =-0.5301 0.3060 0.2880 (  4003 PWs)   bands (ev):

   -35.6811 -34.5492  -0.5501   2.0026   3.0265   4.7584   5.6841   8.0083
     9.6692  11.0641  12.9467  13.1646  13.8268  14.7181  16.4164

          k = 0.5301 0.9181 0.0000 (  4006 PWs)   bands (ev):

   -35.6807 -34.5491   0.8625   1.1461   2.6806   3.3738   5.6341   9.0652
     9.8456  10.4168  12.2481  12.4387  15.2869  15.8281  16.0880

          k = 0.0000-0.0000 0.2160 (  3980 PWs)   bands (ev):

   -35.6832 -34.5499  -2.5409   1.8403   6.3034   8.6444   8.6444   9.4236
     9.4236  11.0667  11.0992  11.0992  12.1199  13.6163  13.6163

          k =-0.2650-0.1530 0.2880 (  4005 PWs)   bands (ev):

   -35.6823 -34.5498  -1.9452   1.6530   5.0623   7.3582   7.6197   8.9150
     9.3522  10.0736  11.5778  11.9501  12.3548  14.5065  15.3098

          k = 0.7951 0.4591 0.0000 (  4012 PWs)   bands (ev):

   -35.6812 -34.5492  -0.4077   1.2679   3.0078   6.2059   7.2698   7.7507
     8.7897   8.9336  10.2767  12.8883  15.2440  15.9839  16.7639

          k = 0.5301 0.3060 0.0720 (  4005 PWs)   bands (ev):

   -35.6814 -34.5489  -0.8712   2.2268   4.0137   5.3208   6.0226   6.4304
     8.6749   9.2935  12.2913  13.8945  14.8429  16.1108  17.3959

          k =-0.2650 0.1530 0.3600 (  4007 PWs)   bands (ev):

   -35.6821 -34.5501  -1.8007   1.2203   5.4878   6.6375   7.5914   8.2765
     9.8829  11.7891  12.2989  13.1618  13.8162  13.9123  14.4155

          k = 0.7951 0.7651 0.0720 (  4004 PWs)   bands (ev):

   -35.6812 -34.5496  -0.6991   1.4884   3.3553   4.4001   7.4748   9.1019
    10.3005  10.5609  11.2209  12.3767  13.7188  14.2194  15.5786

          k = 0.5301 0.6121 0.1440 (  4005 PWs)   bands (ev):

   -35.6808 -34.5490   0.5120   1.3745   2.6841   3.7876   6.2762   7.4568
     9.1404  11.1505  12.1399  13.5144  14.7341  15.3308  15.6926

          k = 0.7951-0.4591-0.2160 (  4010 PWs)   bands (ev):

   -35.6809 -34.5494  -0.1094   1.1327   2.6511   5.7552   5.7766   8.3497
    10.4330  10.5293  12.3246  12.6281  13.7738  14.1701  15.8232

          k = 0.0000-0.0000 0.4321 (  4004 PWs)   bands (ev):

   -35.6826 -34.5508  -2.1540   0.5352   8.5984   8.5984   8.9428   8.9428
     9.0367  10.6742  11.9573  11.9573  12.0219  13.4478  14.7869

          k = 1.0601 0.6121 0.1440 (  4017 PWs)   bands (ev):

   -35.6819 -34.5504  -1.5813   0.6901   5.1083   6.8472   8.3014  10.0214
    10.5410  10.6517  11.7411  11.9645  12.5353  13.2050  15.0730

     the Fermi energy is    12.1998 ev

!    total energy              =     -62.21507231 Ry
     estimated scf accuracy    <          3.8E-09 Ry
     smearing contrib. (-TS)   =      -0.00133163 Ry
     internal energy E=F+TS    =     -62.21374068 Ry

     The total energy is F=E-TS. E is the sum of the following terms:
     one-electron contribution =       7.90300108 Ry
     hartree contribution      =       6.54849137 Ry
     xc contribution           =     -20.19278762 Ry
     ewald contribution        =     -56.47244551 Ry

     convergence has been achieved in   7 iterations

     Forces acting on atoms (cartesian axes, Ry/au):

     atom    1 type  1   force =     0.00000000   -0.00000000    0.09459149
     atom    2 type  1   force =    -0.00000000   -0.00000000   -0.09459149
     atom    3 type  1   force =    -0.00000000    0.00000000    0.00591789
     atom    4 type  1   force =    -0.00000000    0.00000000   -0.00591789
     atom    5 type  2   force =     0.00000000   -0.00000000    0.03128941
     atom    6 type  2   force =    -0.00000000    0.00000000   -0.03128941

     Total force =     0.141150     Total SCF correction =     0.000035


     Computing stress (Cartesian axis) and pressure

          total   stress  (Ry/bohr**3)                   (kbar)     P=      451.40
   0.00297344   0.00000000   0.00000000          437.41        0.00        0.00
  -0.00000000   0.00297344   0.00000000           -0.00      437.41        0.00
   0.00000000   0.00000000   0.00325868            0.00        0.00      479.37

     Energy error            =      3.2E-01 Ry
     Gradient error          =      9.5E-02 Ry/Bohr
     Cell gradient error     =      6.3E+01 kbar

     number of scf cycles    =   2
     number of bfgs steps    =   1

     enthalpy           old  =     -60.5039087441 Ry
     enthalpy           new  =     -60.8256648254 Ry

     CASE: enthalpy          _new < enthalpy          _old

     new trust radius        =       0.1044053442 bohr
ibrav =      5
 celldm(1) =      9.81042744
 celldm(4) =      0.73135514
Input lattice vectors:
     0.37305058    -0.21538085     0.92223050
     0.00000000     0.43076171     0.92223050
    -0.37305058    -0.21538085     0.92223050
New lattice vectors in INITIAL alat:
     0.37305058    -0.21538085     0.92223050
     0.00000000     0.43076171     0.92223050
    -0.37305058    -0.21538085     0.92223050
New lattice vectors in NEW alat (for information only):
     0.36650025    -0.21159902     0.90603721
     0.00000000     0.42319803     0.90603721
    -0.36650025    -0.21159902     0.90603721
Discrepancy in bohr =     0.000000    0.000000    0.000000
     new conv_thr            =       0.0000000095 Ry

     new unit-cell volume =    398.06042 a.u.^3 (    58.98647 Ang^3 )
     density =      3.55336 g/cm^3

CELL_PARAMETERS (alat=  9.63816777)
   0.373050582  -0.215380854   0.922230501
   0.000000000   0.430761708   0.922230501
  -0.373050582  -0.215380854   0.922230501

ATOMIC_POSITIONS (crystal)
Si               0.1999149796        0.1999149796        0.1999149796
Si               0.8000850204        0.8000850204        0.8000850204
Si               0.5999316068        0.5999316068        0.5999316068
Si               0.4000683932        0.4000683932        0.4000683932
Li               0.0537782042        0.0537782042        0.0537782042
Li               0.9462217958        0.9462217958        0.9462217958



     Writing config-only to output data dir ./output/SiLi.save/ :
     XML data file
     NEW-OLD atomic charge density approx. for the potential

     total cpu time spent up to now is        4.6 secs

     per-process dynamical memory:    33.2 Mb

     Self-consistent Calculation

     iteration #  1     ecut=    70.00 Ry     beta= 0.70
     Davidson diagonalization with overlap
     ethr =  1.00E-06,  avg # of iterations =  9.5

     total cpu time spent up to now is        5.0 secs

     total energy              =     -62.19934798 Ry
     estimated scf accuracy    <       0.00119855 Ry

     iteration #  2     ecut=    70.00 Ry     beta= 0.70
     Davidson diagonalization with overlap
     ethr =  5.45E-06,  avg # of iterations =  2.8

     total cpu time spent up to now is        5.2 secs

     total energy              =     -62.19942081 Ry
     estimated scf accuracy    <       0.00114997 Ry

     iteration #  3     ecut=    70.00 Ry     beta= 0.70
     Davidson diagonalization with overlap
     ethr =  5.23E-06,  avg # of iterations =  2.3

     total cpu time spent up to now is        5.3 secs

     total energy              =     -62.19970409 Ry
     estimated scf accuracy    <       0.00010639 Ry

     iteration #  4     ecut=    70.00 Ry     beta= 0.70
     Davidson diagonalization with overlap
     ethr =  4.84E-07,  avg # of iterations =  2.1

     total cpu time spent up to now is        5.5 secs

     total energy              =     -62.19972217 Ry
     estimated scf accuracy    <       0.00000117 Ry

     iteration #  5     ecut=    70.00 Ry     beta= 0.70
     Davidson diagonalization with overlap
     ethr =  5.33E-09,  avg # of iterations =  4.6

     total cpu time spent up to now is        5.7 secs

     total energy              =     -62.19972293 Ry
     estimated scf accuracy    <       0.00000024 Ry

     iteration #  6     ecut=    70.00 Ry     beta= 0.70
     Davidson diagonalization with overlap
     ethr =  1.11E-09,  avg # of iterations =  2.2

     total cpu time spent up to now is        5.8 secs

     End of self-consistent calculation

          k = 0.0000 0.0000 0.0000 (  4007 PWs)   bands (ev):

   -35.1506 -34.1075  -2.5104   3.8817   4.0938   9.3045   9.3045   9.7199
     9.7199  11.6928  11.6928  11.9477  12.4629  12.5557  12.5557

          k =-0.2681-0.1548 0.0723 (  4006 PWs)   bands (ev):

   -35.1495 -34.1071  -2.0225   3.5672   5.1150   5.8560   7.7351   8.5910
     9.6063   9.8724  12.2787  12.3113  14.3747  15.1320  15.6691

          k =-0.5361-0.3095 0.1446 (  4010 PWs)   bands (ev):

   -35.1478 -34.1066  -0.5992   1.9972   4.5948   5.9526   6.8997   7.3427
     8.3525   8.8578  11.0935  13.0941  15.8726  17.7782  19.3989

          k =-0.2681 0.1548 0.1446 (  4001 PWs)   bands (ev):

   -35.1494 -34.1073  -1.9571   2.9476   5.6557   6.5608   7.1853   7.5038
     9.8244  11.0731  12.6672  13.2388  14.5426  14.6710  15.1576

          k =-0.5361 0.0000 0.2169 (  4004 PWs)   bands (ev):

   -35.1480 -34.1069  -0.9200   2.8744   4.0154   4.7697   6.7859   7.7213
     9.3990  11.5468  11.8351  12.7609  14.8269  16.2189  16.6875

          k = 0.5361 0.6191-0.0723 (  4005 PWs)   bands (ev):

   -35.1473 -34.1066   0.5185   1.4239   3.7700   4.7001   5.9768   7.2704
     8.8301  10.9863  11.9683  14.4086  15.2880  16.0572  16.8714

          k = 0.2681 0.4643 0.0000 (  4008 PWs)   bands (ev):

   -35.1482 -34.1067  -1.1213   4.0051   4.2186   5.1606   5.5624   6.8974
     8.4709  11.9964  12.2296  14.0179  14.1405  15.8703  16.0876

          k =-0.5361 0.3095 0.2892 (  4003 PWs)   bands (ev):

   -35.1474 -34.1071  -0.3134   2.2285   3.3107   4.8853   5.9985   8.4886
     9.9402  11.2805  13.3497  13.4530  14.2368  15.1488  16.9597

          k = 0.5361 0.9286 0.0000 (  4006 PWs)   bands (ev):

   -35.1470 -34.1069   1.0908   1.4342   2.9120   3.6241   5.8565   9.2665
    10.1673  10.8740  12.6074  12.6597  15.7020  16.4529  16.6735

          k = 0.0000-0.0000 0.2169 (  3980 PWs)   bands (ev):

   -35.1500 -34.1079  -2.3244   1.9562   6.4959   9.0267   9.0267   9.8550
     9.8550  11.3739  11.3739  11.5659  12.7473  13.8948  13.8948

          k =-0.2681-0.1548 0.2892 (  4005 PWs)   bands (ev):

   -35.1490 -34.1078  -1.7155   1.7640   5.4040   7.7446   7.8231   9.4000
     9.5665  10.3803  12.0389  12.2885  12.7583  14.9732  15.8808

          k = 0.8042 0.4643 0.0000 (  4012 PWs)   bands (ev):

   -35.1476 -34.1070  -0.1621   1.4890   3.2142   6.5501   7.5866   8.0307
     9.0082   9.2472  10.6436  13.2458  15.8005  16.3089  17.1074

          k = 0.5361 0.3095 0.0723 (  4005 PWs)   bands (ev):

   -35.1478 -34.1067  -0.6536   2.5505   4.2017   5.4774   6.3536   6.6742
     9.1641   9.5245  12.6414  14.2780  15.3014  16.4600  17.9069

          k =-0.2681 0.1548 0.3614 (  4007 PWs)   bands (ev):

   -35.1487 -34.1081  -1.5582   1.3138   5.8589   6.9720   7.8761   8.5876
    10.2217  12.1552  12.6538  13.6291  14.2014  14.3079  14.9220

          k = 0.8042 0.7738 0.0723 (  4004 PWs)   bands (ev):

   -35.1476 -34.1074  -0.4303   1.5838   3.6298   4.7961   7.6885   9.3074
    10.7154  10.9227  11.6607  12.7454  14.0151  14.5078  16.0959

          k = 0.5361 0.6191 0.1446 (  4005 PWs)   bands (ev):

   -35.1471 -34.1067   0.7316   1.6936   2.8668   4.0877   6.4974   7.6635
     9.4159  11.5918  12.5315  13.8313  15.0036  15.8533  16.2680

          k = 0.8042-0.4643-0.2169 (  4010 PWs)   bands (ev):

   -35.1473 -34.1073   0.1825   1.2685   2.9098   5.9843   6.0724   8.8625
    10.6702  10.7928  12.5734  12.9666  14.1677  14.5692  16.3159

          k = 0.0000-0.0000 0.4337 (  4004 PWs)   bands (ev):

   -35.1493 -34.1089  -1.9022   0.6045   8.9748   8.9748   9.3261   9.3361
     9.3361  11.1889  12.2742  12.2742  12.3802  13.9365  14.9612

          k = 1.0722 0.6191 0.1446 (  4017 PWs)   bands (ev):

   -35.1485 -34.1084  -1.3107   0.7520   5.4496   7.1910   8.7481  10.2925
    10.8915  10.9173  12.1678  12.1993  12.9026  13.7020  15.4486

     the Fermi energy is    12.5693 ev

!    total energy              =     -62.19972296 Ry
     estimated scf accuracy    <          7.6E-09 Ry
     smearing contrib. (-TS)   =      -0.00063756 Ry
     internal energy E=F+TS    =     -62.19908540 Ry

     The total energy is F=E-TS. E is the sum of the following terms:
     one-electron contribution =       8.78451930 Ry
     hartree contribution      =       6.43071776 Ry
     xc contribution           =     -20.28451503 Ry
     ewald contribution        =     -57.12980743 Ry

     convergence has been achieved in   6 iterations

     Forces acting on atoms (cartesian axes, Ry/au):

     atom    1 type  1   force =    -0.00000000    0.00000000    0.07238895
     atom    2 type  1   force =     0.00000000   -0.00000000   -0.07238895
     atom    3 type  1   force =     0.00000000    0.00000000    0.01128380
     atom    4 type  1   force =    -0.00000000   -0.00000000   -0.01128380
     atom    5 type  2   force =     0.00000000   -0.00000000    0.03168832
     atom    6 type  2   force =    -0.00000000   -0.00000000   -0.03168832

     Total force =     0.112886     Total SCF correction =     0.000142


     Computing stress (Cartesian axis) and pressure

          total   stress  (Ry/bohr**3)                   (kbar)     P=      507.54
   0.00346840  -0.00000000  -0.00000000          510.22       -0.00       -0.00
  -0.00000000   0.00346840   0.00000000           -0.00      510.22        0.00
  -0.00000000   0.00000000   0.00341366           -0.00        0.00      502.17

     Energy error            =      2.1E-02 Ry
     Gradient error          =      7.2E-02 Ry/Bohr
     Cell gradient error     =      1.0E+01 kbar

     number of scf cycles    =   3
     number of bfgs steps    =   2

     enthalpy           old  =     -60.8256648254 Ry
     enthalpy           new  =     -60.8467430982 Ry

     CASE: enthalpy          _new < enthalpy          _old

     new trust radius        =       0.1560011073 bohr
ibrav =      5
 celldm(1) =      9.78677886
 celldm(4) =      0.73167925
Input lattice vectors:
     0.37192676    -0.21473202     0.92012849
    -0.00000000     0.42946403     0.92012849
    -0.37192676    -0.21473202     0.92012849
New lattice vectors in INITIAL alat:
     0.37192676    -0.21473202     0.92012849
     0.00000000     0.42946403     0.92012849
    -0.37192676    -0.21473202     0.92012849
New lattice vectors in NEW alat (for information only):
     0.36627910    -0.21147133     0.90615644
     0.00000000     0.42294267     0.90615644
    -0.36627910    -0.21147133     0.90615644
Discrepancy in bohr =     0.000000    0.000000    0.000000
     new conv_thr            =       0.0000000042 Ry

     new unit-cell volume =    394.76387 a.u.^3 (    58.49797 Ang^3 )
     density =      3.58303 g/cm^3

CELL_PARAMETERS (alat=  9.63816777)
   0.371926760  -0.214732015   0.920128486
   0.000000000   0.429464030   0.920128486
  -0.371926760  -0.214732015   0.920128486

ATOMIC_POSITIONS (crystal)
Si               0.2057652032        0.2057652032        0.2057652032
Si               0.7942347968        0.7942347968        0.7942347968
Si               0.6006663455        0.6006663455        0.6006663455
Si               0.3993336545        0.3993336545        0.3993336545
Li               0.0555122423        0.0555122423        0.0555122423
Li               0.9444877577        0.9444877577        0.9444877577



     Writing config-only to output data dir ./output/SiLi.save/ :
     XML data file
     NEW-OLD atomic charge density approx. for the potential

     total cpu time spent up to now is        6.0 secs

     per-process dynamical memory:    33.4 Mb

     Self-consistent Calculation

     iteration #  1     ecut=    70.00 Ry     beta= 0.70
     Davidson diagonalization with overlap
     ethr =  1.00E-06,  avg # of iterations = 10.7

     total cpu time spent up to now is        6.4 secs

     total energy              =     -62.20735650 Ry
     estimated scf accuracy    <       0.00404598 Ry

     iteration #  2     ecut=    70.00 Ry     beta= 0.70
     Davidson diagonalization with overlap
     ethr =  1.84E-05,  avg # of iterations =  3.6

     total cpu time spent up to now is        6.5 secs

     total energy              =     -62.20758215 Ry
     estimated scf accuracy    <       0.00827217 Ry

     iteration #  3     ecut=    70.00 Ry     beta= 0.70
     Davidson diagonalization with overlap
     ethr =  1.84E-05,  avg # of iterations =  2.5

     total cpu time spent up to now is        6.7 secs

     total energy              =     -62.20914648 Ry
     estimated scf accuracy    <       0.00005203 Ry

     iteration #  4     ecut=    70.00 Ry     beta= 0.70
     Davidson diagonalization with overlap
     ethr =  2.37E-07,  avg # of iterations =  3.6

     total cpu time spent up to now is        6.9 secs

     total energy              =     -62.20916001 Ry
     estimated scf accuracy    <       0.00000495 Ry

     iteration #  5     ecut=    70.00 Ry     beta= 0.70
     Davidson diagonalization with overlap
     ethr =  2.25E-08,  avg # of iterations =  2.5

     total cpu time spent up to now is        7.0 secs

     total energy              =     -62.20916095 Ry
     estimated scf accuracy    <       0.00000009 Ry

     iteration #  6     ecut=    70.00 Ry     beta= 0.70
     Davidson diagonalization with overlap
     ethr =  4.10E-10,  avg # of iterations =  4.3

     total cpu time spent up to now is        7.2 secs

     total energy              =     -62.20916100 Ry
     estimated scf accuracy    <          7.9E-09 Ry

     iteration #  7     ecut=    70.00 Ry     beta= 0.70
     Davidson diagonalization with overlap
     ethr =  3.60E-11,  avg # of iterations =  2.4

     total cpu time spent up to now is        7.4 secs

     End of self-consistent calculation

          k = 0.0000 0.0000 0.0000 (  4007 PWs)   bands (ev):

   -34.7650 -33.8808  -2.3788   3.8751   4.0575   9.4588   9.4588   9.9239
     9.9239  11.8043  11.8043  11.9479  12.4665  12.4665  12.7208

          k =-0.2689-0.1552 0.0725 (  4006 PWs)   bands (ev):

   -34.7639 -33.8804  -1.8965   3.5412   5.1385   5.9805   7.9527   8.5664
     9.5357  10.2324  12.2265  12.5565  14.5189  15.2492  15.6636

          k =-0.5377-0.3105 0.1449 (  4010 PWs)   bands (ev):

   -34.7620 -33.8799  -0.5012   2.1387   4.6004   5.9554   7.1602   7.3394
     8.2413   9.1026  11.3003  13.0427  16.1287  17.9622  19.5439

          k =-0.2689 0.1552 0.1449 (  4001 PWs)   bands (ev):

   -34.7637 -33.8806  -1.8252   2.9037   5.7385   6.7686   7.3337   7.3785
    10.1029  11.0516  12.9918  13.2364  14.4923  14.9078  15.2079

          k =-0.5377 0.0000 0.2174 (  4004 PWs)   bands (ev):

   -34.7622 -33.8802  -0.7955   2.8516   4.0844   5.0336   6.7832   7.7329
     9.3883  11.6469  12.0804  13.0068  14.8604  16.2675  16.8752

          k = 0.5377 0.6209-0.0725 (  4005 PWs)   bands (ev):

   -34.7614 -33.8798   0.5683   1.5991   3.8438   4.8504   6.0006   7.2737
     8.7664  11.0641  12.2956  14.3747  15.5454  16.2731  17.0016

          k = 0.2689 0.4657 0.0000 (  4008 PWs)   bands (ev):

   -34.7624 -33.8799  -1.0135   4.0417   4.4370   5.1764   5.5828   7.0344
     8.3421  12.2044  12.6030  13.8692  14.3813  15.8426  16.3635

          k =-0.5377 0.3105 0.2898 (  4003 PWs)   bands (ev):

   -34.7615 -33.8804  -0.1887   2.2860   3.4903   4.7086   6.1316   8.8110
     9.9935  11.2274  13.4706  13.5742  14.2610  15.3830  17.2207

          k = 0.5377 0.9314 0.0000 (  4006 PWs)   bands (ev):

   -34.7611 -33.8801   1.1408   1.6334   2.9296   3.7320   5.8926   9.2384
    10.2160  11.1853  12.5834  12.7064  15.8702  16.7839  16.9410

          k = 0.0000-0.0000 0.2174 (  3980 PWs)   bands (ev):

   -34.7645 -33.8814  -2.1736   1.8875   6.5174   9.1587   9.1587  10.1212
    10.1212  11.3413  11.3413  11.6015  13.0253  13.8927  13.8927

          k =-0.2689-0.1552 0.2898 (  4005 PWs)   bands (ev):

   -34.7632 -33.8812  -1.5555   1.6803   5.5438   7.8342   7.9658   9.4922
     9.6494  10.4244  12.2545  12.3428  12.8636  15.0515  16.1912

          k = 0.8066 0.4657 0.0000 (  4012 PWs)   bands (ev):

   -34.7617 -33.8803  -0.0232   1.5501   3.2334   6.7286   7.6016   8.1344
     8.9765   9.3560  10.9052  13.1974  16.0680  16.3728  17.2155

          k = 0.5377 0.3105 0.0725 (  4005 PWs)   bands (ev):

   -34.7620 -33.8799  -0.5572   2.7605   4.1857   5.3845   6.5105   6.7273
     9.4833   9.5105  12.6581  14.3901  15.5255  16.5028  18.1740

          k =-0.2689 0.1552 0.3623 (  4007 PWs)   bands (ev):

   -34.7629 -33.8815  -1.3722   1.1997   6.0408   7.1081   7.8343   8.7687
    10.3437  12.1504  12.8455  13.8583  14.1869  14.4979  15.0745

          k = 0.8066 0.7762 0.0725 (  4004 PWs)   bands (ev):

   -34.7617 -33.8808  -0.2254   1.4552   3.7026   5.0702   7.6644   9.2541
    10.8823  11.0828  11.8917  12.8246  14.1036  14.4896  16.3450

          k = 0.5377 0.6209 0.1449 (  4005 PWs)   bands (ev):

   -34.7612 -33.8800   0.7910   1.9324   2.8108   4.2481   6.5477   7.6390
     9.4403  11.7856  12.7022  13.9080  14.9581  16.0599  16.5163

          k = 0.8066-0.4657-0.2174 (  4010 PWs)   bands (ev):

   -34.7614 -33.8806   0.4229   1.1782   3.0033   5.9384   6.2095   9.2312
    10.6527  10.7951  12.5718  13.1313  14.3634  14.6000  16.5121

          k = 0.0000-0.0000 0.4347 (  4004 PWs)   bands (ev):

   -34.7636 -33.8824  -1.6751   0.4474   9.0752   9.0752   9.4349   9.5624
     9.5624  11.2751  12.2936  12.2936  12.4581  14.1114  14.9227

          k = 1.0755 0.6209 0.1449 (  4017 PWs)   bands (ev):

   -34.7626 -33.8819  -1.0574   0.5671   5.5864   7.3403   8.9130  10.3448
    10.9057  11.1354  12.0372  12.4159  13.0791  13.8182  15.4441

     the Fermi energy is    12.6855 ev

!    total energy              =     -62.20916101 Ry
     estimated scf accuracy    <          1.9E-10 Ry
     smearing contrib. (-TS)   =      -0.00033032 Ry
     internal energy E=F+TS    =     -62.20883069 Ry

     The total energy is F=E-TS. E is the sum of the following terms:
     one-electron contribution =       9.23364002 Ry
     hartree contribution      =       6.32820649 Ry
     xc contribution           =     -20.31205474 Ry
     ewald contribution        =     -57.45862246 Ry

     convergence has been achieved in   7 iterations

     Forces acting on atoms (cartesian axes, Ry/au):

     atom    1 type  1   force =     0.00000000    0.00000000    0.04221798
     atom    2 type  1   force =    -0.00000000    0.00000000   -0.04221798
     atom    3 type  1   force =     0.00000000    0.00000000    0.01503336
     atom    4 type  1   force =    -0.00000000   -0.00000000   -0.01503336
     atom    5 type  2   force =     0.00000000    0.00000000    0.02864515
     atom    6 type  2   force =    -0.00000000    0.00000000   -0.02864515

     Total force =     0.075218     Total SCF correction =     0.000020


     Computing stress (Cartesian axis) and pressure

          total   stress  (Ry/bohr**3)                   (kbar)     P=      527.40
   0.00365005  -0.00000000   0.00000000          536.94       -0.00        0.00
  -0.00000000   0.00365005   0.00000000           -0.00      536.94        0.00
   0.00000000   0.00000000   0.00345544            0.00        0.00      508.31

     Energy error            =      2.1E-02 Ry
     Gradient error          =      4.2E-02 Ry/Bohr
     Cell gradient error     =      3.7E+01 kbar

     number of scf cycles    =   4
     number of bfgs steps    =   3

     enthalpy           old  =     -60.8467430982 Ry
     enthalpy           new  =     -60.8673858787 Ry

     CASE: enthalpy          _new < enthalpy          _old

     new trust radius        =       0.2334683072 bohr
ibrav =      5
 celldm(1) =      9.77145461
 celldm(4) =      0.72887291
Input lattice vectors:
     0.37328127    -0.21551404     0.91764054
     0.00000000     0.43102808     0.91764054
    -0.37328127    -0.21551404     0.91764054
New lattice vectors in INITIAL alat:
     0.37328127    -0.21551404     0.91764054
     0.00000000     0.43102808     0.91764054
    -0.37328127    -0.21551404     0.91764054
New lattice vectors in NEW alat (for information only):
     0.36818955    -0.21257434     0.90512353
     0.00000000     0.42514867     0.90512353
    -0.36818955    -0.21257434     0.90512353
Discrepancy in bohr =     0.000000    0.000000    0.000000
     new conv_thr            =       0.0000000041 Ry

     new unit-cell volume =    396.56927 a.u.^3 (    58.76550 Ang^3 )
     density =      3.56672 g/cm^3

CELL_PARAMETERS (alat=  9.63816777)
   0.373281268  -0.215514040   0.917640542
   0.000000000   0.431028081   0.917640542
  -0.373281268  -0.215514040   0.917640542

ATOMIC_POSITIONS (crystal)
Si               0.2145405386        0.2145405386        0.2145405386
Si               0.7854594614        0.7854594614        0.7854594614
Si               0.6024155772        0.6024155772        0.6024155772
Si               0.3975844228        0.3975844228        0.3975844228
Li               0.0585266417        0.0585266417        0.0585266417
Li               0.9414733583        0.9414733583        0.9414733583



     Writing config-only to output data dir ./output/SiLi.save/ :
     XML data file
     NEW-OLD atomic charge density approx. for the potential

     total cpu time spent up to now is        7.6 secs

     per-process dynamical memory:    33.4 Mb

     Self-consistent Calculation

     iteration #  1     ecut=    70.00 Ry     beta= 0.70
     Davidson diagonalization with overlap
     c_bands:  1 eigenvalues not converged
     ethr =  1.00E-06,  avg # of iterations = 12.7

     total cpu time spent up to now is        8.0 secs

     total energy              =     -62.22554260 Ry
     estimated scf accuracy    <       0.01381753 Ry

     iteration #  2     ecut=    70.00 Ry     beta= 0.70
     Davidson diagonalization with overlap
     ethr =  6.28E-05,  avg # of iterations =  3.6

     total cpu time spent up to now is        8.2 secs

     total energy              =     -62.22635559 Ry
     estimated scf accuracy    <       0.03923076 Ry

     iteration #  3     ecut=    70.00 Ry     beta= 0.70
     Davidson diagonalization with overlap
     ethr =  6.28E-05,  avg # of iterations =  2.5

     total cpu time spent up to now is        8.4 secs

     total energy              =     -62.23282731 Ry
     estimated scf accuracy    <       0.00004317 Ry

     iteration #  4     ecut=    70.00 Ry     beta= 0.70
     Davidson diagonalization with overlap
     ethr =  1.96E-07,  avg # of iterations =  5.4

     total cpu time spent up to now is        8.6 secs

     total energy              =     -62.23287518 Ry
     estimated scf accuracy    <       0.00002751 Ry

     iteration #  5     ecut=    70.00 Ry     beta= 0.70
     Davidson diagonalization with overlap
     ethr =  1.25E-07,  avg # of iterations =  2.0

     total cpu time spent up to now is        8.7 secs

     total energy              =     -62.23287975 Ry
     estimated scf accuracy    <       0.00000016 Ry

     iteration #  6     ecut=    70.00 Ry     beta= 0.70
     Davidson diagonalization with overlap
     ethr =  7.28E-10,  avg # of iterations =  4.6

     total cpu time spent up to now is        8.9 secs

     total energy              =     -62.23287989 Ry
     estimated scf accuracy    <       0.00000010 Ry

     iteration #  7     ecut=    70.00 Ry     beta= 0.70
     Davidson diagonalization with overlap
     ethr =  4.38E-10,  avg # of iterations =  2.0

     total cpu time spent up to now is        9.1 secs

     End of self-consistent calculation

          k = 0.0000 0.0000 0.0000 (  4007 PWs)   bands (ev):

   -34.4380 -33.7801  -2.3294   3.7297   3.9067   9.2911   9.2911  10.0010
    10.0010  11.4307  11.8296  11.8296  12.0748  12.0748  12.7397

          k =-0.2679-0.1547 0.0727 (  4006 PWs)   bands (ev):

   -34.4368 -33.7797  -1.8649   3.3797   5.0247   5.9081   7.9894   8.3311
     9.2438  10.5522  11.7693  12.6121  14.4445  14.9353  15.3858

          k =-0.5358-0.3093 0.1453 (  4010 PWs)   bands (ev):

   -34.4348 -33.7792  -0.5435   2.1595   4.4343   5.8064   7.1800   7.3287
     7.8603   9.2420  11.4214  12.6093  16.1723  17.8675  19.4311

          k =-0.2679 0.1547 0.1453 (  4001 PWs)   bands (ev):

   -34.4365 -33.7799  -1.7856   2.7234   5.6662   6.8638   6.9908   7.2850
    10.2489  10.8020  12.8742  13.2442  14.0739  14.7601  15.0192

          k =-0.5358 0.0000 0.2180 (  4004 PWs)   bands (ev):

   -34.4349 -33.7796  -0.7897   2.6868   3.9249   5.2497   6.5948   7.5950
     9.1834  11.5450  12.0509  13.1657  14.5591  16.0549  16.9567

          k = 0.5358 0.6187-0.0727 (  4005 PWs)   bands (ev):

   -34.4341 -33.7791   0.4351   1.6460   3.7498   4.9336   5.9086   7.1387
     8.4487  10.9813  12.5221  13.9418  15.6639  16.2040  16.8676

          k = 0.2679 0.4640 0.0000 (  4008 PWs)   bands (ev):

   -34.4352 -33.7792  -1.0268   3.8308   4.6014   4.9904   5.5106   7.1592
     7.8796  12.2123  12.8506  13.3241  14.5802  15.4227  16.4931

          k =-0.5358 0.3093 0.2906 (  4003 PWs)   bands (ev):

   -34.4342 -33.7798  -0.2037   2.2162   3.6224   4.2608   6.0857   9.0432
     9.8916  10.9403  13.3112  13.7433  13.8211  15.6466  17.2145

          k = 0.5358 0.9280 0.0000 (  4006 PWs)   bands (ev):

   -34.4337 -33.7795   0.9614   1.7635   2.7366   3.8135   5.7631   9.0373
    10.0715  11.4689  12.2018  12.5639  15.9090  16.7459  17.0184

          k = 0.0000-0.0000 0.2180 (  3980 PWs)   bands (ev):

   -34.4373 -33.7807  -2.0959   1.6766   6.4173   9.0102   9.0102  10.2870
    10.2870  11.0490  11.0490  11.1562  13.0673  13.6756  13.6756

          k =-0.2679-0.1547 0.2906 (  4005 PWs)   bands (ev):

   -34.4360 -33.7806  -1.4751   1.4478   5.4695   7.7188   8.0083   9.1960
     9.6681  10.3004  12.1865  12.2609  12.7634  14.7504  16.3626

          k = 0.8037 0.4640 0.0000 (  4012 PWs)   bands (ev):

   -34.4344 -33.7796  -0.0329   1.5112   3.0754   6.7323   7.4131   8.0954
     8.7536   9.3556  11.1073  12.7937  16.0862  16.2768  17.2300

          k = 0.5358 0.3093 0.0727 (  4005 PWs)   bands (ev):

   -34.4347 -33.7792  -0.5990   2.8734   3.9855   5.1243   6.4891   6.6399
     9.3035   9.7454  12.2917  14.3568  15.6555  16.3293  18.0158

          k =-0.2679 0.1547 0.3633 (  4007 PWs)   bands (ev):

   -34.4356 -33.7810  -1.2483   0.9186   6.0014   7.0476   7.5822   8.8637
    10.2776  11.8476  12.8721  13.6580  14.1111  14.5769  14.8689

          k = 0.8037 0.7733 0.0727 (  4004 PWs)   bands (ev):

   -34.4343 -33.7802  -0.0977   1.1538   3.5546   5.2740   7.4354   9.0088
    10.8099  11.1580  11.8870  12.7408  14.0550  14.2480  16.3897

          k = 0.5358 0.6187 0.1453 (  4005 PWs)   bands (ev):

   -34.4339 -33.7793   0.6575   2.1292   2.5184   4.3416   6.4619   7.4306
     9.2771  11.7828  12.6700  13.8019  14.7460  16.0349  16.4799

          k = 0.8037-0.4640-0.2180 (  4010 PWs)   bands (ev):

   -34.4340 -33.7800   0.5889   0.9114   2.9257   5.7248   6.1677   9.5522
    10.4217  10.5649  12.3978  13.0725  14.4671  14.4763  16.4538

          k = 0.0000-0.0000 0.4359 (  4004 PWs)   bands (ev):

   -34.4362 -33.7820  -1.4502   0.0746   8.8766   8.8766   9.4119   9.6701
     9.6701  10.8715  12.0748  12.0748  12.4568  14.0443  14.6402

          k = 1.0716 0.6187 0.1453 (  4017 PWs)   bands (ev):

   -34.4353 -33.7814  -0.7583   0.1072   5.5052   7.2924   8.8504  10.2882
    10.6731  11.2612  11.6616  12.4177  13.1599  13.6637  15.0730

     the Fermi energy is    12.6263 ev

!    total energy              =     -62.23287990 Ry
     estimated scf accuracy    <          2.6E-10 Ry
     smearing contrib. (-TS)   =      -0.00098015 Ry
     internal energy E=F+TS    =     -62.23189976 Ry

     The total energy is F=E-TS. E is the sum of the following terms:
     one-electron contribution =       9.26272994 Ry
     hartree contribution      =       6.28936377 Ry
     xc contribution           =     -20.30641981 Ry
     ewald contribution        =     -57.47757366 Ry

     convergence has been achieved in   7 iterations

     Forces acting on atoms (cartesian axes, Ry/au):

     atom    1 type  1   force =     0.00000000    0.00000000    0.00565921
     atom    2 type  1   force =     0.00000000    0.00000000   -0.00565921
     atom    3 type  1   force =    -0.00000000    0.00000000    0.02079201
     atom    4 type  1   force =    -0.00000000    0.00000000   -0.02079201
     atom    5 type  2   force =     0.00000000    0.00000000    0.02533513
     atom    6 type  2   force =    -0.00000000    0.00000000   -0.02533513

     Total force =     0.047036     Total SCF correction =     0.000020


     Computing stress (Cartesian axis) and pressure

          total   stress  (Ry/bohr**3)                   (kbar)     P=      535.58
   0.00375264   0.00000000  -0.00000000          552.03        0.00       -0.00
  -0.00000000   0.00375264   0.00000000           -0.00      552.03        0.00
   0.00000000   0.00000000   0.00341713            0.00        0.00      502.68

     Energy error            =      1.8E-02 Ry
     Gradient error          =      2.5E-02 Ry/Bohr
     Cell gradient error     =      5.2E+01 kbar

     number of scf cycles    =   5
     number of bfgs steps    =   4

     enthalpy           old  =     -60.8673858787 Ry
     enthalpy           new  =     -60.8849683639 Ry

     CASE: enthalpy          _new < enthalpy          _old

     new trust radius        =       0.1445923382 bohr
ibrav =      5
 celldm(1) =      9.75923559
 celldm(4) =      0.72307770
Input lattice vectors:
     0.37677779    -0.21753276     0.91432946
     0.00000000     0.43506551     0.91432946
    -0.37677779    -0.21753276     0.91432946
New lattice vectors in INITIAL alat:
     0.37677779    -0.21753276     0.91432946
     0.00000000     0.43506551     0.91432946
    -0.37677779    -0.21753276     0.91432946
New lattice vectors in NEW alat (for information only):
     0.37210368    -0.21483416     0.90298678
     0.00000000     0.42966832     0.90298678
    -0.37210368    -0.21483416     0.90298678
Discrepancy in bohr =     0.000000    0.000000    0.000000
     new conv_thr            =       0.0000000025 Ry

     new unit-cell volume =    402.57552 a.u.^3 (    59.65554 Ang^3 )
     density =      3.51350 g/cm^3

CELL_PARAMETERS (alat=  9.63816777)
   0.376777785  -0.217532756   0.914329463
   0.000000000   0.435065511   0.914329463
  -0.376777785  -0.217532756   0.914329463

ATOMIC_POSITIONS (crystal)
Si               0.2199900423        0.2199900423        0.2199900423
Si               0.7800099577        0.7800099577        0.7800099577
Si               0.6044410239        0.6044410239        0.6044410239
Si               0.3955589761        0.3955589761        0.3955589761
Li               0.0609957133        0.0609957133        0.0609957133
Li               0.9390042867        0.9390042867        0.9390042867



     Writing config-only to output data dir ./output/SiLi.save/ :
     XML data file
     NEW-OLD atomic charge density approx. for the potential

     total cpu time spent up to now is        9.2 secs

     per-process dynamical memory:    33.4 Mb

     Self-consistent Calculation

     iteration #  1     ecut=    70.00 Ry     beta= 0.70
     Davidson diagonalization with overlap
     ethr =  1.00E-06,  avg # of iterations = 10.7

     total cpu time spent up to now is        9.6 secs

     total energy              =     -62.25708556 Ry
     estimated scf accuracy    <       0.00623771 Ry

     iteration #  2     ecut=    70.00 Ry     beta= 0.70
     Davidson diagonalization with overlap
     ethr =  2.84E-05,  avg # of iterations =  2.9

     total cpu time spent up to now is        9.8 secs

     total energy              =     -62.25781078 Ry
     estimated scf accuracy    <       0.01372335 Ry

     iteration #  3     ecut=    70.00 Ry     beta= 0.70
     Davidson diagonalization with overlap
     ethr =  2.84E-05,  avg # of iterations =  2.3

     total cpu time spent up to now is       10.0 secs

     total energy              =     -62.26024723 Ry
     estimated scf accuracy    <       0.00002448 Ry

     iteration #  4     ecut=    70.00 Ry     beta= 0.70
     Davidson diagonalization with overlap
     ethr =  1.11E-07,  avg # of iterations =  4.7

     total cpu time spent up to now is       10.2 secs

     total energy              =     -62.26026729 Ry
     estimated scf accuracy    <       0.00001011 Ry

     iteration #  5     ecut=    70.00 Ry     beta= 0.70
     Davidson diagonalization with overlap
     ethr =  4.60E-08,  avg # of iterations =  1.9

     total cpu time spent up to now is       10.3 secs

     total energy              =     -62.26026903 Ry
     estimated scf accuracy    <       0.00000002 Ry

     iteration #  6     ecut=    70.00 Ry     beta= 0.70
     Davidson diagonalization with overlap
     ethr =  8.44E-11,  avg # of iterations =  5.4

     total cpu time spent up to now is       10.5 secs

     total energy              =     -62.26026908 Ry
     estimated scf accuracy    <       0.00000002 Ry

     iteration #  7     ecut=    70.00 Ry     beta= 0.70
     Davidson diagonalization with overlap
     ethr =  7.20E-11,  avg # of iterations =  1.8

     total cpu time spent up to now is       10.7 secs

     End of self-consistent calculation

          k = 0.0000 0.0000 0.0000 (  4007 PWs)   bands (ev):

   -34.4145 -33.8937  -2.4267   3.5857   3.7648   8.8898   8.8898   9.8960
     9.8960  10.6767  11.6551  11.6551  11.7236  11.7236  12.4727

          k =-0.2654-0.1532 0.0729 (  4006 PWs)   bands (ev):

   -34.4133 -33.8935  -1.9801   3.2188   4.8862   5.6350   7.7551   8.0674
     8.9823  10.5786  11.1853  12.3908  14.1993  14.3650  15.0355

          k =-0.5308-0.3065 0.1458 (  4010 PWs)   bands (ev):

   -34.4114 -33.8930  -0.7258   2.0140   4.2174   5.6360   6.9994   7.1576
     7.5903   9.1523  11.2831  12.1645  15.9184  17.5236  19.0749

          k =-0.2654 0.1532 0.1458 (  4001 PWs)   bands (ev):

   -34.4131 -33.8937  -1.8976   2.5589   5.5059   6.3998   6.9680   7.0423
    10.1035  10.5311  12.3770  13.2014  13.5690  14.2066  14.8011

          k =-0.5308 0.0000 0.2187 (  4004 PWs)   bands (ev):

   -34.4115 -33.8934  -0.9407   2.5105   3.6195   5.2671   6.3103   7.4383
     8.9540  11.3149  11.7156  13.1077  14.0922  15.7576  16.8362

          k = 0.5308 0.6129-0.0729 (  4005 PWs)   bands (ev):

   -34.4107 -33.8930   0.1858   1.4817   3.5955   4.8754   5.7412   6.9647
     8.1345  10.8037  12.4558  13.4266  15.5365  15.8532  16.5502

          k = 0.2654 0.4597 0.0000 (  4008 PWs)   bands (ev):

   -34.4119 -33.8930  -1.1814   3.4942   4.5999   4.7676   5.3988   7.1765
     7.3961  11.9647  12.7586  12.7788  14.5392  14.9452  16.3879

          k =-0.5308 0.3065 0.2917 (  4003 PWs)   bands (ev):

   -34.4108 -33.8937  -0.3874   2.1128   3.4087   4.0121   5.8669   9.0316
     9.6788  10.6669  12.9662  13.3987  13.7088  15.7369  16.8793

          k = 0.5308 0.9194 0.0000 (  4006 PWs)   bands (ev):

   -34.4104 -33.8934   0.6510   1.6793   2.5059   3.8154   5.5185   8.8380
     9.8334  11.5080  11.8310  12.2803  15.7016  16.3263  16.9035

          k = 0.0000-0.0000 0.2187 (  3980 PWs)   bands (ev):

   -34.4137 -33.8945  -2.1806   1.5009   6.2985   8.6535   8.6535  10.2129
    10.2129  10.4556  10.6988  10.6988  12.8058  13.4101  13.4101

          k =-0.2654-0.1532 0.2917 (  4005 PWs)   bands (ev):

   -34.4124 -33.8944  -1.5713   1.2613   5.1900   7.5935   7.7767   8.9299
     9.4528  10.0079  11.9225  12.0159  12.5550  14.2186  16.3234

          k = 0.7962 0.4597 0.0000 (  4012 PWs)   bands (ev):

   -34.4109 -33.8935  -0.2305   1.4161   2.8280   6.5224   7.1968   7.9345
     8.5195   9.2340  11.0275  12.3716  15.7855  16.1485  17.1574

          k = 0.5308 0.3065 0.0729 (  4005 PWs)   bands (ev):

   -34.4113 -33.8931  -0.7786   2.7544   3.7497   4.9134   6.2747   6.5047
     9.0706   9.7298  11.7506  14.2273  15.5935  16.0984  17.4447

          k =-0.2654 0.1532 0.3646 (  4007 PWs)   bands (ev):

   -34.4120 -33.8948  -1.3258   0.7111   5.6990   6.8038   7.3354   8.8292
    10.0260  11.5389  12.6195  13.0640  14.0320  14.4665  14.5020

          k = 0.7962 0.7662 0.0729 (  4004 PWs)   bands (ev):

   -34.4108 -33.8941  -0.2254   0.9653   3.2551   5.2364   7.1538   8.7706
    10.5899  11.0551  11.5849  12.6215  13.7650  14.0869  16.1777

          k = 0.5308 0.6129 0.1458 (  4005 PWs)   bands (ev):

   -34.4105 -33.8932   0.3948   1.9741   2.3500   4.2949   6.2580   7.2172
     9.0697  11.5890  12.3479  13.7041  14.5272  15.7802  16.1274

          k = 0.7962-0.4597-0.2187 (  4010 PWs)   bands (ev):

   -34.4105 -33.8939   0.2960   0.9160   2.6756   5.5134   5.9498   9.5498
    10.1716  10.2803  12.1724  12.7888  14.3983  14.4164  16.1306

          k = 0.0000-0.0000 0.4375 (  4004 PWs)   bands (ev):

   -34.4125 -33.8958  -1.4499  -0.1955   8.5077   8.5077   9.3074   9.5273
     9.5273  10.2052  11.7930  11.7930  12.3510  13.7403  14.3414

          k = 1.0616 0.6129 0.1458 (  4017 PWs)   bands (ev):

   -34.4116 -33.8953  -0.6819  -0.2566   5.2192   7.0506   8.6114  10.1430
    10.3972  10.9971  11.4635  12.1729  13.0793  13.4022  14.5797

     the Fermi energy is    12.3778 ev

!    total energy              =     -62.26026908 Ry
     estimated scf accuracy    <          5.6E-10 Ry
     smearing contrib. (-TS)   =      -0.00140528 Ry
     internal energy E=F+TS    =     -62.25886380 Ry

     The total energy is F=E-TS. E is the sum of the following terms:
     one-electron contribution =       8.82953871 Ry
     hartree contribution      =       6.34101252 Ry
     xc contribution           =     -20.26845225 Ry
     ewald contribution        =     -57.16096280 Ry

     convergence has been achieved in   7 iterations

     Forces acting on atoms (cartesian axes, Ry/au):

     atom    1 type  1   force =    -0.00000000   -0.00000000   -0.01082088
     atom    2 type  1   force =     0.00000000    0.00000000    0.01082088
     atom    3 type  1   force =     0.00000000    0.00000000    0.01752765
     atom    4 type  1   force =     0.00000000   -0.00000000   -0.01752765
     atom    5 type  2   force =     0.00000000    0.00000000    0.02416233
     atom    6 type  2   force =     0.00000000    0.00000000   -0.02416233

     Total force =     0.044903     Total SCF correction =     0.000045


     Computing stress (Cartesian axis) and pressure

          total   stress  (Ry/bohr**3)                   (kbar)     P=      520.27
   0.00363468  -0.00000000  -0.00000000          534.68       -0.00       -0.00
  -0.00000000   0.00363468   0.00000000           -0.00      534.68        0.00
  -0.00000000   0.00000000   0.00334076           -0.00        0.00      491.44

     Energy error            =      7.0E-03 Ry
     Gradient error          =      2.4E-02 Ry/Bohr
     Cell gradient error     =      3.5E+01 kbar

     number of scf cycles    =   6
     number of bfgs steps    =   5

     enthalpy           old  =     -60.8849683639 Ry
     enthalpy           new  =     -60.8919427060 Ry

     CASE: enthalpy          _new < enthalpy          _old

     new trust radius        =       0.0767718474 bohr
ibrav =      5
 celldm(1) =      9.72796644
 celldm(4) =      0.71580065
Input lattice vectors:
     0.38047325    -0.21966633     0.90868454
    -0.00000000     0.43933266     0.90868454
    -0.38047325    -0.21966633     0.90868454
New lattice vectors in INITIAL alat:
     0.38047325    -0.21966633     0.90868454
     0.00000000     0.43933266     0.90868454
    -0.38047325    -0.21966633     0.90868454
New lattice vectors in NEW alat (for information only):
     0.37696111    -0.21763860     0.90029649
     0.00000000     0.43527719     0.90029649
    -0.37696111    -0.21763860     0.90029649
Discrepancy in bohr =     0.000000    0.000000    0.000000
     new conv_thr            =       0.0000000014 Ry

     new unit-cell volume =    407.97679 a.u.^3 (    60.45592 Ang^3 )
     density =      3.46699 g/cm^3

CELL_PARAMETERS (alat=  9.63816777)
   0.380473247  -0.219666331   0.908684537
   0.000000000   0.439332663   0.908684537
  -0.380473247  -0.219666331   0.908684537

ATOMIC_POSITIONS (crystal)
Si               0.2228939549        0.2228939549        0.2228939549
Si               0.7771060451        0.7771060451        0.7771060451
Si               0.6064484046        0.6064484046        0.6064484046
Si               0.3935515954        0.3935515954        0.3935515954
Li               0.0631673873        0.0631673873        0.0631673873
Li               0.9368326127        0.9368326127        0.9368326127



     Writing config-only to output data dir ./output/SiLi.save/ :
     XML data file
     NEW-OLD atomic charge density approx. for the potential

     total cpu time spent up to now is       11.0 secs

     per-process dynamical memory:    33.4 Mb

     Self-consistent Calculation

     iteration #  1     ecut=    70.00 Ry     beta= 0.70
     Davidson diagonalization with overlap
     ethr =  1.00E-06,  avg # of iterations = 11.0

     total cpu time spent up to now is       11.4 secs

     total energy              =     -62.28058261 Ry
     estimated scf accuracy    <       0.00208314 Ry

     iteration #  2     ecut=    70.00 Ry     beta= 0.70
     Davidson diagonalization with overlap
     ethr =  9.47E-06,  avg # of iterations =  2.3

     total cpu time spent up to now is       11.5 secs

     total energy              =     -62.28086231 Ry
     estimated scf accuracy    <       0.00150238 Ry

     iteration #  3     ecut=    70.00 Ry     beta= 0.70
     Davidson diagonalization with overlap
     ethr =  6.83E-06,  avg # of iterations =  2.1

     total cpu time spent up to now is       11.7 secs

     total energy              =     -62.28122980 Ry
     estimated scf accuracy    <       0.00010398 Ry

     iteration #  4     ecut=    70.00 Ry     beta= 0.70
     Davidson diagonalization with overlap
     ethr =  4.73E-07,  avg # of iterations =  2.0

     total cpu time spent up to now is       11.8 secs

     total energy              =     -62.28124925 Ry
     estimated scf accuracy    <       0.00000131 Ry

     iteration #  5     ecut=    70.00 Ry     beta= 0.70
     Davidson diagonalization with overlap
     ethr =  5.93E-09,  avg # of iterations =  3.9

     total cpu time spent up to now is       12.0 secs

     total energy              =     -62.28124985 Ry
     estimated scf accuracy    <       0.00000024 Ry

     iteration #  6     ecut=    70.00 Ry     beta= 0.70
     Davidson diagonalization with overlap
     ethr =  1.08E-09,  avg # of iterations =  2.1

     total cpu time spent up to now is       12.2 secs

     total energy              =     -62.28124991 Ry
     estimated scf accuracy    <          3.5E-09 Ry

     iteration #  7     ecut=    70.00 Ry     beta= 0.70
     Davidson diagonalization with overlap
     ethr =  1.57E-11,  avg # of iterations =  3.9

     total cpu time spent up to now is       12.3 secs

     total energy              =     -62.28124991 Ry
     estimated scf accuracy    <          1.4E-09 Ry

     iteration #  8     ecut=    70.00 Ry     beta= 0.70
     Davidson diagonalization with overlap
     ethr =  6.40E-12,  avg # of iterations =  2.2

     total cpu time spent up to now is       12.5 secs

     End of self-consistent calculation

          k = 0.0000 0.0000 0.0000 (  4007 PWs)   bands (ev):

   -34.5124 -34.0793  -2.5397   3.5495   3.6900   8.5305   8.5305   9.7820
     9.7820  10.0192  11.3584  11.3584  11.5982  11.5982  12.1930

          k =-0.2628-0.1517 0.0734 (  4006 PWs)   bands (ev):

   -34.5113 -34.0791  -2.1067   3.1429   4.8118   5.3813   7.4951   7.8940
     8.8326  10.5151  10.6972  12.1342  13.8546  13.9995  14.7736

          k =-0.5257-0.3035 0.1467 (  4010 PWs)   bands (ev):

   -34.5095 -34.0788  -0.9006   1.8534   4.0832   5.5437   6.8786   6.8980
     7.5039   9.0356  10.9938  11.9708  15.6239  17.1591  18.7687

          k =-0.2628 0.1517 0.1467 (  4001 PWs)   bands (ev):

   -34.5110 -34.0794  -2.0238   2.4853   5.3576   6.0730   6.8032   6.9530
     9.8878  10.3703  11.9691  13.0277  13.2218  13.7195  14.5810

          k =-0.5257 0.0000 0.2201 (  4004 PWs)   bands (ev):

   -34.5095 -34.0792  -1.0984   2.3996   3.3640   5.2519   6.0597   7.3731
     8.8098  11.1249  11.3861  13.0154  13.6742  15.5331  16.6973

          k = 0.5257 0.6070-0.0734 (  4005 PWs)   bands (ev):

   -34.5089 -34.0788  -0.0330   1.2907   3.5080   4.8287   5.5866   6.8495
     7.9435  10.6975  12.2671  13.0935  15.2652  15.6325  16.2629

          k = 0.2628 0.4552 0.0000 (  4008 PWs)   bands (ev):

   -34.5100 -34.0788  -1.3361   3.2011   4.5741   4.6632   5.3296   7.0347
     7.1795  11.6593  12.4421  12.5847  14.2378  14.8088  16.2900

          k =-0.5257 0.3035 0.2935 (  4003 PWs)   bands (ev):

   -34.5088 -34.0795  -0.5738   2.0709   3.0751   3.9746   5.6525   9.0160
     9.4664  10.5331  12.5273  13.2989  13.6265  15.8152  16.5214

          k = 0.5257 0.9105 0.0000 (  4006 PWs)   bands (ev):

   -34.5084 -34.0793   0.3856   1.5202   2.3916   3.8220   5.2957   8.7467
     9.6390  11.3832  11.6309  12.1638  15.4298  16.0272  16.8624

          k = 0.0000-0.0000 0.2201 (  3980 PWs)   bands (ev):

   -34.5115 -34.0801  -2.2908   1.4247   6.2618   8.3264   8.3264   9.8309
    10.0884  10.0884  10.4451  10.4451  12.5285  13.2294  13.2294

          k =-0.2628-0.1517 0.2935 (  4005 PWs)   bands (ev):

   -34.5103 -34.0802  -1.6967   1.1784   4.9143   7.5178   7.5552   8.7740
     9.2787   9.6996  11.6898  11.7512  12.4296  13.7389  16.2315

          k = 0.7885 0.4552 0.0000 (  4012 PWs)   bands (ev):

   -34.5090 -34.0794  -0.4317   1.3430   2.6356   6.3044   7.0772   7.8043
     8.3748   9.1382  10.8156  12.1538  15.4520  16.1435  17.1249

          k = 0.5257 0.3035 0.0734 (  4005 PWs)   bands (ev):

   -34.5094 -34.0789  -0.9512   2.5749   3.6162   4.8076   6.0593   6.4424
     8.9274   9.6308  11.2902  14.1541  15.5143  15.9706  16.9500

          k =-0.2628 0.1517 0.3668 (  4007 PWs)   bands (ev):

   -34.5098 -34.0806  -1.4517   0.6270   5.3849   6.5662   7.1788   8.8340
     9.7691  11.3711  12.3405  12.5853  13.7917  14.3175  14.3360

          k = 0.7885 0.7587 0.0734 (  4004 PWs)   bands (ev):

   -34.5088 -34.0800  -0.4169   0.9146   2.9850   5.1407   6.9525   8.6314
    10.4224  10.9303  11.3132  12.5602  13.4507  14.0826  15.9782

          k = 0.5257 0.6070 0.1467 (  4005 PWs)   bands (ev):

   -34.5086 -34.0791   0.1622   1.6945   2.3558   4.2394   6.0751   7.0981
     8.9441  11.4100  12.0245  13.7172  14.3998  15.5400  15.7669

          k = 0.7885-0.4552-0.2201 (  4010 PWs)   bands (ev):

   -34.5085 -34.0798  -0.0018   0.9829   2.4291   5.3894   5.7357   9.4369
    10.0332  10.0981  11.9143  12.6909  14.3347  14.4475  15.8049

          k = 0.0000-0.0000 0.4402 (  4004 PWs)   bands (ev):

   -34.5102 -34.0816  -1.5495  -0.2925   8.1840   8.1840   9.2064   9.3384
     9.3384   9.6749  11.6093  11.6093  12.2735  13.4490  14.1569

          k = 1.0513 0.6070 0.1467 (  4017 PWs)   bands (ev):

   -34.5094 -34.0811  -0.8374  -0.3139   4.9375   6.8128   8.3983  10.0210
    10.2137  10.6915  11.4421  11.9178  12.9109  13.2969  14.2266

     the Fermi energy is    12.1312 ev

!    total energy              =     -62.28124991 Ry
     estimated scf accuracy    <          2.5E-10 Ry
     smearing contrib. (-TS)   =      -0.00068660 Ry
     internal energy E=F+TS    =     -62.28056331 Ry

     The total energy is F=E-TS. E is the sum of the following terms:
     one-electron contribution =       8.44120901 Ry
     hartree contribution      =       6.38126409 Ry
     xc contribution           =     -20.23668815 Ry
     ewald contribution        =     -56.86634826 Ry

     convergence has been achieved in   8 iterations

     Forces acting on atoms (cartesian axes, Ry/au):

     atom    1 type  1   force =    -0.00000000   -0.00000000   -0.01764454
     atom    2 type  1   force =    -0.00000000    0.00000000    0.01764454
     atom    3 type  1   force =    -0.00000000    0.00000000    0.00451416
     atom    4 type  1   force =    -0.00000000   -0.00000000   -0.00451416
     atom    5 type  2   force =    -0.00000000    0.00000000    0.01883882
     atom    6 type  2   force =     0.00000000   -0.00000000   -0.01883882

     Total force =     0.037057     Total SCF correction =     0.000030


     Computing stress (Cartesian axis) and pressure

          total   stress  (Ry/bohr**3)                   (kbar)     P=      505.46
   0.00343761  -0.00000000   0.00000000          505.69       -0.00        0.00
   0.00000000   0.00343761   0.00000000            0.00      505.69        0.00
  -0.00000000   0.00000000   0.00343299           -0.00        0.00      505.01

     Energy error            =      2.6E-03 Ry
     Gradient error          =      1.9E-02 Ry/Bohr
     Cell gradient error     =      5.7E+00 kbar

     number of scf cycles    =   7
     number of bfgs steps    =   6

     enthalpy           old  =     -60.8919427060 Ry
     enthalpy           new  =     -60.8945649854 Ry

     CASE: enthalpy          _new < enthalpy          _old

     new trust radius        =       0.0309196131 bohr
ibrav =      5
 celldm(1) =      9.72873037
 celldm(4) =      0.71481720
Input lattice vectors:
     0.38116091    -0.22006335     0.90838828
     0.00000000     0.44012671     0.90838828
    -0.38116091    -0.22006335     0.90838828
New lattice vectors in INITIAL alat:
     0.38116091    -0.22006335     0.90838828
     0.00000000     0.44012671     0.90838828
    -0.38116091    -0.22006335     0.90838828
New lattice vectors in NEW alat (for information only):
     0.37761277    -0.21801483     0.89993229
     0.00000000     0.43602967     0.89993229
    -0.37761277    -0.21801483     0.89993229
Discrepancy in bohr =     0.000000    0.000000    0.000000
     new conv_thr            =       0.0000000005 Ry

     new unit-cell volume =    409.31937 a.u.^3 (    60.65487 Ang^3 )
     density =      3.45561 g/cm^3

CELL_PARAMETERS (alat=  9.63816777)
   0.381160910  -0.220063354   0.908388278
   0.000000000   0.440126708   0.908388278
  -0.381160910  -0.220063354   0.908388278

ATOMIC_POSITIONS (crystal)
Si               0.2217171480        0.2217171480        0.2217171480
Si               0.7782828520        0.7782828520        0.7782828520
Si               0.6067039911        0.6067039911        0.6067039911
Si               0.3932960089        0.3932960089        0.3932960089
Li               0.0634936711        0.0634936711        0.0634936711
Li               0.9365063289        0.9365063289        0.9365063289



     Writing config-only to output data dir ./output/SiLi.save/ :
     XML data file
     NEW-OLD atomic charge density approx. for the potential

     total cpu time spent up to now is       12.7 secs

     per-process dynamical memory:    33.5 Mb

     Self-consistent Calculation

     iteration #  1     ecut=    70.00 Ry     beta= 0.70
     Davidson diagonalization with overlap
     ethr =  1.00E-06,  avg # of iterations =  6.2

     total cpu time spent up to now is       13.0 secs

     total energy              =     -62.28676407 Ry
     estimated scf accuracy    <       0.00031463 Ry

     iteration #  2     ecut=    70.00 Ry     beta= 0.70
     Davidson diagonalization with overlap
     ethr =  1.43E-06,  avg # of iterations =  2.8

     total cpu time spent up to now is       13.1 secs

     total energy              =     -62.28682410 Ry
     estimated scf accuracy    <       0.00050960 Ry

     iteration #  3     ecut=    70.00 Ry     beta= 0.70
     Davidson diagonalization with overlap
     ethr =  1.43E-06,  avg # of iterations =  2.2

     total cpu time spent up to now is       13.3 secs

     total energy              =     -62.28691751 Ry
     estimated scf accuracy    <       0.00000081 Ry

     iteration #  4     ecut=    70.00 Ry     beta= 0.70
     Davidson diagonalization with overlap
     ethr =  3.66E-09,  avg # of iterations =  4.8

     total cpu time spent up to now is       13.5 secs

     total energy              =     -62.28691851 Ry
     estimated scf accuracy    <       0.00000054 Ry

     iteration #  5     ecut=    70.00 Ry     beta= 0.70
     Davidson diagonalization with overlap
     ethr =  2.44E-09,  avg # of iterations =  1.9

     total cpu time spent up to now is       13.6 secs

     total energy              =     -62.28691860 Ry
     estimated scf accuracy    <          3.1E-09 Ry

     iteration #  6     ecut=    70.00 Ry     beta= 0.70
     Davidson diagonalization with overlap
     ethr =  1.39E-11,  avg # of iterations =  4.8

     total cpu time spent up to now is       13.8 secs

     total energy              =     -62.28691860 Ry
     estimated scf accuracy    <          2.8E-09 Ry

     iteration #  7     ecut=    70.00 Ry     beta= 0.70
     Davidson diagonalization with overlap
     ethr =  1.27E-11,  avg # of iterations =  2.0

     total cpu time spent up to now is       14.0 secs

     End of self-consistent calculation

          k = 0.0000 0.0000 0.0000 (  4007 PWs)   bands (ev):

   -34.5305 -34.1112  -2.5506   3.5585   3.6544   8.5130   8.5130   9.7421
     9.7421   9.9827  11.3679  11.3679  11.5091  11.5091  12.1054

          k =-0.2624-0.1515 0.0734 (  4006 PWs)   bands (ev):

   -34.5294 -34.1110  -2.1172   3.1286   4.7919   5.3635   7.4803   7.8602
     8.7964  10.4082  10.6811  12.0852  13.8250  13.9534  14.7312

          k =-0.5247-0.3029 0.1468 (  4010 PWs)   bands (ev):

   -34.5276 -34.1107  -0.9071   1.8222   4.0754   5.5269   6.8595   6.8823
     7.4519   8.9548  10.9606  11.9397  15.5586  17.1051  18.7212

          k =-0.2624 0.1515 0.1468 (  4001 PWs)   bands (ev):

   -34.5291 -34.1113  -2.0342   2.4714   5.3376   6.0634   6.7783   6.9041
     9.8296  10.3561  11.9220  12.9738  13.1722  13.6784  14.4900

          k =-0.5247 0.0000 0.2202 (  4004 PWs)   bands (ev):

   -34.5276 -34.1112  -1.1069   2.3765   3.3594   5.1868   6.0456   7.3630
     8.7737  11.0911  11.3353  12.9446  13.6376  15.4579  16.6716

          k = 0.5247 0.6059-0.0734 (  4005 PWs)   bands (ev):

   -34.5270 -34.1107  -0.0349   1.2679   3.4819   4.7861   5.5694   6.8252
     7.9118  10.6717  12.2159  13.0488  15.1791  15.5928  16.2114

          k = 0.2624 0.4544 0.0000 (  4008 PWs)   bands (ev):

   -34.5281 -34.1107  -1.3458   3.1909   4.5141   4.6677   5.3042   7.0355
     7.1195  11.6108  12.4244  12.4919  14.2007  14.7384  16.2628

          k =-0.5247 0.3029 0.2936 (  4003 PWs)   bands (ev):

   -34.5269 -34.1115  -0.5793   2.0470   3.0751   3.9183   5.6283   8.9797
     9.4143  10.5378  12.4761  13.2881  13.5414  15.7550  16.4850

          k = 0.5247 0.9088 0.0000 (  4006 PWs)   bands (ev):

   -34.5265 -34.1112   0.3867   1.5128   2.3554   3.7689   5.2772   8.7365
     9.5844  11.3195  11.6443  12.1291  15.3734  15.9945  16.4091

          k = 0.0000-0.0000 0.2202 (  3980 PWs)   bands (ev):

   -34.5296 -34.1120  -2.3013   1.4112   6.2481   8.3075   8.3075   9.7897
    10.0287  10.0287  10.4271  10.4271  12.4382  13.1996  13.1996

          k =-0.2624-0.1515 0.2936 (  4005 PWs)   bands (ev):

   -34.5283 -34.1121  -1.7058   1.1613   4.8923   7.5060   7.5346   8.7321
[...]
     internal energy E=F+TS    =     -62.30017985 Ry

     The total energy is F=E-TS. E is the sum of the following terms:
     one-electron contribution =       7.84187035 Ry
     hartree contribution      =       6.74273438 Ry
     xc contribution           =     -20.26993208 Ry
     ewald contribution        =     -56.61485250 Ry

     convergence has been achieved in   7 iterations

     Forces acting on atoms (cartesian axes, Ry/au):

     atom    1 type  1   force =     0.00000000    0.00000000   -0.00027275
     atom    2 type  1   force =    -0.00000000   -0.00000000    0.00027275
     atom    3 type  1   force =     0.00000000   -0.00000000   -0.00009330
     atom    4 type  1   force =    -0.00000000    0.00000000    0.00009330
     atom    5 type  2   force =    -0.00000000   -0.00000000    0.00013174
     atom    6 type  2   force =     0.00000000    0.00000000   -0.00013174

     Total force =     0.000448     Total SCF correction =     0.000004


     Computing stress (Cartesian axis) and pressure

          total   stress  (Ry/bohr**3)                   (kbar)     P=      500.59
   0.00340328   0.00000000  -0.00000000          500.64        0.00       -0.00
  -0.00000000   0.00340328   0.00000000           -0.00      500.64        0.00
   0.00000000   0.00000000   0.00340230            0.00        0.00      500.50

     Energy error            =      5.3E-06 Ry
     Gradient error          =      2.7E-04 Ry/Bohr
     Cell gradient error     =      6.4E-01 kbar
ibrav =      5
 celldm(1) =     10.81359931
 celldm(4) =      0.80152100
Input lattice vectors:
     0.35344193    -0.20405980     1.04509496
     0.00000000     0.40811959     1.04509496
    -0.35344193    -0.20405980     1.04509496
New lattice vectors in INITIAL alat:
     0.35344193    -0.20405980     1.04509496
     0.00000000     0.40811959     1.04509496
    -0.35344193    -0.20405980     1.04509496
New lattice vectors in NEW alat (for information only):
     0.31502302    -0.18187862     0.93149378
     0.00000000     0.36375725     0.93149378
    -0.31502302    -0.18187862     0.93149378
Discrepancy in bohr =     0.000000    0.000000    0.000000

     bfgs converged in  35 scf cycles and  29 bfgs steps
     (criteria: energy <  5.0E-04 Ry, force <  1.0E-03 Ry/Bohr, cell <  1.0E+00 kbar)

     End of BFGS Geometry Optimization

     Final enthalpy           =     -60.9242274053 Ry

     File ./output/SiLi.bfgs deleted, as requested
Begin final coordinates
     new unit-cell volume =    404.91696 a.u.^3 (    60.00250 Ang^3 )
     density =      3.49319 g/cm^3

CELL_PARAMETERS (alat=  9.63816777)
   0.353441935  -0.204059796   1.045094956
   0.000000000   0.408119593   1.045094956
  -0.353441935  -0.204059796   1.045094956

ATOMIC_POSITIONS (crystal)
Si               0.2029592743        0.2029592743        0.2029592743
Si               0.7970407257        0.7970407257        0.7970407257
Si               0.6316559595        0.6316559595        0.6316559595
Si               0.3683440405        0.3683440405        0.3683440405
Li               0.0661187027        0.0661187027        0.0661187027
Li               0.9338812973        0.9338812973        0.9338812973
End final coordinates



     Writing config-only to output data dir ./output/SiLi.save/ :
     XML data file

     Final scf calculation at the relaxed structure.
     The G-vectors are recalculated for the final unit cell
     Results may differ from those at the preceding step.

     Parallelization info
     --------------------
     sticks:   dense  smooth     PW     G-vecs:    dense   smooth      PW
     Min          97      97     29                 1998     1998     333
     Max          98      98     30                 2000     2000     335
     Sum        1557    1557    473                31985    31985    5339

     Using Slab Decomposition



     bravais-lattice index     =            5
     lattice parameter (alat)  =       9.6382  a.u.
     unit-cell volume          =     404.9170 (a.u.)^3
     number of atoms/cell      =            6
     number of atomic types    =            2
     number of electrons       =        22.00
     number of Kohn-Sham states=           15
     kinetic-energy cutoff     =      70.0000  Ry
     charge density cutoff     =     280.0000  Ry
     scf convergence threshold =      1.0E-10
     mixing beta               =       0.7000
     number of iterations used =            8  plain     mixing
     press convergence thresh. =      1.0E+00
     Exchange-correlation= PBE
                           (   1   4   3   4   0   0   0)

     celldm(1)=   9.638168  celldm(2)=   0.000000  celldm(3)=   0.000000
     celldm(4)=   0.708978  celldm(5)=   0.000000  celldm(6)=   0.000000

     crystal axes: (cart. coord. in units of alat)
               a(1) = (   0.353442  -0.204060   1.045095 )  
               a(2) = (   0.000000   0.408120   1.045095 )  
               a(3) = (  -0.353442  -0.204060   1.045095 )  

     reciprocal axes: (cart. coord. in units 2 pi/alat)
               b(1) = (  1.414660 -0.816754  0.318950 )  
               b(2) = (  0.000000  1.633508  0.318950 )  
               b(3) = ( -1.414660 -0.816754  0.318950 )  


     PseudoPot. # 1 for Si read from file:
     ../pseudo/Si_ONCV_PBE_sr.upf
     MD5 check sum: e543d271109d17c80368dfa7c482276d
     Pseudo is Norm-conserving + core correction, Zval =  4.0
     Generated using ONCVPSP code by D. R. Hamann
     Using radial grid of 1510 points,  6 beta functions with: 
                l(1) =   0
                l(2) =   0
                l(3) =   1
                l(4) =   1
                l(5) =   2
                l(6) =   2

     PseudoPot. # 2 for Li read from file:
     ../pseudo/Li_ONCV_PBE_sr.upf
     MD5 check sum: 50ff420e78310ffa21704f3361e624a4
     Pseudo is Norm-conserving, Zval =  3.0
     Generated using ONCVPSP code by D. R. Hamann
     Using radial grid of 1944 points,  4 beta functions with: 
                l(1) =   0
                l(2) =   0
                l(3) =   1
                l(4) =   1

     atomic species   valence    mass     pseudopotential
     Si                4.00    28.08550     Si( 1.00)
     Li                3.00     6.94100     Li( 1.00)

     12 Sym. Ops., with inversion, found



   Cartesian axes

     site n.     atom                  positions (alat units)
         1        Si     tau(   1) = (   0.0000000  -0.0000000   0.6363351  )
         2        Si     tau(   2) = (   0.0000000  -0.0000000   2.4989497  )
         3        Si     tau(   3) = (  -0.0000000  -0.0000000   1.9804214  )
         4        Si     tau(   4) = (  -0.0000000  -0.0000000   1.1548635  )
         5        Li     tau(   5) = (  -0.0000000  -0.0000000   0.2073010  )
         6        Li     tau(   6) = (  -0.0000000  -0.0000000   2.9279839  )

     number of k points=    19  Marzari-Vanderbilt smearing, width (Ry)=  0.0200
                       cart. coord. in units 2pi/alat
        k(    1) = (   0.0000000   0.0000000   0.0000000), wk =   0.0160000
        k(    2) = (  -0.2829319  -0.1633508   0.0637901), wk =   0.0960000
        k(    3) = (  -0.5658638  -0.3267016   0.1275801), wk =   0.0960000
        k(    4) = (  -0.2829319   0.1633508   0.1275801), wk =   0.0960000
        k(    5) = (  -0.5658638   0.0000000   0.1913702), wk =   0.1920000
        k(    6) = (   0.5658638   0.6534032  -0.0637901), wk =   0.1920000
        k(    7) = (   0.2829319   0.4900524   0.0000000), wk =   0.0960000
        k(    8) = (  -0.5658638   0.3267016   0.2551602), wk =   0.0960000
        k(    9) = (   0.5658638   0.9801049   0.0000000), wk =   0.0960000
        k(   10) = (   0.0000000  -0.0000000   0.1913702), wk =   0.0320000
        k(   11) = (  -0.2829319  -0.1633508   0.2551602), wk =   0.0960000
        k(   12) = (   0.8487957   0.4900524   0.0000000), wk =   0.0960000
        k(   13) = (   0.5658638   0.3267016   0.0637901), wk =   0.0960000
        k(   14) = (  -0.2829319   0.1633508   0.3189503), wk =   0.0960000
        k(   15) = (   0.8487957   0.8167541   0.0637901), wk =   0.1920000
        k(   16) = (   0.5658638   0.6534032   0.1275801), wk =   0.1920000
        k(   17) = (   0.8487957  -0.4900524  -0.1913702), wk =   0.0960000
        k(   18) = (   0.0000000  -0.0000000   0.3827403), wk =   0.0320000
        k(   19) = (   1.1317276   0.6534032   0.1275801), wk =   0.0960000

     Dense  grid:    31985 G-vectors     FFT dimensions: (  60,  60,  60)

     Estimated max dynamical RAM per process >      13.92 MB

     Estimated total dynamical RAM >     437.50 MB

     Initial potential from superposition of free atoms

     starting charge      21.9884, renormalised to      22.0000
     Starting wfcs are   20 randomized atomic wfcs

     total cpu time spent up to now is       53.9 secs

     per-process dynamical memory:    33.5 Mb

     Self-consistent Calculation

     iteration #  1     ecut=    70.00 Ry     beta= 0.70
     Davidson diagonalization with overlap
     c_bands:  1 eigenvalues not converged
     c_bands:  1 eigenvalues not converged
     c_bands:  2 eigenvalues not converged
     c_bands:  1 eigenvalues not converged
     c_bands:  1 eigenvalues not converged
     c_bands:  1 eigenvalues not converged
     c_bands:  1 eigenvalues not converged
     ethr =  1.00E-06,  avg # of iterations = 19.5

     total cpu time spent up to now is       54.6 secs

     total energy              =     -62.27470800 Ry
     estimated scf accuracy    <       0.09342287 Ry

     iteration #  2     ecut=    70.00 Ry     beta= 0.70
     Davidson diagonalization with overlap
     ethr =  4.25E-04,  avg # of iterations =  2.9

     total cpu time spent up to now is       54.8 secs

     total energy              =     -62.27330794 Ry
     estimated scf accuracy    <       0.11581513 Ry

     iteration #  3     ecut=    70.00 Ry     beta= 0.70
     Davidson diagonalization with overlap
     ethr =  4.25E-04,  avg # of iterations =  2.1

     total cpu time spent up to now is       54.9 secs

     total energy              =     -62.30114621 Ry
     estimated scf accuracy    <       0.00694822 Ry

     iteration #  4     ecut=    70.00 Ry     beta= 0.70
     Davidson diagonalization with overlap
     ethr =  3.16E-05,  avg # of iterations =  2.5

     total cpu time spent up to now is       55.1 secs

     total energy              =     -62.30213114 Ry
     estimated scf accuracy    <       0.00015865 Ry

     iteration #  5     ecut=    70.00 Ry     beta= 0.70
     Davidson diagonalization with overlap
     ethr =  7.21E-07,  avg # of iterations =  4.8

     total cpu time spent up to now is       55.3 secs

     total energy              =     -62.30220203 Ry
     estimated scf accuracy    <       0.00001468 Ry

     iteration #  6     ecut=    70.00 Ry     beta= 0.70
     Davidson diagonalization with overlap
     ethr =  6.67E-08,  avg # of iterations =  2.5

     total cpu time spent up to now is       55.5 secs

     total energy              =     -62.30220576 Ry
     estimated scf accuracy    <       0.00000012 Ry

     iteration #  7     ecut=    70.00 Ry     beta= 0.70
     Davidson diagonalization with overlap
     ethr =  5.63E-10,  avg # of iterations =  4.6

     total cpu time spent up to now is       55.7 secs

     total energy              =     -62.30220584 Ry
     estimated scf accuracy    <       0.00000006 Ry

     iteration #  8     ecut=    70.00 Ry     beta= 0.70
     Davidson diagonalization with overlap
     ethr =  2.65E-10,  avg # of iterations =  2.4

     total cpu time spent up to now is       55.9 secs

     total energy              =     -62.30220586 Ry
     estimated scf accuracy    <       0.00000002 Ry

     iteration #  9     ecut=    70.00 Ry     beta= 0.70
     Davidson diagonalization with overlap
     ethr =  8.01E-11,  avg # of iterations =  2.2

     total cpu time spent up to now is       56.0 secs

     total energy              =     -62.30220586 Ry
     estimated scf accuracy    <          1.2E-10 Ry

     iteration # 10     ecut=    70.00 Ry     beta= 0.70
     Davidson diagonalization with overlap
     ethr =  5.41E-13,  avg # of iterations =  4.4

     total cpu time spent up to now is       56.2 secs

     End of self-consistent calculation

          k = 0.0000 0.0000 0.0000 (  3987 PWs)   bands (ev):

   -33.9922 -33.8671  -2.4166   1.4936   2.9703   9.6975   9.6975  11.4076
    11.4076  11.6050  11.6050  12.6252  13.0513  13.0513  13.7901

          k =-0.2829-0.1634 0.0638 (  4008 PWs)   bands (ev):

   -33.9901 -33.8661  -1.9284   1.8004   3.5929   6.3013   8.3553   8.7378
     9.7536  11.0998  11.8043  13.7696  13.8399  15.6351  15.7826

          k =-0.5659-0.3267 0.1276 (  4017 PWs)   bands (ev):

   -33.9868 -33.8643  -0.5497   2.0236   3.6656   5.1979   5.9713   7.4184
     8.4855   8.6098  11.4241  12.0142  16.3659  16.7378  17.5812

          k =-0.2829 0.1634 0.1276 (  3995 PWs)   bands (ev):

   -33.9899 -33.8662  -1.8724   1.4104   4.0730   6.6518   7.8738   7.9227
    10.9194  11.0172  12.8024  13.6465  13.8649  14.3513  16.1370

          k =-0.5659 0.0000 0.1914 (  4009 PWs)   bands (ev):

   -33.9872 -33.8649  -0.8644   1.8737   4.0727   5.1629   6.3544   6.7572
     8.2120  10.7936  12.9598  13.5010  14.4565  14.7670  15.2821

          k = 0.5659 0.6534-0.0638 (  4015 PWs)   bands (ev):

   -33.9857 -33.8639   0.4542   1.6197   3.5930   4.9317   5.5691   6.3496
     6.7058   9.6651  13.3498  13.6724  13.9515  15.7889  16.8598

          k = 0.2829 0.4901 0.0000 (  4011 PWs)   bands (ev):

   -33.9875 -33.8646  -1.0284   3.0118   3.5931   4.5427   6.2349   7.0002
     7.1644  12.4286  12.9592  13.6710  13.8237  15.1258  15.5232

          k =-0.5659 0.3267 0.2552 (  3993 PWs)   bands (ev):

   -33.9863 -33.8648  -0.3926   2.0223   3.4329   3.8596   6.7016   7.3676
    10.2532  10.9371  11.2665  12.1586  12.9070  13.6917  15.4179

          k = 0.5659 0.9801 0.0000 (  4011 PWs)   bands (ev):

   -33.9854 -33.8642   0.5664   2.2354   2.8062   3.3669   5.6180   8.1413
     8.3099   9.7740  11.1834  12.8966  14.1650  14.9594  17.2696

          k = 0.0000-0.0000 0.1914 (  3972 PWs)   bands (ev):

   -33.9916 -33.8677  -2.2418   0.4598   4.3588   9.6785   9.6785  10.9099
    10.9099  11.8524  11.9224  11.9224  12.6930  13.9560  13.9560

          k =-0.2829-0.1634 0.2552 (  4008 PWs)   bands (ev):

   -33.9894 -33.8668  -1.6415   0.5165   5.4565   6.0861   8.3843   9.6844
     9.7565  10.6426  10.9376  12.2303  13.5148  14.7560  16.2319

          k = 0.8488 0.4901 0.0000 (  4020 PWs)   bands (ev):

   -33.9864 -33.8647  -0.2200   1.2965   3.1194   6.2845   7.0779   7.1377
     8.1628   9.0086  11.0583  11.5189  14.8182  15.0425  17.3830

          k = 0.5659 0.3267 0.0638 (  3999 PWs)   bands (ev):

   -33.9867 -33.8644  -0.6144   2.8156   3.4238   4.0591   5.8470   6.9791
     9.4270   9.9655  11.5414  12.6467  14.2440  15.3272  16.3514

          k =-0.2829 0.1634 0.3190 (  3997 PWs)   bands (ev):

   -33.9891 -33.8671  -1.4831   0.1465   6.0602   6.5172   7.7639   8.1215
    10.2937  11.6245  12.0214  12.7529  13.6229  14.4147  15.0657

          k = 0.8488 0.8168 0.0638 (  3999 PWs)   bands (ev):

   -33.9867 -33.8654  -0.4289   0.7866   3.9923   5.5919   6.9137   7.7140
     9.3238   9.7597  11.1829  12.7013  13.2320  14.5874  16.5694

          k = 0.5659 0.6534 0.1276 (  4008 PWs)   bands (ev):

   -33.9855 -33.8641   0.5138   1.9876   2.8991   4.0335   5.9047   6.9602
     7.5234  10.8443  11.7125  12.5171  13.6356  16.5839  16.8600

          k = 0.8488-0.4901-0.1914 (  3995 PWs)   bands (ev):

   -33.9861 -33.8650  -0.0443   1.1193   3.0797   5.0286   6.7606   8.7426
     9.5774  10.0036  10.3669  11.5421  12.8602  14.2146  16.0763

          k = 0.0000-0.0000 0.3827 (  3996 PWs)   bands (ev):

   -33.9906 -33.8687  -1.7467  -0.7019   6.6016   9.1739   9.7251   9.7251
    10.3319  10.3319  12.6283  12.6825  12.6825  14.8571  15.1860

          k = 1.1317 0.6534 0.1276 (  3985 PWs)   bands (ev):

   -33.9887 -33.8674  -1.1336  -0.4385   6.1292   7.6543   7.9417   8.5844
     9.2152  10.7721  11.5222  12.3143  13.4407  14.5539  15.2107

     the Fermi energy is    12.4340 ev

!    total energy              =     -62.30220586 Ry
     estimated scf accuracy    <          1.1E-11 Ry
     smearing contrib. (-TS)   =      -0.00033285 Ry
     internal energy E=F+TS    =     -62.30187302 Ry

     The total energy is F=E-TS. E is the sum of the following terms:
     one-electron contribution =       7.83843082 Ry
     hartree contribution      =       6.74584422 Ry
     xc contribution           =     -20.27129556 Ry
     ewald contribution        =     -56.61485249 Ry

     convergence has been achieved in  10 iterations

     Forces acting on atoms (cartesian axes, Ry/au):

     atom    1 type  1   force =    -0.00000000    0.00000000   -0.00024753
     atom    2 type  1   force =     0.00000000   -0.00000000    0.00024753
     atom    3 type  1   force =    -0.00000000    0.00000000   -0.00010312
     atom    4 type  1   force =     0.00000000   -0.00000000    0.00010312
     atom    5 type  2   force =    -0.00000000    0.00000000    0.00019785
     atom    6 type  2   force =    -0.00000000    0.00000000   -0.00019785

     Total force =     0.000471     Total SCF correction =     0.000006


     Computing stress (Cartesian axis) and pressure

          total   stress  (Ry/bohr**3)                   (kbar)     P=      505.36
   0.00340677  -0.00000000  -0.00000000          501.15       -0.00       -0.00
  -0.00000000   0.00340677   0.00000000           -0.00      501.15        0.00
  -0.00000000   0.00000000   0.00349251           -0.00        0.00      513.77


     Writing all to output data dir ./output/SiLi.save/ :
     XML data file, charge density, pseudopotentials, collected wavefunctions

     init_run     :      0.74s CPU      0.96s WALL (       2 calls)
     electrons    :     45.83s CPU     48.82s WALL (      36 calls)
     update_pot   :      0.27s CPU      0.37s WALL (      34 calls)
     forces       :      0.86s CPU      0.94s WALL (      36 calls)
     stress       :      3.83s CPU      3.91s WALL (      36 calls)

     Called by init_run:
     wfcinit      :      0.13s CPU      0.14s WALL (       2 calls)
     potinit      :      0.03s CPU      0.04s WALL (       2 calls)
     hinit0       :      0.56s CPU      0.72s WALL (       2 calls)

     Called by electrons:
     c_bands      :     38.86s CPU     41.22s WALL (     259 calls)
     sum_band     :      5.00s CPU      5.13s WALL (     259 calls)
     v_of_rho     :      1.90s CPU      1.96s WALL (     287 calls)
     mix_rho      :      0.10s CPU      0.12s WALL (     259 calls)

     Called by c_bands:
     init_us_2    :      0.70s CPU      0.79s WALL (    5920 calls)
     cegterg      :     35.83s CPU     36.97s WALL (    2590 calls)

     Called by *egterg:
     cdiaghg      :      3.12s CPU      3.25s WALL (   11958 calls)
     h_psi        :     30.27s CPU     31.19s WALL (   12398 calls)
     g_psi        :      0.09s CPU      0.09s WALL (    9788 calls)

     Called by h_psi:
     h_psi:calbec :      1.71s CPU      1.81s WALL (   12398 calls)
     vloc_psi     :     27.04s CPU     27.81s WALL (   12398 calls)
     add_vuspsi   :      1.43s CPU      1.48s WALL (   12398 calls)

     General routines
     calbec       :      2.10s CPU      2.19s WALL (   14198 calls)
     fft          :      1.23s CPU      1.42s WALL (    3776 calls)
     ffts         :      0.05s CPU      0.05s WALL (     259 calls)
     fftw         :     28.27s CPU     29.05s WALL (  278464 calls)

     Parallel routines

     PWSCF        :     52.02s CPU     56.47s WALL


   This run was terminated on:  21:10:13   3Mar2025            

=------------------------------------------------------------------------------=
   JOB DONE.
=------------------------------------------------------------------------------=
