
     Program PWSCF v.7.2 starts on 28Dec2024 at 19: 2: 1 

     This program is part of the open-source Quantum ESPRESSO suite
     for quantum simulation of materials; please cite
         "P. Giannozzi et al., J. Phys.:Condens. Matter 21 395502 (2009);
         "P. Giannozzi et al., J. Phys.:Condens. Matter 29 465901 (2017);
         "P. Giannozzi et al., J. Chem. Phys. 152 154105 (2020);
          URL http://www.quantum-espresso.org", 
     in publications or presentations arising from this work. More details at
     http://www.quantum-espresso.org/quote

     Parallel version (MPI & OpenMP), running on       8 processor cores
     Number of MPI processes:                 8
     Threads/MPI process:                     1

     MPI processes distributed on     1 nodes
     481418 MiB available memory on the printing compute node when the environment starts

     Waiting for input...
     Reading input from standard input

     Current dimensions of program PWSCF are:
     Max number of different atomic species (ntypx) = 10
     Max number of k-points (npk) =  40000
     Max angular momentum in pseudopotentials (lmaxx) =  4

     R & G space division:  proc/nbgrp/npool/nimage =       8
     Subspace diagonalization in iterative solution of the eigenvalue problem:
     a serial algorithm will be used


     Parallelization info
     --------------------
     sticks:   dense  smooth     PW     G-vecs:    dense   smooth      PW
     Min         138     138     39                11010    11010    1665
     Max         139     139     40                11017    11017    1676
     Sum        1111    1111    313                88121    88121   13335

     Using Slab Decomposition



     bravais-lattice index     =            4
     lattice parameter (alat)  =       7.0868  a.u.
     unit-cell volume          =     912.0761 (a.u.)^3
     number of atoms/cell      =            6
     number of atomic types    =            2
     number of electrons       =        22.00
     number of Kohn-Sham states=           15
     kinetic-energy cutoff     =      80.0000  Ry
     charge density cutoff     =     320.0000  Ry
     scf convergence threshold =      1.0E-08
     mixing beta               =       0.7000
     number of iterations used =            8  plain     mixing
     energy convergence thresh.=      1.0E-04
     force convergence thresh. =      1.0E-03
     press convergence thresh. =      1.0E+00
     Exchange-correlation= PBE
                           (   1   4   3   4   0   0   0)
     nstep                     =           50


     celldm(1)=   7.086828  celldm(2)=   0.000000  celldm(3)=   2.958998
     celldm(4)=   0.000000  celldm(5)=   0.000000  celldm(6)=   0.000000

     crystal axes: (cart. coord. in units of alat)
               a(1) = (   1.000000   0.000000   0.000000 )  
               a(2) = (  -0.500000   0.866025   0.000000 )  
               a(3) = (   0.000000   0.000000   2.958998 )  

     reciprocal axes: (cart. coord. in units 2 pi/alat)
               b(1) = (  1.000000  0.577350 -0.000000 )  
               b(2) = (  0.000000  1.154701  0.000000 )  
               b(3) = (  0.000000 -0.000000  0.337952 )  


     PseudoPot. # 1 for Si read from file:
     ../pseudo/Si_ONCV_PBE_sr.upf
     MD5 check sum: e543d271109d17c80368dfa7c482276d
     Pseudo is Norm-conserving + core correction, Zval =  4.0
     Generated using ONCVPSP code by D. R. Hamann
     Using radial grid of 1510 points,  6 beta functions with: 
                l(1) =   0
                l(2) =   0
                l(3) =   1
                l(4) =   1
                l(5) =   2
                l(6) =   2

     PseudoPot. # 2 for Li read from file:
     ../pseudo/Li_ONCV_PBE_sr.upf
     MD5 check sum: 50ff420e78310ffa21704f3361e624a4
     Pseudo is Norm-conserving, Zval =  3.0
     Generated using ONCVPSP code by D. R. Hamann
     Using radial grid of 1944 points,  4 beta functions with: 
                l(1) =   0
                l(2) =   0
                l(3) =   1
                l(4) =   1

     atomic species   valence    mass     pseudopotential
        Si             4.00    28.08550     Si( 1.00)
        Li             3.00     6.94100     Li( 1.00)

     12 Sym. Ops., with inversion, found



   Cartesian axes

     site n.     atom                  positions (alat units)
         1           Si  tau(   1) = (   0.0000000   0.0000000   0.8526072  )
         2           Si  tau(   2) = (   0.0000000   0.0000000   2.1063910  )
         3           Si  tau(   3) = (  -0.0000000   0.5773503   1.7234640  )
         4           Si  tau(   4) = (   0.5000000   0.2886751   1.2355341  )
         5           Li  tau(   5) = (  -0.0000000   0.5773503   0.3263050  )
         6           Li  tau(   6) = (   0.5000000   0.2886751   2.6326932  )

     number of k points=    25  Marzari-Vanderbilt smearing, width (Ry)=  0.0200
                       cart. coord. in units 2pi/alat
        k(    1) = (   0.0000000   0.0000000   0.0000000), wk =   0.0104167
        k(    2) = (   0.0000000   0.0000000   0.1126507), wk =   0.0208333
        k(    3) = (   0.0000000   0.1443376   0.0000000), wk =   0.0625000
        k(    4) = (   0.0000000   0.1443376   0.1126507), wk =   0.0625000
        k(    5) = (   0.0000000   0.2886751   0.0000000), wk =   0.0625000
        k(    6) = (   0.0000000   0.2886751   0.1126507), wk =   0.0625000
        k(    7) = (   0.0000000   0.4330127   0.0000000), wk =   0.0625000
        k(    8) = (   0.0000000   0.4330127   0.1126507), wk =   0.0625000
        k(    9) = (   0.0000000  -0.5773503   0.0000000), wk =   0.0312500
        k(   10) = (   0.0000000  -0.5773503   0.1126507), wk =   0.0625000
        k(   11) = (   0.1250000   0.2165064   0.0000000), wk =   0.0625000
        k(   12) = (   0.1250000   0.2165064   0.1126507), wk =   0.1250000
        k(   13) = (   0.1250000   0.3608439   0.0000000), wk =   0.1250000
        k(   14) = (   0.1250000   0.3608439   0.1126507), wk =   0.1250000
        k(   15) = (   0.1250000   0.5051815   0.0000000), wk =   0.1250000
        k(   16) = (   0.1250000   0.5051815   0.1126507), wk =   0.1250000
        k(   17) = (   0.2500000   0.4330127   0.0000000), wk =   0.0625000
        k(   18) = (   0.2500000   0.4330127   0.1126507), wk =   0.1250000
        k(   19) = (   0.2500000   0.5773503   0.0000000), wk =   0.0625000
        k(   20) = (   0.2500000   0.5773503   0.1126507), wk =   0.1250000
        k(   21) = (   0.0000000   0.1443376  -0.1126507), wk =   0.0625000
        k(   22) = (   0.0000000   0.2886751  -0.1126507), wk =   0.0625000
        k(   23) = (   0.0000000   0.4330127  -0.1126507), wk =   0.0625000
        k(   24) = (  -0.1250000   0.3608439  -0.1126507), wk =   0.1250000
        k(   25) = (  -0.1250000   0.5051815  -0.1126507), wk =   0.1250000

     Dense  grid:    88121 G-vectors     FFT dimensions: (  45,  45, 120)

     Estimated max dynamical RAM per process >      29.86 MB

     Estimated total dynamical RAM >     238.86 MB

     Initial potential from superposition of free atoms

     starting charge      21.9884, renormalised to      22.0000
     Starting wfcs are   20 randomized atomic wfcs

     total cpu time spent up to now is        3.4 secs

     Self-consistent Calculation

     iteration #  1     ecut=    80.00 Ry     beta= 0.70
     Davidson diagonalization with overlap
     ethr =  1.00E-02,  avg # of iterations =  3.8

     Threshold (ethr) on eigenvalues was too large:
     Diagonalizing with lowered threshold

     Davidson diagonalization with overlap
     ethr =  9.18E-04,  avg # of iterations =  2.2

     total cpu time spent up to now is        6.2 secs

     total energy              =     -62.40058878 Ry
     estimated scf accuracy    <       0.19121909 Ry

     iteration #  2     ecut=    80.00 Ry     beta= 0.70
     Davidson diagonalization with overlap
     ethr =  8.69E-04,  avg # of iterations =  5.4

     total cpu time spent up to now is        7.9 secs

     total energy              =     -61.97000223 Ry
     estimated scf accuracy    <       6.10488713 Ry

     iteration #  3     ecut=    80.00 Ry     beta= 0.70
     Davidson diagonalization with overlap
     ethr =  8.69E-04,  avg # of iterations =  4.9

     total cpu time spent up to now is        9.4 secs

     total energy              =     -62.49582452 Ry
     estimated scf accuracy    <       0.17794216 Ry

     iteration #  4     ecut=    80.00 Ry     beta= 0.70
     Davidson diagonalization with overlap
     ethr =  8.09E-04,  avg # of iterations =  1.5

     total cpu time spent up to now is       10.4 secs

     total energy              =     -62.51196006 Ry
     estimated scf accuracy    <       0.00929574 Ry

     iteration #  5     ecut=    80.00 Ry     beta= 0.70
     Davidson diagonalization with overlap
     ethr =  4.23E-05,  avg # of iterations =  5.6

     total cpu time spent up to now is       11.7 secs

     total energy              =     -62.51380198 Ry
     estimated scf accuracy    <       0.00115009 Ry

     iteration #  6     ecut=    80.00 Ry     beta= 0.70
     Davidson diagonalization with overlap
     ethr =  5.23E-06,  avg # of iterations =  3.8

     total cpu time spent up to now is       13.0 secs

     total energy              =     -62.51386939 Ry
     estimated scf accuracy    <       0.00018434 Ry

     iteration #  7     ecut=    80.00 Ry     beta= 0.70
     Davidson diagonalization with overlap
     ethr =  8.38E-07,  avg # of iterations =  3.3

     total cpu time spent up to now is       14.1 secs

     total energy              =     -62.51390871 Ry
     estimated scf accuracy    <       0.00000965 Ry

     iteration #  8     ecut=    80.00 Ry     beta= 0.70
     Davidson diagonalization with overlap
     ethr =  4.39E-08,  avg # of iterations =  3.0

     total cpu time spent up to now is       15.3 secs

     total energy              =     -62.51391134 Ry
     estimated scf accuracy    <       0.00000005 Ry

     iteration #  9     ecut=    80.00 Ry     beta= 0.70
     Davidson diagonalization with overlap
     ethr =  2.14E-10,  avg # of iterations =  5.2

     total cpu time spent up to now is       16.9 secs

     End of self-consistent calculation

          k = 0.0000 0.0000 0.0000 ( 10985 PWs)   bands (ev):

   -43.4317 -43.4277  -7.2581  -5.8525  -2.7420   0.1058   1.4197   4.2827
     4.5490   4.5490   4.7683   4.7683   6.1634   6.5231   6.5231

          k = 0.0000 0.0000 0.1127 ( 11028 PWs)   bands (ev):

   -43.4317 -43.4277  -7.2576  -5.8553  -2.7114  -0.1584   2.1121   3.4069
     4.5485   4.5485   4.7696   4.7696   6.5189   6.5189   6.7034

          k = 0.0000 0.1443 0.0000 ( 11007 PWs)   bands (ev):

   -43.4314 -43.4278  -7.0557  -5.6608  -2.5808   0.1927   1.5798   2.8332
     3.5835   3.8028   4.4032   4.7106   5.4776   6.8770   6.9703

          k = 0.0000 0.1443 0.1127 ( 10978 PWs)   bands (ev):

   -43.4314 -43.4278  -7.0552  -5.6637  -2.5503  -0.0484   2.2147   2.7769
     3.4097   3.8033   3.8995   4.7096   5.4976   6.8671   7.3286

          k = 0.0000 0.2887 0.0000 ( 11011 PWs)   bands (ev):

   -43.4308 -43.4278  -6.4540  -5.1002  -2.1795  -0.0912   1.0356   1.8928
     2.1277   2.9910   3.9117   4.1370   4.6582   6.2033   7.0073

          k = 0.0000 0.2887 0.1127 ( 11016 PWs)   bands (ev):

   -43.4308 -43.4278  -6.4534  -5.1034  -2.1506  -0.1694   0.9962   1.6720
     2.7513   2.9921   3.8498   4.1328   4.3294   6.0869   6.8901

          k = 0.0000 0.4330 0.0000 ( 11020 PWs)   bands (ev):

   -43.4299 -43.4280  -5.4771  -4.2662  -2.4080  -1.0579  -0.1641   1.9601
     2.2776   2.4647   3.0231   3.6781   4.4192   5.6722   6.0495

          k = 0.0000 0.4330 0.1127 ( 11014 PWs)   bands (ev):

   -43.4299 -43.4280  -5.4763  -4.2700  -2.3996  -1.0612  -0.1387   1.6902
     2.3428   2.4661   3.3925   3.6723   4.4369   5.3710   6.1058

          k = 0.0000-0.5774 0.0000 ( 11016 PWs)   bands (ev):

   -43.4295 -43.4282  -4.2852  -4.2361  -3.0395  -1.8122   0.0382   1.3782
     2.2850   2.4319   3.4171   3.5144   4.3404   4.8462   5.8031

          k = 0.0000-0.5774 0.1127 ( 11042 PWs)   bands (ev):

   -43.4295 -43.4282  -4.2857  -4.2342  -3.0455  -1.8101   0.0782   1.3975
     2.1857   2.2865   3.5078   3.6250   4.1723   5.4152   5.6057

          k = 0.1250 0.2165 0.0000 ( 10984 PWs)   bands (ev):

   -43.4310 -43.4278  -6.6535  -5.2838  -2.2890   0.1690   1.6357   1.9282
     2.0535   3.0043   3.5143   4.6444   5.4609   6.0544   7.3184

          k = 0.1250 0.2165 0.1127 ( 10998 PWs)   bands (ev):

   -43.4310 -43.4278  -6.6529  -5.2868  -2.2597   0.0252   1.6301   1.7749
     2.6965   3.0068   3.5080   4.0520   5.4737   5.9805   7.4251

          k = 0.1250 0.3608 0.0000 ( 11019 PWs)   bands (ev):

   -43.4302 -43.4279  -5.8615  -4.5667  -1.9999  -0.7655   0.3773   1.6065
     1.8545   2.4294   2.8769   3.8221   4.8675   6.1096   6.4327

          k = 0.1250 0.3608 0.1127 ( 11010 PWs)   bands (ev):

   -43.4302 -43.4279  -5.8608  -4.5702  -1.9786  -0.7832   0.4032   1.4841
     1.6817   2.5442   3.2534   3.9751   4.6513   5.7191   6.1229

          k = 0.1250 0.5052 0.0000 ( 11014 PWs)   bands (ev):

   -43.4295 -43.4282  -4.7286  -3.8206  -2.8377  -1.6287  -0.0717   1.2238
     1.8507   2.2195   2.7318   3.7635   4.5527   5.2962   5.6254

          k = 0.1250 0.5052 0.1127 ( 11047 PWs)   bands (ev):

   -43.4295 -43.4282  -4.7275  -3.8237  -2.8366  -1.6296  -0.0467   1.2437
     1.8939   2.0521   2.6335   4.1474   4.3156   5.4480   6.0290

          k = 0.2500 0.4330 0.0000 ( 11030 PWs)   bands (ev):

   -43.4295 -43.4282  -4.8999  -3.7696  -2.2295  -1.8466   0.3605   0.4228
     1.2875   2.4769   2.7495   3.6197   4.0126   5.7775   6.4064

          k = 0.2500 0.4330 0.1127 ( 11037 PWs)   bands (ev):

   -43.4295 -43.4282  -4.8991  -3.7732  -2.2218  -1.8509   0.3960   0.4192
     1.3012   2.1670   2.8724   3.6345   4.5605   5.4900   5.9982

          k = 0.2500 0.5774 0.0000 ( 11056 PWs)   bands (ev):

   -43.4290 -43.4285  -3.6997  -3.6657  -2.7755  -2.4938  -0.1276   0.6304
     1.1882   2.0677   2.9321   3.1680   4.8374   5.0998   5.5052

          k = 0.2500 0.5774 0.1127 ( 11069 PWs)   bands (ev):

   -43.4290 -43.4285  -3.7000  -3.6634  -2.7825  -2.4911  -0.1272   0.6283
     1.2604   2.0851   2.6877   3.2000   4.6464   5.3868   5.9369

          k = 0.0000 0.1443-0.1127 ( 10978 PWs)   bands (ev):

   -43.4314 -43.4278  -7.0552  -5.6637  -2.5505  -0.0455   2.1358   2.9318
     3.4709   3.7269   3.8040   4.7071   5.4828   6.8801   7.4405

          k = 0.0000 0.2887-0.1127 ( 11016 PWs)   bands (ev):

   -43.4308 -43.4278  -6.4534  -5.1033  -2.1532  -0.1370   0.9064   1.6843
     2.9737   2.9925   3.8120   4.0453   4.1310   6.2113   7.0607

          k = 0.0000 0.4330-0.1127 ( 11014 PWs)   bands (ev):

   -43.4299 -43.4280  -5.4765  -4.2689  -2.4064  -1.0431  -0.1458   1.6416
     2.3181   2.4663   3.6714   3.7059   4.3421   5.0090   5.8750

          k =-0.1250 0.3608-0.1127 ( 11010 PWs)   bands (ev):

   -43.4302 -43.4279  -5.8609  -4.5699  -1.9837  -0.7642   0.3773   1.5069
     1.6369   2.6240   3.2428   3.9522   4.6230   5.6810   6.1670

          k =-0.1250 0.5052-0.1127 ( 11047 PWs)   bands (ev):

   -43.4295 -43.4282  -4.7279  -3.8213  -2.8420  -1.6237  -0.0455   1.2392
     1.8410   2.1098   2.6012   4.1856   4.6325   5.0264   5.7713

     the Fermi energy is     3.7321 ev

!    total energy              =     -62.51391146 Ry
     estimated scf accuracy    <          4.7E-09 Ry
     smearing contrib. (-TS)   =      -0.00188123 Ry
     internal energy E=F+TS    =     -62.51203023 Ry

     The total energy is F=E-TS. E is the sum of the following terms:
     one-electron contribution =     -18.34037891 Ry
     hartree contribution      =      12.93119805 Ry
     xc contribution           =     -18.49332930 Ry
     ewald contribution        =     -38.60952007 Ry

     convergence has been achieved in   9 iterations

     Forces acting on atoms (cartesian axes, Ry/au):

     atom    1 type  1   force =     0.00000000   -0.00000000    0.03937277
     atom    2 type  1   force =     0.00000000    0.00000000   -0.03937277
     atom    3 type  1   force =     0.00000000    0.00000000    0.03001690
     atom    4 type  1   force =    -0.00000000   -0.00000000   -0.03001690
     atom    5 type  2   force =    -0.00000000   -0.00000000    0.02236038
     atom    6 type  2   force =     0.00000000   -0.00000000   -0.02236038
     The non-local contrib.  to forces
     atom    1 type  1   force =     0.00000000    0.00000000    0.05638972
     atom    2 type  1   force =     0.00000000    0.00000000   -0.05638972
     atom    3 type  1   force =     0.00000000    0.00000000   -0.00783020
     atom    4 type  1   force =     0.00000000    0.00000000    0.00783020
     atom    5 type  2   force =     0.00000000   -0.00000000   -0.04522442
     atom    6 type  2   force =     0.00000000    0.00000000    0.04522442
     The ionic contribution  to forces
     atom    1 type  1   force =     0.00000001   -0.00000000   -2.58097610
     atom    2 type  1   force =    -0.00000001    0.00000000    2.58097610
     atom    3 type  1   force =     0.00000002   -0.00000001    0.76551731
     atom    4 type  1   force =    -0.00000002    0.00000001   -0.76551731
     atom    5 type  2   force =     0.00000001   -0.00000000   -1.45263417
     atom    6 type  2   force =    -0.00000001    0.00000000    1.45263417
     The local contribution  to forces
     atom    1 type  1   force =     0.00000000    0.00000000    2.56599114
     atom    2 type  1   force =    -0.00000000   -0.00000000   -2.56599114
     atom    3 type  1   force =     0.00000001   -0.00000001   -0.72923597
     atom    4 type  1   force =    -0.00000001    0.00000001    0.72923597
     atom    5 type  2   force =     0.00000071   -0.00000041    1.52024612
     atom    6 type  2   force =    -0.00000071    0.00000041   -1.52024612
     The core correction contribution to forces
     atom    1 type  1   force =    -0.00000000    0.00000000   -0.00203243
     atom    2 type  1   force =     0.00000000   -0.00000000    0.00203243
     atom    3 type  1   force =    -0.00000000    0.00000000    0.00160352
     atom    4 type  1   force =     0.00000000   -0.00000000   -0.00160352
     atom    5 type  2   force =     0.00000000    0.00000000    0.00000000
     atom    6 type  2   force =     0.00000000    0.00000000    0.00000000
     The Hubbard contrib.    to forces
     atom    1 type  1   force =     0.00000000    0.00000000    0.00000000
     atom    2 type  1   force =     0.00000000    0.00000000    0.00000000
     atom    3 type  1   force =     0.00000000    0.00000000    0.00000000
     atom    4 type  1   force =     0.00000000    0.00000000    0.00000000
     atom    5 type  2   force =     0.00000000    0.00000000    0.00000000
     atom    6 type  2   force =     0.00000000    0.00000000    0.00000000
     The SCF correction term to forces
     atom    1 type  1   force =     0.00000000   -0.00000000    0.00000044
     atom    2 type  1   force =    -0.00000000    0.00000000   -0.00000044
     atom    3 type  1   force =     0.00000000   -0.00000000   -0.00003777
     atom    4 type  1   force =    -0.00000000    0.00000000    0.00003777
     atom    5 type  2   force =     0.00000000   -0.00000000   -0.00002715
     atom    6 type  2   force =    -0.00000000    0.00000000    0.00002715

     Total force =     0.076827     Total SCF correction =     0.000066


     Computing stress (Cartesian axis) and pressure

          total   stress  (Ry/bohr**3)                   (kbar)     P=      -83.00
  -0.00054402   0.00000000   0.00000000          -80.03        0.00        0.00
   0.00000000  -0.00054402   0.00000000            0.00      -80.03        0.00
   0.00000000   0.00000000  -0.00060454            0.00        0.00      -88.93


     BFGS Geometry Optimization
     Energy error            =      0.0E+00 Ry
     Gradient error          =      3.9E-02 Ry/Bohr
     Cell gradient error     =      5.9E+02 kbar

     number of scf cycles    =   1
     number of bfgs steps    =   0

     enthalpy           new  =     -59.4138278316 Ry

     new trust radius        =       0.5000000000 bohr
ibrav =      4
 celldm(1) =      6.50904989
 celldm(3) =      2.95496685
Input lattice vectors:
     0.91847150     0.00000000     0.00000000
    -0.45923575     0.79541965     0.00000000
     0.00000000     0.00000000     2.71405284
New lattice vectors in INITIAL alat:
     0.91847150     0.00000000     0.00000000
    -0.45923575     0.79541965     0.00000000
     0.00000000     0.00000000     2.71405284
New lattice vectors in NEW alat (for information only):
     1.00000000     0.00000000     0.00000000
    -0.50000000     0.86602540     0.00000000
     0.00000000     0.00000000     2.95496685
Discrepancy in bohr =     0.000000    0.000000    0.000000
     new conv_thr            =       0.0000000100 Ry

     new unit-cell volume =    705.72588 a.u.^3 (   104.57779 Ang^3 )
     density =      2.00425 g/cm^3

CELL_PARAMETERS (alat=  7.08682836)
   0.918471502   0.000000000   0.000000000
  -0.459235751   0.795419654   0.000000000
   0.000000000   0.000000000   2.714052840

ATOMIC_POSITIONS (crystal)
Si           -0.0000000000       -0.0000000000        0.2896934121
Si            0.0000000000        0.0000000000        0.7103065879
Si            0.3333333300        0.6666666700        0.5836324047
Si            0.6666666700        0.3333333300        0.4163675953
Li            0.3333333300        0.6666666700        0.1111574217
Li            0.6666666700        0.3333333300        0.8888425783



     Writing config-only to output data dir ./output/SiLi.save/
     NEW-OLD atomic charge density approx. for the potential
     extrapolated charge   15.57071, renormalised to   22.00000

     total cpu time spent up to now is       21.3 secs

     Self-consistent Calculation

     iteration #  1     ecut=    80.00 Ry     beta= 0.70
     Davidson diagonalization with overlap
     c_bands:  1 eigenvalues not converged
     c_bands:  1 eigenvalues not converged
     c_bands:  1 eigenvalues not converged
     c_bands:  1 eigenvalues not converged
     c_bands:  1 eigenvalues not converged
     c_bands:  2 eigenvalues not converged
     c_bands:  1 eigenvalues not converged
     c_bands:  1 eigenvalues not converged
     c_bands:  1 eigenvalues not converged
     c_bands:  1 eigenvalues not converged
     c_bands:  1 eigenvalues not converged
     c_bands:  1 eigenvalues not converged
     c_bands:  1 eigenvalues not converged
     c_bands:  1 eigenvalues not converged
     ethr =  1.00E-06,  avg # of iterations = 19.1

     total cpu time spent up to now is       26.1 secs

     total energy              =     -52.42473754 Ry
     estimated scf accuracy    <      10.18759892 Ry

     iteration #  2     ecut=    80.00 Ry     beta= 0.70
     Davidson diagonalization with overlap
     ethr =  1.00E-02,  avg # of iterations =  9.5

     total cpu time spent up to now is       29.1 secs

     total energy              =     -57.38019483 Ry
     estimated scf accuracy    <     178.09414543 Ry

     iteration #  3     ecut=    80.00 Ry     beta= 0.70
     Davidson diagonalization with overlap
     ethr =  1.00E-02,  avg # of iterations =  5.8

     total cpu time spent up to now is       31.0 secs

     total energy              =     -62.53865543 Ry
     estimated scf accuracy    <      27.26214233 Ry

     iteration #  4     ecut=    80.00 Ry     beta= 0.70
     Davidson diagonalization with overlap
     ethr =  1.00E-02,  avg # of iterations =  3.2

     total cpu time spent up to now is       32.4 secs

     total energy              =     -61.68936137 Ry
     estimated scf accuracy    <       9.51984827 Ry

     iteration #  5     ecut=    80.00 Ry     beta= 0.70
     Davidson diagonalization with overlap
     ethr =  1.00E-02,  avg # of iterations =  2.9

     total cpu time spent up to now is       33.7 secs

     total energy              =     -62.55527343 Ry
     estimated scf accuracy    <       0.06211612 Ry

     iteration #  6     ecut=    80.00 Ry     beta= 0.70
     Davidson diagonalization with overlap
     ethr =  2.82E-04,  avg # of iterations =  6.0

     total cpu time spent up to now is       35.3 secs

     total energy              =     -62.56646990 Ry
     estimated scf accuracy    <       0.07739463 Ry

     iteration #  7     ecut=    80.00 Ry     beta= 0.70
     Davidson diagonalization with overlap
     ethr =  2.82E-04,  avg # of iterations =  1.4

     total cpu time spent up to now is       36.3 secs

     total energy              =     -62.57165846 Ry
     estimated scf accuracy    <       0.00400852 Ry

     iteration #  8     ecut=    80.00 Ry     beta= 0.70
     Davidson diagonalization with overlap
     ethr =  1.82E-05,  avg # of iterations =  5.7

     total cpu time spent up to now is       37.8 secs

     total energy              =     -62.57236402 Ry
     estimated scf accuracy    <       0.01255954 Ry

     iteration #  9     ecut=    80.00 Ry     beta= 0.70
     Davidson diagonalization with overlap
     ethr =  1.82E-05,  avg # of iterations =  2.0

     total cpu time spent up to now is       38.9 secs

     total energy              =     -62.57322361 Ry
     estimated scf accuracy    <       0.00028542 Ry

     iteration # 10     ecut=    80.00 Ry     beta= 0.70
     Davidson diagonalization with overlap
     ethr =  1.30E-06,  avg # of iterations =  4.8

     total cpu time spent up to now is       40.3 secs

     total energy              =     -62.57327629 Ry
     estimated scf accuracy    <       0.00027964 Ry

     iteration # 11     ecut=    80.00 Ry     beta= 0.70
     Davidson diagonalization with overlap
     ethr =  1.27E-06,  avg # of iterations =  1.9

     total cpu time spent up to now is       41.3 secs

     total energy              =     -62.57331815 Ry
     estimated scf accuracy    <       0.00000709 Ry

     iteration # 12     ecut=    80.00 Ry     beta= 0.70
     Davidson diagonalization with overlap
     ethr =  3.22E-08,  avg # of iterations =  2.4

     total cpu time spent up to now is       42.5 secs

     total energy              =     -62.57331924 Ry
     estimated scf accuracy    <       0.00000148 Ry

     iteration # 13     ecut=    80.00 Ry     beta= 0.70
     Davidson diagonalization with overlap
     ethr =  6.75E-09,  avg # of iterations =  1.6

     total cpu time spent up to now is       43.5 secs

     total energy              =     -62.57331921 Ry
     estimated scf accuracy    <       0.00000048 Ry

     iteration # 14     ecut=    80.00 Ry     beta= 0.70
     Davidson diagonalization with overlap
     ethr =  2.19E-09,  avg # of iterations =  2.0

     total cpu time spent up to now is       44.6 secs

     End of self-consistent calculation

          k = 0.0000 0.0000 0.0000 ( 10985 PWs)   bands (ev):

   -40.9895 -40.9788  -7.0465  -5.2387  -1.5497   1.8603   3.1140   6.5479
     6.8480   6.8480   6.9526   6.9526   8.9700   8.9700  10.0428

          k = 0.0000 0.0000 0.1228 ( 11028 PWs)   bands (ev):

   -40.9895 -40.9788  -7.0461  -5.2418  -1.5108   1.4741   4.0247   5.5607
     6.8475   6.8475   6.9539   6.9539   8.9654   8.9654  10.9101

          k = 0.0000 0.1571 0.0000 ( 11007 PWs)   bands (ev):

   -40.9887 -40.9787  -6.7996  -5.0009  -1.3308   2.0437   3.3009   4.6792
     5.7609   5.8090   6.6873   6.9558   7.9433   9.5169  10.0943

          k = 0.0000 0.1571 0.1228 ( 10978 PWs)   bands (ev):

   -40.9887 -40.9787  -6.7991  -5.0040  -1.2908   1.6597   4.2040   4.6529
     5.6642   5.7619   5.9206   6.9534   7.9457   9.5067  10.3053

          k = 0.0000 0.3143 0.0000 ( 11011 PWs)   bands (ev):

   -40.9866 -40.9787  -6.0629  -4.2978  -0.7235   1.7885   2.6259   3.4715
     3.8712   4.7363   6.1833   6.2799   6.9121   8.7085   9.7455

          k = 0.0000 0.3143 0.1228 ( 11016 PWs)   bands (ev):

   -40.9866 -40.9787  -6.0624  -4.3014  -0.6809   1.7320   2.3535   3.4024
     4.6719   4.7376   6.1490   6.1776   6.5233   8.4684   9.4040

          k = 0.0000 0.4714 0.0000 ( 11020 PWs)   bands (ev):

   -40.9842 -40.9790  -4.8542  -3.2045  -0.9970   0.7373   0.8852   3.6717
     4.0234   4.0889   5.1177   5.5998   6.5849   8.1615   8.3896

          k = 0.0000 0.4714 0.1228 ( 11014 PWs)   bands (ev):

   -40.9842 -40.9790  -4.8534  -3.2093  -0.9890   0.7678   0.8898   3.2795
     4.0905   4.1853   5.5850   5.5926   6.7340   7.5460   8.5911

          k = 0.0000-0.6286 0.0000 ( 11016 PWs)   bands (ev):

   -40.9829 -40.9794  -3.2835  -3.2514  -1.7481  -0.6236   1.6931   2.7672
     3.8697   4.3012   5.3954   5.5877   6.3767   7.1741   8.1946

          k = 0.0000-0.6286 0.1228 ( 11042 PWs)   bands (ev):

   -40.9829 -40.9794  -3.2813  -3.2519  -1.7562  -0.6241   1.7749   2.7804
     3.8714   3.9466   5.3875   5.8784   6.2041   7.6501   8.1598

          k = 0.1361 0.2357 0.0000 ( 10984 PWs)   bands (ev):

   -40.9872 -40.9786  -6.3076  -4.5297  -0.9098   2.3048   3.2998   3.4594
     3.7117   4.8462   5.4214   7.0207   8.0701   8.6299  10.0213

          k = 0.1361 0.2357 0.1228 ( 10998 PWs)   bands (ev):

   -40.9872 -40.9786  -6.3071  -4.5331  -0.8681   1.9753   3.3257   3.3660
     4.5641   4.8431   5.4280   6.2036   8.0835   8.6185  10.0421

          k = 0.1361 0.3929 0.0000 ( 11019 PWs)   bands (ev):

   -40.9849 -40.9788  -5.3334  -3.6152  -0.3279   0.8886   1.8024   3.0288
     3.4216   4.1424   4.6087   6.0335   7.2966   8.5491   9.0414

          k = 0.1361 0.3929 0.1228 ( 11010 PWs)   bands (ev):

   -40.9849 -40.9788  -5.3327  -3.6193  -0.2929   0.8902   1.7932   2.9374
     3.1299   4.2797   5.1196   6.2909   6.9068   8.1522   8.6090

          k = 0.1361 0.5500 0.0000 ( 11014 PWs)   bands (ev):

   -40.9829 -40.9794  -3.9110  -2.5868  -1.6178  -0.0514   1.2656   2.4986
     3.3873   4.0031   4.4379   5.8005   6.9030   7.5807   8.0757

          k = 0.1361 0.5500 0.1228 ( 11047 PWs)   bands (ev):

   -40.9829 -40.9794  -3.9099  -2.5910  -1.6171  -0.0561   1.3129   2.5132
     3.4390   3.7569   4.3382   6.2924   6.6376   7.8287   8.3794

          k = 0.2722 0.4714 0.0000 ( 11030 PWs)   bands (ev):

   -40.9829 -40.9794  -4.1370  -2.5569  -0.6094  -0.2378   1.4667   1.6233
     2.5879   4.2351   4.5481   5.5588   6.1820   8.0729   8.9626

          k = 0.2722 0.4714 0.1228 ( 11037 PWs)   bands (ev):

   -40.9829 -40.9794  -4.1361  -2.5617  -0.6004  -0.2418   1.5086   1.6159
     2.6056   3.8314   4.7725   5.5632   6.8213   7.7507   8.4429

          k = 0.2722 0.6286 0.0000 ( 11056 PWs)   bands (ev):

   -40.9815 -40.9801  -2.5684  -2.5433  -1.2401  -1.0111   0.7478   1.7773
     2.7179   3.6498   4.8249   5.0169   6.9360   7.3006   7.9022

          k = 0.2722 0.6286 0.1228 ( 11069 PWs)   bands (ev):

   -40.9815 -40.9801  -2.5659  -2.5435  -1.2505  -1.0088   0.7494   1.7758
     2.8300   3.6582   4.4753   5.0675   6.7775   7.6365   8.4385

          k = 0.0000 0.1571-0.1228 ( 10978 PWs)   bands (ev):

   -40.9887 -40.9787  -6.7991  -5.0040  -1.2910   1.6609   4.1569   4.7317
     5.7092   5.7624   5.8272   6.9511   7.9515   9.5208  10.2112

          k = 0.0000 0.3143-0.1228 ( 11016 PWs)   bands (ev):

   -40.9866 -40.9787  -6.0624  -4.3013  -0.6829   1.7670   2.3035   3.3894
     4.7379   4.8157   6.0232   6.1761   6.3972   8.7847   9.3434

          k = 0.0000 0.4714-0.1228 ( 11014 PWs)   bands (ev):

   -40.9842 -40.9790  -4.8536  -3.2082  -0.9945   0.7902   0.8766   3.2681
     4.0906   4.1559   5.5919   5.8297   6.5188   7.3616   8.3800

          k =-0.1361 0.3929-0.1228 ( 11010 PWs)   bands (ev):

   -40.9849 -40.9788  -5.3327  -3.6190  -0.2986   0.9088   1.7748   2.9677
     3.0868   4.3200   5.1743   6.0661   7.0701   8.1292   8.6266

          k =-0.1361 0.5500-0.1228 ( 11047 PWs)   bands (ev):

   -40.9829 -40.9794  -3.9102  -2.5880  -1.6224  -0.0525   1.3140   2.5129
     3.4195   3.8066   4.2798   6.4116   6.7653   7.4255   8.1636

     the Fermi energy is     5.7928 ev

!    total energy              =     -62.57331927 Ry
     estimated scf accuracy    <          4.7E-09 Ry
     smearing contrib. (-TS)   =      -0.00110669 Ry
     internal energy E=F+TS    =     -62.57221258 Ry

     The total energy is F=E-TS. E is the sum of the following terms:
     one-electron contribution =     -14.11036627 Ry
     hartree contribution      =      12.53448165 Ry
     xc contribution           =     -19.13206373 Ry
     ewald contribution        =     -41.86426423 Ry

     convergence has been achieved in  14 iterations

     Forces acting on atoms (cartesian axes, Ry/au):

     atom    1 type  1   force =     0.00000000    0.00000000   -0.01367661
     atom    2 type  1   force =    -0.00000000   -0.00000000    0.01367661
     atom    3 type  1   force =     0.00000000    0.00000000    0.00199703
     atom    4 type  1   force =     0.00000000    0.00000000   -0.00199703
     atom    5 type  2   force =     0.00000000    0.00000000    0.01310192
     atom    6 type  2   force =     0.00000000    0.00000000   -0.01310192
     The non-local contrib.  to forces
     atom    1 type  1   force =    -0.00000000   -0.00000000   -0.00943696
     atom    2 type  1   force =     0.00000000    0.00000000    0.00943696
     atom    3 type  1   force =     0.00000000    0.00000000   -0.06030824
     atom    4 type  1   force =     0.00000000    0.00000000    0.06030824
     atom    5 type  2   force =     0.00000000    0.00000000   -0.05440751
     atom    6 type  2   force =    -0.00000000    0.00000000    0.05440751
     The ionic contribution  to forces
     atom    1 type  1   force =     0.00000001   -0.00000001   -3.10494434
     atom    2 type  1   force =    -0.00000001    0.00000001    3.10494434
     atom    3 type  1   force =     0.00000003   -0.00000002    0.89971979
     atom    4 type  1   force =    -0.00000003    0.00000002   -0.89971979
     atom    5 type  2   force =     0.00000001   -0.00000000   -1.76063499
     atom    6 type  2   force =    -0.00000001    0.00000000    1.76063499
     The local contribution  to forces
     atom    1 type  1   force =    -0.00000000    0.00000000    3.09706340
     atom    2 type  1   force =     0.00000000   -0.00000000   -3.09706340
     atom    3 type  1   force =     0.00000000   -0.00000000   -0.84308890
     atom    4 type  1   force =    -0.00000000    0.00000000    0.84308890
     atom    5 type  2   force =     0.00000064   -0.00000037    1.82814277
     atom    6 type  2   force =    -0.00000064    0.00000037   -1.82814277
     The core correction contribution to forces
     atom    1 type  1   force =    -0.00000000    0.00000000    0.00356524
     atom    2 type  1   force =     0.00000000   -0.00000000   -0.00356524
     atom    3 type  1   force =    -0.00000000    0.00000000    0.00572783
     atom    4 type  1   force =     0.00000000   -0.00000000   -0.00572783
     atom    5 type  2   force =     0.00000000    0.00000000    0.00000000
     atom    6 type  2   force =     0.00000000    0.00000000    0.00000000
     The Hubbard contrib.    to forces
     atom    1 type  1   force =     0.00000000    0.00000000    0.00000000
     atom    2 type  1   force =     0.00000000    0.00000000    0.00000000
     atom    3 type  1   force =     0.00000000    0.00000000    0.00000000
     atom    4 type  1   force =     0.00000000    0.00000000    0.00000000
     atom    5 type  2   force =     0.00000000    0.00000000    0.00000000
     atom    6 type  2   force =     0.00000000    0.00000000    0.00000000
     The SCF correction term to forces
     atom    1 type  1   force =     0.00000000   -0.00000000    0.00007604
     atom    2 type  1   force =    -0.00000000    0.00000000   -0.00007604
     atom    3 type  1   force =     0.00000000   -0.00000000   -0.00005345
     atom    4 type  1   force =    -0.00000000    0.00000000    0.00005345
     atom    5 type  2   force =     0.00000000   -0.00000000    0.00000165
     atom    6 type  2   force =    -0.00000000    0.00000000   -0.00000165

     Total force =     0.026933     Total SCF correction =     0.000131


     Computing stress (Cartesian axis) and pressure

          total   stress  (Ry/bohr**3)                   (kbar)     P=       30.02
   0.00025385  -0.00000000   0.00000000           37.34       -0.00        0.00
  -0.00000000   0.00025385   0.00000000           -0.00       37.34        0.00
   0.00000000   0.00000000   0.00010450            0.00        0.00       15.37

     Energy error            =      7.6E-01 Ry
     Gradient error          =      1.4E-02 Ry/Bohr
     Cell gradient error     =      4.8E+02 kbar

     number of scf cycles    =   2
     number of bfgs steps    =   1

     enthalpy           old  =     -59.4138278316 Ry
     enthalpy           new  =     -60.1746057503 Ry

     CASE: enthalpy          _new < enthalpy          _old

     new trust radius        =       0.7192670217 bohr
ibrav =      4
 celldm(1) =      5.67509927
 celldm(3) =      2.93038016
Input lattice vectors:
     0.80079536     0.00000000     0.00000000
    -0.40039768     0.69350913     0.00000000
     0.00000000     0.00000000     2.34663484
New lattice vectors in INITIAL alat:
     0.80079536     0.00000000     0.00000000
    -0.40039768     0.69350913     0.00000000
     0.00000000     0.00000000     2.34663484
New lattice vectors in NEW alat (for information only):
     1.00000000     0.00000000     0.00000000
    -0.50000000     0.86602540     0.00000000
     0.00000000     0.00000000     2.93038016
Discrepancy in bohr =     0.000000    0.000000    0.000000
     new conv_thr            =       0.0000000014 Ry

     new unit-cell volume =    463.84725 a.u.^3 (    68.73507 Ang^3 )
     density =      3.04939 g/cm^3

CELL_PARAMETERS (alat=  7.08682836)
   0.800795361   0.000000000   0.000000000
  -0.400397680   0.693509125   0.000000000
   0.000000000   0.000000000   2.346634840

ATOMIC_POSITIONS (crystal)
Si            0.0000000000        0.0000000000        0.2880140133
Si           -0.0000000000       -0.0000000000        0.7119859867
Si            0.3333333300        0.6666666700        0.5834976394
Si            0.6666666700        0.3333333300        0.4165023606
Li            0.3333333300        0.6666666700        0.1121279596
Li            0.6666666700        0.3333333300        0.8878720404



     Writing config-only to output data dir ./output/SiLi.save/
     NEW-OLD atomic charge density approx. for the potential

     negative rho (up, down):  4.214E-03 0.000E+00
     extrapolated charge   10.53387, renormalised to   22.00000

     total cpu time spent up to now is       48.9 secs

     Self-consistent Calculation

     iteration #  1     ecut=    80.00 Ry     beta= 0.70
     Davidson diagonalization with overlap
     c_bands:  2 eigenvalues not converged
     c_bands:  2 eigenvalues not converged
     c_bands:  1 eigenvalues not converged
     c_bands:  1 eigenvalues not converged
     c_bands:  2 eigenvalues not converged
     c_bands:  1 eigenvalues not converged
     c_bands:  1 eigenvalues not converged
     c_bands:  2 eigenvalues not converged
     c_bands:  1 eigenvalues not converged
     c_bands:  1 eigenvalues not converged
     c_bands:  1 eigenvalues not converged
     c_bands:  1 eigenvalues not converged
     c_bands:  1 eigenvalues not converged
     c_bands:  1 eigenvalues not converged
     c_bands:  1 eigenvalues not converged
     c_bands:  2 eigenvalues not converged
     c_bands:  2 eigenvalues not converged
     c_bands:  3 eigenvalues not converged
     c_bands:  1 eigenvalues not converged
     c_bands:  1 eigenvalues not converged
     c_bands:  1 eigenvalues not converged
     c_bands:  1 eigenvalues not converged
     ethr =  1.00E-06,  avg # of iterations = 19.7

     total cpu time spent up to now is       54.3 secs

     total energy              =     -41.90231610 Ry
     estimated scf accuracy    <      21.93186770 Ry

     iteration #  2     ecut=    80.00 Ry     beta= 0.70
     Davidson diagonalization with overlap
     ethr =  1.00E-02,  avg # of iterations = 10.4

     total cpu time spent up to now is       57.6 secs

     total energy              =     -55.54485280 Ry
     estimated scf accuracy    <     216.70249561 Ry

     iteration #  3     ecut=    80.00 Ry     beta= 0.70
     Davidson diagonalization with overlap
     ethr =  1.00E-02,  avg # of iterations =  5.5

     total cpu time spent up to now is       59.6 secs

     total energy              =     -62.30645143 Ry
     estimated scf accuracy    <      34.25575412 Ry

     iteration #  4     ecut=    80.00 Ry     beta= 0.70
     Davidson diagonalization with overlap
     ethr =  1.00E-02,  avg # of iterations =  2.9

     total cpu time spent up to now is       61.0 secs

     total energy              =     -59.87493263 Ry
     estimated scf accuracy    <      11.51995461 Ry

     iteration #  5     ecut=    80.00 Ry     beta= 0.70
     Davidson diagonalization with overlap
     ethr =  1.00E-02,  avg # of iterations =  3.4

     total cpu time spent up to now is       62.5 secs

     total energy              =     -62.30607343 Ry
     estimated scf accuracy    <       1.70221865 Ry

     iteration #  6     ecut=    80.00 Ry     beta= 0.70
     Davidson diagonalization with overlap
     ethr =  7.74E-03,  avg # of iterations =  1.0

     total cpu time spent up to now is       63.4 secs

     total energy              =     -61.94715981 Ry
     estimated scf accuracy    <       1.34465196 Ry

     iteration #  7     ecut=    80.00 Ry     beta= 0.70
     Davidson diagonalization with overlap
     ethr =  6.11E-03,  avg # of iterations =  1.9

     total cpu time spent up to now is       64.5 secs

     total energy              =     -62.13357077 Ry
     estimated scf accuracy    <       0.01618231 Ry

     iteration #  8     ecut=    80.00 Ry     beta= 0.70
     Davidson diagonalization with overlap
     ethr =  7.36E-05,  avg # of iterations =  5.4

     total cpu time spent up to now is       66.1 secs

     total energy              =     -62.12944842 Ry
     estimated scf accuracy    <       0.02664577 Ry

     iteration #  9     ecut=    80.00 Ry     beta= 0.70
     Davidson diagonalization with overlap
     ethr =  7.36E-05,  avg # of iterations =  2.3

     total cpu time spent up to now is       67.2 secs

     total energy              =     -62.13584961 Ry
     estimated scf accuracy    <       0.01182608 Ry

     iteration # 10     ecut=    80.00 Ry     beta= 0.70
     Davidson diagonalization with overlap
     ethr =  5.38E-05,  avg # of iterations =  2.6

     total cpu time spent up to now is       68.4 secs

     total energy              =     -62.13537167 Ry
     estimated scf accuracy    <       0.04112557 Ry

     iteration # 11     ecut=    80.00 Ry     beta= 0.70
     Davidson diagonalization with overlap
     ethr =  5.38E-05,  avg # of iterations =  1.0

     total cpu time spent up to now is       69.4 secs

     total energy              =     -62.13185465 Ry
     estimated scf accuracy    <       0.02087255 Ry

     iteration # 12     ecut=    80.00 Ry     beta= 0.70
     Davidson diagonalization with overlap
     ethr =  5.38E-05,  avg # of iterations =  2.0

     total cpu time spent up to now is       70.4 secs

     total energy              =     -62.13320605 Ry
     estimated scf accuracy    <       0.00089972 Ry

     iteration # 13     ecut=    80.00 Ry     beta= 0.70
     Davidson diagonalization with overlap
     ethr =  4.09E-06,  avg # of iterations =  5.2

     total cpu time spent up to now is       71.8 secs

     total energy              =     -62.13334701 Ry
     estimated scf accuracy    <       0.00001371 Ry

     iteration # 14     ecut=    80.00 Ry     beta= 0.70
     Davidson diagonalization with overlap
     ethr =  6.23E-08,  avg # of iterations =  4.3

     total cpu time spent up to now is       73.1 secs

     total energy              =     -62.13335792 Ry
     estimated scf accuracy    <       0.00000792 Ry

     iteration # 15     ecut=    80.00 Ry     beta= 0.70
     Davidson diagonalization with overlap
     ethr =  3.60E-08,  avg # of iterations =  1.8

     total cpu time spent up to now is       74.1 secs

     total energy              =     -62.13335490 Ry
     estimated scf accuracy    <       0.00001486 Ry

     iteration # 16     ecut=    80.00 Ry     beta= 0.70
     Davidson diagonalization with overlap
     ethr =  3.60E-08,  avg # of iterations =  2.0

     total cpu time spent up to now is       75.1 secs

     total energy              =     -62.13335623 Ry
     estimated scf accuracy    <       0.00000017 Ry

     iteration # 17     ecut=    80.00 Ry     beta= 0.70
     Davidson diagonalization with overlap
     ethr =  7.82E-10,  avg # of iterations =  3.9

     total cpu time spent up to now is       76.4 secs

     total energy              =     -62.13335629 Ry
     estimated scf accuracy    <       0.00000001 Ry

     iteration # 18     ecut=    80.00 Ry     beta= 0.70
     Davidson diagonalization with overlap
     ethr =  5.44E-11,  avg # of iterations =  2.0

     total cpu time spent up to now is       77.5 secs

     End of self-consistent calculation

          k = 0.0000 0.0000 0.0000 ( 10985 PWs)   bands (ev):

   -36.1346 -36.0872  -6.3278  -3.6343   0.8410   5.2982   6.9054  11.5696
    11.8202  11.8202  12.0224  12.0224  14.0632  14.0632  14.7315

          k = 0.0000 0.0000 0.1420 ( 11028 PWs)   bands (ev):

   -36.1346 -36.0872  -6.3277  -3.6367   0.8829   4.8149   8.0859  10.1364
    11.8217  11.8217  12.0228  12.0228  14.0566  14.0567  15.7629

          k = 0.0000 0.1802 0.0000 ( 11007 PWs)   bands (ev):

   -36.1304 -36.0862  -5.9986  -3.3146   1.1389   5.5560   7.1196   8.7840
    10.1294  10.7626  11.7290  12.0662  12.9332  14.8550  14.9182

          k = 0.0000 0.1802 0.1420 ( 10978 PWs)   bands (ev):

   -36.1304 -36.0862  -5.9984  -3.3174   1.1838   5.0562   8.2926   8.7969
    10.1313  10.3257  10.8409  12.0583  12.8323  14.9106  15.1932

          k = 0.0000 0.3605 0.0000 ( 11011 PWs)   bands (ev):

   -36.1195 -36.0843  -5.0155  -2.3623   2.0180   5.0674   6.3377   7.4358
     7.7190   8.7218  10.8563  11.3083  11.5990  13.4856  14.2814

          k = 0.0000 0.3605 0.1420 ( 11016 PWs)   bands (ev):

   -36.1195 -36.0843  -5.0152  -2.3660   2.0735   5.0550   5.7982   7.4128
     8.7240   8.9044  10.8444  10.9217  11.3721  12.6685  14.6506

          k = 0.0000 0.5407 0.0000 ( 11020 PWs)   bands (ev):

   -36.1071 -36.0841  -3.3934  -0.8107   1.7155   3.3347   4.4401   7.4327
     7.8127   7.8628   9.6443  10.0420  10.7976  13.1431  13.2482

          k = 0.0000 0.5407 0.1420 ( 11014 PWs)   bands (ev):

   -36.1071 -36.0841  -3.3927  -0.8171   1.7180   3.4038   4.4306   6.8155
     7.8652   8.1933  10.0285  10.3243  11.0576  12.1641  12.9281

          k = 0.0000-0.7210 0.0000 ( 11016 PWs)   bands (ev):

   -36.1007 -36.0853  -1.2465  -1.0863   1.1574   1.6954   5.3869   5.8565
     7.5752   8.3538   9.7649   9.8933  10.6703  12.1521  12.2599

          k = 0.0000-0.7210 0.1420 ( 11042 PWs)   bands (ev):

   -36.1007 -36.0853  -1.2442  -1.0872   1.1429   1.6989   5.5590   5.8530
     7.5776   7.7814   9.7509  10.0530  10.8591  12.2005  12.8673

          k = 0.1561 0.2704 0.0000 ( 10984 PWs)   bands (ev):

   -36.1228 -36.0848  -5.3424  -2.6784   1.7291   6.0494   6.9949   7.2084
     7.5316   9.1720   9.6593  12.2765  13.3922  14.0586  15.0696

          k = 0.1561 0.2704 0.1420 ( 10998 PWs)   bands (ev):

   -36.1228 -36.0848  -5.3422  -2.6817   1.7797   5.5272   6.9981   7.1928
     8.6585   9.1930   9.6948  10.9505  13.5272  14.1106  14.8719

          k = 0.1561 0.4506 0.0000 ( 11019 PWs)   bands (ev):

   -36.1110 -36.0839  -4.0394  -1.4211   2.8451   3.5939   5.7094   6.2653
     7.0743   8.0358   8.4782  10.6625  12.4008  13.5906  14.3791

          k = 0.1561 0.4506 0.1420 ( 11010 PWs)   bands (ev):

   -36.1110 -36.0839  -4.0390  -1.4260   2.9101   3.5948   5.7048   6.1817
     6.5546   8.2649   9.1926  11.1958  11.6269  13.1769  13.8023

          k = 0.1561 0.6308 0.0000 ( 11014 PWs)   bands (ev):

   -36.1007 -36.0852  -2.1122   0.1762   0.7140   2.8999   4.7242   5.4290
     6.8270   8.0294   8.2971  10.0106  11.8077  12.4650  13.1906

          k = 0.1561 0.6308 0.1420 ( 11047 PWs)   bands (ev):

   -36.1007 -36.0852  -2.1112   0.1700   0.7129   2.9035   4.8048   5.4279
     6.8674   7.6410   8.1908  10.7196  11.5193  12.8793  13.2252

          k = 0.3122 0.5407 0.0000 ( 11030 PWs)   bands (ev):

   -36.1008 -36.0852  -2.4291   0.1090   2.4973   2.7497   4.1395   4.8938
     5.7385   8.1662   8.3980   9.5903  10.8290  12.7815  14.1482

          k = 0.3122 0.5407 0.1420 ( 11037 PWs)   bands (ev):

   -36.1008 -36.0852  -2.4285   0.1025   2.5028   2.7487   4.1988   4.8723
     5.7695   7.5247   8.9126   9.5626  11.5851  12.4240  13.5754

          k = 0.3122 0.7210 0.0000 ( 11056 PWs)   bands (ev):

   -36.0943 -36.0879  -0.2994  -0.1379   2.0638   2.0691   2.8619   4.6866
     6.2431   7.1162   8.9148   9.0237  11.2739  11.9231  12.8277

          k = 0.3122 0.7210 0.1420 ( 11069 PWs)   bands (ev):

   -36.0943 -36.0879  -0.2967  -0.1386   2.0448   2.0704   2.8665   4.6840
     6.4576   7.0994   8.3842   9.0545  11.2077  12.2906  13.6204

          k = 0.0000 0.1802-0.1420 ( 10978 PWs)   bands (ev):

   -36.1304 -36.0862  -5.9984  -3.3173   1.1834   5.0573   8.3120   8.7805
    10.1314  10.2116  10.9846  12.0572  12.8354  14.9226  14.9301

          k = 0.0000 0.3605-0.1420 ( 11016 PWs)   bands (ev):

   -36.1195 -36.0843  -5.0153  -2.3656   2.0701   5.0604   5.7993   7.4225
     8.7240   8.9256  10.7356  10.8439  11.3786  12.9988  14.3663

          k = 0.0000 0.5407-0.1420 ( 11014 PWs)   bands (ev):

   -36.1071 -36.0841  -3.3930  -0.8149   1.7185   3.3711   4.4580   6.8968
     7.8652   8.1350  10.0283  10.1970  10.9507  12.3829  13.1944

          k =-0.1561 0.4506-0.1420 ( 11010 PWs)   bands (ev):

   -36.1110 -36.0839  -4.0390  -1.4253   2.9056   3.5924   5.7109   6.1890
     6.5638   8.2275   9.3908  10.4763  12.3787  13.1014  13.8666

          k =-0.1561 0.6308-0.1420 ( 11047 PWs)   bands (ev):

   -36.1007 -36.0852  -2.1117   0.1757   0.7095   2.8913   4.8081   5.4322
     6.9494   7.6129   8.1223  10.6911  11.5615  12.6030  13.2230

     the Fermi energy is    10.2310 ev

!    total energy              =     -62.13335630 Ry
     estimated scf accuracy    <          2.0E-10 Ry
     smearing contrib. (-TS)   =      -0.00036382 Ry
     internal energy E=F+TS    =     -62.13299247 Ry

     The total energy is F=E-TS. E is the sum of the following terms:
     one-electron contribution =      -4.86779687 Ry
     hartree contribution      =      11.51427258 Ry
     xc contribution           =     -20.40761251 Ry
     ewald contribution        =     -48.37185567 Ry

     convergence has been achieved in  18 iterations

     Forces acting on atoms (cartesian axes, Ry/au):

     atom    1 type  1   force =    -0.00000000   -0.00000000   -0.22682402
     atom    2 type  1   force =     0.00000000   -0.00000000    0.22682402
     atom    3 type  1   force =    -0.00000000   -0.00000000   -0.10274432
     atom    4 type  1   force =    -0.00000000   -0.00000000    0.10274432
     atom    5 type  2   force =    -0.00000000   -0.00000000   -0.03955723
     atom    6 type  2   force =    -0.00000000   -0.00000000    0.03955723
     The non-local contrib.  to forces
     atom    1 type  1   force =     0.00000000   -0.00000000   -0.18792391
     atom    2 type  1   force =     0.00000000    0.00000000    0.18792391
     atom    3 type  1   force =     0.00000000    0.00000000   -0.14348213
     atom    4 type  1   force =     0.00000000    0.00000000    0.14348213
     atom    5 type  2   force =    -0.00000000   -0.00000000   -0.06063416
     atom    6 type  2   force =     0.00000000    0.00000000    0.06063416
     The ionic contribution  to forces
     atom    1 type  1   force =     0.00000001   -0.00000001   -3.99373259
     atom    2 type  1   force =    -0.00000001    0.00000001    3.99373259
     atom    3 type  1   force =     0.00000004   -0.00000002    1.16200957
     atom    4 type  1   force =    -0.00000004    0.00000002   -1.16200957
     atom    5 type  2   force =     0.00000001   -0.00000001   -2.34516587
     atom    6 type  2   force =    -0.00000001    0.00000001    2.34516587
     The local contribution  to forces
     atom    1 type  1   force =     0.00000000    0.00000000    3.93746350
     atom    2 type  1   force =    -0.00000000   -0.00000000   -3.93746350
     atom    3 type  1   force =    -0.00000001    0.00000000   -1.13248036
     atom    4 type  1   force =     0.00000001   -0.00000000    1.13248036
     atom    5 type  2   force =     0.00000056   -0.00000032    2.36624417
     atom    6 type  2   force =    -0.00000056    0.00000032   -2.36624417
     The core correction contribution to forces
     atom    1 type  1   force =    -0.00000000    0.00000000    0.01738134
     atom    2 type  1   force =     0.00000000   -0.00000000   -0.01738134
     atom    3 type  1   force =    -0.00000000    0.00000000    0.01119492
     atom    4 type  1   force =     0.00000000   -0.00000000   -0.01119492
     atom    5 type  2   force =     0.00000000    0.00000000    0.00000000
     atom    6 type  2   force =     0.00000000    0.00000000    0.00000000
     The Hubbard contrib.    to forces
     atom    1 type  1   force =     0.00000000    0.00000000    0.00000000
     atom    2 type  1   force =     0.00000000    0.00000000    0.00000000
     atom    3 type  1   force =     0.00000000    0.00000000    0.00000000
     atom    4 type  1   force =     0.00000000    0.00000000    0.00000000
     atom    5 type  2   force =     0.00000000    0.00000000    0.00000000
     atom    6 type  2   force =     0.00000000    0.00000000    0.00000000
     The SCF correction term to forces
     atom    1 type  1   force =     0.00000000   -0.00000000   -0.00001236
     atom    2 type  1   force =    -0.00000000    0.00000000    0.00001236
     atom    3 type  1   force =    -0.00000000    0.00000000    0.00001367
     atom    4 type  1   force =     0.00000000   -0.00000000   -0.00001367
     atom    5 type  2   force =     0.00000000   -0.00000000   -0.00000137
     atom    6 type  2   force =    -0.00000000    0.00000000    0.00000137

     Total force =     0.356568     Total SCF correction =     0.000026


     Computing stress (Cartesian axis) and pressure

          total   stress  (Ry/bohr**3)                   (kbar)     P=      709.07
   0.00493570   0.00000000  -0.00000000          726.07        0.00       -0.00
   0.00000000   0.00493570  -0.00000000            0.00      726.07       -0.00
   0.00000000   0.00000000   0.00458903            0.00        0.00      675.07

     Energy error            =      3.8E-01 Ry
     Gradient error          =      2.3E-01 Ry/Bohr
     Cell gradient error     =      2.3E+02 kbar

     number of scf cycles    =   3
     number of bfgs steps    =   2

     enthalpy           old  =     -60.1746057503 Ry
     enthalpy           new  =     -60.5567715386 Ry

     CASE: enthalpy          _new < enthalpy          _old

     new trust radius        =       0.1310021786 bohr
ibrav =      4
 celldm(1) =      5.84769676
 celldm(3) =      2.91890713
Input lattice vectors:
     0.82515005     0.00000000     0.00000000
    -0.41257502     0.71460090    -0.00000000
    -0.00000000    -0.00000000     2.40853636
New lattice vectors in INITIAL alat:
     0.82515005     0.00000000     0.00000000
    -0.41257502     0.71460090     0.00000000
     0.00000000     0.00000000     2.40853636
New lattice vectors in NEW alat (for information only):
     1.00000000     0.00000000     0.00000000
    -0.50000000     0.86602540     0.00000000
     0.00000000     0.00000000     2.91890713
Discrepancy in bohr =     0.000000    0.000000    0.000000
     new conv_thr            =       0.0000000100 Ry

     new unit-cell volume =    505.48170 a.u.^3 (    74.90466 Ang^3 )
     density =      2.79822 g/cm^3

CELL_PARAMETERS (alat=  7.08682836)
   0.825150049   0.000000000   0.000000000
  -0.412575024   0.714600904   0.000000000
   0.000000000   0.000000000   2.408536365

ATOMIC_POSITIONS (crystal)
Si            0.0000000000        0.0000000000        0.2818279513
Si           -0.0000000000       -0.0000000000        0.7181720487
Si            0.3333333300        0.6666666700        0.5806680881
Si            0.6666666700        0.3333333300        0.4193319119
Li            0.3333333300        0.6666666700        0.1109642181
Li            0.6666666700        0.3333333300        0.8890357819



     Writing config-only to output data dir ./output/SiLi.save/
     NEW-OLD atomic charge density approx. for the potential
     extrapolated charge   23.81110, renormalised to   22.00000

     total cpu time spent up to now is       81.6 secs

     Self-consistent Calculation

     iteration #  1     ecut=    80.00 Ry     beta= 0.70
     Davidson diagonalization with overlap
     c_bands:  1 eigenvalues not converged
     c_bands:  1 eigenvalues not converged
     c_bands:  1 eigenvalues not converged
     c_bands:  1 eigenvalues not converged
     ethr =  1.00E-06,  avg # of iterations = 15.6

     total cpu time spent up to now is       85.5 secs

     total energy              =     -59.33583931 Ry
     estimated scf accuracy    <       3.14792981 Ry

     iteration #  2     ecut=    80.00 Ry     beta= 0.70
     Davidson diagonalization with overlap
     ethr =  1.00E-02,  avg # of iterations =  6.2

     total cpu time spent up to now is       87.3 secs

     total energy              =     -60.88984075 Ry
     estimated scf accuracy    <      35.01821466 Ry

     iteration #  3     ecut=    80.00 Ry     beta= 0.70
     Davidson diagonalization with overlap
     ethr =  1.00E-02,  avg # of iterations =  3.4

     total cpu time spent up to now is       88.5 secs

     total energy              =     -62.45690937 Ry
     estimated scf accuracy    <       4.35941099 Ry

     iteration #  4     ecut=    80.00 Ry     beta= 0.70
     Davidson diagonalization with overlap
     ethr =  1.00E-02,  avg # of iterations =  2.0

     total cpu time spent up to now is       89.5 secs

     total energy              =     -62.44904078 Ry
     estimated scf accuracy    <       1.74666279 Ry

     iteration #  5     ecut=    80.00 Ry     beta= 0.70
     Davidson diagonalization with overlap
     ethr =  7.94E-03,  avg # of iterations =  1.1

     total cpu time spent up to now is       90.4 secs

     total energy              =     -62.35322682 Ry
     estimated scf accuracy    <       1.19570393 Ry

     iteration #  6     ecut=    80.00 Ry     beta= 0.70
     Davidson diagonalization with overlap
     ethr =  5.44E-03,  avg # of iterations =  1.6

     total cpu time spent up to now is       91.4 secs

     total energy              =     -62.33404345 Ry
     estimated scf accuracy    <       0.59587339 Ry

     iteration #  7     ecut=    80.00 Ry     beta= 0.70
     Davidson diagonalization with overlap
     ethr =  2.71E-03,  avg # of iterations =  2.0

     total cpu time spent up to now is       92.4 secs

     total energy              =     -62.34629996 Ry
     estimated scf accuracy    <       0.26252849 Ry

     iteration #  8     ecut=    80.00 Ry     beta= 0.70
     Davidson diagonalization with overlap
     ethr =  1.19E-03,  avg # of iterations =  1.6

     total cpu time spent up to now is       93.3 secs

     total energy              =     -62.35218223 Ry
     estimated scf accuracy    <       0.18925991 Ry

     iteration #  9     ecut=    80.00 Ry     beta= 0.70
     Davidson diagonalization with overlap
     ethr =  8.60E-04,  avg # of iterations =  1.0

     total cpu time spent up to now is       94.2 secs

     total energy              =     -62.35948617 Ry
     estimated scf accuracy    <       0.18432667 Ry

     iteration # 10     ecut=    80.00 Ry     beta= 0.70
     Davidson diagonalization with overlap
     ethr =  8.38E-04,  avg # of iterations =  1.0

     total cpu time spent up to now is       95.1 secs

     total energy              =     -62.32792190 Ry
     estimated scf accuracy    <       0.21813594 Ry

     iteration # 11     ecut=    80.00 Ry     beta= 0.70
     Davidson diagonalization with overlap
     ethr =  8.38E-04,  avg # of iterations =  1.6

     total cpu time spent up to now is       96.0 secs

     total energy              =     -62.33561852 Ry
     estimated scf accuracy    <       0.02338312 Ry

     iteration # 12     ecut=    80.00 Ry     beta= 0.70
     Davidson diagonalization with overlap
     ethr =  1.06E-04,  avg # of iterations =  6.1

     total cpu time spent up to now is       97.1 secs

     total energy              =     -62.33758709 Ry
     estimated scf accuracy    <       0.00350814 Ry

     iteration # 13     ecut=    80.00 Ry     beta= 0.70
     Davidson diagonalization with overlap
     ethr =  1.59E-05,  avg # of iterations =  4.1

     total cpu time spent up to now is       98.1 secs

     total energy              =     -62.33744215 Ry
     estimated scf accuracy    <       0.00609690 Ry

     iteration # 14     ecut=    80.00 Ry     beta= 0.70
     Davidson diagonalization with overlap
     ethr =  1.59E-05,  avg # of iterations =  1.0

     total cpu time spent up to now is       99.0 secs

     total energy              =     -62.33892123 Ry
     estimated scf accuracy    <       0.00381511 Ry

     iteration # 15     ecut=    80.00 Ry     beta= 0.70
     Davidson diagonalization with overlap
     ethr =  1.59E-05,  avg # of iterations =  2.2

     total cpu time spent up to now is      100.0 secs

     total energy              =     -62.33840047 Ry
     estimated scf accuracy    <       0.03203497 Ry

     iteration # 16     ecut=    80.00 Ry     beta= 0.70
     Davidson diagonalization with overlap
     ethr =  1.59E-05,  avg # of iterations =  1.0

     total cpu time spent up to now is      100.9 secs

     total energy              =     -62.33667921 Ry
     estimated scf accuracy    <       0.01686638 Ry

     iteration # 17     ecut=    80.00 Ry     beta= 0.70
     Davidson diagonalization with overlap
     ethr =  1.59E-05,  avg # of iterations =  1.9

     total cpu time spent up to now is      101.9 secs

     total energy              =     -62.33699505 Ry
     estimated scf accuracy    <       0.00270634 Ry

     iteration # 18     ecut=    80.00 Ry     beta= 0.70
     Davidson diagonalization with overlap
     ethr =  1.23E-05,  avg # of iterations =  1.0

     total cpu time spent up to now is      102.8 secs

     total energy              =     -62.33696611 Ry
     estimated scf accuracy    <       0.00067115 Ry

     iteration # 19     ecut=    80.00 Ry     beta= 0.70
     Davidson diagonalization with overlap
     ethr =  3.05E-06,  avg # of iterations =  3.6

     total cpu time spent up to now is      103.8 secs

     total energy              =     -62.33702337 Ry
     estimated scf accuracy    <       0.00001604 Ry

     iteration # 20     ecut=    80.00 Ry     beta= 0.70
     Davidson diagonalization with overlap
     ethr =  7.29E-08,  avg # of iterations =  4.2

     total cpu time spent up to now is      105.0 secs

     total energy              =     -62.33703237 Ry
     estimated scf accuracy    <       0.00000172 Ry

     iteration # 21     ecut=    80.00 Ry     beta= 0.70
     Davidson diagonalization with overlap
     ethr =  7.80E-09,  avg # of iterations =  1.7

     total cpu time spent up to now is      105.9 secs

     total energy              =     -62.33703218 Ry
     estimated scf accuracy    <       0.00000171 Ry

     iteration # 22     ecut=    80.00 Ry     beta= 0.70
     Davidson diagonalization with overlap
     ethr =  7.75E-09,  avg # of iterations =  1.3

     total cpu time spent up to now is      106.8 secs

     total energy              =     -62.33703228 Ry
     estimated scf accuracy    <       0.00000007 Ry

     iteration # 23     ecut=    80.00 Ry     beta= 0.70
     Davidson diagonalization with overlap
     ethr =  3.04E-10,  avg # of iterations =  3.2

     total cpu time spent up to now is      107.9 secs

     End of self-consistent calculation

          k = 0.0000 0.0000 0.0000 ( 10985 PWs)   bands (ev):

   -37.1683 -37.1305  -6.3994  -3.8537   0.2021   4.4369   5.9536  10.4080
    10.8920  10.8920  10.9364  10.9364  12.9726  12.9726  13.7725

          k = 0.0000 0.0000 0.1384 ( 11028 PWs)   bands (ev):

   -37.1683 -37.1305  -6.3990  -3.8575   0.2505   3.9445   7.1081   9.0820
    10.8923  10.8923  10.9387  10.9387  12.9634  12.9634  14.8776

          k = 0.0000 0.1749 0.0000 ( 11007 PWs)   bands (ev):

   -37.1652 -37.1299  -6.0892  -3.5527   0.4821   4.6834   6.1601   7.9360
     9.2324   9.8195  10.5747  11.1227  11.8012  13.6307  13.9045

          k = 0.0000 0.1749 0.1384 ( 10978 PWs)   bands (ev):

   -37.1652 -37.1299  -6.0888  -3.5568   0.5334   4.1765   7.3040   7.9458
     9.2344   9.2935   9.8673  11.1141  11.7263  13.6212  14.2525

          k = 0.0000 0.3498 0.0000 ( 11011 PWs)   bands (ev):

   -37.1571 -37.1290  -5.1628  -2.6564   1.3031   4.4317   5.4012   6.6299
     6.7742   7.8978   9.9968  10.0623  10.5988  12.3621  13.6838

          k = 0.0000 0.3498 0.1384 ( 11016 PWs)   bands (ev):

   -37.1571 -37.1290  -5.1623  -2.6617   1.3646   4.4297   4.8520   6.6528
     7.8485   7.9002   9.9244   9.9824  10.1374  11.7353  13.4834

          k = 0.0000 0.5248 0.0000 ( 11020 PWs)   bands (ev):

   -37.1478 -37.1294  -3.6339  -1.2056   1.1835   2.6743   3.7426   6.4838
     6.7998   7.0805   8.5072   9.2232   9.9526  12.0041  12.0650

          k = 0.0000 0.5248 0.1384 ( 11014 PWs)   bands (ev):

   -37.1478 -37.1294  -3.6330  -1.2139   1.1898   2.7496   3.7238   5.8890
     7.0830   7.1358   9.1560   9.2067  10.2312  11.0894  11.7894

          k = 0.0000-0.6997 0.0000 ( 11016 PWs)   bands (ev):

   -37.1429 -37.1306  -1.5770  -1.5111   0.6001   1.3341   4.3891   5.0705
     6.8064   7.3126   8.8154   8.9589   9.7790  11.0663  11.0762

          k = 0.0000-0.6997 0.1384 ( 11042 PWs)   bands (ev):

   -37.1429 -37.1306  -1.5740  -1.5119   0.5829   1.3364   4.5567   5.0729
     6.7614   6.8091   8.9416   9.0674   9.7678  11.1678  11.7875

          k = 0.1515 0.2624 0.0000 ( 10984 PWs)   bands (ev):

   -37.1596 -37.1292  -5.4708  -2.9537   1.0351   5.1667   6.2786   6.3590
     6.5585   8.3232   8.8578  11.1181  12.1036  12.5699  13.9981

          k = 0.1515 0.2624 0.1384 ( 10998 PWs)   bands (ev):

   -37.1596 -37.1292  -5.4704  -2.9585   1.0922   4.6328   6.2820   6.3582
     7.6682   8.3115   8.8840   9.9001  12.2332  12.6162  13.8543

          k = 0.1515 0.4373 0.0000 ( 11019 PWs)   bands (ev):

   -37.1507 -37.1290  -4.2427  -1.7722   2.0453   3.0644   4.9462   5.6007
     6.1305   7.0727   7.6933   9.5262  11.1866  12.3437  13.0797

          k = 0.1515 0.4373 0.1384 ( 11010 PWs)   bands (ev):

   -37.1507 -37.1290  -4.2420  -1.7788   2.1132   3.0693   4.9215   5.4005
     5.7679   7.4462   8.1978  10.0211  10.5350  11.9367  12.5288

          k = 0.1515 0.6122 0.0000 ( 11014 PWs)   bands (ev):

   -37.1429 -37.1305  -2.4264  -0.3315   0.3043   2.3846   3.8038   4.8154
     5.9607   7.1225   7.3926   8.9426  10.6193  11.2699  11.9674

          k = 0.1515 0.6122 0.1384 ( 11047 PWs)   bands (ev):

   -37.1429 -37.1305  -2.4251  -0.3387   0.3028   2.3857   3.8885   4.8171
     6.0068   6.6546   7.3791   9.5867  10.3275  11.6626  12.2168

          k = 0.3030 0.5248 0.0000 ( 11030 PWs)   bands (ev):

   -37.1430 -37.1305  -2.7245  -0.3456   1.9138   2.1544   3.4628   4.2175
     5.0967   7.1551   7.3831   8.5712   9.6915  11.5661  12.7964

          k = 0.3030 0.5248 0.1384 ( 11037 PWs)   bands (ev):

   -37.1430 -37.1305  -2.7236  -0.3543   1.9247   2.1531   3.5269   4.1911
     5.1254   6.5548   7.8302   8.5527  10.4318  11.2054  12.4211

          k = 0.3030 0.6997 0.0000 ( 11056 PWs)   bands (ev):

   -37.1380 -37.1329  -0.6805  -0.6161   1.4307   1.4963   2.4710   4.1093
     5.2645   6.2661   7.9160   7.9483  10.1599  10.7789  11.5583

          k = 0.3030 0.6997 0.1384 ( 11069 PWs)   bands (ev):

   -37.1380 -37.1329  -0.6770  -0.6167   1.4079   1.4983   2.4758   4.1061
     5.4731   6.2548   7.3600   8.0317  10.0634  11.1105  12.2880

          k = 0.0000 0.1749-0.1384 ( 10978 PWs)   bands (ev):

   -37.1652 -37.1299  -6.0888  -3.5568   0.5332   4.1771   7.3188   7.9368
     9.2081   9.2347   9.9658  11.1113  11.7322  13.6411  14.0067

          k = 0.0000 0.3498-0.1384 ( 11016 PWs)   bands (ev):

   -37.1571 -37.1290  -5.1623  -2.6612   1.3617   4.4279   4.8603   6.6615
     7.8842   7.9003   9.6521   9.9811  10.2072  12.1382  13.2106

          k = 0.0000 0.5248-0.1384 ( 11014 PWs)   bands (ev):

   -37.1478 -37.1294  -3.6333  -1.2115   1.1884   2.7208   3.7529   5.9444
     7.0831   7.1027   9.1007   9.2062  10.0278  11.2147  12.1746

          k =-0.1515 0.4373-0.1384 ( 11010 PWs)   bands (ev):

   -37.1507 -37.1290  -4.2421  -1.7781   2.1087   3.0668   4.9317   5.4176
     5.7550   7.4286   8.3595   9.4124  11.2012  11.7885  12.5279

          k =-0.1515 0.6122-0.1384 ( 11047 PWs)   bands (ev):

   -37.1429 -37.1305  -2.4256  -0.3323   0.2974   2.3745   3.8960   4.8217
     6.0726   6.6123   7.3394   9.5787  10.3714  11.4427  11.9728

     the Fermi energy is     9.2616 ev

!    total energy              =     -62.33703229 Ry
     estimated scf accuracy    <          2.1E-09 Ry
     smearing contrib. (-TS)   =      -0.00082997 Ry
     internal energy E=F+TS    =     -62.33620231 Ry

     The total energy is F=E-TS. E is the sum of the following terms:
     one-electron contribution =      -5.49467377 Ry
     hartree contribution      =      11.00489158 Ry
     xc contribution           =     -20.06053773 Ry
     ewald contribution        =     -47.78588239 Ry

     convergence has been achieved in  23 iterations

     Forces acting on atoms (cartesian axes, Ry/au):

     atom    1 type  1   force =     0.00000000    0.00000000   -0.12104828
     atom    2 type  1   force =    -0.00000000   -0.00000000    0.12104828
     atom    3 type  1   force =     0.00000000    0.00000000   -0.02780115
     atom    4 type  1   force =     0.00000000    0.00000000    0.02780115
     atom    5 type  2   force =     0.00000000    0.00000000   -0.03404772
     atom    6 type  2   force =     0.00000000    0.00000000    0.03404772
     The non-local contrib.  to forces
     atom    1 type  1   force =     0.00000000    0.00000000   -0.10043109
     atom    2 type  1   force =     0.00000000   -0.00000000    0.10043109
     atom    3 type  1   force =     0.00000000    0.00000000   -0.06126879
     atom    4 type  1   force =     0.00000000    0.00000000    0.06126879
     atom    5 type  2   force =    -0.00000000    0.00000000   -0.06527478
     atom    6 type  2   force =    -0.00000000   -0.00000000    0.06527478
     The ionic contribution  to forces
     atom    1 type  1   force =     0.00000001   -0.00000000   -3.49403338
     atom    2 type  1   force =    -0.00000001    0.00000000    3.49403338
     atom    3 type  1   force =     0.00000004   -0.00000002    1.08426079
     atom    4 type  1   force =    -0.00000004    0.00000002   -1.08426079
     atom    5 type  2   force =     0.00000001   -0.00000001   -2.11339823
     atom    6 type  2   force =    -0.00000001    0.00000001    2.11339823
     The local contribution  to forces
     atom    1 type  1   force =    -0.00000000    0.00000000    3.46247120
     atom    2 type  1   force =     0.00000000   -0.00000000   -3.46247120
     atom    3 type  1   force =    -0.00000000    0.00000000   -1.05635228
     atom    4 type  1   force =     0.00000000   -0.00000000    1.05635228
     atom    5 type  2   force =     0.00000057   -0.00000033    2.14463539
     atom    6 type  2   force =    -0.00000057    0.00000033   -2.14463539
     The core correction contribution to forces
     atom    1 type  1   force =    -0.00000000    0.00000000    0.01100592
     atom    2 type  1   force =     0.00000000   -0.00000000   -0.01100592
     atom    3 type  1   force =    -0.00000000    0.00000000    0.00551610
     atom    4 type  1   force =     0.00000000   -0.00000000   -0.00551610
     atom    5 type  2   force =     0.00000000    0.00000000    0.00000000
     atom    6 type  2   force =     0.00000000    0.00000000    0.00000000
     The Hubbard contrib.    to forces
     atom    1 type  1   force =     0.00000000    0.00000000    0.00000000
     atom    2 type  1   force =     0.00000000    0.00000000    0.00000000
     atom    3 type  1   force =     0.00000000    0.00000000    0.00000000
     atom    4 type  1   force =     0.00000000    0.00000000    0.00000000
     atom    5 type  2   force =     0.00000000    0.00000000    0.00000000
     atom    6 type  2   force =     0.00000000    0.00000000    0.00000000
     The SCF correction term to forces
     atom    1 type  1   force =     0.00000000   -0.00000000   -0.00006094
     atom    2 type  1   force =    -0.00000000    0.00000000    0.00006094
     atom    3 type  1   force =    -0.00000000    0.00000000    0.00004303
     atom    4 type  1   force =     0.00000000   -0.00000000   -0.00004303
     atom    5 type  2   force =     0.00000000   -0.00000000   -0.00001011
     atom    6 type  2   force =    -0.00000000    0.00000000    0.00001011

     Total force =     0.182125     Total SCF correction =     0.000106


     Computing stress (Cartesian axis) and pressure

          total   stress  (Ry/bohr**3)                   (kbar)     P=      443.06
   0.00298420  -0.00000000   0.00000000          438.99       -0.00        0.00
  -0.00000000   0.00298420   0.00000000           -0.00      438.99        0.00
  -0.00000000  -0.00000000   0.00306717           -0.00       -0.00      451.20

     Energy error            =      6.2E-02 Ry
     Gradient error          =      1.2E-01 Ry/Bohr
     Cell gradient error     =      6.1E+01 kbar

     number of scf cycles    =   4
     number of bfgs steps    =   3

     enthalpy           old  =     -60.5567715386 Ry
     enthalpy           new  =     -60.6189348912 Ry

     CASE: enthalpy          _new < enthalpy          _old

     new trust radius        =       0.1431597225 bohr
ibrav =      4
 celldm(1) =      5.79947247
 celldm(3) =      2.91600238
Input lattice vectors:
     0.81834527    -0.00000000    -0.00000000
    -0.40917264     0.70870779    -0.00000000
    -0.00000000    -0.00000000     2.38629676
New lattice vectors in INITIAL alat:
     0.81834527     0.00000000     0.00000000
    -0.40917264     0.70870779     0.00000000
     0.00000000     0.00000000     2.38629676
New lattice vectors in NEW alat (for information only):
     1.00000000     0.00000000     0.00000000
    -0.50000000     0.86602540     0.00000000
     0.00000000     0.00000000     2.91600238
Discrepancy in bohr =     0.000000    0.000000    0.000000
     new conv_thr            =       0.0000000100 Ry

     new unit-cell volume =    492.58817 a.u.^3 (    72.99404 Ang^3 )
     density =      2.87147 g/cm^3

CELL_PARAMETERS (alat=  7.08682836)
   0.818345271   0.000000000   0.000000000
  -0.409172635   0.708707793   0.000000000
   0.000000000   0.000000000   2.386296759

ATOMIC_POSITIONS (crystal)
Si            0.0000000000        0.0000000000        0.2734407759
Si           -0.0000000000       -0.0000000000        0.7265592241
Si            0.3333333300        0.6666666700        0.5780949537
Si            0.6666666700        0.3333333300        0.4219050463
Li            0.3333333300        0.6666666700        0.1090052394
Li            0.6666666700        0.3333333300        0.8909947606



     Writing config-only to output data dir ./output/SiLi.save/
     NEW-OLD atomic charge density approx. for the potential
     extrapolated charge   21.42445, renormalised to   22.00000

     total cpu time spent up to now is      111.7 secs

     Self-consistent Calculation

     iteration #  1     ecut=    80.00 Ry     beta= 0.70
     Davidson diagonalization with overlap
     c_bands:  1 eigenvalues not converged
     ethr =  1.00E-06,  avg # of iterations = 11.5

     total cpu time spent up to now is      114.5 secs

     total energy              =     -62.20098692 Ry
     estimated scf accuracy    <       0.13007838 Ry

     iteration #  2     ecut=    80.00 Ry     beta= 0.70
     Davidson diagonalization with overlap
     ethr =  5.91E-04,  avg # of iterations =  5.7

     total cpu time spent up to now is      115.9 secs

     total energy              =     -61.92156434 Ry
     estimated scf accuracy    <       6.61294478 Ry

     iteration #  3     ecut=    80.00 Ry     beta= 0.70
     Davidson diagonalization with overlap
     ethr =  5.91E-04,  avg # of iterations =  4.6

     total cpu time spent up to now is      117.3 secs

     total energy              =     -62.32828692 Ry
     estimated scf accuracy    <       0.14374299 Ry

     iteration #  4     ecut=    80.00 Ry     beta= 0.70
     Davidson diagonalization with overlap
     ethr =  5.91E-04,  avg # of iterations =  1.4

     total cpu time spent up to now is      118.2 secs

     total energy              =     -62.32693377 Ry
     estimated scf accuracy    <       0.04164417 Ry

     iteration #  5     ecut=    80.00 Ry     beta= 0.70
     Davidson diagonalization with overlap
     ethr =  1.89E-04,  avg # of iterations =  2.7

     total cpu time spent up to now is      119.2 secs

     total energy              =     -62.33019282 Ry
     estimated scf accuracy    <       0.00171611 Ry

     iteration #  6     ecut=    80.00 Ry     beta= 0.70
     Davidson diagonalization with overlap
     ethr =  7.80E-06,  avg # of iterations =  8.3

     total cpu time spent up to now is      120.7 secs

     total energy              =     -62.33069184 Ry
     estimated scf accuracy    <       0.00005883 Ry

     iteration #  7     ecut=    80.00 Ry     beta= 0.70
     Davidson diagonalization with overlap
     ethr =  2.67E-07,  avg # of iterations =  3.6

     total cpu time spent up to now is      121.8 secs

     total energy              =     -62.33065959 Ry
     estimated scf accuracy    <       0.00043871 Ry

     iteration #  8     ecut=    80.00 Ry     beta= 0.70
     Davidson diagonalization with overlap
     ethr =  2.67E-07,  avg # of iterations =  2.5

     total cpu time spent up to now is      122.8 secs

     total energy              =     -62.33070973 Ry
     estimated scf accuracy    <       0.00000981 Ry

     iteration #  9     ecut=    80.00 Ry     beta= 0.70
     Davidson diagonalization with overlap
     ethr =  4.46E-08,  avg # of iterations =  1.7

     total cpu time spent up to now is      123.6 secs

     total energy              =     -62.33071069 Ry
     estimated scf accuracy    <       0.00000032 Ry

     iteration # 10     ecut=    80.00 Ry     beta= 0.70
     Davidson diagonalization with overlap
     ethr =  1.46E-09,  avg # of iterations =  3.4

     total cpu time spent up to now is      124.7 secs

     total energy              =     -62.33071078 Ry
     estimated scf accuracy    <       0.00000002 Ry

     iteration # 11     ecut=    80.00 Ry     beta= 0.70
     Davidson diagonalization with overlap
     ethr =  8.83E-11,  avg # of iterations =  3.3

     total cpu time spent up to now is      125.7 secs

     End of self-consistent calculation

          k = 0.0000 0.0000 0.0000 ( 10985 PWs)   bands (ev):

   -36.7811 -36.7353  -6.1862  -3.5647   0.2507   4.5395   6.1043  10.7326
    11.3814  11.3814  11.6203  11.6203  13.5168  13.5168  14.0361

          k = 0.0000 0.0000 0.1397 ( 11028 PWs)   bands (ev):

[...]
        k(   14) = (   0.1920045   0.5542693   0.1088215), wk =   0.1250000
        k(   15) = (   0.1920045   0.7759770   0.0000000), wk =   0.1250000
        k(   16) = (   0.1920045   0.7759770   0.1088215), wk =   0.1250000
        k(   17) = (   0.3840090   0.6651231   0.0000000), wk =   0.0625000
        k(   18) = (   0.3840090   0.6651231   0.1088215), wk =   0.1250000
        k(   19) = (   0.3840090   0.8868309   0.0000000), wk =   0.0625000
        k(   20) = (   0.3840090   0.8868309   0.1088215), wk =   0.1250000
        k(   21) = (   0.0000000   0.2217077  -0.1088215), wk =   0.0625000
        k(   22) = (   0.0000000   0.4434154  -0.1088215), wk =   0.0625000
        k(   23) = (   0.0000000   0.6651231  -0.1088215), wk =   0.0625000
        k(   24) = (  -0.1920045   0.5542693  -0.1088215), wk =   0.1250000
        k(   25) = (  -0.1920045   0.7759770  -0.1088215), wk =   0.1250000

     Dense  grid:    38577 G-vectors     FFT dimensions: (  27,  27, 125)

     Estimated max dynamical RAM per process >      19.63 MB

     Estimated total dynamical RAM >     157.04 MB

     Initial potential from superposition of free atoms

     starting charge      21.9884, renormalised to      22.0000
     Starting wfcs are   20 randomized atomic wfcs

     total cpu time spent up to now is      429.9 secs

     Self-consistent Calculation

     iteration #  1     ecut=    80.00 Ry     beta= 0.70
     Davidson diagonalization with overlap
     c_bands:  4 eigenvalues not converged
     c_bands:  3 eigenvalues not converged
     c_bands:  1 eigenvalues not converged
     c_bands:  2 eigenvalues not converged
     c_bands:  1 eigenvalues not converged
     c_bands:  1 eigenvalues not converged
     c_bands:  1 eigenvalues not converged
     c_bands:  1 eigenvalues not converged
     c_bands:  2 eigenvalues not converged
     c_bands:  1 eigenvalues not converged
     c_bands:  1 eigenvalues not converged
     c_bands:  1 eigenvalues not converged
     c_bands:  1 eigenvalues not converged
     c_bands:  1 eigenvalues not converged
     c_bands:  2 eigenvalues not converged
     c_bands:  1 eigenvalues not converged
     c_bands:  1 eigenvalues not converged
     c_bands:  1 eigenvalues not converged
     c_bands:  1 eigenvalues not converged
     c_bands:  1 eigenvalues not converged
     c_bands:  2 eigenvalues not converged
     c_bands:  1 eigenvalues not converged
     c_bands:  1 eigenvalues not converged
     c_bands:  1 eigenvalues not converged
     ethr =  1.00E-06,  avg # of iterations = 20.0

     total cpu time spent up to now is      431.8 secs

     total energy              =     -59.96565703 Ry
     estimated scf accuracy    <       2.87865559 Ry

     iteration #  2     ecut=    80.00 Ry     beta= 0.70
     Davidson diagonalization with overlap
     ethr =  1.00E-02,  avg # of iterations =  7.2

     total cpu time spent up to now is      432.6 secs

     total energy              =     -57.21308300 Ry
     estimated scf accuracy    <      98.63630629 Ry

     iteration #  3     ecut=    80.00 Ry     beta= 0.70
     Davidson diagonalization with overlap
     ethr =  1.00E-02,  avg # of iterations =  5.2

     total cpu time spent up to now is      433.2 secs

     total energy              =     -62.02918366 Ry
     estimated scf accuracy    <       5.98098284 Ry

     iteration #  4     ecut=    80.00 Ry     beta= 0.70
     Davidson diagonalization with overlap
     ethr =  1.00E-02,  avg # of iterations =  2.3

     total cpu time spent up to now is      433.7 secs

     total energy              =     -62.27673808 Ry
     estimated scf accuracy    <       0.72672147 Ry

     iteration #  5     ecut=    80.00 Ry     beta= 0.70
     Davidson diagonalization with overlap
     ethr =  3.30E-03,  avg # of iterations =  2.0

     total cpu time spent up to now is      434.1 secs

     total energy              =     -62.27119247 Ry
     estimated scf accuracy    <       0.17073752 Ry

     iteration #  6     ecut=    80.00 Ry     beta= 0.70
     Davidson diagonalization with overlap
     ethr =  7.76E-04,  avg # of iterations =  4.4

     total cpu time spent up to now is      434.6 secs

     total energy              =     -62.31058435 Ry
     estimated scf accuracy    <       0.10592006 Ry

     iteration #  7     ecut=    80.00 Ry     beta= 0.70
     Davidson diagonalization with overlap
     ethr =  4.81E-04,  avg # of iterations =  1.1

     total cpu time spent up to now is      435.0 secs

     total energy              =     -62.30855535 Ry
     estimated scf accuracy    <       0.03212641 Ry

     iteration #  8     ecut=    80.00 Ry     beta= 0.70
     Davidson diagonalization with overlap
     ethr =  1.46E-04,  avg # of iterations =  2.3

     total cpu time spent up to now is      435.4 secs

     total energy              =     -62.31085843 Ry
     estimated scf accuracy    <       0.00039686 Ry

     iteration #  9     ecut=    80.00 Ry     beta= 0.70
     Davidson diagonalization with overlap
     c_bands:  1 eigenvalues not converged
     ethr =  1.80E-06,  avg # of iterations =  9.0

     total cpu time spent up to now is      436.1 secs

     total energy              =     -62.31091542 Ry
     estimated scf accuracy    <       0.00041967 Ry

     iteration # 10     ecut=    80.00 Ry     beta= 0.70
     Davidson diagonalization with overlap
     ethr =  1.80E-06,  avg # of iterations =  1.8

     total cpu time spent up to now is      436.5 secs

     total energy              =     -62.31097879 Ry
     estimated scf accuracy    <       0.00022060 Ry

     iteration # 11     ecut=    80.00 Ry     beta= 0.70
     Davidson diagonalization with overlap
     ethr =  1.00E-06,  avg # of iterations =  1.0

     total cpu time spent up to now is      436.9 secs

     total energy              =     -62.31098748 Ry
     estimated scf accuracy    <       0.00001211 Ry

     iteration # 12     ecut=    80.00 Ry     beta= 0.70
     Davidson diagonalization with overlap
     ethr =  5.51E-08,  avg # of iterations =  1.7

     total cpu time spent up to now is      437.2 secs

     total energy              =     -62.31098757 Ry
     estimated scf accuracy    <       0.00000361 Ry

     iteration # 13     ecut=    80.00 Ry     beta= 0.70
     Davidson diagonalization with overlap
     ethr =  1.64E-08,  avg # of iterations =  2.1

     total cpu time spent up to now is      437.6 secs

     total energy              =     -62.31098793 Ry
     estimated scf accuracy    <       0.00000002 Ry

     iteration # 14     ecut=    80.00 Ry     beta= 0.70
     Davidson diagonalization with overlap
     ethr =  7.80E-11,  avg # of iterations =  5.0

     total cpu time spent up to now is      438.2 secs

     total energy              =     -62.31098795 Ry
     estimated scf accuracy    <       0.00000030 Ry

     iteration # 15     ecut=    80.00 Ry     beta= 0.70
     Davidson diagonalization with overlap
     ethr =  7.80E-11,  avg # of iterations =  2.0

     total cpu time spent up to now is      438.6 secs

     total energy              =     -62.31098795 Ry
     estimated scf accuracy    <       0.00000005 Ry

     iteration # 16     ecut=    80.00 Ry     beta= 0.70
     Davidson diagonalization with overlap
     ethr =  7.80E-11,  avg # of iterations =  1.8

     total cpu time spent up to now is      439.0 secs

     total energy              =     -62.31098795 Ry
     estimated scf accuracy    <          1.4E-10 Ry

     iteration # 17     ecut=    80.00 Ry     beta= 0.70
     Davidson diagonalization with overlap
     ethr =  6.44E-13,  avg # of iterations =  4.6

     total cpu time spent up to now is      439.5 secs

     total energy              =     -62.31098795 Ry
     estimated scf accuracy    <          1.6E-10 Ry

     iteration # 18     ecut=    80.00 Ry     beta= 0.70
     Davidson diagonalization with overlap
     ethr =  6.44E-13,  avg # of iterations =  1.6

     total cpu time spent up to now is      439.9 secs

     End of self-consistent calculation

          k = 0.0000 0.0000 0.0000 (  4885 PWs)   bands (ev):

   -33.1889 -32.9619  -4.7488  -3.5040  -1.3680   1.3296   4.5217   8.3546
     9.8519  13.6488  16.5262  22.5207  24.3053  24.3060  24.3977

          k = 0.0000 0.0000 0.1088 (  4886 PWs)   bands (ev):

   -33.1889 -32.9619  -4.7490  -3.5033  -1.3698   1.3307   4.5402   8.0933
    10.4706  12.7889  17.6144  20.9504  24.3062  24.3087  24.4008

          k = 0.0000 0.2217 0.0000 (  4873 PWs)   bands (ev):

   -33.1602 -32.9490  -4.2438  -3.0039  -0.8763   1.8095   4.9618   8.7649
    10.1161  14.0740  16.6134  18.9318  19.8525  21.3587  21.3855

          k = 0.0000 0.2217 0.1088 (  4871 PWs)   bands (ev):

   -33.1602 -32.9490  -4.2440  -3.0031  -0.8779   1.8096   4.9867   8.4521
    10.8011  13.1428  17.6549  18.9596  19.9208  20.9910  21.3878

          k = 0.0000 0.4434 0.0000 (  4839 PWs)   bands (ev):

   -33.0879 -32.9206  -2.7378  -1.5128   0.5880   3.2302   6.2658   9.9052
    10.8355  12.8024  13.9353  15.5370  15.8153  17.3400  18.4894

          k = 0.0000 0.4434 0.1088 (  4843 PWs)   bands (ev):

   -33.0879 -32.9206  -2.7380  -1.5121   0.5872   3.2251   6.3173   9.4438
    11.5004  13.1177  13.8325  14.3283  15.9284  17.7700  19.2712

          k = 0.0000 0.6651 0.0000 (  4824 PWs)   bands (ev):

   -33.0075 -32.8996  -0.2586   0.9397   2.9826   5.4557   7.4785   8.4174
     8.7301  10.4874  12.0553  12.2339  13.8488  15.9575  17.6593

          k = 0.0000 0.6651 0.1088 (  4825 PWs)   bands (ev):

   -33.0075 -32.8996  -0.2587   0.9396   2.9852   5.4368   7.4795   8.5029
     8.7937  10.2373  11.5922  12.9128  14.0971  15.9874  16.5768

          k = 0.0000-0.8868 0.0000 (  4814 PWs)   bands (ev):

   -32.9676 -32.8974   3.0669   3.1985   4.1888   4.3411   6.0075   6.8083
     8.6796   9.0518  10.8762  12.0571  14.4111  14.5673  16.8249

          k = 0.0000-0.8868 0.1088 (  4806 PWs)   bands (ev):

   -32.9676 -32.8974   3.0674   3.1971   4.1964   4.3353   5.9987   6.8357
     8.5383   9.1478  11.1284  11.8524  13.7527  15.2371  17.0778

          k = 0.1920 0.3326 0.0000 (  4851 PWs)   bands (ev):

   -33.1096 -32.9284  -3.2383  -2.0082   0.1018   2.7604   5.8351   9.5589
    10.6366  14.6589  15.7164  16.3108  16.9644  17.1038  17.6806

          k = 0.1920 0.3326 0.1088 (  4857 PWs)   bands (ev):

   -33.1096 -32.9284  -3.2385  -2.0074   0.1003   2.7584   5.8739   9.1378
    11.4615  13.6537  16.0516  16.2517  16.8379  17.0883  18.4982

          k = 0.1920 0.5543 0.0000 (  4832 PWs)   bands (ev):

   -33.0327 -32.9042  -1.2455  -0.0357   2.0345   4.6158   7.5340  10.0907
    11.0563  11.3804  12.2500  13.3841  14.1234  15.4143  16.0209

          k = 0.1920 0.5543 0.1088 (  4830 PWs)   bands (ev):

   -33.0327 -32.9042  -1.2457  -0.0353   2.0349   4.6047   7.6155  10.0946
    10.4379  11.5904  12.9147  13.8319  13.9301  14.8609  15.5376

          k = 0.1920 0.7760 0.0000 (  4811 PWs)   bands (ev):

   -32.9685 -32.8967   1.6951   2.8658   4.7952   5.5038   6.5785   7.7475
     8.6977   9.9919  11.1712  12.5336  13.2636  13.9771  14.8552

          k = 0.1920 0.7760 0.1088 (  4822 PWs)   bands (ev):

   -32.9685 -32.8967   1.6951   2.8652   4.7992   5.5037   6.5825   7.6997
     8.6928  10.2339  11.1005  12.1279  13.1353  14.3720  15.0288

          k = 0.3840 0.6651 0.0000 (  4819 PWs)   bands (ev):

   -32.9693 -32.8960   1.2105   2.3915   4.3933   6.7529   8.6372   8.9944
     9.7321   9.9335  10.2453  11.5195  12.1960  13.6597  14.0019

          k = 0.3840 0.6651 0.1088 (  4841 PWs)   bands (ev):

   -32.9693 -32.8960   1.2103   2.3920   4.3943   6.7384   8.6353   8.9937
     9.8470  10.0067  10.1973  11.2156  12.4472  13.0877  14.5684

          k = 0.3840 0.8868 0.0000 (  4810 PWs)   bands (ev):

   -32.9325 -32.9031   4.4976   4.6350   5.5903   5.7580   7.3378   7.9801
     8.4085   9.0900  10.5498  10.7655  11.6778  12.4242  13.3671

          k = 0.3840 0.8868 0.1088 (  4827 PWs)   bands (ev):

   -32.9325 -32.9031   4.4982   4.6333   5.5975   5.7530   7.3264   7.9889
     8.4274   9.0941  10.4185  10.7422  11.8692  12.5901  13.3185

          k = 0.0000 0.2217-0.1088 (  4871 PWs)   bands (ev):

   -33.1602 -32.9490  -4.2440  -3.0031  -0.8781   1.8099   4.9859   8.4530
    10.8081  13.1191  17.8269  18.9315  19.5787  21.0098  21.3877

          k = 0.0000 0.4434-0.1088 (  4843 PWs)   bands (ev):

   -33.0879 -32.9206  -2.7381  -1.5118   0.5861   3.2285   6.3088   9.4346
    11.8014  12.5178  13.9496  14.5210  16.0180  18.0276  18.8860

          k = 0.0000 0.6651-0.1088 (  4825 PWs)   bands (ev):

   -33.0075 -32.8996  -0.2590   0.9411   2.9798   5.4537   7.4784   8.5261
     8.6661  10.4806  11.4166  12.9208  14.2767  15.3376  17.1785

          k =-0.1920 0.5543-0.1088 (  4830 PWs)   bands (ev):

   -33.0327 -32.9042  -1.2458  -0.0348   2.0331   4.6100   7.6035   9.9501
    10.6353  11.7716  12.7006  13.2691  14.2580  15.1514  15.7697

          k =-0.1920 0.7760-0.1088 (  4822 PWs)   bands (ev):

   -32.9685 -32.8967   1.6946   2.8677   4.7890   5.5084   6.5844   7.7042
     8.7717   9.9884  11.1156  12.6519  12.9651  14.1117  14.8539

     the Fermi energy is    12.6578 ev

!    total energy              =     -62.31098795 Ry
     estimated scf accuracy    <          2.5E-11 Ry
     smearing contrib. (-TS)   =      -0.00065213 Ry
     internal energy E=F+TS    =     -62.31033582 Ry

     The total energy is F=E-TS. E is the sum of the following terms:
     one-electron contribution =       9.89379223 Ry
     hartree contribution      =       5.92850446 Ry
     xc contribution           =     -20.40276695 Ry
     ewald contribution        =     -57.72986557 Ry

     convergence has been achieved in  18 iterations

     Forces acting on atoms (cartesian axes, Ry/au):

     atom    1 type  1   force =     0.00000000    0.00000000   -0.00007663
     atom    2 type  1   force =    -0.00000000    0.00000000    0.00007663
     atom    3 type  1   force =    -0.00000000   -0.00000000    0.00002376
     atom    4 type  1   force =     0.00000000    0.00000000   -0.00002376
     atom    5 type  2   force =     0.00000000    0.00000000    0.00011409
     atom    6 type  2   force =     0.00000000    0.00000000   -0.00011409
     The non-local contrib.  to forces
     atom    1 type  1   force =     0.00000000   -0.00000000    0.10343474
     atom    2 type  1   force =     0.00000000    0.00000000   -0.10343474
     atom    3 type  1   force =     0.00000000   -0.00000000   -0.01662632
     atom    4 type  1   force =     0.00000000    0.00000000    0.01662632
     atom    5 type  2   force =     0.00000000    0.00000000   -0.00318750
     atom    6 type  2   force =     0.00000000    0.00000000    0.00318750
     The ionic contribution  to forces
     atom    1 type  1   force =    -0.00000000    0.00000000   -0.52340743
     atom    2 type  1   force =     0.00000000   -0.00000000    0.52340743
     atom    3 type  1   force =     0.00000000   -0.00000000    0.02618969
     atom    4 type  1   force =    -0.00000000    0.00000000   -0.02618969
     atom    5 type  2   force =     0.00000001   -0.00000000   -0.60561725
     atom    6 type  2   force =    -0.00000001    0.00000000    0.60561725
     The local contribution  to forces
     atom    1 type  1   force =    -0.00000000   -0.00000000    0.42402344
     atom    2 type  1   force =     0.00000000    0.00000000   -0.42402344
     atom    3 type  1   force =    -0.00000001    0.00000001   -0.01100789
     atom    4 type  1   force =     0.00000001   -0.00000001    0.01100789
     atom    5 type  2   force =     0.00000045   -0.00000026    0.60892164
     atom    6 type  2   force =    -0.00000045    0.00000026   -0.60892164
     The core correction contribution to forces
     atom    1 type  1   force =    -0.00000000    0.00000000   -0.00411818
     atom    2 type  1   force =     0.00000000   -0.00000000    0.00411818
     atom    3 type  1   force =    -0.00000000    0.00000000    0.00146401
     atom    4 type  1   force =     0.00000000   -0.00000000   -0.00146401
     atom    5 type  2   force =     0.00000000    0.00000000    0.00000000
     atom    6 type  2   force =     0.00000000    0.00000000    0.00000000
     The Hubbard contrib.    to forces
     atom    1 type  1   force =     0.00000000    0.00000000    0.00000000
     atom    2 type  1   force =     0.00000000    0.00000000    0.00000000
     atom    3 type  1   force =     0.00000000    0.00000000    0.00000000
     atom    4 type  1   force =     0.00000000    0.00000000    0.00000000
     atom    5 type  2   force =     0.00000000    0.00000000    0.00000000
     atom    6 type  2   force =     0.00000000    0.00000000    0.00000000
     The SCF correction term to forces
     atom    1 type  1   force =    -0.00000000    0.00000000   -0.00000919
     atom    2 type  1   force =     0.00000000   -0.00000000    0.00000919
     atom    3 type  1   force =    -0.00000000    0.00000000    0.00000428
     atom    4 type  1   force =     0.00000000   -0.00000000   -0.00000428
     atom    5 type  2   force =     0.00000000   -0.00000000   -0.00000281
     atom    6 type  2   force =    -0.00000000    0.00000000    0.00000281

     Total force =     0.000197     Total SCF correction =     0.000015


     Computing stress (Cartesian axis) and pressure

          total   stress  (Ry/bohr**3)                   (kbar)     P=      500.17
   0.00340073   0.00000000   0.00000000          500.26        0.00        0.00
   0.00000000   0.00340073   0.00000000            0.00      500.26        0.00
  -0.00000000  -0.00000000   0.00339872           -0.00       -0.00      499.97


     Writing all to output data dir ./output/SiLi.save/

     init_run     :      2.27s CPU      3.74s WALL (       2 calls)
     electrons    :    308.66s CPU    342.24s WALL (      26 calls)
     update_pot   :     20.62s CPU     20.87s WALL (      24 calls)
     forces       :     13.81s CPU     14.09s WALL (      26 calls)
     stress       :     56.00s CPU     58.93s WALL (      26 calls)

     Called by init_run:
     wfcinit      :      0.84s CPU      1.77s WALL (       2 calls)
     potinit      :      0.76s CPU      0.98s WALL (       2 calls)
     hinit0       :      0.57s CPU      0.76s WALL (       2 calls)

     Called by electrons:
     c_bands      :    270.03s CPU    297.70s WALL (     280 calls)
     sum_band     :     33.65s CPU     37.65s WALL (     280 calls)
     v_of_rho     :      4.93s CPU      5.92s WALL (     303 calls)
     mix_rho      :      0.46s CPU      0.61s WALL (     280 calls)

     Called by c_bands:
     init_us_2    :      5.92s CPU      6.79s WALL (   15350 calls)
     init_us_2:cp :      5.89s CPU      6.77s WALL (   15350 calls)
     cegterg      :    250.56s CPU    274.98s WALL (    7000 calls)

     Called by *egterg:
     cdiaghg      :      8.66s CPU      9.10s WALL (   34569 calls)
     h_psi        :    216.27s CPU    240.54s WALL (   35294 calls)
     g_psi        :      1.00s CPU      1.03s WALL (   28244 calls)

     Called by h_psi:
     h_psi:calbec :     17.61s CPU     18.94s WALL (   35294 calls)
     vloc_psi     :    182.80s CPU    205.25s WALL (   35294 calls)
     add_vuspsi   :     15.16s CPU     15.60s WALL (   35294 calls)

     General routines
     calbec       :     20.25s CPU     21.61s WALL (   38544 calls)
     fft          :      2.71s CPU      3.88s WALL (    3681 calls)
     ffts         :      0.14s CPU      0.18s WALL (     280 calls)
     fftw         :    190.27s CPU    213.48s WALL (  756114 calls)

     Parallel routines

     PWSCF        :   6m41.84s CPU   7m21.38s WALL


   This run was terminated on:  19: 9:22  28Dec2024            

=------------------------------------------------------------------------------=
   JOB DONE.
=------------------------------------------------------------------------------=
