
     Program PWSCF v.7.2 starts on 10Jan2025 at 22: 9:19 

     This program is part of the open-source Quantum ESPRESSO suite
     for quantum simulation of materials; please cite
         "P. Giannozzi et al., J. Phys.:Condens. Matter 21 395502 (2009);
         "P. Giannozzi et al., J. Phys.:Condens. Matter 29 465901 (2017);
         "P. Giannozzi et al., J. Chem. Phys. 152 154105 (2020);
          URL http://www.quantum-espresso.org", 
     in publications or presentations arising from this work. More details at
     http://www.quantum-espresso.org/quote

     Parallel version (MPI & OpenMP), running on       8 processor cores
     Number of MPI processes:                 8
     Threads/MPI process:                     1

     MPI processes distributed on     1 nodes
     481525 MiB available memory on the printing compute node when the environment starts

     Waiting for input...
     Reading input from standard input

     Current dimensions of program PWSCF are:
     Max number of different atomic species (ntypx) = 10
     Max number of k-points (npk) =  40000
     Max angular momentum in pseudopotentials (lmaxx) =  4

     R & G space division:  proc/nbgrp/npool/nimage =       8
     Subspace diagonalization in iterative solution of the eigenvalue problem:
     a serial algorithm will be used


     Parallelization info
     --------------------
     sticks:   dense  smooth     PW     G-vecs:    dense   smooth      PW
     Min         157     157     45                 2911     2911     469
     Max         158     158     47                 2914     2914     470
     Sum        1261    1261    367                23295    23295    3753

     Using Slab Decomposition



     bravais-lattice index     =            4
     lattice parameter (alat)  =       6.7365  a.u.
     unit-cell volume          =     172.1318 (a.u.)^3
     number of atoms/cell      =            3
     number of atomic types    =            2
     number of electrons       =        10.00
     number of Kohn-Sham states=            9
     kinetic-energy cutoff     =     100.0000  Ry
     charge density cutoff     =     400.0000  Ry
     scf convergence threshold =      1.0E-08
     mixing beta               =       0.7000
     number of iterations used =            8  plain     mixing
     energy convergence thresh.=      1.0E-04
     force convergence thresh. =      1.0E-03
     press convergence thresh. =      1.0E+00
     Exchange-correlation= PBE
                           (   1   4   3   4   0   0   0)
     nstep                     =           50


     celldm(1)=   6.736547  celldm(2)=   0.000000  celldm(3)=   0.650157
     celldm(4)=   0.000000  celldm(5)=   0.000000  celldm(6)=   0.000000

     crystal axes: (cart. coord. in units of alat)
               a(1) = (   1.000000   0.000000   0.000000 )  
               a(2) = (  -0.500000   0.866025   0.000000 )  
               a(3) = (   0.000000   0.000000   0.650157 )  

     reciprocal axes: (cart. coord. in units 2 pi/alat)
               b(1) = (  1.000000  0.577350 -0.000000 )  
               b(2) = (  0.000000  1.154701  0.000000 )  
               b(3) = (  0.000000 -0.000000  1.538090 )  


     PseudoPot. # 1 for Si read from file:
     ../pseudo/Si_ONCV_PBE_sr.upf
     MD5 check sum: e543d271109d17c80368dfa7c482276d
     Pseudo is Norm-conserving + core correction, Zval =  4.0
     Generated using ONCVPSP code by D. R. Hamann
     Using radial grid of 1510 points,  6 beta functions with: 
                l(1) =   0
                l(2) =   0
                l(3) =   1
                l(4) =   1
                l(5) =   2
                l(6) =   2

     PseudoPot. # 2 for Li read from file:
     ../pseudo/Li_ONCV_PBE_sr.upf
     MD5 check sum: 50ff420e78310ffa21704f3361e624a4
     Pseudo is Norm-conserving, Zval =  3.0
     Generated using ONCVPSP code by D. R. Hamann
     Using radial grid of 1944 points,  4 beta functions with: 
                l(1) =   0
                l(2) =   0
                l(3) =   1
                l(4) =   1

     atomic species   valence    mass     pseudopotential
        Si             4.00    28.08550     Si( 1.00)
        Li             3.00     6.94100     Li( 1.00)

     24 Sym. Ops., with inversion, found



   Cartesian axes

     site n.     atom                  positions (alat units)
         1           Si  tau(   1) = (   0.0000000   0.0000000   0.0000000  )
         2           Li  tau(   2) = (  -0.0000000   0.5773503   0.3250785  )
         3           Li  tau(   3) = (   0.5000000   0.2886751   0.3250785  )

     number of k points=    70  Marzari-Vanderbilt smearing, width (Ry)=  0.0200
                       cart. coord. in units 2pi/alat
        k(    1) = (   0.0000000   0.0000000   0.0000000), wk =   0.0022222
        k(    2) = (   0.0000000   0.0000000   0.1708989), wk =   0.0044444
        k(    3) = (   0.0000000   0.0000000   0.3417978), wk =   0.0044444
        k(    4) = (   0.0000000   0.0000000   0.5126967), wk =   0.0044444
        k(    5) = (   0.0000000   0.0000000   0.6835955), wk =   0.0044444
        k(    6) = (   0.0000000   0.1154701   0.0000000), wk =   0.0133333
        k(    7) = (   0.0000000   0.1154701   0.1708989), wk =   0.0266667
        k(    8) = (   0.0000000   0.1154701   0.3417978), wk =   0.0266667
        k(    9) = (   0.0000000   0.1154701   0.5126967), wk =   0.0266667
        k(   10) = (   0.0000000   0.1154701   0.6835955), wk =   0.0266667
        k(   11) = (   0.0000000   0.2309401   0.0000000), wk =   0.0133333
        k(   12) = (   0.0000000   0.2309401   0.1708989), wk =   0.0266667
        k(   13) = (   0.0000000   0.2309401   0.3417978), wk =   0.0266667
        k(   14) = (   0.0000000   0.2309401   0.5126967), wk =   0.0266667
        k(   15) = (   0.0000000   0.2309401   0.6835955), wk =   0.0266667
        k(   16) = (   0.0000000   0.3464102   0.0000000), wk =   0.0133333
        k(   17) = (   0.0000000   0.3464102   0.1708989), wk =   0.0266667
        k(   18) = (   0.0000000   0.3464102   0.3417978), wk =   0.0266667
        k(   19) = (   0.0000000   0.3464102   0.5126967), wk =   0.0266667
        k(   20) = (   0.0000000   0.3464102   0.6835955), wk =   0.0266667
        k(   21) = (   0.0000000   0.4618802   0.0000000), wk =   0.0133333
        k(   22) = (   0.0000000   0.4618802   0.1708989), wk =   0.0266667
        k(   23) = (   0.0000000   0.4618802   0.3417978), wk =   0.0266667
        k(   24) = (   0.0000000   0.4618802   0.5126967), wk =   0.0266667
        k(   25) = (   0.0000000   0.4618802   0.6835955), wk =   0.0266667
        k(   26) = (   0.0000000  -0.5773503   0.0000000), wk =   0.0066667
        k(   27) = (   0.0000000  -0.5773503   0.1708989), wk =   0.0133333
        k(   28) = (   0.0000000  -0.5773503   0.3417978), wk =   0.0133333
        k(   29) = (   0.0000000  -0.5773503   0.5126967), wk =   0.0133333
        k(   30) = (   0.0000000  -0.5773503   0.6835955), wk =   0.0133333
        k(   31) = (   0.1000000   0.1732051   0.0000000), wk =   0.0133333
        k(   32) = (   0.1000000   0.1732051   0.1708989), wk =   0.0266667
        k(   33) = (   0.1000000   0.1732051   0.3417978), wk =   0.0266667
        k(   34) = (   0.1000000   0.1732051   0.5126967), wk =   0.0266667
        k(   35) = (   0.1000000   0.1732051   0.6835955), wk =   0.0266667
        k(   36) = (   0.1000000   0.2886751   0.0000000), wk =   0.0266667
        k(   37) = (   0.1000000   0.2886751   0.1708989), wk =   0.0533333
        k(   38) = (   0.1000000   0.2886751   0.3417978), wk =   0.0533333
        k(   39) = (   0.1000000   0.2886751   0.5126967), wk =   0.0533333
        k(   40) = (   0.1000000   0.2886751   0.6835955), wk =   0.0533333
        k(   41) = (   0.1000000   0.4041452   0.0000000), wk =   0.0266667
        k(   42) = (   0.1000000   0.4041452   0.1708989), wk =   0.0533333
        k(   43) = (   0.1000000   0.4041452   0.3417978), wk =   0.0533333
        k(   44) = (   0.1000000   0.4041452   0.5126967), wk =   0.0533333
        k(   45) = (   0.1000000   0.4041452   0.6835955), wk =   0.0533333
        k(   46) = (   0.1000000   0.5196152   0.0000000), wk =   0.0266667
        k(   47) = (   0.1000000   0.5196152   0.1708989), wk =   0.0533333
        k(   48) = (   0.1000000   0.5196152   0.3417978), wk =   0.0533333
        k(   49) = (   0.1000000   0.5196152   0.5126967), wk =   0.0533333
        k(   50) = (   0.1000000   0.5196152   0.6835955), wk =   0.0533333
        k(   51) = (   0.2000000   0.3464102   0.0000000), wk =   0.0133333
        k(   52) = (   0.2000000   0.3464102   0.1708989), wk =   0.0266667
        k(   53) = (   0.2000000   0.3464102   0.3417978), wk =   0.0266667
        k(   54) = (   0.2000000   0.3464102   0.5126967), wk =   0.0266667
        k(   55) = (   0.2000000   0.3464102   0.6835955), wk =   0.0266667
        k(   56) = (   0.2000000   0.4618802   0.0000000), wk =   0.0266667
        k(   57) = (   0.2000000   0.4618802   0.1708989), wk =   0.0533333
        k(   58) = (   0.2000000   0.4618802   0.3417978), wk =   0.0533333
        k(   59) = (   0.2000000   0.4618802   0.5126967), wk =   0.0533333
        k(   60) = (   0.2000000   0.4618802   0.6835955), wk =   0.0533333
        k(   61) = (   0.2000000   0.5773503   0.0000000), wk =   0.0133333
        k(   62) = (   0.2000000   0.5773503   0.1708989), wk =   0.0266667
        k(   63) = (   0.2000000   0.5773503   0.3417978), wk =   0.0266667
        k(   64) = (   0.2000000   0.5773503   0.5126967), wk =   0.0266667
        k(   65) = (   0.2000000   0.5773503   0.6835955), wk =   0.0266667
        k(   66) = (   0.3000000   0.5196152   0.0000000), wk =   0.0133333
        k(   67) = (   0.3000000   0.5196152   0.1708989), wk =   0.0266667
        k(   68) = (   0.3000000   0.5196152   0.3417978), wk =   0.0266667
        k(   69) = (   0.3000000   0.5196152   0.5126967), wk =   0.0266667
        k(   70) = (   0.3000000   0.5196152   0.6835955), wk =   0.0266667

     Dense  grid:    23295 G-vectors     FFT dimensions: (  45,  45,  27)

     Estimated max dynamical RAM per process >      18.65 MB

     Estimated total dynamical RAM >     149.17 MB

     Initial potential from superposition of free atoms

     starting charge       9.9903, renormalised to      10.0000
     Starting wfcs are    8 randomized atomic wfcs +    1 random wfcs

     total cpu time spent up to now is        1.6 secs

     Self-consistent Calculation

     iteration #  1     ecut=   100.00 Ry     beta= 0.70
     Davidson diagonalization with overlap
     ethr =  1.00E-02,  avg # of iterations =  5.6

     Threshold (ethr) on eigenvalues was too large:
     Diagonalizing with lowered threshold

     Davidson diagonalization with overlap
     ethr =  9.28E-05,  avg # of iterations =  3.9

     total cpu time spent up to now is        3.3 secs

     total energy              =     -37.18388711 Ry
     estimated scf accuracy    <       0.00914037 Ry

     iteration #  2     ecut=   100.00 Ry     beta= 0.70
     Davidson diagonalization with overlap
     ethr =  9.14E-05,  avg # of iterations =  1.0

     total cpu time spent up to now is        3.8 secs

     total energy              =     -37.18391787 Ry
     estimated scf accuracy    <       0.00064877 Ry

     iteration #  3     ecut=   100.00 Ry     beta= 0.70
     Davidson diagonalization with overlap
     ethr =  6.49E-06,  avg # of iterations =  2.0

     total cpu time spent up to now is        4.4 secs

     total energy              =     -37.18394096 Ry
     estimated scf accuracy    <       0.00000394 Ry

     iteration #  4     ecut=   100.00 Ry     beta= 0.70
     Davidson diagonalization with overlap
     ethr =  3.94E-08,  avg # of iterations =  2.5

     total cpu time spent up to now is        5.0 secs

     total energy              =     -37.18394214 Ry
     estimated scf accuracy    <       0.00000004 Ry

     iteration #  5     ecut=   100.00 Ry     beta= 0.70
     Davidson diagonalization with overlap
     ethr =  3.69E-10,  avg # of iterations =  3.0

     total cpu time spent up to now is        5.6 secs

     End of self-consistent calculation

          k = 0.0000 0.0000 0.0000 (  2929 PWs)   bands (ev):

   -36.4377 -35.9818  -1.9944   8.6860   8.6860  11.1750  11.1750  13.9466
    20.3898

          k = 0.0000 0.0000 0.1709 (  2912 PWs)   bands (ev):

   -36.4220 -35.9712  -1.7245   8.9945   8.9945  11.5146  11.5146  12.9155
    19.7814

          k = 0.0000 0.0000 0.3418 (  2894 PWs)   bands (ev):

   -36.3820 -35.9441  -0.9235   9.9201   9.9201  10.3886  12.5318  12.5318
    19.4328

          k = 0.0000 0.0000 0.5127 (  2918 PWs)   bands (ev):

   -36.3363 -35.9133   0.3770   7.5058  11.4624  11.4624  14.2179  14.2180
    19.6191

          k = 0.0000 0.0000 0.6836 (  2936 PWs)   bands (ev):

   -36.3063 -35.8931   2.0281   4.9828  13.6073  13.6073  16.4600  16.4600
    16.5150

          k = 0.0000 0.1155 0.0000 (  2901 PWs)   bands (ev):

   -36.4276 -35.9916  -1.9350   7.8206   8.1388  11.7006  12.0141  14.5357
    20.5199

          k = 0.0000 0.1155 0.1709 (  2904 PWs)   bands (ev):

   -36.4120 -35.9808  -1.6620   8.0945   8.4529  11.9428  12.3477  13.5692
    19.9197

          k = 0.0000 0.1155 0.3418 (  2903 PWs)   bands (ev):

   -36.3723 -35.9536  -0.8516   8.7545   9.3946  10.9454  13.1489  13.3469
    19.6194

          k = 0.0000 0.1155 0.5127 (  2912 PWs)   bands (ev):

   -36.3270 -35.9224   0.4648   7.4494  10.8802  10.9624  14.5928  14.9978
    18.5817

          k = 0.0000 0.1155 0.6836 (  2933 PWs)   bands (ev):

   -36.2972 -35.9020   2.1492   5.0051  12.8167  13.1483  15.5606  15.9079
    16.4801

          k = 0.0000 0.2309 0.0000 (  2893 PWs)   bands (ev):

   -36.3987 -36.0196  -1.7683   6.4253   7.2955  12.1662  13.7305  16.1704
    20.9065

          k = 0.0000 0.2309 0.1709 (  2898 PWs)   bands (ev):

   -36.3834 -36.0085  -1.4860   6.6684   7.6134  12.2183  14.0590  15.1812
    20.3578

          k = 0.0000 0.2309 0.3418 (  2908 PWs)   bands (ev):

   -36.3447 -35.9805  -0.6481   7.2977   8.5666  11.3116  14.1498  15.0398
    19.8234

          k = 0.0000 0.2309 0.5127 (  2919 PWs)   bands (ev):

   -36.3004 -35.9485   0.7144   7.1837  10.0412  10.1538  14.8467  16.6087
    17.0315

          k = 0.0000 0.2309 0.6836 (  2909 PWs)   bands (ev):

   -36.2713 -35.9275   2.4945   5.0818  11.2575  12.3699  14.2695  15.1884
    15.7157

          k = 0.0000 0.3464 0.0000 (  2898 PWs)   bands (ev):

   -36.3556 -36.0615  -1.5333   5.2061   6.6237  12.3765  15.8461  18.2201
    21.5327

          k = 0.0000 0.3464 0.1709 (  2895 PWs)   bands (ev):

   -36.3409 -36.0500  -1.2367   5.4279   6.9431  12.3704  16.1700  16.8157
    21.0616

          k = 0.0000 0.3464 0.3418 (  2906 PWs)   bands (ev):

   -36.3035 -36.0209  -0.3565   6.0418   7.9011  11.6316  14.8415  17.1272
    18.9229

          k = 0.0000 0.3464 0.5127 (  2918 PWs)   bands (ev):

   -36.2607 -35.9875   1.0766   6.6033   9.4963   9.6446  14.7280  15.7211
    17.8194

          k = 0.0000 0.3464 0.6836 (  2902 PWs)   bands (ev):

   -36.2327 -35.9657   2.9894   5.2668   9.5528  11.7230  13.3097  14.5821
    15.0679

          k = 0.0000 0.4619 0.0000 (  2896 PWs)   bands (ev):

   -36.3085 -36.1077  -1.3104   4.3712   6.2075  12.4787  18.2345  20.1437
    22.3323

          k = 0.0000 0.4619 0.1709 (  2900 PWs)   bands (ev):

   -36.2944 -36.0957  -0.9985   4.5758   6.5276  12.4665  18.0948  18.5526
    21.5086

          k = 0.0000 0.4619 0.3418 (  2903 PWs)   bands (ev):

   -36.2584 -36.0653  -0.0717   5.1633   7.4876  11.8831  15.2948  17.9350
    19.4448

          k = 0.0000 0.4619 0.5127 (  2908 PWs)   bands (ev):

   -36.2173 -36.0305   1.4390   5.9707   9.0861   9.5972  14.5518  14.8534
    17.6295

          k = 0.0000 0.4619 0.6836 (  2913 PWs)   bands (ev):

   -36.1903 -36.0077   3.4470   5.7168   7.9576  11.3161  12.7765  14.1975
    14.6615

          k = 0.0000-0.5774 0.0000 (  2896 PWs)   bands (ev):

   -36.2833 -36.1326  -1.2145   4.0688   6.0673  12.5107  20.2025  21.1465
    22.0281

          k = 0.0000-0.5774 0.1709 (  2918 PWs)   bands (ev):

   -36.2694 -36.1204  -0.8952   4.2659   6.3876  12.5000  18.6940  20.5325
    21.1594

          k = 0.0000-0.5774 0.3418 (  2906 PWs)   bands (ev):

   -36.2342 -36.0892   0.0543   4.8378   7.3481  11.9800  15.5165  17.4858
    21.2742

          k = 0.0000-0.5774 0.5127 (  2904 PWs)   bands (ev):

   -36.1940 -36.0536   1.6037   5.6947   8.9475   9.6183  14.4963  14.5302
    17.5199

          k = 0.0000-0.5774 0.6836 (  2914 PWs)   bands (ev):

   -36.1676 -36.0303   3.6266   6.5085   6.7458  11.1783  12.6090  14.0668
    14.5238

          k = 0.1000 0.1732 0.0000 (  2901 PWs)   bands (ev):

   -36.4081 -36.0105  -1.8218   6.8644   7.4069  12.4966  12.7795  15.7219
    20.7784

          k = 0.1000 0.1732 0.1709 (  2898 PWs)   bands (ev):

   -36.3927 -35.9996  -1.5425   7.1157   7.7171  12.5612  13.0683  14.8424
    20.2191

          k = 0.1000 0.1732 0.3418 (  2900 PWs)   bands (ev):

   -36.3537 -35.9718  -0.7137   7.7422   8.6457  11.3499  13.9082  14.4486
    20.0497

          k = 0.1000 0.1732 0.5127 (  2923 PWs)   bands (ev):

   -36.3090 -35.9400   0.6337   7.2935  10.1852  10.3826  15.1663  15.6533
    18.1168

          k = 0.1000 0.1732 0.6836 (  2920 PWs)   bands (ev):

   -36.2797 -35.9192   2.3827   5.0542  11.9147  12.3012  14.6416  15.0170
    16.5685

          k = 0.1000 0.2887 0.0000 (  2890 PWs)   bands (ev):

   -36.3718 -36.0458  -1.6193   5.7084   6.6397  12.8414  14.4194  17.6865
    21.2858

          k = 0.1000 0.2887 0.1709 (  2898 PWs)   bands (ev):

   -36.3569 -36.0344  -1.3282   5.9405   6.9445  12.8391  14.6253  16.5572
    20.8797

          k = 0.1000 0.2887 0.3418 (  2903 PWs)   bands (ev):

   -36.3190 -36.0057  -0.4644   6.5637   7.8531  11.8104  14.7579  15.8850
    19.8691

          k = 0.1000 0.2887 0.5127 (  2909 PWs)   bands (ev):

   -36.2756 -35.9729   0.9414   6.8860   9.3007  10.0330  15.1618  15.9596
    17.6611

          k = 0.1000 0.2887 0.6836 (  2910 PWs)   bands (ev):

   -36.2472 -35.9514   2.8059   5.1819  10.4528  11.4653  13.6382  14.0937
    16.5463

          k = 0.1000 0.4041 0.0000 (  2895 PWs)   bands (ev):

   -36.3251 -36.0914  -1.3850   4.7397   6.1073  12.9749  16.5000  19.7535
    22.0089

          k = 0.1000 0.4041 0.1709 (  2900 PWs)   bands (ev):

   -36.3108 -36.0796  -1.0787   4.9548   6.4097  12.9673  16.5793  18.0501
    21.7425

          k = 0.1000 0.4041 0.3418 (  2904 PWs)   bands (ev):

   -36.2743 -36.0496  -0.1692   5.5633   7.3078  12.1992  15.2491  17.3967
    19.1160

          k = 0.1000 0.4041 0.5127 (  2913 PWs)   bands (ev):

   -36.2326 -36.0154   1.3117   6.2933   8.6848   9.9686  14.8284  15.1405
    17.7592

          k = 0.1000 0.4041 0.6836 (  2908 PWs)   bands (ev):

   -36.2052 -35.9929   3.2898   5.4947   8.8159  10.9413  12.9517  13.5061
    16.2685

          k = 0.1000 0.5196 0.0000 (  2895 PWs)   bands (ev):

   -36.2834 -36.1325  -1.2178   4.1871   5.8375  13.0323  18.8015  20.7440
    22.7825

          k = 0.1000 0.5196 0.1709 (  2909 PWs)   bands (ev):

   -36.2695 -36.1202  -0.8992   4.3898   6.1391  13.0309  18.3695  19.3053
    21.2384

          k = 0.1000 0.5196 0.3418 (  2910 PWs)   bands (ev):

   -36.2343 -36.0891   0.0478   4.9770   7.0335  12.4329  15.5570  17.4602
    20.3032

          k = 0.1000 0.5196 0.5127 (  2911 PWs)   bands (ev):

   -36.1940 -36.0536   1.5910   5.8411   8.3866  10.0192  14.5434  14.6549
    17.6510

          k = 0.1000 0.5196 0.6836 (  2908 PWs)   bands (ev):

   -36.1676 -36.0303   3.6049   6.1837   7.3457  10.6787  12.6293  13.2135
    16.0798

          k = 0.2000 0.3464 0.0000 (  2897 PWs)   bands (ev):

   -36.3309 -36.0857  -1.4134   5.0162   5.8787  13.9322  15.0530  19.7112
    21.8951

          k = 0.2000 0.3464 0.1709 (  2904 PWs)   bands (ev):

   -36.3165 -36.0740  -1.1092   5.2397   6.1638  13.8736  15.2060  17.9717
    21.7547

          k = 0.2000 0.3464 0.3418 (  2901 PWs)   bands (ev):

   -36.2798 -36.0441  -0.2064   5.8612   7.0111  12.5794  15.5298  16.3466
    19.6875

          k = 0.2000 0.3464 0.5127 (  2917 PWs)   bands (ev):

   -36.2379 -36.0101   1.2628   6.5018   8.3846  10.1468  15.1957  15.2301
    18.0345

          k = 0.2000 0.3464 0.6836 (  2916 PWs)   bands (ev):

   -36.2104 -35.9878   3.2252   5.4313   9.7003  10.0888  13.0545  13.2944
    17.6496

          k = 0.2000 0.4619 0.0000 (  2889 PWs)   bands (ev):

   -36.2836 -36.1323  -1.2231   4.4676   5.3946  14.3286  16.6704  20.6821
    22.6527

          k = 0.2000 0.4619 0.1709 (  2900 PWs)   bands (ev):

   -36.2697 -36.1201  -0.9055   4.6833   5.6668  14.3193  16.6780  18.8786
    20.9661

          k = 0.2000 0.4619 0.3418 (  2912 PWs)   bands (ev):

   -36.2344 -36.0890   0.0376   5.3031   6.4702  13.2123  15.8536  16.9684
    19.1160

          k = 0.2000 0.4619 0.5127 (  2911 PWs)   bands (ev):

   -36.1941 -36.0535   1.5709   6.1599   7.7239  10.3318  14.6853  14.8028
    18.2216

          k = 0.2000 0.4619 0.6836 (  2911 PWs)   bands (ev):

   -36.1677 -36.0302   3.5708   5.9927   8.3134   9.5380  12.6749  12.8843
    18.0127

          k = 0.2000 0.5774 0.0000 (  2886 PWs)   bands (ev):

   -36.2544 -36.1612  -1.1431   4.2518   5.2384  14.3912  18.6780  18.9553
    23.1396

          k = 0.2000 0.5774 0.1709 (  2898 PWs)   bands (ev):

   -36.2408 -36.1486  -0.8194   4.4633   5.5066  14.3997  18.3644  18.7916
    19.6913

          k = 0.2000 0.5774 0.3418 (  2921 PWs)   bands (ev):

   -36.2064 -36.1168   0.1423   5.0793   6.2948  13.4626  15.9374  17.1076
    19.2727

          k = 0.2000 0.5774 0.5127 (  2907 PWs)   bands (ev):

   -36.1671 -36.0803   1.7050   6.0129   7.4914  10.4227  14.4443  14.6547
    18.2250

          k = 0.2000 0.5774 0.6836 (  2920 PWs)   bands (ev):

   -36.1413 -36.0565   3.6939   6.9274   7.0300   9.4007  12.5525  12.7517
    18.0298

          k = 0.3000 0.5196 0.0000 (  2887 PWs)   bands (ev):

   -36.2366 -36.1789  -1.1148   4.4480   4.8315  15.7918  17.0486  18.8398
    23.2412

          k = 0.3000 0.5196 0.1709 (  2892 PWs)   bands (ev):

   -36.2232 -36.1661  -0.7892   4.6718   5.0783  15.7936  17.0049  18.6157
    19.5096

          k = 0.3000 0.5196 0.3418 (  2923 PWs)   bands (ev):

   -36.1893 -36.1338   0.1775   5.3238   5.8036  14.0266  16.4378  16.7575
    18.4390

          k = 0.3000 0.5196 0.5127 (  2909 PWs)   bands (ev):

   -36.1506 -36.0968   1.7454   6.3051   6.9380  10.5674  14.4709  14.5670
    19.1837

          k = 0.3000 0.5196 0.6836 (  2913 PWs)   bands (ev):

   -36.1251 -36.0726   3.7180   6.8633   7.9978   8.1601  12.5496  12.6207
    19.6291

     the Fermi energy is     9.9086 ev

!    total energy              =     -37.18394216 Ry
     estimated scf accuracy    <          1.1E-09 Ry
     smearing contrib. (-TS)   =       0.00007870 Ry
     internal energy E=F+TS    =     -37.18402086 Ry

     The total energy is F=E-TS. E is the sum of the following terms:
     one-electron contribution =      -7.31796033 Ry
     hartree contribution      =       5.66235506 Ry
     xc contribution           =     -10.35140289 Ry
     ewald contribution        =     -25.17701270 Ry

     convergence has been achieved in   5 iterations

     Forces acting on atoms (cartesian axes, Ry/au):

     atom    1 type  1   force =     0.00000000    0.00000000    0.00000000
     atom    2 type  2   force =    -0.00000000   -0.00000000   -0.00000000
     atom    3 type  2   force =     0.00000000    0.00000000    0.00000000
     The non-local contrib.  to forces
     atom    1 type  1   force =     0.00000000    0.00000000    0.00000000
     atom    2 type  2   force =     0.00000000   -0.00000000    0.00000000
     atom    3 type  2   force =     0.00000000   -0.00000000    0.00000000
     The ionic contribution  to forces
     atom    1 type  1   force =    -0.00000000   -0.00000000    0.00000000
     atom    2 type  2   force =     0.00000008   -0.00000004   -0.00000000
     atom    3 type  2   force =    -0.00000008    0.00000004   -0.00000000
     The local contribution  to forces
     atom    1 type  1   force =     0.00000000    0.00000000    0.00000000
     atom    2 type  2   force =     0.00000064   -0.00000037    0.00000000
     atom    3 type  2   force =    -0.00000064    0.00000037    0.00000000
     The core correction contribution to forces
     atom    1 type  1   force =     0.00000000    0.00000000    0.00000000
     atom    2 type  2   force =     0.00000000    0.00000000    0.00000000
     atom    3 type  2   force =     0.00000000    0.00000000    0.00000000
     The Hubbard contrib.    to forces
     atom    1 type  1   force =     0.00000000    0.00000000    0.00000000
     atom    2 type  2   force =     0.00000000    0.00000000    0.00000000
     atom    3 type  2   force =     0.00000000    0.00000000    0.00000000
     The SCF correction term to forces
     atom    1 type  1   force =    -0.00000000    0.00000000    0.00000000
     atom    2 type  2   force =    -0.00000000    0.00000000    0.00000000
     atom    3 type  2   force =     0.00000000   -0.00000000    0.00000000

     Total force =     0.000000     Total SCF correction =     0.000000


     Computing stress (Cartesian axis) and pressure

          total   stress  (Ry/bohr**3)                   (kbar)     P=      552.79
   0.00411277  -0.00000000  -0.00000000          605.01       -0.00       -0.00
  -0.00000000   0.00411277   0.00000000           -0.00      605.01        0.00
  -0.00000000   0.00000000   0.00304791           -0.00        0.00      448.36


     BFGS Geometry Optimization
     Energy error            =      0.0E+00 Ry
     Gradient error          =      8.8E-24 Ry/Bohr
     Cell gradient error     =      1.1E+02 kbar

     number of scf cycles    =   1
     number of bfgs steps    =   0

     enthalpy           new  =     -36.5988782262 Ry

     new trust radius        =       0.0468276485 bohr
ibrav =      4
 celldm(1) =      6.85676805
 celldm(3) =      0.63315226
Input lattice vectors:
     1.01784604    -0.00000000    -0.00000000
    -0.50892302     0.88148053     0.00000000
    -0.00000000     0.00000000     0.64445152
New lattice vectors in INITIAL alat:
     1.01784604     0.00000000     0.00000000
    -0.50892302     0.88148053     0.00000000
     0.00000000     0.00000000     0.64445152
New lattice vectors in NEW alat (for information only):
     1.00000000     0.00000000     0.00000000
    -0.50000000     0.86602540     0.00000000
     0.00000000     0.00000000     0.63315226
Discrepancy in bohr =     0.000000    0.000000    0.000000
     new conv_thr            =       0.0000000100 Ry

     new unit-cell volume =    176.76536 a.u.^3 (    26.19392 Ang^3 )
     density =      2.66049 g/cm^3

CELL_PARAMETERS (alat=  6.73654736)
   1.017846040   0.000000000   0.000000000
  -0.508923020   0.881480528   0.000000000
   0.000000000   0.000000000   0.644451525

ATOMIC_POSITIONS (crystal)
Si            0.0000000000        0.0000000000        0.0000000000
Li            0.3333333300        0.6666666700        0.5000000000
Li            0.6666666700        0.3333333300        0.5000000000



     Writing config-only to output data dir ./output/SiLi.save/
     NEW-OLD atomic charge density approx. for the potential
     extrapolated charge   10.26188, renormalised to   10.00000

     total cpu time spent up to now is        6.8 secs

     Self-consistent Calculation

     iteration #  1     ecut=   100.00 Ry     beta= 0.70
     Davidson diagonalization with overlap
     ethr =  1.00E-06,  avg # of iterations =  6.5

     total cpu time spent up to now is        7.8 secs

     total energy              =     -37.20190660 Ry
     estimated scf accuracy    <       0.00035518 Ry

     iteration #  2     ecut=   100.00 Ry     beta= 0.70
     Davidson diagonalization with overlap
     ethr =  3.55E-06,  avg # of iterations =  2.7

     total cpu time spent up to now is        8.4 secs

     total energy              =     -37.20290823 Ry
     estimated scf accuracy    <       0.00025994 Ry

     iteration #  3     ecut=   100.00 Ry     beta= 0.70
     Davidson diagonalization with overlap
     ethr =  2.60E-06,  avg # of iterations =  1.0

     total cpu time spent up to now is        8.9 secs

     total energy              =     -37.20290383 Ry
     estimated scf accuracy    <       0.00005847 Ry

     iteration #  4     ecut=   100.00 Ry     beta= 0.70
     Davidson diagonalization with overlap
     ethr =  5.85E-07,  avg # of iterations =  1.0

     total cpu time spent up to now is        9.4 secs

     total energy              =     -37.20288351 Ry
     estimated scf accuracy    <       0.00003037 Ry

     iteration #  5     ecut=   100.00 Ry     beta= 0.70
     Davidson diagonalization with overlap
     ethr =  3.04E-07,  avg # of iterations =  2.0

     total cpu time spent up to now is       10.0 secs

     total energy              =     -37.20288831 Ry
     estimated scf accuracy    <       0.00000014 Ry

     iteration #  6     ecut=   100.00 Ry     beta= 0.70
     Davidson diagonalization with overlap
     ethr =  1.40E-09,  avg # of iterations =  2.4

     total cpu time spent up to now is       10.5 secs

     End of self-consistent calculation

          k = 0.0000 0.0000 0.0000 (  2929 PWs)   bands (ev):

   -36.6941 -36.2966  -2.2617   8.1548   8.1548  10.7324  10.7324  13.4159
    20.7838

          k = 0.0000 0.0000 0.1724 (  2912 PWs)   bands (ev):

   -36.6777 -36.2851  -1.9807   8.4698   8.4698  11.0783  11.0783  12.5943
    19.6659

          k = 0.0000 0.0000 0.3448 (  2894 PWs)   bands (ev):

   -36.6361 -36.2557  -1.1458   9.4147   9.4147  10.2950  12.1142  12.1142
    18.8420

          k = 0.0000 0.0000 0.5172 (  2918 PWs)   bands (ev):

   -36.5884 -36.2221   0.2138   7.4340  10.9891  10.9891  13.8319  13.8319
    18.8755

          k = 0.0000 0.0000 0.6896 (  2936 PWs)   bands (ev):

   -36.5571 -36.2001   1.9766   4.8136  13.1782  13.1782  16.0914  16.0914
    16.1758

          k = 0.0000 0.1134 0.0000 (  2901 PWs)   bands (ev):

   -36.6853 -36.3052  -2.2054   7.3519   7.6545  11.2223  11.5150  13.9721
    20.9076

          k = 0.0000 0.1134 0.1724 (  2904 PWs)   bands (ev):

   -36.6690 -36.2935  -1.9215   7.6370   7.9746  11.4906  11.8554  13.2077
    19.7787

          k = 0.0000 0.1134 0.3448 (  2903 PWs)   bands (ev):

   -36.6277 -36.2638  -1.0781   8.3732   8.9344  10.7785  12.6988  12.8748
    19.0090

          k = 0.0000 0.1134 0.5172 (  2912 PWs)   bands (ev):

   -36.5803 -36.2300   0.2957   7.3658  10.4733  10.5324  14.1674  14.5602
    18.2146

          k = 0.0000 0.1134 0.6896 (  2933 PWs)   bands (ev):

   -36.5493 -36.2078   2.0881   4.8418  12.4333  12.7599  15.2321  15.5802
    16.0815

          k = 0.0000 0.2269 0.0000 (  2893 PWs)   bands (ev):

   -36.6601 -36.3296  -2.0478   6.0281   6.8598  11.6729  13.1542  15.5376
    21.2748

          k = 0.0000 0.2269 0.1724 (  2898 PWs)   bands (ev):

   -36.6442 -36.3176  -1.7553   6.2837   7.1838  11.7751  13.4894  14.7881
    20.1284

          k = 0.0000 0.2269 0.3448 (  2908 PWs)   bands (ev):

   -36.6037 -36.2873  -0.8870   6.9674   8.1552  11.1280  13.7263  14.4911
    19.3234

          k = 0.0000 0.2269 0.5172 (  2919 PWs)   bands (ev):

   -36.5573 -36.2526   0.5281   7.0584   9.7485   9.7728  14.4028  16.1075
    16.7879

          k = 0.0000 0.2269 0.6896 (  2909 PWs)   bands (ev):

   -36.5269 -36.2298   2.4032   4.9372  10.9456  12.0316  13.9919  14.9026
    15.3095

          k = 0.0000 0.3403 0.0000 (  2898 PWs)   bands (ev):

   -36.6226 -36.3661  -1.8268   4.8645   6.2191  11.8768  15.1921  17.5317
    21.8666

          k = 0.0000 0.3403 0.1724 (  2895 PWs)   bands (ev):

   -36.6072 -36.3537  -1.5214   5.0991   6.5447  11.9186  15.5232  16.4910
    20.6778

          k = 0.0000 0.3403 0.3448 (  2906 PWs)   bands (ev):

   -36.5679 -36.3223  -0.6145   5.7573   7.5212  11.4094  14.4925  16.5045
    18.7297

          k = 0.0000 0.3403 0.5172 (  2918 PWs)   bands (ev):

   -36.5230 -36.2864   0.8636   6.4375   9.1473   9.4556  14.2990  15.5321
    17.5221

          k = 0.0000 0.3403 0.6896 (  2902 PWs)   bands (ev):

   -36.4936 -36.2628   2.8461   5.1543   9.3180  11.4181  13.0530  14.3264
    14.6710

          k = 0.0000 0.4538 0.0000 (  2896 PWs)   bands (ev):

   -36.5815 -36.4064  -1.6187   4.0684   5.8205  11.9747  17.5027  19.4273
    22.6106

          k = 0.0000 0.4538 0.1724 (  2900 PWs)   bands (ev):

   -36.5666 -36.3936  -1.2994   4.2865   6.1468  12.0041  17.8289  17.8786
    21.1780

          k = 0.0000 0.4538 0.3448 (  2903 PWs)   bands (ev):

   -36.5287 -36.3609  -0.3508   4.9158   7.1254  11.6197  15.0094  17.8420
    18.7653

          k = 0.0000 0.4538 0.5172 (  2908 PWs)   bands (ev):

   -36.4854 -36.3236   1.1955   5.8036   8.7552   9.4628  14.1519  14.6753
    17.4481

          k = 0.0000 0.4538 0.6896 (  2913 PWs)   bands (ev):

   -36.4570 -36.2991   3.2450   5.6325   7.7942  11.0303  12.5221  13.9590
    14.2734

          k = 0.0000-0.5672 0.0000 (  2896 PWs)   bands (ev):

   -36.5595 -36.4281  -1.5298   3.7810   5.6861  12.0052  19.4288  20.4261
    21.1328

          k = 0.0000-0.5672 0.1724 (  2918 PWs)   bands (ev):

   -36.5449 -36.4150  -1.2040   3.9919   6.0125  12.0335  18.5265  19.7657
    21.1302

          k = 0.0000-0.5672 0.3448 (  2906 PWs)   bands (ev):

   -36.5077 -36.3817  -0.2353   4.6059   6.9918  11.6983  15.2501  17.4246
    21.0128

          k = 0.0000-0.5672 0.5172 (  2904 PWs)   bands (ev):

   -36.4652 -36.3436   1.3446   5.5353   8.6225   9.5002  14.1166  14.3442
    17.3499

          k = 0.0000-0.5672 0.6896 (  2914 PWs)   bands (ev):

   -36.4373 -36.3186   3.4005   6.4400   6.6056  10.8987  12.3537  13.8339
    14.1391

          k = 0.0982 0.1702 0.0000 (  2901 PWs)   bands (ev):

   -36.6683 -36.3217  -2.0983   6.4441   6.9692  11.9905  12.2393  15.1040
    21.1532

          k = 0.0982 0.1702 0.1724 (  2898 PWs)   bands (ev):

   -36.6522 -36.3098  -1.8086   6.7081   7.2860  12.1154  12.5362  14.4310
    20.0192

          k = 0.0982 0.1702 0.3448 (  2900 PWs)   bands (ev):

   -36.6115 -36.2797  -0.9485   7.3965   8.2346  11.1795  13.4005  13.9789
    19.4011

          k = 0.0982 0.1702 0.5172 (  2923 PWs)   bands (ev):

   -36.5648 -36.2452   0.4531   7.1831   9.8075  10.0445  14.7003  15.2068
    17.8110

          k = 0.0982 0.1702 0.6896 (  2920 PWs)   bands (ev):

   -36.5342 -36.2227   2.3017   4.9032  11.5641  11.9701  14.3463  14.7383
    16.1329

          k = 0.0982 0.2836 0.0000 (  2890 PWs)   bands (ev):

   -36.6367 -36.3524  -1.9074   5.3424   6.2387  12.3202  13.8213  17.0052
    21.6340

          k = 0.0982 0.2836 0.1724 (  2898 PWs)   bands (ev):

   -36.6210 -36.3402  -1.6070   5.5873   6.5508  12.3764  14.0525  16.1766
    20.5363

          k = 0.0982 0.2836 0.3448 (  2903 PWs)   bands (ev):

   -36.5813 -36.3091  -0.7149   6.2587   7.4815  11.6189  14.2929  15.3749
    19.5809

          k = 0.0982 0.2836 0.5172 (  2909 PWs)   bands (ev):

   -36.5359 -36.2737   0.7388   6.7335   8.9776   9.7784  14.7326  15.6698
    17.2828

          k = 0.0982 0.2836 0.6896 (  2910 PWs)   bands (ev):

   -36.5061 -36.2505   2.6833   5.0569  10.1724  11.1678  13.3769  13.8423
    16.1086

          k = 0.0982 0.3971 0.0000 (  2895 PWs)   bands (ev):

   -36.5960 -36.3922  -1.6880   4.4190   5.7281  12.4481  15.8334  19.0332
    22.3126

          k = 0.0982 0.3971 0.1724 (  2900 PWs)   bands (ev):

   -36.5809 -36.3795  -1.3737   4.6471   6.0380  12.4884  15.9837  17.7551
    21.2089

          k = 0.0982 0.3971 0.3448 (  2904 PWs)   bands (ev):

   -36.5425 -36.3473  -0.4405   5.2976   6.9594  11.9620  14.8947  16.9202
    18.8579

          k = 0.0982 0.3971 0.5172 (  2913 PWs)   bands (ev):

   -36.4986 -36.3105   1.0799   6.1220   8.3975   9.7756  14.4453  14.9567
    17.5085

          k = 0.0982 0.3971 0.6896 (  2908 PWs)   bands (ev):

   -36.4698 -36.2864   3.1094   5.4022   8.6136  10.6622  12.7004  13.2707
    15.8448

          k = 0.0982 0.5105 0.0000 (  2895 PWs)   bands (ev):

   -36.5596 -36.4280  -1.5326   3.8935   5.4689  12.5030  18.0663  19.9796
    22.1422

          k = 0.0982 0.5105 0.1724 (  2909 PWs)   bands (ev):

   -36.5450 -36.4149  -1.2073   4.1097   5.7780  12.5428  17.9573  18.8646
    20.6841

          k = 0.0982 0.5105 0.3448 (  2910 PWs)   bands (ev):

   -36.5078 -36.3816  -0.2406   4.7382   6.6960  12.1559  15.2658  17.3324
    19.6593

          k = 0.0982 0.5105 0.5172 (  2911 PWs)   bands (ev):

   -36.4653 -36.3436   1.3341   5.6757   8.1143   9.8565  14.2665  14.4073
    17.4053

          k = 0.0982 0.5105 0.6896 (  2908 PWs)   bands (ev):

   -36.4374 -36.3186   3.3831   6.0978   7.2076  10.4094  12.3773  12.9868
    15.6649

          k = 0.1965 0.3403 0.0000 (  2897 PWs)   bands (ev):

   -36.6011 -36.3872  -1.7144   4.6809   5.5140  13.3620  14.4453  18.9892
    22.2069

          k = 0.1965 0.3403 0.1724 (  2904 PWs)   bands (ev):

   -36.5859 -36.3746  -1.4020   4.9171   5.8075  13.3780  14.6164  17.7087
    21.2269

          k = 0.1965 0.3403 0.3448 (  2901 PWs)   bands (ev):

   -36.5473 -36.3426  -0.4746   5.5822   6.6801  12.3882  15.0105  15.9277
    19.5159

          k = 0.1965 0.3403 0.5172 (  2917 PWs)   bands (ev):

   -36.5032 -36.3059   1.0354   6.3321   8.0969   9.9480  14.8921  14.9926
    17.6544

          k = 0.1965 0.3403 0.6896 (  2916 PWs)   bands (ev):

   -36.4743 -36.2819   3.0536   5.3346   9.4345   9.8686  12.8069  13.0677
    17.1596

          k = 0.1965 0.4538 0.0000 (  2889 PWs)   bands (ev):

   -36.5598 -36.4279  -1.5371   4.1600   5.0493  13.7396  16.0151  19.9200
    22.9062

          k = 0.1965 0.4538 0.1724 (  2900 PWs)   bands (ev):

   -36.5451 -36.4148  -1.2126   4.3884   5.3307  13.7866  16.0803  18.6856
    20.4046

          k = 0.1965 0.4538 0.3448 (  2912 PWs)   bands (ev):

   -36.5079 -36.3815  -0.2491   5.0483   6.1625  12.9922  15.4518  16.6116
    18.7863

          k = 0.1965 0.4538 0.5172 (  2911 PWs)   bands (ev):

   -36.4653 -36.3435   1.3174   5.9845   7.4706  10.1630  14.5087  14.5484
    17.7881

          k = 0.1965 0.4538 0.6896 (  2911 PWs)   bands (ev):

   -36.4374 -36.3186   3.3555   5.9073   8.1319   9.3199  12.4313  12.6639
    17.5129

          k = 0.1965 0.5672 0.0000 (  2886 PWs)   bands (ev):

   -36.5344 -36.4531  -1.4630   3.9559   4.8987  13.8006  17.9279  18.2587
    23.3364

          k = 0.1965 0.5672 0.1724 (  2898 PWs)   bands (ev):

   -36.5200 -36.4397  -1.1331   4.1803   5.1764  13.8571  17.8263  18.2070
    19.4226

          k = 0.1965 0.5672 0.3448 (  2921 PWs)   bands (ev):

   -36.4836 -36.4056  -0.1530   4.8356   5.9942  13.2151  15.5961  16.9232
    18.7223

          k = 0.1965 0.5672 0.5172 (  2907 PWs)   bands (ev):

   -36.4419 -36.3668   1.4392   5.8377   7.2521  10.2639  14.2882  14.4044
    17.7908

          k = 0.1965 0.5672 0.6896 (  2920 PWs)   bands (ev):

   -36.4146 -36.3413   3.4644   6.8423   6.8797   9.1849  12.3080  12.5336
    17.5313

          k = 0.2947 0.5105 0.0000 (  2887 PWs)   bands (ev):

   -36.5188 -36.4685  -1.4365   4.1431   4.5111  15.1155  16.4095  18.1319
    23.4306

          k = 0.2947 0.5105 0.1724 (  2892 PWs)   bands (ev):

   -36.5047 -36.4549  -1.1049   4.3791   4.7685  15.1895  16.4156  18.0444
    19.3470

          k = 0.2947 0.5105 0.3448 (  2923 PWs)   bands (ev):

   -36.4687 -36.4205  -0.1202   5.0683   5.5264  13.8401  16.0618  16.4517
    17.9302

          k = 0.2947 0.5105 0.5172 (  2909 PWs)   bands (ev):

   -36.4276 -36.3811   1.4769   6.1170   6.7179  10.4119  14.3039  14.3836
    18.5658

          k = 0.2947 0.5105 0.6896 (  2913 PWs)   bands (ev):

   -36.4006 -36.3552   3.4877   6.7498   7.8123   8.0246  12.3131  12.3946
    19.0679

     the Fermi energy is     9.6773 ev

!    total energy              =     -37.20288836 Ry
     estimated scf accuracy    <          5.7E-09 Ry
     smearing contrib. (-TS)   =      -0.00015058 Ry
     internal energy E=F+TS    =     -37.20273778 Ry

     The total energy is F=E-TS. E is the sum of the following terms:
     one-electron contribution =      -7.60643837 Ry
     hartree contribution      =       5.69036603 Ry
     xc contribution           =     -10.32501664 Ry
     ewald contribution        =     -24.96164881 Ry

     convergence has been achieved in   6 iterations

     Forces acting on atoms (cartesian axes, Ry/au):

     atom    1 type  1   force =    -0.00000000   -0.00000000    0.00000000
     atom    2 type  2   force =     0.00000000    0.00000000   -0.00000000
     atom    3 type  2   force =     0.00000000    0.00000000   -0.00000000
     The non-local contrib.  to forces
     atom    1 type  1   force =    -0.00000000    0.00000000    0.00000000
     atom    2 type  2   force =     0.00000000   -0.00000000    0.00000000
     atom    3 type  2   force =     0.00000000    0.00000000    0.00000000
     The ionic contribution  to forces
     atom    1 type  1   force =    -0.00000000    0.00000000    0.00000000
     atom    2 type  2   force =     0.00000008   -0.00000004   -0.00000000
     atom    3 type  2   force =    -0.00000008    0.00000004   -0.00000000
     The local contribution  to forces
     atom    1 type  1   force =     0.00000000    0.00000000   -0.00000000
     atom    2 type  2   force =     0.00000065   -0.00000038   -0.00000000
     atom    3 type  2   force =    -0.00000065    0.00000038   -0.00000000
     The core correction contribution to forces
     atom    1 type  1   force =     0.00000000    0.00000000    0.00000000
     atom    2 type  2   force =     0.00000000    0.00000000    0.00000000
     atom    3 type  2   force =     0.00000000    0.00000000    0.00000000
     The Hubbard contrib.    to forces
     atom    1 type  1   force =     0.00000000    0.00000000    0.00000000
     atom    2 type  2   force =     0.00000000    0.00000000    0.00000000
     atom    3 type  2   force =     0.00000000    0.00000000    0.00000000
     The SCF correction term to forces
     atom    1 type  1   force =     0.00000000    0.00000000   -0.00000000
     atom    2 type  2   force =    -0.00000000    0.00000000    0.00000000
     atom    3 type  2   force =     0.00000000   -0.00000000   -0.00000000

     Total force =     0.000000     Total SCF correction =     0.000000


     Computing stress (Cartesian axis) and pressure

          total   stress  (Ry/bohr**3)                   (kbar)     P=      501.80
   0.00356708  -0.00000000   0.00000000          524.74       -0.00        0.00
  -0.00000000   0.00356708  -0.00000000           -0.00      524.74       -0.00
   0.00000000  -0.00000000   0.00309929            0.00       -0.00      455.92

     Energy error            =      3.2E-03 Ry
     Gradient error          =      5.1E-32 Ry/Bohr
     Cell gradient error     =      4.4E+01 kbar

     number of scf cycles    =   2
     number of bfgs steps    =   1

     enthalpy           old  =     -36.5988782262 Ry
     enthalpy           new  =     -36.6020750989 Ry

     CASE: enthalpy          _new < enthalpy          _old

     new trust radius        =       0.0320352540 bohr
ibrav =      4
 celldm(1) =      6.90810707
 celldm(3) =      0.62087560
Input lattice vectors:
     1.02546701    -0.00000000     0.00000000
    -0.51273350     0.88808048    -0.00000000
     0.00000000    -0.00000000     0.63668745
New lattice vectors in INITIAL alat:
     1.02546701     0.00000000     0.00000000
    -0.51273350     0.88808048     0.00000000
     0.00000000     0.00000000     0.63668745
New lattice vectors in NEW alat (for information only):
     1.00000000     0.00000000     0.00000000
    -0.50000000     0.86602540     0.00000000
     0.00000000     0.00000000     0.62087560
Discrepancy in bohr =     0.000000    0.000000    0.000000
     new conv_thr            =            1.0E-10 Ry

     new unit-cell volume =    177.26068 a.u.^3 (    26.26732 Ang^3 )
     density =      2.65306 g/cm^3

CELL_PARAMETERS (alat=  6.73654736)
   1.025467008   0.000000000   0.000000000
  -0.512733504   0.888080480   0.000000000
   0.000000000   0.000000000   0.636687448

ATOMIC_POSITIONS (crystal)
Si           -0.0000000000       -0.0000000000        0.0000000000
Li            0.3333333300        0.6666666700        0.5000000000
Li            0.6666666700        0.3333333300        0.5000000000



     Writing config-only to output data dir ./output/SiLi.save/
     NEW-OLD atomic charge density approx. for the potential
     extrapolated charge   10.02792, renormalised to   10.00000

     total cpu time spent up to now is       11.6 secs

     Self-consistent Calculation

     iteration #  1     ecut=   100.00 Ry     beta= 0.70
     Davidson diagonalization with overlap
     ethr =  1.00E-06,  avg # of iterations =  5.3

     total cpu time spent up to now is       12.5 secs

     total energy              =     -37.20508740 Ry
     estimated scf accuracy    <       0.00002385 Ry

     iteration #  2     ecut=   100.00 Ry     beta= 0.70
     Davidson diagonalization with overlap
     ethr =  2.38E-07,  avg # of iterations =  2.0

     total cpu time spent up to now is       13.1 secs

     total energy              =     -37.20510560 Ry
     estimated scf accuracy    <       0.00000517 Ry

     iteration #  3     ecut=   100.00 Ry     beta= 0.70
     Davidson diagonalization with overlap
     ethr =  5.17E-08,  avg # of iterations =  1.5

     total cpu time spent up to now is       13.5 secs

     total energy              =     -37.20510582 Ry
     estimated scf accuracy    <       0.00000041 Ry

     iteration #  4     ecut=   100.00 Ry     beta= 0.70
     Davidson diagonalization with overlap
     ethr =  4.07E-09,  avg # of iterations =  2.0

     total cpu time spent up to now is       14.1 secs

     total energy              =     -37.20510591 Ry
     estimated scf accuracy    <       0.00000003 Ry

     iteration #  5     ecut=   100.00 Ry     beta= 0.70
     Davidson diagonalization with overlap
     ethr =  2.83E-10,  avg # of iterations =  2.0

     total cpu time spent up to now is       14.6 secs

     total energy              =     -37.20510591 Ry
     estimated scf accuracy    <          3.1E-10 Ry

     iteration #  6     ecut=   100.00 Ry     beta= 0.70
     Davidson diagonalization with overlap
     ethr =  3.08E-12,  avg # of iterations =  2.8

     total cpu time spent up to now is       15.1 secs

     End of self-consistent calculation

          k = 0.0000 0.0000 0.0000 (  2929 PWs)   bands (ev):

   -36.7171 -36.3405  -2.3410   7.9544   7.9544  10.5743  10.5743  13.2560
    21.4334

          k = 0.0000 0.0000 0.1745 (  2912 PWs)   bands (ev):

   -36.6992 -36.3275  -2.0503   8.2773   8.2773  10.9289  10.9289  12.5470
    19.9939

          k = 0.0000 0.0000 0.3490 (  2894 PWs)   bands (ev):

   -36.6538 -36.2948  -1.1865   9.2463   9.2463  10.3993  11.9910  11.9910
    18.8473

          k = 0.0000 0.0000 0.5235 (  2918 PWs)   bands (ev):

   -36.6019 -36.2573   0.2222   7.5512  10.8613  10.8613  13.7526  13.7526
    18.7630

          k = 0.0000 0.0000 0.6981 (  2936 PWs)   bands (ev):

   -36.5678 -36.2327   2.0714   4.8539  13.1115  13.1115  16.0796  16.0796
    16.1605

          k = 0.0000 0.1126 0.0000 (  2901 PWs)   bands (ev):

   -36.7087 -36.3485  -2.2872   7.1825   7.4737  11.0545  11.3334  13.7915
    21.5546

          k = 0.0000 0.1126 0.1745 (  2904 PWs)   bands (ev):

   -36.6910 -36.3355  -1.9936   7.4779   7.8016  11.3410  11.6826  13.1379
    20.0918

          k = 0.0000 0.1126 0.3490 (  2903 PWs)   bands (ev):

   -36.6459 -36.3025  -1.1216   8.2649   8.7852  10.8443  12.5743  12.7287
    18.9953

          k = 0.0000 0.1126 0.5235 (  2912 PWs)   bands (ev):

   -36.5943 -36.2647   0.3006   7.4692  10.3901  10.4232  14.0764  14.4601
    18.2252

          k = 0.0000 0.1126 0.6981 (  2933 PWs)   bands (ev):

   -36.5605 -36.2400   2.1769   4.8856  12.3947  12.7086  15.2431  15.5995
    16.0223

          k = 0.0000 0.2252 0.0000 (  2893 PWs)   bands (ev):

   -36.6849 -36.3716  -2.1367   5.8974   6.6999  11.5115  12.9400  15.3156
    21.9137

          k = 0.0000 0.2252 0.1745 (  2898 PWs)   bands (ev):

   -36.6675 -36.3583  -1.8349   6.1637   7.0318  11.6426  13.2842  14.7037
    20.3874

          k = 0.0000 0.2252 0.3490 (  2908 PWs)   bands (ev):

   -36.6233 -36.3246  -0.9387   6.8874   8.0272  11.1718  13.6610  14.3132
    19.3002

          k = 0.0000 0.2252 0.5235 (  2919 PWs)   bands (ev):

   -36.5727 -36.2860   0.5226   7.1189   9.6849   9.7518  14.3229  15.9861
    16.8707

          k = 0.0000 0.2252 0.6981 (  2909 PWs)   bands (ev):

   -36.5395 -36.2606   2.4731   4.9930  10.9507  12.0001  14.0147  14.9449
    15.2587

          k = 0.0000 0.3378 0.0000 (  2898 PWs)   bands (ev):

   -36.6493 -36.4063  -1.9268   4.7661   6.0724  11.7218  14.9457  17.2812
    22.4918

          k = 0.0000 0.3378 0.1745 (  2895 PWs)   bands (ev):

   -36.6324 -36.3925  -1.6124   5.0110   6.4061  11.7901  15.2859  16.4625
    20.8313

          k = 0.0000 0.3378 0.3490 (  2906 PWs)   bands (ev):

   -36.5895 -36.3577  -0.6791   5.7027   7.4067  11.4251  14.5196  16.2973
    18.8585

          k = 0.0000 0.3378 0.5235 (  2918 PWs)   bands (ev):

   -36.5404 -36.3178   0.8415   6.4638   9.0731   9.5328  14.2437  15.6414
    17.5530

          k = 0.0000 0.3378 0.6981 (  2902 PWs)   bands (ev):

   -36.5082 -36.2916   2.8823   5.2323   9.3644  11.4002  13.0807  14.3833
    14.6318

          k = 0.0000 0.4504 0.0000 (  2896 PWs)   bands (ev):

   -36.6104 -36.4445  -1.7304   3.9941   5.6814  11.8235  17.2237  19.1624
    23.2160

          k = 0.0000 0.4504 0.1745 (  2900 PWs)   bands (ev):

   -36.5941 -36.4302  -1.4028   4.2224   6.0157  11.8757  17.5599  17.9550
    21.2520

          k = 0.0000 0.4504 0.3490 (  2903 PWs)   bands (ev):

   -36.5525 -36.3941  -0.4297   4.8830   7.0186  11.6098  15.1131  18.0301
    18.5382

          k = 0.0000 0.4504 0.5235 (  2908 PWs)   bands (ev):

   -36.5050 -36.3528   1.1546   5.8282   8.6888   9.5748  14.1195  14.7891
    17.5956

          k = 0.0000 0.4504 0.6981 (  2913 PWs)   bands (ev):

   -36.4738 -36.3257   3.2428   5.7335   7.8751  11.0202  12.5512  14.0242
    14.2413

          k = 0.0000-0.5630 0.0000 (  2896 PWs)   bands (ev):

   -36.5896 -36.4650  -1.6470   3.7162   5.5493  11.8554  19.1275  20.1545
    20.8014

          k = 0.0000-0.5630 0.1745 (  2918 PWs)   bands (ev):

   -36.5735 -36.4505  -1.3132   3.9374   5.8839  11.9049  18.6730  19.4734
    21.3523

          k = 0.0000-0.5630 0.3490 (  2906 PWs)   bands (ev):

   -36.5327 -36.4137  -0.3212   4.5826   6.8874  11.6779  15.3851  17.6217
    20.5057

          k = 0.0000-0.5630 0.5235 (  2904 PWs)   bands (ev):

   -36.4860 -36.3716   1.2941   5.5650   8.5587   9.6219  14.0920  14.4584
    17.5040

          k = 0.0000-0.5630 0.6981 (  2914 PWs)   bands (ev):

   -36.4554 -36.3440   3.3818   6.5362   6.7143  10.8912  12.3829  13.9017
    14.1093

          k = 0.0975 0.1689 0.0000 (  2901 PWs)   bands (ev):

   -36.6926 -36.3641  -2.1849   6.3002   6.8102  11.8136  12.0479  14.8891
    21.7948

          k = 0.0975 0.1689 0.1745 (  2898 PWs)   bands (ev):

   -36.6751 -36.3509  -1.8858   6.5751   7.1352  11.9740  12.3541  14.3335
    20.2970

          k = 0.0975 0.1689 0.3490 (  2900 PWs)   bands (ev):

   -36.6306 -36.3174  -0.9975   7.3079   8.1084  11.2395  13.2460  13.8661
    19.3460

          k = 0.0975 0.1689 0.5235 (  2923 PWs)   bands (ev):

   -36.5797 -36.2791   0.4510   7.2581   9.7226  10.0175  14.5889  15.1270
    17.8577

          k = 0.0975 0.1689 0.6981 (  2920 PWs)   bands (ev):

   -36.5463 -36.2539   2.3781   4.9548  11.5504  11.9445  14.3692  14.7561
    16.0809

          k = 0.0975 0.2815 0.0000 (  2890 PWs)   bands (ev):

   -36.6626 -36.3933  -2.0032   5.2290   6.0973  12.1468  13.6067  16.7545
    22.2647

          k = 0.0975 0.2815 0.1745 (  2898 PWs)   bands (ev):

   -36.6456 -36.3797  -1.6936   5.4844   6.4178  12.2352  13.8561  16.1085
    20.7211

          k = 0.0975 0.2815 0.3490 (  2903 PWs)   bands (ev):

   -36.6022 -36.3452  -0.7746   6.1921   7.3741  11.6614  14.1953  15.2665
    19.6333

          k = 0.0975 0.2815 0.5235 (  2909 PWs)   bands (ev):

   -36.5525 -36.3058   0.7232   6.7700   8.9202   9.8187  14.6578  15.6984
    17.2727

          k = 0.0975 0.2815 0.6981 (  2910 PWs)   bands (ev):

   -36.5199 -36.2800   2.7330   5.1261  10.1971  11.1613  13.4061  13.8711
    16.0658

          k = 0.0975 0.3941 0.0000 (  2895 PWs)   bands (ev):

   -36.6241 -36.4310  -1.7956   4.3329   5.5967  12.2797  15.5899  18.7619
    22.9265

          k = 0.0975 0.3941 0.1745 (  2900 PWs)   bands (ev):

   -36.6076 -36.4169  -1.4727   4.5712   5.9152  12.3462  15.7770  17.7830
    21.2340

          k = 0.0975 0.3941 0.3490 (  2904 PWs)   bands (ev):

   -36.5655 -36.3812  -0.5141   5.2538   6.8627  11.9721  14.9232  16.8153
    18.9710

          k = 0.0975 0.3941 0.5235 (  2913 PWs)   bands (ev):

   -36.5175 -36.3404   1.0461   6.1441   8.3572   9.8614  14.4069  15.0619
    17.6196

          k = 0.0975 0.3941 0.6981 (  2908 PWs)   bands (ev):

   -36.4859 -36.3137   3.1213   5.4956   8.6764  10.6660  12.7306  13.3086
    15.8129

          k = 0.0975 0.5067 0.0000 (  2895 PWs)   bands (ev):

   -36.5897 -36.4649  -1.6495   3.8246   5.3422  12.3375  17.7927  19.6845
    21.8856

          k = 0.0975 0.5067 0.1745 (  2909 PWs)   bands (ev):

   -36.5736 -36.4504  -1.3161   4.0510   5.6599  12.3999  17.8199  18.8876
    20.5645

          k = 0.0975 0.5067 0.3490 (  2910 PWs)   bands (ev):

   -36.5328 -36.4136  -0.3259   4.7105   6.6043  12.1404  15.3742  17.4634
    19.5009

          k = 0.0975 0.5067 0.5235 (  2911 PWs)   bands (ev):

   -36.4861 -36.3716   1.2848   5.7019   8.0805   9.9634  14.2511  14.5165
    17.5196

          k = 0.0975 0.5067 0.6981 (  2908 PWs)   bands (ev):

   -36.4554 -36.3440   3.3667   6.2023   7.3005  10.4181  12.4072  13.0292
    15.6387

          k = 0.1950 0.3378 0.0000 (  2897 PWs)   bands (ev):

   -36.6289 -36.4263  -1.8203   4.5849   5.3940  13.1598  14.2417  18.7139
    22.8236

          k = 0.1950 0.3378 0.1745 (  2904 PWs)   bands (ev):

   -36.6123 -36.4123  -1.4993   4.8314   5.6962  13.2165  14.4258  17.7490
    21.2396

          k = 0.1950 0.3378 0.3490 (  2901 PWs)   bands (ev):

   -36.5701 -36.3768  -0.5463   5.5298   6.5954  12.4415  14.8638  15.9280
    19.6732

          k = 0.1950 0.3378 0.5235 (  2917 PWs)   bands (ev):

   -36.5218 -36.3361   1.0044   6.3549   8.0570  10.0375  14.8685  15.0679
    17.6952

          k = 0.1950 0.3378 0.6981 (  2916 PWs)   bands (ev):

   -36.4901 -36.3095   3.0711   5.4247   9.4792   9.8955  12.8407  13.1001
    17.0943

          k = 0.1950 0.4504 0.0000 (  2889 PWs)   bands (ev):

   -36.5898 -36.4648  -1.6535   4.0809   4.9408  13.5347  15.7887  19.6256
    22.2806

          k = 0.1950 0.4504 0.1745 (  2900 PWs)   bands (ev):

   -36.5737 -36.4503  -1.3208   4.3193   5.2313  13.6125  15.8847  18.8117
    20.3016

          k = 0.1950 0.4504 0.3490 (  2912 PWs)   bands (ev):

   -36.5329 -36.4135  -0.3334   5.0104   6.0908  13.0298  15.4245  16.6095
    18.8354

          k = 0.1950 0.4504 0.5235 (  2911 PWs)   bands (ev):

   -36.4861 -36.3715   1.2700   6.0045   7.4487  10.2816  14.5668  14.6108
    17.7821

          k = 0.1950 0.4504 0.6981 (  2911 PWs)   bands (ev):

   -36.4555 -36.3439   3.3429   6.0120   8.2058   9.3610  12.4638  12.7004
    17.4459

          k = 0.1950 0.5630 0.0000 (  2886 PWs)   bands (ev):

   -36.5657 -36.4887  -1.5840   3.8842   4.7934  13.5981  17.6497  18.0128
    23.9169

          k = 0.1950 0.5630 0.1745 (  2898 PWs)   bands (ev):

   -36.5499 -36.4739  -1.2462   4.1187   5.0803  13.6813  17.6386  18.0182
    19.6380

          k = 0.1950 0.5630 0.3490 (  2921 PWs)   bands (ev):

   -36.5099 -36.4363  -0.2432   4.8046   5.9264  13.2337  15.6541  16.9961
    18.5849

          k = 0.1950 0.5630 0.5235 (  2907 PWs)   bands (ev):

   -36.4641 -36.3934   1.3840   5.8587   7.2373  10.3930  14.3914  14.4358
    17.7876

          k = 0.1950 0.5630 0.6981 (  2920 PWs)   bands (ev):

   -36.4341 -36.3652   3.4410   6.9312   6.9862   9.2294  12.3393  12.5720
    17.4659

          k = 0.2925 0.5067 0.0000 (  2887 PWs)   bands (ev):

   -36.5510 -36.5033  -1.5591   4.0643   4.4202  14.8564  16.2010  17.8817
    24.0082

          k = 0.2925 0.5067 0.1745 (  2892 PWs)   bands (ev):

   -36.5354 -36.4883  -1.2196   4.3101   4.6871  14.9691  16.2337  17.8562
    19.6098

          k = 0.2925 0.5067 0.3490 (  2923 PWs)   bands (ev):

   -36.4959 -36.4503  -0.2121   5.0295   5.4737  13.9345  15.9962  16.4739
    17.8574

          k = 0.2925 0.5067 0.5235 (  2909 PWs)   bands (ev):

   -36.4506 -36.4068   1.4197   6.1307   6.7142  10.5526  14.3963  14.4526
    18.4209

          k = 0.2925 0.5067 0.6981 (  2913 PWs)   bands (ev):

   -36.4209 -36.3783   3.4627   6.8496   7.8978   8.0908  12.3463  12.4291
    18.9726

     the Fermi energy is     9.7166 ev

!    total energy              =     -37.20510591 Ry
     estimated scf accuracy    <          8.7E-12 Ry
     smearing contrib. (-TS)   =      -0.00030004 Ry
     internal energy E=F+TS    =     -37.20480587 Ry

     The total energy is F=E-TS. E is the sum of the following terms:
     one-electron contribution =      -7.62694242 Ry
     hartree contribution      =       5.68760411 Ry
     xc contribution           =     -10.32525279 Ry
     ewald contribution        =     -24.94021477 Ry

     convergence has been achieved in   6 iterations

     Forces acting on atoms (cartesian axes, Ry/au):

     atom    1 type  1   force =     0.00000000    0.00000000    0.00000000
     atom    2 type  2   force =     0.00000000    0.00000000   -0.00000000
     atom    3 type  2   force =     0.00000000   -0.00000000    0.00000000
     The non-local contrib.  to forces
     atom    1 type  1   force =     0.00000000    0.00000000   -0.00000000
     atom    2 type  2   force =    -0.00000000    0.00000000    0.00000000
     atom    3 type  2   force =     0.00000000   -0.00000000    0.00000000
     The ionic contribution  to forces
     atom    1 type  1   force =     0.00000000    0.00000000    0.00000000
     atom    2 type  2   force =     0.00000008   -0.00000004    0.00000000
     atom    3 type  2   force =    -0.00000008    0.00000004    0.00000000
     The local contribution  to forces
     atom    1 type  1   force =     0.00000000    0.00000000   -0.00000000
     atom    2 type  2   force =     0.00000066   -0.00000038   -0.00000000
     atom    3 type  2   force =    -0.00000066    0.00000038   -0.00000000
     The core correction contribution to forces
     atom    1 type  1   force =     0.00000000    0.00000000   -0.00000000
     atom    2 type  2   force =     0.00000000    0.00000000    0.00000000
     atom    3 type  2   force =     0.00000000    0.00000000    0.00000000
     The Hubbard contrib.    to forces
     atom    1 type  1   force =     0.00000000    0.00000000    0.00000000
     atom    2 type  2   force =     0.00000000    0.00000000    0.00000000
     atom    3 type  2   force =     0.00000000    0.00000000    0.00000000
     The SCF correction term to forces
     atom    1 type  1   force =     0.00000000    0.00000000    0.00000000
     atom    2 type  2   force =     0.00000000   -0.00000000   -0.00000000
     atom    3 type  2   force =    -0.00000000    0.00000000    0.00000000

     Total force =     0.000000     Total SCF correction =     0.000000


     Computing stress (Cartesian axis) and pressure

          total   stress  (Ry/bohr**3)                   (kbar)     P=      500.78
   0.00340017  -0.00000000   0.00000000          500.18       -0.00        0.00
  -0.00000000   0.00340017  -0.00000000           -0.00      500.18       -0.00
  -0.00000000   0.00000000   0.00341227           -0.00        0.00      501.96

     Energy error            =      5.3E-04 Ry
     Gradient error          =      3.0E-23 Ry/Bohr
     Cell gradient error     =      2.0E+00 kbar

     number of scf cycles    =   3
     number of bfgs steps    =   2

     enthalpy           old  =     -36.6020750989 Ry
     enthalpy           new  =     -36.6026091126 Ry

     CASE: enthalpy          _new < enthalpy          _old

     new trust radius        =       0.0010957155 bohr
ibrav =      4
 celldm(1) =      6.90774968
 celldm(3) =      0.62116322
Input lattice vectors:
     1.02541396    -0.00000000    -0.00000000
    -0.51270698     0.88803454     0.00000000
     0.00000000    -0.00000000     0.63694944
New lattice vectors in INITIAL alat:
     1.02541396     0.00000000     0.00000000
    -0.51270698     0.88803454     0.00000000
     0.00000000     0.00000000     0.63694944
New lattice vectors in NEW alat (for information only):
     1.00000000     0.00000000     0.00000000
    -0.50000000     0.86602540     0.00000000
     0.00000000     0.00000000     0.62116322
Discrepancy in bohr =     0.000000    0.000000    0.000000
     new conv_thr            =            1.0E-10 Ry

     new unit-cell volume =    177.31527 a.u.^3 (    26.27541 Ang^3 )
     density =      2.65224 g/cm^3

CELL_PARAMETERS (alat=  6.73654736)
   1.025413957   0.000000000   0.000000000
  -0.512706978   0.888034536   0.000000000
   0.000000000   0.000000000   0.636949440

ATOMIC_POSITIONS (crystal)
Si           -0.0000000000       -0.0000000000        0.0000000000
Li            0.3333333300        0.6666666700        0.5000000000
Li            0.6666666700        0.3333333300        0.5000000000



     Writing config-only to output data dir ./output/SiLi.save/
     NEW-OLD atomic charge density approx. for the potential
     extrapolated charge   10.00308, renormalised to   10.00000

     total cpu time spent up to now is       16.2 secs

     Self-consistent Calculation

     iteration #  1     ecut=   100.00 Ry     beta= 0.70
     Davidson diagonalization with overlap
     ethr =  1.00E-06,  avg # of iterations =  1.0

     Threshold (ethr) on eigenvalues was too large:
     Diagonalizing with lowered threshold

     Davidson diagonalization with overlap
     ethr =  4.07E-10,  avg # of iterations =  3.5

     total cpu time spent up to now is       17.2 secs

     total energy              =     -37.20529182 Ry
     estimated scf accuracy    <       0.00000003 Ry

     iteration #  2     ecut=   100.00 Ry     beta= 0.70
     Davidson diagonalization with overlap
     ethr =  3.23E-10,  avg # of iterations =  2.9

     total cpu time spent up to now is       17.8 secs

     total energy              =     -37.20529194 Ry
     estimated scf accuracy    <       0.00000003 Ry

     iteration #  3     ecut=   100.00 Ry     beta= 0.70
     Davidson diagonalization with overlap
     ethr =  2.69E-10,  avg # of iterations =  1.0

     total cpu time spent up to now is       18.3 secs

     total energy              =     -37.20529194 Ry
     estimated scf accuracy    <          6.8E-09 Ry

     iteration #  4     ecut=   100.00 Ry     beta= 0.70
     Davidson diagonalization with overlap
     ethr =  6.80E-11,  avg # of iterations =  1.0

     total cpu time spent up to now is       18.7 secs

     total energy              =     -37.20529194 Ry
     estimated scf accuracy    <          1.0E-09 Ry

     iteration #  5     ecut=   100.00 Ry     beta= 0.70
     Davidson diagonalization with overlap
     ethr =  1.02E-11,  avg # of iterations =  2.0

     total cpu time spent up to now is       19.2 secs

     End of self-consistent calculation

          k = 0.0000 0.0000 0.0000 (  2929 PWs)   bands (ev):

   -36.7202 -36.3435  -2.3417   7.9551   7.9551  10.5745  10.5745  13.2544
    21.4099

          k = 0.0000 0.0000 0.1744 (  2912 PWs)   bands (ev):

   -36.7024 -36.3306  -2.0512   8.2778   8.2778  10.9288  10.9288  12.5434
    19.9771

          k = 0.0000 0.0000 0.3489 (  2894 PWs)   bands (ev):

   -36.6572 -36.2980  -1.1882   9.2460   9.2460  10.3928  11.9900  11.9900
    18.8376

          k = 0.0000 0.0000 0.5233 (  2918 PWs)   bands (ev):

   -36.6054 -36.2606   0.2191   7.5447  10.8596  10.8596  13.7501  13.7501
    18.7561

          k = 0.0000 0.0000 0.6978 (  2936 PWs)   bands (ev):

   -36.5714 -36.2362   2.0661   4.8495  13.1077  13.1077  16.0743  16.0743
    16.1558

          k = 0.0000 0.1126 0.0000 (  2901 PWs)   bands (ev):

   -36.7118 -36.3516  -2.2878   7.1828   7.4742  11.0545  11.3338  13.7903
    21.5311

          k = 0.0000 0.1126 0.1744 (  2904 PWs)   bands (ev):

   -36.6942 -36.3386  -1.9945   7.4779   7.8019  11.3406  11.6827  13.1347
    20.0753

          k = 0.0000 0.1126 0.3489 (  2903 PWs)   bands (ev):

   -36.6492 -36.3057  -1.1233   8.2636   8.7847  10.8386  12.5728  12.7278
    18.9861

          k = 0.0000 0.1126 0.5233 (  2912 PWs)   bands (ev):

   -36.5978 -36.2681   0.2976   7.4631  10.3875  10.4214  14.0738  14.4577
    18.2183

          k = 0.0000 0.1126 0.6978 (  2933 PWs)   bands (ev):

   -36.5641 -36.2434   2.1718   4.8811  12.3903  12.7047  15.2373  15.5934
    16.0186

          k = 0.0000 0.2252 0.0000 (  2893 PWs)   bands (ev):

   -36.6880 -36.3747  -2.1371   5.8970   6.7002  11.5109  12.9406  15.3153
    21.8903

          k = 0.0000 0.2252 0.1744 (  2898 PWs)   bands (ev):

   -36.6706 -36.3615  -1.8356   6.1630   7.0319  11.6414  13.2845  14.7007
    20.3721

          k = 0.0000 0.2252 0.3489 (  2908 PWs)   bands (ev):

   -36.6266 -36.3278  -0.9402   6.8857   8.0265  11.1666  13.6574  14.3126
    19.2924

          k = 0.0000 0.2252 0.5233 (  2919 PWs)   bands (ev):

   -36.5762 -36.2893   0.5198   7.1141   9.6828   9.7471  14.3194  15.9837
    16.8629

          k = 0.0000 0.2252 0.6978 (  2909 PWs)   bands (ev):

   -36.5431 -36.2641   2.4683   4.9882  10.9455  11.9961  14.0093  14.9384
    15.2545

          k = 0.0000 0.3378 0.0000 (  2898 PWs)   bands (ev):

   -36.6524 -36.4093  -1.9269   4.7652   6.0727  11.7208  14.9465  17.2813
    22.4684

          k = 0.0000 0.3378 0.1744 (  2895 PWs)   bands (ev):

   -36.6356 -36.3957  -1.6128   5.0097   6.4060  11.7885  15.2865  16.4580
    20.8184

          k = 0.0000 0.3378 0.3489 (  2906 PWs)   bands (ev):

   -36.5928 -36.3609  -0.6804   5.7006   7.4059  11.4206  14.5129  16.2968
    18.8491

          k = 0.0000 0.3378 0.5233 (  2918 PWs)   bands (ev):

   -36.5439 -36.3211   0.8391   6.4599   9.0709   9.5263  14.2393  15.6334
    17.5465

          k = 0.0000 0.3378 0.6978 (  2902 PWs)   bands (ev):

   -36.5117 -36.2951   2.8783   5.2270   9.3585  11.3962  13.0753  14.3766
    14.6272

          k = 0.0000 0.4504 0.0000 (  2896 PWs)   bands (ev):

   -36.6135 -36.4475  -1.7303   3.9927   5.6815  11.8223  17.2248  19.1626
    23.1926

          k = 0.0000 0.4504 0.1744 (  2900 PWs)   bands (ev):

   -36.5972 -36.4333  -1.4029   4.2206   6.0157  11.8740  17.5607  17.9476
    21.2418

          k = 0.0000 0.4504 0.3489 (  2903 PWs)   bands (ev):

   -36.5558 -36.3973  -0.4306   4.8805   7.0177  11.6058  15.1040  18.0199
    18.5376

          k = 0.0000 0.4504 0.5233 (  2908 PWs)   bands (ev):

   -36.5084 -36.3562   1.1525   5.8244   8.6865   9.5675  14.1144  14.7812
    17.5860

          k = 0.0000 0.4504 0.6978 (  2913 PWs)   bands (ev):

   -36.4774 -36.3292   3.2396   5.7276   7.8688  11.0161  12.5458  14.0174
    14.2365

          k = 0.0000-0.5630 0.0000 (  2896 PWs)   bands (ev):

   -36.5927 -36.4681  -1.6468   3.7145   5.5495  11.8541  19.1290  20.1550
    20.8022

          k = 0.0000-0.5630 0.1744 (  2918 PWs)   bands (ev):

   -36.5767 -36.4536  -1.3132   3.9355   5.8838  11.9031  18.6634  19.4746
    21.3411

          k = 0.0000-0.5630 0.3489 (  2906 PWs)   bands (ev):

   -36.5360 -36.4169  -0.3219   4.5799   6.8865  11.6740  15.3748  17.6116
    20.5059

          k = 0.0000-0.5630 0.5233 (  2904 PWs)   bands (ev):

   -36.4895 -36.3750   1.2922   5.5611   8.5564   9.6144  14.0865  14.4508
    17.4942

          k = 0.0000-0.5630 0.6978 (  2914 PWs)   bands (ev):

   -36.4589 -36.3475   3.3789   6.5307   6.7070  10.8871  12.3775  13.8949
    14.1045

          k = 0.0975 0.1689 0.0000 (  2901 PWs)   bands (ev):

   -36.6957 -36.3672  -2.1854   6.3001   6.8105  11.8135  12.0481  14.8887
    21.7714

          k = 0.0975 0.1689 0.1744 (  2898 PWs)   bands (ev):

   -36.6783 -36.3540  -1.8865   6.5746   7.1352  11.9731  12.3539  14.3309
    20.2813

          k = 0.0975 0.1689 0.3489 (  2900 PWs)   bands (ev):

   -36.6339 -36.3206  -0.9991   7.3063   8.1076  11.2339  13.2450  13.8638
    19.3380

          k = 0.0975 0.1689 0.5233 (  2923 PWs)   bands (ev):

   -36.5832 -36.2824   0.4481   7.2528   9.7204  10.0135  14.5865  15.1235
    17.8504

          k = 0.0975 0.1689 0.6978 (  2920 PWs)   bands (ev):

   -36.5499 -36.2574   2.3732   4.9501  11.5454  11.9404  14.3635  14.7508
    16.0763

          k = 0.0975 0.2815 0.0000 (  2890 PWs)   bands (ev):

   -36.6657 -36.3963  -2.0035   5.2283   6.0974  12.1463  13.6070  16.7548
    22.2413

          k = 0.0975 0.2815 0.1744 (  2898 PWs)   bands (ev):

   -36.6487 -36.3828  -1.6942   5.4835   6.4176  12.2340  13.8558  16.1051
    20.7074

          k = 0.0975 0.2815 0.3489 (  2903 PWs)   bands (ev):

   -36.6055 -36.3485  -0.7759   6.1902   7.3731  11.6562  14.1924  15.2634
    19.6253

          k = 0.0975 0.2815 0.5233 (  2909 PWs)   bands (ev):

   -36.5560 -36.3092   0.7206   6.7658   8.9177   9.8129  14.6543  15.6922
    17.2671

          k = 0.0975 0.2815 0.6978 (  2910 PWs)   bands (ev):

   -36.5235 -36.2835   2.7287   5.1209  10.1915  11.1568  13.4006  13.8658
    16.0608

          k = 0.0975 0.3941 0.0000 (  2895 PWs)   bands (ev):

   -36.6272 -36.4340  -1.7956   4.3317   5.5967  12.2788  15.5904  18.7624
    22.9032

          k = 0.0975 0.3941 0.1744 (  2900 PWs)   bands (ev):

   -36.6107 -36.4200  -1.4729   4.5697   5.9149  12.3448  15.7767  17.7768
    21.2245

          k = 0.0975 0.3941 0.3489 (  2904 PWs)   bands (ev):

   -36.5688 -36.3845  -0.5152   5.2515   6.8616  11.9675  14.9164  16.8120
    18.9621

          k = 0.0975 0.3941 0.5233 (  2913 PWs)   bands (ev):

   -36.5209 -36.3438   1.0439   6.1403   8.3545   9.8545  14.4023  15.0542
    17.6106

          k = 0.0975 0.3941 0.6978 (  2908 PWs)   bands (ev):

   -36.4895 -36.3172   3.1178   5.4899   8.6703  10.6614  12.7252  13.3031
    15.8076

          k = 0.0975 0.5067 0.0000 (  2895 PWs)   bands (ev):

   -36.5927 -36.4680  -1.6492   3.8230   5.3421  12.3365  17.7934  19.6856
    21.8847

          k = 0.0975 0.5067 0.1744 (  2909 PWs)   bands (ev):

   -36.5767 -36.4536  -1.3161   4.0492   5.6595  12.3985  17.8181  18.8806
    20.5600

          k = 0.0975 0.5067 0.3489 (  2910 PWs)   bands (ev):

   -36.5361 -36.4169  -0.3266   4.7079   6.6031  12.1364  15.3648  17.4551
    19.4980

          k = 0.0975 0.5067 0.5233 (  2911 PWs)   bands (ev):

   -36.4895 -36.3749   1.2829   5.6980   8.0777   9.9559  14.2458  14.5090
    17.5106

          k = 0.0975 0.5067 0.6978 (  2908 PWs)   bands (ev):

   -36.4590 -36.3475   3.3639   6.1961   7.2940  10.4134  12.4019  13.0237
    15.6332

          k = 0.1950 0.3378 0.0000 (  2897 PWs)   bands (ev):

   -36.6320 -36.4293  -1.8204   4.5839   5.3936  13.1598  14.2413  18.7146
    22.8003

          k = 0.1950 0.3378 0.1744 (  2904 PWs)   bands (ev):

   -36.6154 -36.4154  -1.4995   4.8302   5.6956  13.2157  14.4250  17.7426
    21.2306

          k = 0.1950 0.3378 0.3489 (  2901 PWs)   bands (ev):

   -36.5734 -36.3800  -0.5474   5.5277   6.5940  12.4358  14.8620  15.9213
    19.6633

          k = 0.1950 0.3378 0.5233 (  2917 PWs)   bands (ev):

   -36.5252 -36.3395   1.0021   6.3511   8.0542  10.0303  14.8645  15.0605
    17.6875

          k = 0.1950 0.3378 0.6978 (  2916 PWs)   bands (ev):

   -36.4937 -36.3130   3.0675   5.4191   9.4729   9.8908  12.8352  13.0950
    17.0895

          k = 0.1950 0.4504 0.0000 (  2889 PWs)   bands (ev):

   -36.5929 -36.4678  -1.6532   4.0796   4.9402  13.5345  15.7885  19.6267
    22.2783

          k = 0.1950 0.4504 0.1744 (  2900 PWs)   bands (ev):

   -36.5769 -36.4534  -1.3208   4.3178   5.2305  13.6117  15.8839  18.8029
    20.2967

          k = 0.1950 0.4504 0.3489 (  2912 PWs)   bands (ev):

   -36.5362 -36.4168  -0.3342   5.0080   6.0891  13.0244  15.4193  16.6033
    18.8282

          k = 0.1950 0.4504 0.5233 (  2911 PWs)   bands (ev):

   -36.4896 -36.3749   1.2681   6.0007   7.4457  10.2735  14.5614  14.6036
    17.7756

          k = 0.1950 0.4504 0.6978 (  2911 PWs)   bands (ev):

   -36.4590 -36.3474   3.3400   6.0058   8.1995   9.3557  12.4585  12.6952
    17.4410

          k = 0.1950 0.5630 0.0000 (  2886 PWs)   bands (ev):

   -36.5688 -36.4917  -1.5836   3.8827   4.7928  13.5978  17.6504  18.0129
    23.8933

          k = 0.1950 0.5630 0.1744 (  2898 PWs)   bands (ev):

   -36.5531 -36.4770  -1.2461   4.1170   5.0795  13.6804  17.6376  18.0171
    19.6248

          k = 0.1950 0.5630 0.3489 (  2921 PWs)   bands (ev):

   -36.5132 -36.4396  -0.2438   4.8021   5.9247  13.2286  15.6460  16.9895
    18.5819

          k = 0.1950 0.5630 0.5233 (  2907 PWs)   bands (ev):

   -36.4676 -36.3968   1.3822   5.8549   7.2341  10.3846  14.3842  14.4302
    17.7810

          k = 0.1950 0.5630 0.6978 (  2920 PWs)   bands (ev):

   -36.4376 -36.3687   3.4384   6.9258   6.9789   9.2239  12.3340  12.5668
    17.4609

          k = 0.2926 0.5067 0.0000 (  2887 PWs)   bands (ev):

   -36.5541 -36.5063  -1.5586   4.0630   4.4192  14.8573  16.2002  17.8817
    23.9845

          k = 0.2926 0.5067 0.1744 (  2892 PWs)   bands (ev):

   -36.5386 -36.4914  -1.2195   4.3086   4.6859  14.9692  16.2325  17.8551
    19.5956

          k = 0.2926 0.5067 0.3489 (  2923 PWs)   bands (ev):

   -36.4991 -36.4536  -0.2127   5.0272   5.4717  13.9270  15.9928  16.4675
    17.8528

          k = 0.2926 0.5067 0.5233 (  2909 PWs)   bands (ev):

   -36.4540 -36.4102   1.4180   6.1271   6.7109  10.5437  14.3894  14.4465
    18.4177

          k = 0.2926 0.5067 0.6978 (  2913 PWs)   bands (ev):

   -36.4245 -36.3818   3.4601   6.8432   7.8909   8.0856  12.3411  12.4240
    18.9679

     the Fermi energy is     9.7112 ev

!    total energy              =     -37.20529194 Ry
     estimated scf accuracy    <          3.4E-11 Ry
     smearing contrib. (-TS)   =      -0.00029757 Ry
     internal energy E=F+TS    =     -37.20499437 Ry

     The total energy is F=E-TS. E is the sum of the following terms:
     one-electron contribution =      -7.63075217 Ry
     hartree contribution      =       5.68821308 Ry
     xc contribution           =     -10.32481276 Ry
     ewald contribution        =     -24.93764252 Ry

     convergence has been achieved in   5 iterations

     Forces acting on atoms (cartesian axes, Ry/au):

     atom    1 type  1   force =    -0.00000000   -0.00000000   -0.00000000
     atom    2 type  2   force =     0.00000000    0.00000000    0.00000000
     atom    3 type  2   force =    -0.00000000   -0.00000000   -0.00000000
     The non-local contrib.  to forces
     atom    1 type  1   force =     0.00000000    0.00000000   -0.00000000
     atom    2 type  2   force =     0.00000000    0.00000000    0.00000000
     atom    3 type  2   force =     0.00000000    0.00000000    0.00000000
     The ionic contribution  to forces
     atom    1 type  1   force =     0.00000000    0.00000000    0.00000000
     atom    2 type  2   force =     0.00000008   -0.00000004    0.00000000
     atom    3 type  2   force =    -0.00000008    0.00000004    0.00000000
     The local contribution  to forces
     atom    1 type  1   force =     0.00000000    0.00000000   -0.00000000
     atom    2 type  2   force =     0.00000066   -0.00000038   -0.00000000
     atom    3 type  2   force =    -0.00000066    0.00000038   -0.00000000
     The core correction contribution to forces
     atom    1 type  1   force =     0.00000000   -0.00000000   -0.00000000
     atom    2 type  2   force =     0.00000000    0.00000000    0.00000000
     atom    3 type  2   force =     0.00000000    0.00000000    0.00000000
     The Hubbard contrib.    to forces
     atom    1 type  1   force =     0.00000000    0.00000000    0.00000000
     atom    2 type  2   force =     0.00000000    0.00000000    0.00000000
     atom    3 type  2   force =     0.00000000    0.00000000    0.00000000
     The SCF correction term to forces
     atom    1 type  1   force =    -0.00000000   -0.00000000   -0.00000000
     atom    2 type  2   force =     0.00000000   -0.00000000    0.00000000
     atom    3 type  2   force =    -0.00000000    0.00000000   -0.00000000

     Total force =     0.000000     Total SCF correction =     0.000000


     Computing stress (Cartesian axis) and pressure

          total   stress  (Ry/bohr**3)                   (kbar)     P=      500.02
   0.00339921   0.00000000   0.00000000          500.04        0.00        0.00
   0.00000000   0.00339921   0.00000000            0.00      500.04        0.00
   0.00000000   0.00000000   0.00339871            0.00        0.00      499.97

     Energy error            =      4.7E-07 Ry
     Gradient error          =      4.3E-24 Ry/Bohr
     Cell gradient error     =      4.1E-02 kbar
ibrav =      4
 celldm(1) =      6.90774968
 celldm(3) =      0.62116322
Input lattice vectors:
     1.02541396     0.00000000     0.00000000
    -0.51270698     0.88803454     0.00000000
     0.00000000     0.00000000     0.63694944
New lattice vectors in INITIAL alat:
     1.02541396     0.00000000     0.00000000
    -0.51270698     0.88803454     0.00000000
     0.00000000     0.00000000     0.63694944
New lattice vectors in NEW alat (for information only):
     1.00000000     0.00000000     0.00000000
    -0.50000000     0.86602540     0.00000000
     0.00000000     0.00000000     0.62116322
Discrepancy in bohr =     0.000000    0.000000    0.000000

     bfgs converged in   4 scf cycles and   3 bfgs steps
     (criteria: energy <  1.0E-04 Ry, force <  1.0E-03 Ry/Bohr, cell <  1.0E+00 kbar)

     End of BFGS Geometry Optimization

     Final enthalpy           =     -36.6026095780 Ry

     File ./output/SiLi.bfgs deleted, as requested
Begin final coordinates
     new unit-cell volume =    177.31527 a.u.^3 (    26.27541 Ang^3 )
     density =      2.65224 g/cm^3

CELL_PARAMETERS (alat=  6.73654736)
   1.025413957   0.000000000   0.000000000
  -0.512706978   0.888034536   0.000000000
   0.000000000   0.000000000   0.636949440

ATOMIC_POSITIONS (crystal)
Si           -0.0000000000       -0.0000000000        0.0000000000
Li            0.3333333300        0.6666666700        0.5000000000
Li            0.6666666700        0.3333333300        0.5000000000
End final coordinates



     Writing config-only to output data dir ./output/SiLi.save/

     Final scf calculation at the relaxed structure.
     The G-vectors are recalculated for the final unit cell
     Results may differ from those at the preceding step.

     Parallelization info
     --------------------
     sticks:   dense  smooth     PW     G-vecs:    dense   smooth      PW
     Min         161     161     47                 2984     2984     471
     Max         164     164     48                 2985     2985     474
     Sum        1303    1303    379                23877    23877    3777

     Using Slab Decomposition



     bravais-lattice index     =            4
     lattice parameter (alat)  =       6.7365  a.u.
     unit-cell volume          =     177.3153 (a.u.)^3
     number of atoms/cell      =            3
     number of atomic types    =            2
     number of electrons       =        10.00
     number of Kohn-Sham states=            9
     kinetic-energy cutoff     =     100.0000  Ry
[...]
        k(   49) = (   0.0975216   0.5067370   0.5233278), wk =   0.0533333
        k(   50) = (   0.0975216   0.5067370   0.6977704), wk =   0.0533333
        k(   51) = (   0.1950432   0.3378247   0.0000000), wk =   0.0133333
        k(   52) = (   0.1950432   0.3378247   0.1744426), wk =   0.0266667
        k(   53) = (   0.1950432   0.3378247   0.3488852), wk =   0.0266667
        k(   54) = (   0.1950432   0.3378247   0.5233278), wk =   0.0266667
        k(   55) = (   0.1950432   0.3378247   0.6977704), wk =   0.0266667
        k(   56) = (   0.1950432   0.4504329   0.0000000), wk =   0.0266667
        k(   57) = (   0.1950432   0.4504329   0.1744426), wk =   0.0533333
        k(   58) = (   0.1950432   0.4504329   0.3488852), wk =   0.0533333
        k(   59) = (   0.1950432   0.4504329   0.5233278), wk =   0.0533333
        k(   60) = (   0.1950432   0.4504329   0.6977704), wk =   0.0533333
        k(   61) = (   0.1950432   0.5630412   0.0000000), wk =   0.0133333
        k(   62) = (   0.1950432   0.5630412   0.1744426), wk =   0.0266667
        k(   63) = (   0.1950432   0.5630412   0.3488852), wk =   0.0266667
        k(   64) = (   0.1950432   0.5630412   0.5233278), wk =   0.0266667
        k(   65) = (   0.1950432   0.5630412   0.6977704), wk =   0.0266667
        k(   66) = (   0.2925648   0.5067370   0.0000000), wk =   0.0133333
        k(   67) = (   0.2925648   0.5067370   0.1744426), wk =   0.0266667
        k(   68) = (   0.2925648   0.5067370   0.3488852), wk =   0.0266667
        k(   69) = (   0.2925648   0.5067370   0.5233278), wk =   0.0266667
        k(   70) = (   0.2925648   0.5067370   0.6977704), wk =   0.0266667

     Dense  grid:    23877 G-vectors     FFT dimensions: (  45,  45,  27)

     Estimated max dynamical RAM per process >      18.84 MB

     Estimated total dynamical RAM >     150.73 MB

     Initial potential from superposition of free atoms

     starting charge       9.9903, renormalised to      10.0000
     Starting wfcs are    8 randomized atomic wfcs +    1 random wfcs

     total cpu time spent up to now is       20.4 secs

     Self-consistent Calculation

     iteration #  1     ecut=   100.00 Ry     beta= 0.70
     Davidson diagonalization with overlap
     c_bands:  1 eigenvalues not converged
     c_bands:  1 eigenvalues not converged
     c_bands:  1 eigenvalues not converged
     c_bands:  1 eigenvalues not converged
     c_bands:  1 eigenvalues not converged
     c_bands:  1 eigenvalues not converged
     ethr =  1.00E-06,  avg # of iterations = 15.4

     total cpu time spent up to now is       22.2 secs

     total energy              =     -37.20524369 Ry
     estimated scf accuracy    <       0.00905638 Ry

     iteration #  2     ecut=   100.00 Ry     beta= 0.70
     Davidson diagonalization with overlap
     ethr =  9.06E-05,  avg # of iterations =  1.0

     total cpu time spent up to now is       22.6 secs

     total energy              =     -37.20527337 Ry
     estimated scf accuracy    <       0.00064744 Ry

     iteration #  3     ecut=   100.00 Ry     beta= 0.70
     Davidson diagonalization with overlap
     ethr =  6.47E-06,  avg # of iterations =  1.0

     total cpu time spent up to now is       23.0 secs

     total energy              =     -37.20529232 Ry
     estimated scf accuracy    <       0.00000426 Ry

     iteration #  4     ecut=   100.00 Ry     beta= 0.70
     Davidson diagonalization with overlap
     ethr =  4.26E-08,  avg # of iterations =  2.0

     total cpu time spent up to now is       23.5 secs

     total energy              =     -37.20529311 Ry
     estimated scf accuracy    <       0.00000014 Ry

     iteration #  5     ecut=   100.00 Ry     beta= 0.70
     Davidson diagonalization with overlap
     ethr =  1.41E-09,  avg # of iterations =  2.3

     total cpu time spent up to now is       24.1 secs

     total energy              =     -37.20529315 Ry
     estimated scf accuracy    <          1.8E-09 Ry

     iteration #  6     ecut=   100.00 Ry     beta= 0.70
     Davidson diagonalization with overlap
     ethr =  1.79E-11,  avg # of iterations =  3.0

     total cpu time spent up to now is       24.6 secs

     End of self-consistent calculation

          k = 0.0000 0.0000 0.0000 (  2941 PWs)   bands (ev):

   -36.7203 -36.3436  -2.3417   7.9551   7.9551  10.5745  10.5745  13.2544
    21.4100

          k = 0.0000 0.0000 0.1744 (  2953 PWs)   bands (ev):

   -36.7025 -36.3308  -2.0512   8.2778   8.2778  10.9288  10.9288  12.5434
    19.9771

          k = 0.0000 0.0000 0.3489 (  2954 PWs)   bands (ev):

   -36.6573 -36.2981  -1.1882   9.2460   9.2460  10.3928  11.9900  11.9900
    18.8376

          k = 0.0000 0.0000 0.5233 (  2984 PWs)   bands (ev):

   -36.6055 -36.2608   0.2191   7.5447  10.8596  10.8596  13.7501  13.7501
    18.7561

          k = 0.0000 0.0000 0.6978 (  3008 PWs)   bands (ev):

   -36.5715 -36.2363   2.0661   4.8495  13.1077  13.1078  16.0743  16.0743
    16.1558

          k = 0.0000 0.1126 0.0000 (  2959 PWs)   bands (ev):

   -36.7120 -36.3517  -2.2878   7.1828   7.4742  11.0545  11.3338  13.7903
    21.5311

          k = 0.0000 0.1126 0.1744 (  2960 PWs)   bands (ev):

   -36.6943 -36.3387  -1.9945   7.4779   7.8019  11.3406  11.6827  13.1348
    20.0753

          k = 0.0000 0.1126 0.3489 (  2968 PWs)   bands (ev):

   -36.6494 -36.3058  -1.1233   8.2636   8.7847  10.8386  12.5729  12.7278
    18.9862

          k = 0.0000 0.1126 0.5233 (  2993 PWs)   bands (ev):

   -36.5979 -36.2682   0.2976   7.4631  10.3875  10.4214  14.0738  14.4577
    18.2185

          k = 0.0000 0.1126 0.6978 (  3019 PWs)   bands (ev):

   -36.5642 -36.2435   2.1718   4.8811  12.3904  12.7048  15.2373  15.5935
    16.0186

          k = 0.0000 0.2252 0.0000 (  3001 PWs)   bands (ev):

   -36.6881 -36.3748  -2.1371   5.8970   6.7003  11.5109  12.9406  15.3153
    21.8903

          k = 0.0000 0.2252 0.1744 (  2983 PWs)   bands (ev):

   -36.6708 -36.3616  -1.8356   6.1630   7.0319  11.6414  13.2845  14.7008
    20.3721

          k = 0.0000 0.2252 0.3489 (  2992 PWs)   bands (ev):

   -36.6267 -36.3279  -0.9402   6.8857   8.0266  11.1666  13.6574  14.3126
    19.2924

          k = 0.0000 0.2252 0.5233 (  2997 PWs)   bands (ev):

   -36.5763 -36.2894   0.5198   7.1141   9.6828   9.7471  14.3194  15.9837
    16.8629

          k = 0.0000 0.2252 0.6978 (  3007 PWs)   bands (ev):

   -36.5432 -36.2642   2.4683   4.9882  10.9455  11.9962  14.0093  14.9385
    15.2545

          k = 0.0000 0.3378 0.0000 (  2999 PWs)   bands (ev):

   -36.6526 -36.4095  -1.9269   4.7652   6.0727  11.7208  14.9465  17.2813
    22.4685

          k = 0.0000 0.3378 0.1744 (  2978 PWs)   bands (ev):

   -36.6357 -36.3958  -1.6128   5.0097   6.4061  11.7885  15.2865  16.4580
    20.8184

          k = 0.0000 0.3378 0.3489 (  2998 PWs)   bands (ev):

   -36.5929 -36.3610  -0.6803   5.7006   7.4059  11.4206  14.5129  16.2968
    18.8491

          k = 0.0000 0.3378 0.5233 (  2997 PWs)   bands (ev):

   -36.5440 -36.3213   0.8391   6.4599   9.0710   9.5263  14.2393  15.6334
    17.5465

          k = 0.0000 0.3378 0.6978 (  2993 PWs)   bands (ev):

   -36.5119 -36.2952   2.8783   5.2270   9.3585  11.3962  13.0753  14.3767
    14.6272

          k = 0.0000 0.4504 0.0000 (  2987 PWs)   bands (ev):

   -36.6136 -36.4477  -1.7303   3.9927   5.6816  11.8223  17.2248  19.1627
    23.1926

          k = 0.0000 0.4504 0.1744 (  2997 PWs)   bands (ev):

   -36.5973 -36.4335  -1.4029   4.2206   6.0157  11.8740  17.5607  17.9476
    21.2419

          k = 0.0000 0.4504 0.3489 (  2993 PWs)   bands (ev):

   -36.5559 -36.3975  -0.4306   4.8805   7.0177  11.6058  15.1040  18.0199
    18.5377

          k = 0.0000 0.4504 0.5233 (  2993 PWs)   bands (ev):

   -36.5086 -36.3563   1.1525   5.8244   8.6866   9.5675  14.1144  14.7812
    17.5860

          k = 0.0000 0.4504 0.6978 (  2993 PWs)   bands (ev):

   -36.4775 -36.3293   3.2396   5.7276   7.8688  11.0161  12.5459  14.0174
    14.2365

          k = 0.0000-0.5630 0.0000 (  2994 PWs)   bands (ev):

   -36.5928 -36.4682  -1.6467   3.7145   5.5495  11.8541  19.1290  20.1550
    20.8022

          k = 0.0000-0.5630 0.1744 (  2996 PWs)   bands (ev):

   -36.5768 -36.4538  -1.3132   3.9355   5.8838  11.9031  18.6635  19.4746
    21.0691

          k = 0.0000-0.5630 0.3489 (  3002 PWs)   bands (ev):

   -36.5361 -36.4171  -0.3219   4.5799   6.8865  11.6740  15.3749  17.6116
    20.5060

          k = 0.0000-0.5630 0.5233 (  2990 PWs)   bands (ev):

   -36.4896 -36.3751   1.2922   5.5611   8.5564   9.6144  14.0865  14.4508
    17.4942

          k = 0.0000-0.5630 0.6978 (  2998 PWs)   bands (ev):

   -36.4591 -36.3476   3.3790   6.5307   6.7070  10.8871  12.3775  13.8949
    14.1045

          k = 0.0975 0.1689 0.0000 (  2987 PWs)   bands (ev):

   -36.6958 -36.3673  -2.1853   6.3001   6.8105  11.8135  12.0481  14.8888
    21.7714

          k = 0.0975 0.1689 0.1744 (  2974 PWs)   bands (ev):

   -36.6784 -36.3542  -1.8865   6.5746   7.1352  11.9731  12.3539  14.3309
    20.2813

          k = 0.0975 0.1689 0.3489 (  2977 PWs)   bands (ev):

   -36.6341 -36.3207  -0.9991   7.3063   8.1077  11.2339  13.2450  13.8638
    19.3380

          k = 0.0975 0.1689 0.5233 (  2990 PWs)   bands (ev):

   -36.5833 -36.2825   0.4481   7.2528   9.7204  10.0135  14.5865  15.1235
    17.8507

          k = 0.0975 0.1689 0.6978 (  3006 PWs)   bands (ev):

   -36.5500 -36.2575   2.3732   4.9502  11.5454  11.9404  14.3635  14.7508
    16.0763

          k = 0.0975 0.2815 0.0000 (  2991 PWs)   bands (ev):

   -36.6659 -36.3965  -2.0035   5.2283   6.0974  12.1463  13.6070  16.7548
    22.2413

          k = 0.0975 0.2815 0.1744 (  2991 PWs)   bands (ev):

   -36.6489 -36.3829  -1.6942   5.4835   6.4176  12.2340  13.8558  16.1051
    20.7074

          k = 0.0975 0.2815 0.3489 (  2991 PWs)   bands (ev):

   -36.6056 -36.3486  -0.7759   6.1902   7.3731  11.6562  14.1924  15.2634
    19.6254

          k = 0.0975 0.2815 0.5233 (  2997 PWs)   bands (ev):

   -36.5561 -36.3093   0.7206   6.7658   8.9177   9.8129  14.6543  15.6922
    17.2672

          k = 0.0975 0.2815 0.6978 (  2996 PWs)   bands (ev):

   -36.5236 -36.2836   2.7287   5.1210  10.1915  11.1568  13.4007  13.8658
    16.0608

          k = 0.0975 0.3941 0.0000 (  2992 PWs)   bands (ev):

   -36.6273 -36.4342  -1.7955   4.3317   5.5967  12.2788  15.5904  18.7624
    22.9032

          k = 0.0975 0.3941 0.1744 (  2989 PWs)   bands (ev):

   -36.6109 -36.4202  -1.4729   4.5697   5.9149  12.3448  15.7767  17.7769
    21.2245

          k = 0.0975 0.3941 0.3489 (  2996 PWs)   bands (ev):

   -36.5690 -36.3846  -0.5151   5.2515   6.8616  11.9675  14.9164  16.8120
    18.9621

          k = 0.0975 0.3941 0.5233 (  3004 PWs)   bands (ev):

   -36.5210 -36.3439   1.0439   6.1403   8.3545   9.8545  14.4023  15.0542
    17.6106

          k = 0.0975 0.3941 0.6978 (  3001 PWs)   bands (ev):

   -36.4896 -36.3173   3.1178   5.4899   8.6703  10.6614  12.7252  13.3031
    15.8076

          k = 0.0975 0.5067 0.0000 (  2994 PWs)   bands (ev):

   -36.5929 -36.4681  -1.6492   3.8230   5.3421  12.3365  17.7934  19.6856
    21.8847

          k = 0.0975 0.5067 0.1744 (  2998 PWs)   bands (ev):

   -36.5769 -36.4537  -1.3161   4.0492   5.6595  12.3985  17.8181  18.8806
    20.5600

          k = 0.0975 0.5067 0.3489 (  2999 PWs)   bands (ev):

   -36.5362 -36.4170  -0.3266   4.7079   6.6031  12.1364  15.3648  17.4551
    19.4980

          k = 0.0975 0.5067 0.5233 (  3002 PWs)   bands (ev):

   -36.4896 -36.3751   1.2829   5.6980   8.0777   9.9560  14.2458  14.5090
    17.5106

          k = 0.0975 0.5067 0.6978 (  3000 PWs)   bands (ev):

   -36.4591 -36.3476   3.3639   6.1961   7.2940  10.4135  12.4019  13.0237
    15.6332

          k = 0.1950 0.3378 0.0000 (  2997 PWs)   bands (ev):

   -36.6321 -36.4295  -1.8203   4.5839   5.3937  13.1598  14.2413  18.7146
    22.8003

          k = 0.1950 0.3378 0.1744 (  2992 PWs)   bands (ev):

   -36.6156 -36.4155  -1.4995   4.8302   5.6956  13.2157  14.4250  17.7426
    21.2307

          k = 0.1950 0.3378 0.3489 (  2991 PWs)   bands (ev):

   -36.5735 -36.3801  -0.5474   5.5277   6.5940  12.4358  14.8620  15.9214
    19.6633

          k = 0.1950 0.3378 0.5233 (  3006 PWs)   bands (ev):

   -36.5254 -36.3397   1.0022   6.3511   8.0542  10.0303  14.8645  15.0605
    17.6927

          k = 0.1950 0.3378 0.6978 (  2994 PWs)   bands (ev):

   -36.4938 -36.3131   3.0675   5.4191   9.4729   9.8908  12.8352  13.0950
    17.0895

          k = 0.1950 0.4504 0.0000 (  2991 PWs)   bands (ev):

   -36.5930 -36.4680  -1.6532   4.0796   4.9402  13.5345  15.7885  19.6267
    22.2783

          k = 0.1950 0.4504 0.1744 (  2991 PWs)   bands (ev):

   -36.5770 -36.4536  -1.3208   4.3178   5.2305  13.6117  15.8839  18.8029
    20.2968

          k = 0.1950 0.4504 0.3489 (  2997 PWs)   bands (ev):

   -36.5363 -36.4169  -0.3342   5.0080   6.0891  13.0244  15.4193  16.6033
    18.8282

          k = 0.1950 0.4504 0.5233 (  2999 PWs)   bands (ev):

   -36.4897 -36.3750   1.2681   6.0007   7.4457  10.2736  14.5614  14.6036
    17.7756

          k = 0.1950 0.4504 0.6978 (  2994 PWs)   bands (ev):

   -36.4591 -36.3475   3.3400   6.0058   8.1995   9.3557  12.4585  12.6952
    17.4410

          k = 0.1950 0.5630 0.0000 (  3003 PWs)   bands (ev):

   -36.5689 -36.4919  -1.5836   3.8827   4.7928  13.5978  17.6504  18.0129
    22.9772

          k = 0.1950 0.5630 0.1744 (  3001 PWs)   bands (ev):

   -36.5532 -36.4771  -1.2460   4.1170   5.0795  13.6804  17.6376  18.0171
    19.6248

          k = 0.1950 0.5630 0.3489 (  2999 PWs)   bands (ev):

   -36.5133 -36.4397  -0.2438   4.8021   5.9247  13.2287  15.6460  16.9895
    18.5819

          k = 0.1950 0.5630 0.5233 (  2995 PWs)   bands (ev):

   -36.4677 -36.3969   1.3822   5.8549   7.2341  10.3846  14.3842  14.4302
    17.7810

          k = 0.1950 0.5630 0.6978 (  2995 PWs)   bands (ev):

   -36.4378 -36.3688   3.4384   6.9258   6.9789   9.2239  12.3340  12.5668
    17.4609

          k = 0.2926 0.5067 0.0000 (  3005 PWs)   bands (ev):

   -36.5542 -36.5065  -1.5586   4.0630   4.4192  14.8573  16.2002  17.8817
    23.9849

          k = 0.2926 0.5067 0.1744 (  3009 PWs)   bands (ev):

   -36.5387 -36.4916  -1.2194   4.3086   4.6859  14.9692  16.2325  17.8551
    19.5956

          k = 0.2926 0.5067 0.3489 (  2992 PWs)   bands (ev):

   -36.4993 -36.4537  -0.2127   5.0272   5.4717  13.9271  15.9928  16.4675
    17.8528

          k = 0.2926 0.5067 0.5233 (  2992 PWs)   bands (ev):

   -36.4542 -36.4104   1.4180   6.1271   6.7109  10.5437  14.3895  14.4465
    18.4177

          k = 0.2926 0.5067 0.6978 (  3003 PWs)   bands (ev):

   -36.4246 -36.3820   3.4602   6.8432   7.8909   8.0856  12.3411  12.4240
    18.9679

     the Fermi energy is     9.7112 ev

!    total energy              =     -37.20529315 Ry
     estimated scf accuracy    <          6.2E-11 Ry
     smearing contrib. (-TS)   =      -0.00029756 Ry
     internal energy E=F+TS    =     -37.20499558 Ry

     The total energy is F=E-TS. E is the sum of the following terms:
     one-electron contribution =      -7.63075260 Ry
     hartree contribution      =       5.68821820 Ry
     xc contribution           =     -10.32481867 Ry
     ewald contribution        =     -24.93764252 Ry

     convergence has been achieved in   6 iterations

     Forces acting on atoms (cartesian axes, Ry/au):

     atom    1 type  1   force =     0.00000000    0.00000000    0.00000000
     atom    2 type  2   force =     0.00000000   -0.00000000   -0.00000000
     atom    3 type  2   force =    -0.00000000   -0.00000000    0.00000000
     The non-local contrib.  to forces
     atom    1 type  1   force =     0.00000000   -0.00000000    0.00000000
     atom    2 type  2   force =     0.00000000    0.00000000    0.00000000
     atom    3 type  2   force =     0.00000000   -0.00000000    0.00000000
     The ionic contribution  to forces
     atom    1 type  1   force =     0.00000000    0.00000000    0.00000000
     atom    2 type  2   force =     0.00000008   -0.00000004    0.00000000
     atom    3 type  2   force =    -0.00000008    0.00000004    0.00000000
     The local contribution  to forces
     atom    1 type  1   force =     0.00000000    0.00000000   -0.00000000
     atom    2 type  2   force =     0.00000066   -0.00000038   -0.00000000
     atom    3 type  2   force =    -0.00000066    0.00000038   -0.00000000
     The core correction contribution to forces
     atom    1 type  1   force =    -0.00000000   -0.00000000    0.00000000
     atom    2 type  2   force =     0.00000000    0.00000000    0.00000000
     atom    3 type  2   force =     0.00000000    0.00000000    0.00000000
     The Hubbard contrib.    to forces
     atom    1 type  1   force =     0.00000000    0.00000000    0.00000000
     atom    2 type  2   force =     0.00000000    0.00000000    0.00000000
     atom    3 type  2   force =     0.00000000    0.00000000    0.00000000
     The SCF correction term to forces
     atom    1 type  1   force =    -0.00000000    0.00000000    0.00000000
     atom    2 type  2   force =    -0.00000000    0.00000000    0.00000000
     atom    3 type  2   force =     0.00000000   -0.00000000    0.00000000

     Total force =     0.000000     Total SCF correction =     0.000000


     Computing stress (Cartesian axis) and pressure

          total   stress  (Ry/bohr**3)                   (kbar)     P=      500.03
   0.00339927   0.00000000   0.00000000          500.05        0.00        0.00
   0.00000000   0.00339927   0.00000000            0.00      500.05        0.00
  -0.00000000  -0.00000000   0.00339878           -0.00       -0.00      499.98


     Writing all to output data dir ./output/SiLi.save/

     init_run     :      0.85s CPU      1.72s WALL (       2 calls)
     electrons    :     16.19s CPU     18.53s WALL (       5 calls)
     update_pot   :      0.80s CPU      0.81s WALL (       3 calls)
     forces       :      0.85s CPU      0.91s WALL (       5 calls)
     stress       :      2.97s CPU      3.13s WALL (       5 calls)

     Called by init_run:
     wfcinit      :      0.30s CPU      0.33s WALL (       2 calls)
     potinit      :      0.27s CPU      0.78s WALL (       2 calls)
     hinit0       :      0.26s CPU      0.44s WALL (       2 calls)

     Called by electrons:
     c_bands      :     13.82s CPU     15.50s WALL (      30 calls)
     sum_band     :      2.05s CPU      2.18s WALL (      30 calls)
     v_of_rho     :      0.37s CPU      1.36s WALL (      33 calls)
     mix_rho      :      0.03s CPU      0.05s WALL (      30 calls)

     Called by c_bands:
     init_us_2    :      0.46s CPU      0.51s WALL (    5040 calls)
     init_us_2:cp :      0.45s CPU      0.50s WALL (    5040 calls)
     cegterg      :     12.97s CPU     13.71s WALL (    2100 calls)

     Called by *egterg:
     cdiaghg      :      0.84s CPU      0.92s WALL (    7730 calls)
     h_psi        :     11.28s CPU     11.88s WALL (    8220 calls)
     g_psi        :      0.05s CPU      0.05s WALL (    5980 calls)

     Called by h_psi:
     h_psi:calbec :      0.56s CPU      0.62s WALL (    8220 calls)
     vloc_psi     :     10.32s CPU     10.83s WALL (    8220 calls)
     add_vuspsi   :      0.34s CPU      0.36s WALL (    8220 calls)

     General routines
     calbec       :      0.70s CPU      0.76s WALL (    9970 calls)
     fft          :      0.51s CPU      1.79s WALL (     455 calls)
     ffts         :      0.03s CPU      0.05s WALL (      30 calls)
     fftw         :     10.83s CPU     11.33s WALL (  126280 calls)

     Parallel routines

     PWSCF        :     21.91s CPU     25.67s WALL


   This run was terminated on:  22: 9:45  10Jan2025            

=------------------------------------------------------------------------------=
   JOB DONE.
=------------------------------------------------------------------------------=
