
     Program PWSCF v.7.2 starts on 27Dec2024 at 12:56:21 

     This program is part of the open-source Quantum ESPRESSO suite
     for quantum simulation of materials; please cite
         "P. Giannozzi et al., J. Phys.:Condens. Matter 21 395502 (2009);
         "P. Giannozzi et al., J. Phys.:Condens. Matter 29 465901 (2017);
         "P. Giannozzi et al., J. Chem. Phys. 152 154105 (2020);
          URL http://www.quantum-espresso.org", 
     in publications or presentations arising from this work. More details at
     http://www.quantum-espresso.org/quote

     Parallel version (MPI & OpenMP), running on       8 processor cores
     Number of MPI processes:                 8
     Threads/MPI process:                     1

     MPI processes distributed on     1 nodes
     497182 MiB available memory on the printing compute node when the environment starts

     Waiting for input...
     Reading input from standard input

     Current dimensions of program PWSCF are:
     Max number of different atomic species (ntypx) = 10
     Max number of k-points (npk) =  40000
     Max angular momentum in pseudopotentials (lmaxx) =  4

     R & G space division:  proc/nbgrp/npool/nimage =       8
     Subspace diagonalization in iterative solution of the eigenvalue problem:
     a serial algorithm will be used


     Parallelization info
     --------------------
     sticks:   dense  smooth     PW     G-vecs:    dense   smooth      PW
     Min         119     119     35                 3903     3903     611
     Max         120     120     36                 3912     3912     616
     Sum         955     955    283                31255    31255    4905

     Using Slab Decomposition



     bravais-lattice index     =            4
     lattice parameter (alat)  =       6.6355  a.u.
     unit-cell volume          =     323.2011 (a.u.)^3
     number of atoms/cell      =            3
     number of atomic types    =            2
     number of electrons       =        11.00
     number of Kohn-Sham states=           10
     kinetic-energy cutoff     =      80.0000  Ry
     charge density cutoff     =     320.0000  Ry
     scf convergence threshold =      1.0E-08
     mixing beta               =       0.7000
     number of iterations used =            8  plain     mixing
     energy convergence thresh.=      1.0E-04
     force convergence thresh. =      1.0E-03
     press convergence thresh. =      1.0E+00
     Exchange-correlation= PBE
                           (   1   4   3   4   0   0   0)
     nstep                     =           50


     celldm(1)=   6.635507  celldm(2)=   0.000000  celldm(3)=   1.277379
     celldm(4)=   0.000000  celldm(5)=   0.000000  celldm(6)=   0.000000

     crystal axes: (cart. coord. in units of alat)
               a(1) = (   1.000000   0.000000   0.000000 )  
               a(2) = (  -0.500000   0.866025   0.000000 )  
               a(3) = (   0.000000   0.000000   1.277379 )  

     reciprocal axes: (cart. coord. in units 2 pi/alat)
               b(1) = (  1.000000  0.577350 -0.000000 )  
               b(2) = (  0.000000  1.154701  0.000000 )  
               b(3) = (  0.000000 -0.000000  0.782853 )  


     PseudoPot. # 1 for Si read from file:
     ../pseudo/Si_ONCV_PBE_sr.upf
     MD5 check sum: e543d271109d17c80368dfa7c482276d
     Pseudo is Norm-conserving + core correction, Zval =  4.0
     Generated using ONCVPSP code by D. R. Hamann
     Using radial grid of 1510 points,  6 beta functions with: 
                l(1) =   0
                l(2) =   0
                l(3) =   1
                l(4) =   1
                l(5) =   2
                l(6) =   2

     PseudoPot. # 2 for Li read from file:
     ../pseudo/Li_ONCV_PBE_sr.upf
     MD5 check sum: 50ff420e78310ffa21704f3361e624a4
     Pseudo is Norm-conserving, Zval =  3.0
     Generated using ONCVPSP code by D. R. Hamann
     Using radial grid of 1944 points,  4 beta functions with: 
                l(1) =   0
                l(2) =   0
                l(3) =   1
                l(4) =   1

     atomic species   valence    mass     pseudopotential
        Si             4.00    28.08550     Si( 1.00)
        Li             3.00     6.94100     Li( 1.00)

     12 Sym. Ops., with inversion, found



   Cartesian axes

     site n.     atom                  positions (alat units)
         1           Si  tau(   1) = (  -0.0000000   0.5773503   0.3433187  )
         2           Si  tau(   2) = (   0.5000000   0.2886751   0.9340608  )
         3           Li  tau(   3) = (   0.0000000   0.0000000   0.0000000  )

     number of k points=    69  Marzari-Vanderbilt smearing, width (Ry)=  0.0200
                       cart. coord. in units 2pi/alat
        k(    1) = (   0.0000000   0.0000000   0.0000000), wk =   0.0035273
        k(    2) = (   0.0000000   0.0000000   0.1118361), wk =   0.0070547
        k(    3) = (   0.0000000   0.0000000   0.2236722), wk =   0.0070547
        k(    4) = (   0.0000000   0.0000000   0.3355083), wk =   0.0070547
        k(    5) = (   0.0000000   0.1283001   0.0000000), wk =   0.0211640
        k(    6) = (   0.0000000   0.1283001   0.1118361), wk =   0.0211640
        k(    7) = (   0.0000000   0.1283001   0.2236722), wk =   0.0211640
        k(    8) = (   0.0000000   0.1283001   0.3355083), wk =   0.0211640
        k(    9) = (   0.0000000   0.2566001   0.0000000), wk =   0.0211640
        k(   10) = (   0.0000000   0.2566001   0.1118361), wk =   0.0211640
        k(   11) = (   0.0000000   0.2566001   0.2236722), wk =   0.0211640
        k(   12) = (   0.0000000   0.2566001   0.3355083), wk =   0.0211640
        k(   13) = (   0.0000000   0.3849002   0.0000000), wk =   0.0211640
        k(   14) = (   0.0000000   0.3849002   0.1118361), wk =   0.0211640
        k(   15) = (   0.0000000   0.3849002   0.2236722), wk =   0.0211640
        k(   16) = (   0.0000000   0.3849002   0.3355083), wk =   0.0211640
        k(   17) = (   0.0000000   0.5132002   0.0000000), wk =   0.0211640
        k(   18) = (   0.0000000   0.5132002   0.1118361), wk =   0.0211640
        k(   19) = (   0.0000000   0.5132002   0.2236722), wk =   0.0211640
        k(   20) = (   0.0000000   0.5132002   0.3355083), wk =   0.0211640
        k(   21) = (   0.1111111   0.1924501   0.0000000), wk =   0.0211640
        k(   22) = (   0.1111111   0.1924501   0.1118361), wk =   0.0423280
        k(   23) = (   0.1111111   0.1924501   0.2236722), wk =   0.0423280
        k(   24) = (   0.1111111   0.1924501   0.3355083), wk =   0.0423280
        k(   25) = (   0.1111111   0.3207501   0.0000000), wk =   0.0423280
        k(   26) = (   0.1111111   0.3207501   0.1118361), wk =   0.0423280
        k(   27) = (   0.1111111   0.3207501   0.2236722), wk =   0.0423280
        k(   28) = (   0.1111111   0.3207501   0.3355083), wk =   0.0423280
        k(   29) = (   0.1111111   0.4490502   0.0000000), wk =   0.0423280
        k(   30) = (   0.1111111   0.4490502   0.1118361), wk =   0.0423280
        k(   31) = (   0.1111111   0.4490502   0.2236722), wk =   0.0423280
        k(   32) = (   0.1111111   0.4490502   0.3355083), wk =   0.0423280
        k(   33) = (   0.1111111   0.5773503   0.0000000), wk =   0.0211640
        k(   34) = (   0.1111111   0.5773503   0.1118361), wk =   0.0423280
        k(   35) = (   0.1111111   0.5773503   0.2236722), wk =   0.0423280
        k(   36) = (   0.1111111   0.5773503   0.3355083), wk =   0.0423280
        k(   37) = (   0.2222222   0.3849002   0.0000000), wk =   0.0211640
        k(   38) = (   0.2222222   0.3849002   0.1118361), wk =   0.0423280
        k(   39) = (   0.2222222   0.3849002   0.2236722), wk =   0.0423280
        k(   40) = (   0.2222222   0.3849002   0.3355083), wk =   0.0423280
        k(   41) = (   0.2222222   0.5132002   0.0000000), wk =   0.0423280
        k(   42) = (   0.2222222   0.5132002   0.1118361), wk =   0.0423280
        k(   43) = (   0.2222222   0.5132002   0.2236722), wk =   0.0423280
        k(   44) = (   0.2222222   0.5132002   0.3355083), wk =   0.0423280
        k(   45) = (   0.3333333   0.5773503   0.0000000), wk =   0.0070547
        k(   46) = (   0.3333333   0.5773503   0.1118361), wk =   0.0141093
        k(   47) = (   0.3333333   0.5773503   0.2236722), wk =   0.0141093
        k(   48) = (   0.3333333   0.5773503   0.3355083), wk =   0.0141093
        k(   49) = (   0.0000000   0.1283001  -0.1118361), wk =   0.0211640
        k(   50) = (   0.0000000   0.1283001  -0.2236722), wk =   0.0211640
        k(   51) = (   0.0000000   0.1283001  -0.3355083), wk =   0.0211640
        k(   52) = (   0.0000000   0.2566001  -0.1118361), wk =   0.0211640
        k(   53) = (   0.0000000   0.2566001  -0.2236722), wk =   0.0211640
        k(   54) = (   0.0000000   0.2566001  -0.3355083), wk =   0.0211640
        k(   55) = (   0.0000000   0.3849002  -0.1118361), wk =   0.0211640
        k(   56) = (   0.0000000   0.3849002  -0.2236722), wk =   0.0211640
        k(   57) = (   0.0000000   0.3849002  -0.3355083), wk =   0.0211640
        k(   58) = (   0.0000000   0.5132002  -0.1118361), wk =   0.0211640
        k(   59) = (   0.0000000   0.5132002  -0.2236722), wk =   0.0211640
        k(   60) = (   0.0000000   0.5132002  -0.3355083), wk =   0.0211640
        k(   61) = (  -0.1111111   0.3207501  -0.1118361), wk =   0.0423280
        k(   62) = (  -0.1111111   0.3207501  -0.2236722), wk =   0.0423280
        k(   63) = (  -0.1111111   0.3207501  -0.3355083), wk =   0.0423280
        k(   64) = (  -0.1111111   0.4490502  -0.1118361), wk =   0.0423280
        k(   65) = (  -0.1111111   0.4490502  -0.2236722), wk =   0.0423280
        k(   66) = (  -0.1111111   0.4490502  -0.3355083), wk =   0.0423280
        k(   67) = (  -0.2222222   0.5132002  -0.1118361), wk =   0.0423280
        k(   68) = (  -0.2222222   0.5132002  -0.2236722), wk =   0.0423280
        k(   69) = (  -0.2222222   0.5132002  -0.3355083), wk =   0.0423280

     Dense  grid:    31255 G-vectors     FFT dimensions: (  40,  40,  50)

     Estimated max dynamical RAM per process >      19.86 MB

     Estimated total dynamical RAM >     158.91 MB

     Initial potential from superposition of free atoms

     starting charge      10.9942, renormalised to      11.0000
     Starting wfcs are   10 randomized atomic wfcs

     total cpu time spent up to now is        0.8 secs

     Self-consistent Calculation

     iteration #  1     ecut=    80.00 Ry     beta= 0.70
     Davidson diagonalization with overlap
     ethr =  1.00E-02,  avg # of iterations =  6.4

     Threshold (ethr) on eigenvalues was too large:
     Diagonalizing with lowered threshold

     Davidson diagonalization with overlap
     ethr =  5.50E-04,  avg # of iterations =  2.0

     total cpu time spent up to now is        2.7 secs

     total energy              =     -31.14276082 Ry
     estimated scf accuracy    <       0.06391921 Ry

     iteration #  2     ecut=    80.00 Ry     beta= 0.70
     Davidson diagonalization with overlap
     ethr =  5.81E-04,  avg # of iterations =  2.2

     total cpu time spent up to now is        3.5 secs

     total energy              =     -31.15982516 Ry
     estimated scf accuracy    <       0.05239402 Ry

     iteration #  3     ecut=    80.00 Ry     beta= 0.70
     Davidson diagonalization with overlap
     ethr =  4.76E-04,  avg # of iterations =  1.7

     total cpu time spent up to now is        4.3 secs

     total energy              =     -31.16944294 Ry
     estimated scf accuracy    <       0.00008271 Ry

     iteration #  4     ecut=    80.00 Ry     beta= 0.70
     Davidson diagonalization with overlap
     c_bands:  1 eigenvalues not converged
     ethr =  7.52E-07,  avg # of iterations =  6.9

     total cpu time spent up to now is        5.4 secs

     total energy              =     -31.16958283 Ry
     estimated scf accuracy    <       0.00005011 Ry

     iteration #  5     ecut=    80.00 Ry     beta= 0.70
     Davidson diagonalization with overlap
     ethr =  4.56E-07,  avg # of iterations =  2.0

     total cpu time spent up to now is        6.1 secs

     total energy              =     -31.16959368 Ry
     estimated scf accuracy    <       0.00000072 Ry

     iteration #  6     ecut=    80.00 Ry     beta= 0.70
     Davidson diagonalization with overlap
     ethr =  6.52E-09,  avg # of iterations =  2.0

     total cpu time spent up to now is        6.7 secs

     total energy              =     -31.16959387 Ry
     estimated scf accuracy    <       0.00000001 Ry

     iteration #  7     ecut=    80.00 Ry     beta= 0.70
     Davidson diagonalization with overlap
     ethr =  1.26E-10,  avg # of iterations =  3.3

     total cpu time spent up to now is        7.4 secs

     End of self-consistent calculation

          k = 0.0000 0.0000 0.0000 (  3889 PWs)   bands (ev):

   -39.2068  -4.5044   1.3754   2.9371   8.3960   8.3960   9.4704   9.4704
    11.7713  13.9479

          k = 0.0000 0.0000 0.1118 (  3912 PWs)   bands (ev):

   -39.2067  -4.3732   0.2956   4.2312   8.4990   8.4990   9.5355   9.5355
    11.9241  13.4814

          k = 0.0000 0.0000 0.2237 (  3888 PWs)   bands (ev):

   -39.2067  -3.9858  -1.0745   6.2165   8.7838   8.7838   9.6743   9.6743
    12.1599  12.5283

          k = 0.0000 0.0000 0.3355 (  3906 PWs)   bands (ev):

   -39.2067  -3.4006  -2.1713   8.2054   9.1298   9.1298   9.7207   9.7207
    10.6899  12.3106

          k = 0.0000 0.1283 0.0000 (  3921 PWs)   bands (ev):

   -39.2063  -4.3397   1.5047   3.0687   6.8144   7.5817   9.5249  10.3319
    12.7458  12.9557

          k = 0.0000 0.1283 0.1118 (  3930 PWs)   bands (ev):

   -39.2063  -4.2078   0.4352   4.3367   6.9322   7.7422   9.5988  10.0905
    11.7832  13.2171

          k = 0.0000 0.1283 0.2237 (  3931 PWs)   bands (ev):

   -39.2062  -3.8186  -0.9274   6.1735   7.4060   8.1459   9.3518   9.6911
    10.9929  13.0719

          k = 0.0000 0.1283 0.3355 (  3909 PWs)   bands (ev):

   -39.2062  -3.2266  -2.0268   7.4716   8.4187   8.7314   8.7659   9.1196
    10.5070  12.5673

          k = 0.0000 0.2566 0.0000 (  3918 PWs)   bands (ev):

   -39.2051  -3.8516   1.7674   3.4403   4.8538   6.6325   8.8196  10.8510
    11.1246  11.9797

          k = 0.0000 0.2566 0.1118 (  3910 PWs)   bands (ev):

   -39.2051  -3.7168   0.7852   4.3489   5.2623   6.7830   8.4052  10.2588
    10.4685  12.9883

          k = 0.0000 0.2566 0.2237 (  3927 PWs)   bands (ev):

   -39.2050  -3.3217  -0.5170   4.8880   6.9801   7.1897   7.3726   9.5095
    10.1511  13.1245

          k = 0.0000 0.2566 0.3355 (  3913 PWs)   bands (ev):

   -39.2050  -2.7101  -1.6085   5.5274   6.2861   7.8195   8.5857   8.8234
    10.0128  13.0489

          k = 0.0000 0.3849 0.0000 (  3888 PWs)   bands (ev):

   -39.2037  -3.0706   1.3610   3.8376   4.3083   5.9632   7.6388   9.0684
    10.5873  11.2500

          k = 0.0000 0.3849 0.1118 (  3898 PWs)   bands (ev):

   -39.2037  -2.9298   0.9200   3.3055   5.6165   6.1056   6.6215   9.4056
    10.3542  11.4682

          k = 0.0000 0.3849 0.2237 (  3903 PWs)   bands (ev):

   -39.2037  -2.5252   0.0059   3.1960   5.3526   6.5085   7.5095   9.1401
     9.5954  12.7119

          k = 0.0000 0.3849 0.3355 (  3911 PWs)   bands (ev):

   -39.2036  -1.8836  -0.9827   3.6472   4.2517   7.1376   8.0859   9.2200
     9.5293  13.3329

          k = 0.0000 0.5132 0.0000 (  3902 PWs)   bands (ev):

   -39.2028  -2.1628   0.1779   4.6317   4.9118   5.6220   6.2493   7.7945
     9.9456  11.1656

          k = 0.0000 0.5132 0.1118 (  3891 PWs)   bands (ev):

   -39.2028  -2.0178   0.1700   3.4288   5.1074   5.7579   6.4424   8.7573
    10.2263  10.3496

          k = 0.0000 0.5132 0.2237 (  3892 PWs)   bands (ev):

   -39.2028  -1.6095   0.1029   2.4140   3.8464   6.1555   8.0979   8.9246
     9.4502  11.7229

          k = 0.0000 0.5132 0.3355 (  3901 PWs)   bands (ev):

   -39.2027  -0.9550  -0.3724   2.1620   2.9158   6.7810   7.8206   9.1208
     9.7768  13.4529

          k = 0.1111 0.1925 0.0000 (  3927 PWs)   bands (ev):

   -39.2054  -4.0128   1.7124   3.3249   5.5121   6.3868  10.0583  10.1202
    11.4477  13.1870

          k = 0.1111 0.1925 0.1118 (  3923 PWs)   bands (ev):

   -39.2054  -3.8807   0.7069   4.3459   5.8282   6.5119   9.4443   9.9472
    11.4073  12.6023

          k = 0.1111 0.1925 0.2237 (  3917 PWs)   bands (ev):

   -39.2054  -3.4892  -0.6331   5.3877   6.7801   7.1432   8.3478   9.2924
    11.4182  12.4534

          k = 0.1111 0.1925 0.3355 (  3915 PWs)   bands (ev):

   -39.2054  -2.8854  -1.7370   6.1729   7.0163   7.6042   8.1538   9.1469
    10.9779  12.9976

          k = 0.1111 0.3208 0.0000 (  3894 PWs)   bands (ev):

   -39.2041  -3.3734   1.7306   3.7539   4.3328   5.4513   8.9184   9.6835
    10.4408  11.9014

          k = 0.1111 0.3208 0.1118 (  3897 PWs)   bands (ev):

   -39.2041  -3.2377   1.0301   3.6881   5.1282   5.8528   7.8867   9.3598
    10.7597  12.5910

          k = 0.1111 0.3208 0.2237 (  3908 PWs)   bands (ev):

   -39.2041  -2.8399  -0.1338   3.8943   5.6222   6.6339   7.3893   8.5915
    11.0659  13.1497

          k = 0.1111 0.3208 0.3355 (  3916 PWs)   bands (ev):

   -39.2041  -2.2135  -1.1991   4.4866   5.1398   6.6072   7.2600   9.5611
    10.9592  13.5073

          k = 0.1111 0.4491 0.0000 (  3896 PWs)   bands (ev):

   -39.2030  -2.4835   0.7555   4.0907   4.7051   5.1139   7.3470   8.1983
    10.2787  11.0294

          k = 0.1111 0.4491 0.1118 (  3892 PWs)   bands (ev):

   -39.2030  -2.3415   0.6381   3.3381   4.6804   5.9921   6.5727   8.7130
    10.1456  11.5604

          k = 0.1111 0.4491 0.2237 (  3898 PWs)   bands (ev):

   -39.2030  -1.9364   0.2349   2.7054   4.3613   5.5363   7.6398   8.5309
    10.6779  12.7328

          k = 0.1111 0.4491 0.3355 (  3907 PWs)   bands (ev):

   -39.2030  -1.2861  -0.5408   2.9119   3.4074   6.0143   6.7944  10.0844
    10.7419  13.8446

          k = 0.1111 0.5774 0.0000 (  3888 PWs)   bands (ev):

   -39.2026  -1.8098  -0.0919   4.2643   5.1702   5.7594   5.9824   7.4591
    10.1863  10.7596

          k = 0.1111 0.5774 0.1118 (  3888 PWs)   bands (ev):

   -39.2026  -1.6790  -0.0133   3.5132   4.6325   5.1902   7.2313   8.1317
     9.7649  11.1343

          k = 0.1111 0.5774 0.2237 (  3891 PWs)   bands (ev):

   -39.2025  -1.2956   0.1346   2.3424   3.6791   5.2366   7.6166   8.9648
    10.5272  11.9449

          k = 0.1111 0.5774 0.3355 (  3897 PWs)   bands (ev):

   -39.2025  -0.7068  -0.0469   1.8523   2.7923   5.8032   6.6557  10.2554
    10.8937  13.5961

          k = 0.2222 0.3849 0.0000 (  3899 PWs)   bands (ev):

   -39.2031  -2.6037   1.1190   3.7832   4.5683   4.7942   8.3772   8.6671
     8.8725  12.3143

          k = 0.2222 0.3849 0.1118 (  3897 PWs)   bands (ev):

   -39.2031  -2.4715   1.0012   3.1528   4.2035   6.2126   6.8941   8.4399
    10.2663  12.8551

          k = 0.2222 0.3849 0.2237 (  3901 PWs)   bands (ev):

   -39.2031  -2.0792   0.3866   2.8202   4.4392   5.4768   6.8136   8.8268
    11.7029  13.5773

          k = 0.2222 0.3849 0.3355 (  3896 PWs)   bands (ev):

   -39.2030  -1.4498  -0.5419   3.2519   4.1241   5.0787   6.1408  10.4769
    12.0095  14.5336

          k = 0.2222 0.5132 0.0000 (  3895 PWs)   bands (ev):

   -39.2024  -1.6653   0.0733   3.2966   5.3971   5.5720   7.0319   7.2548
     8.5598  11.8176

          k = 0.2222 0.5132 0.1118 (  3902 PWs)   bands (ev):

   -39.2024  -1.5310   0.1285   3.3969   3.9393   5.5639   6.9404   7.8851
     9.3987  12.6139

          k = 0.2222 0.5132 0.2237 (  3903 PWs)   bands (ev):

   -39.2024  -1.1467   0.2250   2.7997   3.4462   4.4380   6.3832   9.5255
    11.0823  14.0115

          k = 0.2222 0.5132 0.3355 (  3905 PWs)   bands (ev):

   -39.2024  -0.5494  -0.0100   2.4939   2.7857   4.3989   5.6355  11.2749
    12.0605  14.9562

          k = 0.3333 0.5774 0.0000 (  3918 PWs)   bands (ev):

   -39.2022  -0.7464  -0.7464   2.8173   6.2244   6.2244   6.8519   6.8519
     7.0978  11.6676

          k = 0.3333 0.5774 0.1118 (  3897 PWs)   bands (ev):

   -39.2022  -0.6319  -0.6319   2.9065   4.8196   4.8196   6.6731   8.4765
     8.4765  12.3540

          k = 0.3333 0.5774 0.2237 (  3909 PWs)   bands (ev):

   -39.2021  -0.3170  -0.3170   3.1536   3.4466   3.4466   5.8643  10.4654
    10.4654  13.9199

          k = 0.3333 0.5774 0.3355 (  3912 PWs)   bands (ev):

   -39.2021   0.0470   0.0470   2.5458   2.5458   3.4448   5.2257  12.1271
    12.1271  15.4484

          k = 0.0000 0.1283-0.1118 (  3930 PWs)   bands (ev):

   -39.2063  -4.2083   0.4430   4.3037   7.0010   7.6641   9.3849  10.4768
    12.2190  13.0415

          k = 0.0000 0.1283-0.2237 (  3931 PWs)   bands (ev):

   -39.2062  -3.8197  -0.9223   6.1002   7.5644   7.9751   9.0279  10.2922
    11.4375  12.6427

          k = 0.0000 0.1283-0.3355 (  3909 PWs)   bands (ev):

   -39.2062  -3.2282  -2.0240   7.4798   8.2781   8.4777   8.8203   9.5845
    10.5667  12.8461

          k = 0.0000 0.2566-0.1118 (  3910 PWs)   bands (ev):

   -39.2051  -3.7215   0.8639   3.9440   5.5694   6.7397   8.4564  10.6262
    10.9061  12.4770

          k = 0.0000 0.2566-0.2237 (  3927 PWs)   bands (ev):

   -39.2050  -3.3316  -0.4693   4.6208   6.9241   7.0974   7.7307   9.8855
    10.6544  12.3507

          k = 0.0000 0.2566-0.3355 (  3913 PWs)   bands (ev):

   -39.2050  -2.7241  -1.5832   5.3619   6.3657   7.6788   8.8186   8.8665
    10.4746  12.2753

          k = 0.0000 0.3849-0.1118 (  3898 PWs)   bands (ev):

   -39.2037  -2.9456   1.2202   2.6829   5.7184   6.0840   7.1540   9.4768
    10.5833  10.9830

          k = 0.0000 0.3849-0.2237 (  3903 PWs)   bands (ev):

   -39.2037  -2.5600   0.2176   2.7208   5.5163   6.4633   7.8131   9.3143
    10.1987  11.5061

          k = 0.0000 0.3849-0.3355 (  3911 PWs)   bands (ev):

   -39.2036  -1.9407  -0.8753   3.3163   4.5046   7.0718   8.1931   8.9667
    10.3576  12.2170

          k = 0.0000 0.5132-0.1118 (  3891 PWs)   bands (ev):

   -39.2028  -2.0430   0.2978   3.0801   5.2042   5.7513   6.8447   8.6327
    10.1806  10.2938

          k = 0.0000 0.5132-0.2237 (  3892 PWs)   bands (ev):

   -39.2028  -1.6690   0.3997   1.9203   4.0719   6.1419   8.1797   8.9755
     9.8993  11.0370

          k = 0.0000 0.5132-0.3355 (  3901 PWs)   bands (ev):

   -39.2027  -1.0745  -0.1334   1.8338   3.1176   6.7616   7.8520   8.9959
    10.1477  12.8307

          k =-0.1111 0.3208-0.1118 (  3897 PWs)   bands (ev):

   -39.2041  -3.2436   1.1497   3.3085   5.5325   5.6723   7.9636   9.6834
    10.7772  11.9716

          k =-0.1111 0.3208-0.2237 (  3908 PWs)   bands (ev):

   -39.2041  -2.8527  -0.0632   3.6284   5.8635   6.4225   7.5648   8.8412
    11.2714  12.6966

          k =-0.1111 0.3208-0.3355 (  3916 PWs)   bands (ev):

   -39.2041  -2.2332  -1.1627   4.2762   5.3579   6.4893   7.3538   9.6258
    11.2466  12.9857

          k =-0.1111 0.4491-0.1118 (  3892 PWs)   bands (ev):

   -39.2030  -2.3608   0.8353   2.8141   5.0346   5.7646   6.9600   8.8865
     9.9583  11.3044

          k =-0.1111 0.4491-0.2237 (  3898 PWs)   bands (ev):

   -39.2030  -1.9806   0.5251   2.1462   4.7803   5.3700   7.6603   8.8614
    10.8461  12.0378

          k =-0.1111 0.4491-0.3355 (  3907 PWs)   bands (ev):

   -39.2030  -1.3677  -0.3809   2.5220   3.7305   5.9555   6.8433  10.0363
    11.1937  13.0134

          k =-0.2222 0.5132-0.1118 (  3902 PWs)   bands (ev):

   -39.2024  -1.5429   0.1722   3.1772   4.1550   5.4884   7.0324   7.9059
     9.3578  12.4769

          k =-0.2222 0.5132-0.2237 (  3903 PWs)   bands (ev):

   -39.2024  -1.1753   0.3305   2.4494   3.9554   4.1868   6.4008   9.5864
    11.0834  13.6563

          k =-0.2222 0.5132-0.3355 (  3905 PWs)   bands (ev):

   -39.2024  -0.6087   0.1031   2.1893   3.0793   4.3455   5.6470  11.2590
    12.1808  14.7291

     the Fermi energy is     6.2492 ev

!    total energy              =     -31.16959388 Ry
     estimated scf accuracy    <          1.7E-10 Ry
     smearing contrib. (-TS)   =       0.00028604 Ry
     internal energy E=F+TS    =     -31.16987991 Ry

     The total energy is F=E-TS. E is the sum of the following terms:
     one-electron contribution =      -1.63322969 Ry
     hartree contribution      =       3.89201507 Ry
     xc contribution           =      -9.41887713 Ry
     ewald contribution        =     -24.00978816 Ry

     convergence has been achieved in   7 iterations

     Forces acting on atoms (cartesian axes, Ry/au):

     atom    1 type  1   force =     0.00000000    0.00000000    0.07348365
     atom    2 type  1   force =     0.00000000    0.00000000   -0.07348365
     atom    3 type  2   force =     0.00000000   -0.00000000    0.00000000
     The non-local contrib.  to forces
     atom    1 type  1   force =     0.00000000    0.00000000    0.10680408
     atom    2 type  1   force =     0.00000000    0.00000000   -0.10680408
     atom    3 type  2   force =     0.00000000   -0.00000000    0.00000000
     The ionic contribution  to forces
     atom    1 type  1   force =     0.00000002   -0.00000001    0.77947275
     atom    2 type  1   force =    -0.00000002    0.00000001   -0.77947275
     atom    3 type  2   force =    -0.00000000    0.00000000   -0.00000000
     The local contribution  to forces
     atom    1 type  1   force =     0.00000001   -0.00000000   -0.80591912
     atom    2 type  1   force =    -0.00000001    0.00000000    0.80591912
     atom    3 type  2   force =    -0.00000000    0.00000000    0.00000000
     The core correction contribution to forces
     atom    1 type  1   force =    -0.00000000    0.00000000   -0.00686437
     atom    2 type  1   force =     0.00000000   -0.00000000    0.00686437
     atom    3 type  2   force =     0.00000000    0.00000000    0.00000000
     The Hubbard contrib.    to forces
     atom    1 type  1   force =     0.00000000    0.00000000    0.00000000
     atom    2 type  1   force =     0.00000000    0.00000000    0.00000000
     atom    3 type  2   force =     0.00000000    0.00000000    0.00000000
     The SCF correction term to forces
     atom    1 type  1   force =     0.00000000   -0.00000000   -0.00000969
     atom    2 type  1   force =    -0.00000000    0.00000000    0.00000969
     atom    3 type  2   force =     0.00000000    0.00000000    0.00000000

     Total force =     0.103922     Total SCF correction =     0.000014


     Computing stress (Cartesian axis) and pressure

          total   stress  (Ry/bohr**3)                   (kbar)     P=        8.22
   0.00029071   0.00000000   0.00000000           42.76        0.00        0.00
   0.00000000   0.00029071   0.00000000            0.00       42.76        0.00
  -0.00000000  -0.00000000  -0.00041373           -0.00       -0.00      -60.86


     BFGS Geometry Optimization
     Energy error            =      0.0E+00 Ry
     Gradient error          =      7.3E-02 Ry/Bohr
     Cell gradient error     =      5.6E+02 kbar

     number of scf cycles    =   1
     number of bfgs steps    =   0

     enthalpy           new  =     -30.0710556342 Ry

     new trust radius        =       0.3427158632 bohr
ibrav =      4
 celldm(1) =      6.11989063
 celldm(3) =      1.25298845
Input lattice vectors:
     0.92229439     0.00000000    -0.00000000
    -0.46114720     0.79873037    -0.00000000
     0.00000000     0.00000000     1.15562422
New lattice vectors in INITIAL alat:
     0.92229439     0.00000000     0.00000000
    -0.46114720     0.79873037     0.00000000
     0.00000000     0.00000000     1.15562422
New lattice vectors in NEW alat (for information only):
     1.00000000     0.00000000     0.00000000
    -0.50000000     0.86602540     0.00000000
     0.00000000     0.00000000     1.25298845
Discrepancy in bohr =     0.000000    0.000000    0.000000
     new conv_thr            =       0.0000000100 Ry

     new unit-cell volume =    248.71884 a.u.^3 (    36.85633 Ang^3 )
     density =      2.84347 g/cm^3

CELL_PARAMETERS (alat=  6.63550670)
   0.922294393   0.000000000   0.000000000
  -0.461147197   0.798730374   0.000000000
   0.000000000   0.000000000   1.155624220

ATOMIC_POSITIONS (crystal)
Si            0.3333333300        0.6666666700        0.2774375532
Si            0.6666666700        0.3333333300        0.7225624468
Li           -0.0000000000       -0.0000000000        0.0000000000



     Writing config-only to output data dir ./output/SiLi.save/
     NEW-OLD atomic charge density approx. for the potential
     extrapolated charge    7.70763, renormalised to   11.00000

     total cpu time spent up to now is        9.0 secs

     Self-consistent Calculation

     iteration #  1     ecut=    80.00 Ry     beta= 0.70
     Davidson diagonalization with overlap
     c_bands:  1 eigenvalues not converged
     ethr =  1.00E-06,  avg # of iterations = 11.4

     total cpu time spent up to now is       11.0 secs

     total energy              =     -30.91109081 Ry
     estimated scf accuracy    <       0.16732821 Ry

     iteration #  2     ecut=    80.00 Ry     beta= 0.70
     Davidson diagonalization with overlap
     ethr =  1.52E-03,  avg # of iterations =  2.9

     total cpu time spent up to now is       11.8 secs

     total energy              =     -31.12117601 Ry
     estimated scf accuracy    <       0.39029129 Ry

     iteration #  3     ecut=    80.00 Ry     beta= 0.70
     Davidson diagonalization with overlap
     ethr =  1.52E-03,  avg # of iterations =  1.6

     total cpu time spent up to now is       12.3 secs

     total energy              =     -31.12921130 Ry
     estimated scf accuracy    <       0.05214982 Ry

     iteration #  4     ecut=    80.00 Ry     beta= 0.70
     Davidson diagonalization with overlap
     ethr =  4.74E-04,  avg # of iterations =  1.9

     total cpu time spent up to now is       12.9 secs

     total energy              =     -31.13508758 Ry
     estimated scf accuracy    <       0.00235765 Ry

     iteration #  5     ecut=    80.00 Ry     beta= 0.70
     Davidson diagonalization with overlap
     ethr =  2.14E-05,  avg # of iterations =  3.3

     total cpu time spent up to now is       13.6 secs

     total energy              =     -31.13568602 Ry
     estimated scf accuracy    <       0.00002082 Ry

     iteration #  6     ecut=    80.00 Ry     beta= 0.70
     Davidson diagonalization with overlap
     ethr =  1.89E-07,  avg # of iterations =  4.4

     total cpu time spent up to now is       14.4 secs

     total energy              =     -31.13570730 Ry
     estimated scf accuracy    <       0.00000194 Ry

     iteration #  7     ecut=    80.00 Ry     beta= 0.70
     Davidson diagonalization with overlap
     ethr =  1.76E-08,  avg # of iterations =  2.0

     total cpu time spent up to now is       15.0 secs

     total energy              =     -31.13570790 Ry
     estimated scf accuracy    <       0.00000025 Ry

     iteration #  8     ecut=    80.00 Ry     beta= 0.70
     Davidson diagonalization with overlap
     ethr =  2.24E-09,  avg # of iterations =  1.8

     total cpu time spent up to now is       15.6 secs

     End of self-consistent calculation

          k = 0.0000 0.0000 0.0000 (  3889 PWs)   bands (ev):

   -36.5555  -3.3366   4.4592   5.2141  11.7172  11.7172  12.7377  12.7377
    15.5637  19.5747

          k = 0.0000 0.0000 0.1236 (  3912 PWs)   bands (ev):

   -36.5554  -3.1876   2.7480   7.2153  11.8561  11.8561  12.8713  12.8713
    15.7325  18.0840

          k = 0.0000 0.0000 0.2472 (  3888 PWs)   bands (ev):

   -36.5553  -2.7579   1.0500   9.7558  12.2466  12.2466  13.2306  13.2306
    16.2286  16.4250

          k = 0.0000 0.0000 0.3709 (  3906 PWs)   bands (ev):

   -36.5551  -2.1787  -0.1701  12.2143  12.7302  12.7302  13.6088  13.6088
    15.3427  15.3427

          k = 0.0000 0.1391 0.0000 (  3921 PWs)   bands (ev):

   -36.5541  -3.1405   4.6615   5.3499   9.6442  10.5780  13.0290  14.0916
    16.9258  17.1730

          k = 0.0000 0.1391 0.1236 (  3930 PWs)   bands (ev):

   -36.5540  -2.9900   2.9245   7.3727   9.7832  10.7675  13.1949  13.8833
    15.5911  17.2154

          k = 0.0000 0.1391 0.2472 (  3931 PWs)   bands (ev):

   -36.5539  -2.5552   1.2236   9.7898  10.3320  11.2758  13.1871  13.4712
    14.3651  17.1109

          k = 0.0000 0.1391 0.3709 (  3909 PWs)   bands (ev):

   -36.5537  -1.9630  -0.0077  10.8724  12.0973  12.0993  12.3846  12.6848
    14.5121  16.4212

          k = 0.0000 0.2782 0.0000 (  3918 PWs)   bands (ev):

   -36.5505  -2.5576   5.1539   5.7145   7.1452   9.3931  12.5095  14.5481
    15.4086  15.5117

          k = 0.0000 0.2782 0.1236 (  3910 PWs)   bands (ev):

   -36.5504  -2.4016   3.4028   7.1212   7.9228   9.5721  12.0766  13.4744
    14.4816  17.1662

          k = 0.0000 0.2782 0.2472 (  3927 PWs)   bands (ev):

   -36.5503  -1.9512   1.7235   7.5565  10.0772  10.3730  10.7621  13.1335
    13.4141  17.2460

          k = 0.0000 0.2782 0.3709 (  3913 PWs)   bands (ev):

   -36.5501  -1.3196   0.4693   8.2868   9.3958  10.9029  11.8537  12.6114
    13.6934  17.0468

          k = 0.0000 0.4173 0.0000 (  3888 PWs)   bands (ev):

   -36.5464  -1.6164   4.0779   6.4743   6.7727   8.5792  11.4286  12.5165
    13.2573  15.8528

          k = 0.0000 0.4173 0.1236 (  3898 PWs)   bands (ev):

   -36.5463  -1.4499   3.6368   5.3659   8.7501   8.7513   9.9148  12.6670
    14.2298  14.9506

          k = 0.0000 0.4173 0.2472 (  3903 PWs)   bands (ev):

   -36.5462  -0.9723   2.4258   5.2866   8.2928   9.2516  11.1753  12.5691
    12.7617  16.7975

          k = 0.0000 0.4173 0.3709 (  3911 PWs)   bands (ev):

   -36.5461  -0.2686   1.2095   5.8305   7.0219  10.0711  11.1663  12.7793
    13.2810  17.4270

          k = 0.0000 0.5564 0.0000 (  3902 PWs)   bands (ev):

   -36.5437  -0.4920   2.2847   7.3888   7.9575   8.1682   9.6770  11.0177
    12.4629  15.7546

          k = 0.0000 0.5564 0.1236 (  3891 PWs)   bands (ev):

   -36.5437  -0.3116   2.3439   5.8455   7.9783   8.3353   9.9752  12.2901
    13.0317  14.0032

          k = 0.0000 0.5564 0.2472 (  3892 PWs)   bands (ev):

   -36.5435   0.2070   2.4650   4.3377   6.4519   8.8308  11.9955  12.2553
    12.6361  15.2937

          k = 0.0000 0.5564 0.3709 (  3901 PWs)   bands (ev):

   -36.5434   1.0428   1.9660   3.8275   5.3927   9.6442  10.8117  12.4579
    13.7262  17.7111

          k = 0.1205 0.2087 0.0000 (  3927 PWs)   bands (ev):

   -36.5516  -2.7506   5.0342   5.6092   7.9541   9.1130  13.8586  14.2855
    15.3309  16.8887

          k = 0.1205 0.2087 0.1236 (  3923 PWs)   bands (ev):

   -36.5515  -2.5978   3.2805   7.4395   8.2945   9.2729  13.3421  13.8772
    15.0742  15.7399

          k = 0.1205 0.2087 0.2472 (  3917 PWs)   bands (ev):

   -36.5514  -2.1540   1.5748   8.4173   9.6227  10.2669  11.9234  12.9900
    15.2553  15.5434

          k = 0.1205 0.2087 0.3709 (  3915 PWs)   bands (ev):

   -36.5512  -1.5359   0.3187   9.2651  10.2213  10.5200  11.3754  13.0878
    15.4071  16.3346

          k = 0.1205 0.3478 0.0000 (  3894 PWs)   bands (ev):

   -36.5477  -1.9833   5.0019   6.0618   6.5862   8.0099  13.0168  13.1467
    14.8174  14.9169

          k = 0.1205 0.3478 0.1236 (  3897 PWs)   bands (ev):

   -36.5477  -1.8234   3.8104   5.9254   7.7845   8.6755  11.3184  13.0816
    14.6318  16.2997

          k = 0.1205 0.3478 0.2472 (  3908 PWs)   bands (ev):

   -36.5475  -1.3598   2.2156   6.2818   8.3177   9.6901  10.5625  12.2782
    14.7660  17.0478

          k = 0.1205 0.3478 0.3709 (  3916 PWs)   bands (ev):

   -36.5474  -0.6886   0.9446   7.0306   7.9916   9.2878  10.2902  13.5977
    15.0019  17.4818

          k = 0.1205 0.4869 0.0000 (  3896 PWs)   bands (ev):

   -36.5443  -0.8988   3.1435   6.6909   7.3737   7.6834  10.9822  11.5660
    13.7636  14.6290

          k = 0.1205 0.4869 0.1236 (  3892 PWs)   bands (ev):

   -36.5443  -0.7266   3.1225   5.5362   7.1834   9.0269   9.7437  12.3521
    14.2183  14.5045

          k = 0.1205 0.4869 0.2472 (  3898 PWs)   bands (ev):

   -36.5441  -0.2310   2.7797   4.5860   6.9959   8.1744  10.6904  12.4754
    14.3650  16.5463

          k = 0.1205 0.4869 0.3709 (  3907 PWs)   bands (ev):

   -36.5440   0.5318   1.7636   4.8548   5.9707   8.5951   9.7511  14.2605
    14.4983  18.0980

          k = 0.1205 0.6260 0.0000 (  3888 PWs)   bands (ev):

   -36.5430  -0.0427   1.9454   6.8039   7.7096   9.0824   9.1215  10.6824
    13.4872  14.4913

          k = 0.1205 0.6260 0.1236 (  3888 PWs)   bands (ev):

   -36.5429   0.1303   2.0723   6.1283   6.8891   8.0028  10.9189  11.4910
    13.3397  14.2706

          k = 0.1205 0.6260 0.2472 (  3891 PWs)   bands (ev):

   -36.5428   0.6457   2.4103   4.4144   6.0448   7.7912  10.6885  13.1552
    14.4128  15.0387

          k = 0.1205 0.6260 0.3709 (  3897 PWs)   bands (ev):

   -36.5427   1.4833   2.4587   3.3524   5.0784   8.3532   9.5913  14.2094
    14.9389  17.6013

          k = 0.2409 0.4173 0.0000 (  3899 PWs)   bands (ev):

   -36.5446  -1.0494   3.8313   5.8478   7.3093   7.3949  11.5474  12.7128
    12.9412  15.5012

          k = 0.2409 0.4173 0.1236 (  3897 PWs)   bands (ev):

   -36.5445  -0.8874   3.8643   5.0713   6.5369   9.1446  10.1334  12.1224
    14.5890  16.3270

          k = 0.2409 0.4173 0.2472 (  3901 PWs)   bands (ev):

   -36.5444  -0.4089   3.0140   4.8103   6.7543   8.2396   9.7918  12.8236
    16.3581  17.0987

          k = 0.2409 0.4173 0.3709 (  3896 PWs)   bands (ev):

   -36.5443   0.3215   1.7432   5.5744   6.6869   7.2093   9.1217  14.7967
    16.8463  18.1973

          k = 0.2409 0.5564 0.0000 (  3895 PWs)   bands (ev):

   -36.5425   0.1180   2.2926   5.3452   8.0041   8.7072  10.1435  10.8035
    12.5128  14.9853

          k = 0.2409 0.5564 0.1236 (  3902 PWs)   bands (ev):

   -36.5425   0.2915   2.4171   5.4080   6.4351   8.4525   9.9308  11.7101
    13.4777  16.0140

          k = 0.2409 0.5564 0.2472 (  3903 PWs)   bands (ev):

   -36.5424   0.7987   2.7399   4.7317   5.5985   6.9421   9.3206  13.7471
    15.5775  17.4651

          k = 0.2409 0.5564 0.3709 (  3905 PWs)   bands (ev):

   -36.5423   1.6151   2.5445   4.2490   4.9634   6.4712   8.6013  15.8690
    16.7049  19.0001

          k = 0.3614 0.6260 0.0000 (  3918 PWs)   bands (ev):

   -36.5418   1.2804   1.2804   4.6876   8.9308   8.9308  10.1504  10.7252
    10.7252  14.9521

          k = 0.3614 0.6260 0.1236 (  3897 PWs)   bands (ev):

   -36.5418   1.4478   1.4478   4.7581   7.4980   7.4980   9.6631  12.4264
    12.4264  15.7796

          k = 0.3614 0.6260 0.2472 (  3909 PWs)   bands (ev):

   -36.5416   1.9388   1.9388   4.9407   5.7414   5.7414   8.8026  14.9245
    14.9245  17.6024

          k = 0.3614 0.6260 0.3709 (  3912 PWs)   bands (ev):

   -36.5416   2.6578   2.6578   4.3676   4.3676   5.1235   8.2078  17.1184
    17.1184  19.1498

          k = 0.0000 0.1391-0.1236 (  3930 PWs)   bands (ev):

   -36.5540  -2.9905   2.9323   7.3355   9.8455  10.7028  12.9906  14.3586
    15.9368  16.8688

          k = 0.0000 0.1391-0.2472 (  3931 PWs)   bands (ev):

   -36.5539  -2.5562   1.2282   9.6614  10.5040  11.1284  12.7903  14.3429
    14.9897  15.6586

          k = 0.0000 0.1391-0.3709 (  3909 PWs)   bands (ev):

   -36.5537  -1.9640  -0.0056  10.9812  11.6483  11.8204  12.6520  13.2104
    14.8817  16.1669

          k = 0.0000 0.2782-0.1236 (  3910 PWs)   bands (ev):

   -36.5504  -2.4057   3.4899   6.6886   8.2127   9.5389  12.3338  13.6094
    15.1505  16.3098

          k = 0.0000 0.2782-0.2472 (  3927 PWs)   bands (ev):

   -36.5503  -1.9593   1.7673   7.3722   9.9161  10.0040  11.6423  13.5271
    13.6469  16.1876

          k = 0.0000 0.2782-0.3709 (  3913 PWs)   bands (ev):

   -36.5501  -1.3284   0.4884   8.2002   9.3652  10.7749  12.0749  12.6987
    14.5577  15.4253

          k = 0.0000 0.4173-0.1236 (  3898 PWs)   bands (ev):

   -36.5463  -1.4635   4.3334   4.4571   8.5183   8.7353  11.0345  12.4055
    14.2273  14.4997

          k = 0.0000 0.4173-0.2472 (  3903 PWs)   bands (ev):

   -36.5462  -1.0013   2.6608   4.8829   8.2813   9.2168  11.7737  12.7306
    13.1702  15.1228

          k = 0.0000 0.4173-0.3709 (  3911 PWs)   bands (ev):

   -36.5461  -0.3070   1.2980   5.6225   7.1416  10.0128  11.2629  12.5556
    14.4033  15.6732

          k = 0.0000 0.5564-0.1236 (  3891 PWs)   bands (ev):

   -36.5437  -0.3342   2.4575   5.6025   7.8879   8.3305  10.8504  11.8234
    12.7631  14.0765

          k = 0.0000 0.5564-0.2472 (  3892 PWs)   bands (ev):

   -36.5435   0.1524   2.8725   3.8107   6.5792   8.8204  12.0343  12.3008
    13.5564  14.0462

          k = 0.0000 0.5564-0.3709 (  3901 PWs)   bands (ev):

   -36.5434   0.9305   2.2903   3.4945   5.5038   9.6271  10.8395  12.3859
    14.1459  16.7121

          k =-0.1205 0.3478-0.1236 (  3897 PWs)   bands (ev):

   -36.5477  -1.8285   3.9926   5.5415   8.0332   8.5249  11.6438  13.4594
    14.2011  15.7470

          k =-0.1205 0.3478-0.2472 (  3908 PWs)   bands (ev):

   -36.5475  -1.3703   2.2855   6.0718   8.4850   9.3198  11.0507  12.5280
    14.6598  16.8326

          k =-0.1205 0.3478-0.3709 (  3916 PWs)   bands (ev):

   -36.5474  -0.7014   0.9732   6.8815   8.1572   9.1480  10.4075  13.6974
    15.5554  16.3875

          k =-0.1205 0.4869-0.1236 (  3892 PWs)   bands (ev):

   -36.5443  -0.7433   3.3527   5.0717   7.4373   8.5339  10.6819  12.3790
    13.4418  14.6673

          k =-0.1205 0.4869-0.2472 (  3898 PWs)   bands (ev):

   -36.5441  -0.2689   3.3142   3.8658   7.3030   7.9796  10.8565  12.9261
    14.3503  15.5602

          k =-0.1205 0.4869-0.3709 (  3907 PWs)   bands (ev):

   -36.5440   0.4705   1.9200   4.5707   6.1664   8.5362   9.8098  14.0504
    15.4317  16.5338

          k =-0.2409 0.5564-0.1236 (  3902 PWs)   bands (ev):

   -36.5425   0.2808   2.4631   5.2705   6.5674   8.3041  10.1674  11.6491
    13.4309  15.8829

          k =-0.2409 0.5564-0.2472 (  3903 PWs)   bands (ev):

   -36.5424   0.7720   2.9072   4.3486   5.9465   6.8120   9.3533  13.8643
    15.5160  17.1145

          k =-0.2409 0.5564-0.3709 (  3905 PWs)   bands (ev):

   -36.5423   1.5547   2.7498   3.8977   5.2225   6.4106   8.6108  15.8658
    16.9811  18.3652

     the Fermi energy is     9.2033 ev

!    total energy              =     -31.13570796 Ry
     estimated scf accuracy    <          1.7E-09 Ry
     smearing contrib. (-TS)   =      -0.00058981 Ry
     internal energy E=F+TS    =     -31.13511814 Ry

     The total energy is F=E-TS. E is the sum of the following terms:
     one-electron contribution =       1.41474912 Ry
     hartree contribution      =       3.55131388 Ry
     xc contribution           =      -9.77833241 Ry
     ewald contribution        =     -26.32284873 Ry

     convergence has been achieved in   8 iterations

     Forces acting on atoms (cartesian axes, Ry/au):

     atom    1 type  1   force =     0.00000000    0.00000000    0.10010392
     atom    2 type  1   force =    -0.00000000   -0.00000000   -0.10010392
     atom    3 type  2   force =     0.00000000   -0.00000000    0.00000000
     The non-local contrib.  to forces
     atom    1 type  1   force =    -0.00000000   -0.00000000    0.10930479
     atom    2 type  1   force =     0.00000000    0.00000000   -0.10930479
     atom    3 type  2   force =     0.00000000   -0.00000000    0.00000000
     The ionic contribution  to forces
     atom    1 type  1   force =     0.00000003   -0.00000002    0.71503544
     atom    2 type  1   force =    -0.00000003    0.00000002   -0.71503544
     atom    3 type  2   force =     0.00000000   -0.00000000   -0.00000000
     The local contribution  to forces
     atom    1 type  1   force =    -0.00000000    0.00000000   -0.71795798
     atom    2 type  1   force =     0.00000000   -0.00000000    0.71795798
     atom    3 type  2   force =    -0.00000000    0.00000000    0.00000000
     The core correction contribution to forces
     atom    1 type  1   force =    -0.00000000    0.00000000   -0.00631442
     atom    2 type  1   force =     0.00000000   -0.00000000    0.00631442
     atom    3 type  2   force =     0.00000000    0.00000000    0.00000000
     The Hubbard contrib.    to forces
     atom    1 type  1   force =     0.00000000    0.00000000    0.00000000
     atom    2 type  1   force =     0.00000000    0.00000000    0.00000000
     atom    3 type  2   force =     0.00000000    0.00000000    0.00000000
     The SCF correction term to forces
     atom    1 type  1   force =    -0.00000000    0.00000000    0.00003608
     atom    2 type  1   force =     0.00000000   -0.00000000   -0.00003608
     atom    3 type  2   force =    -0.00000000    0.00000000    0.00000000

     Total force =     0.141568     Total SCF correction =     0.000051


     Computing stress (Cartesian axis) and pressure

          total   stress  (Ry/bohr**3)                   (kbar)     P=      233.80
   0.00187416  -0.00000000   0.00000000          275.70       -0.00        0.00
  -0.00000000   0.00187416   0.00000000           -0.00      275.70        0.00
   0.00000000   0.00000000   0.00101973            0.00        0.00      150.01

     Energy error            =      2.2E-01 Ry
     Gradient error          =      1.0E-01 Ry/Bohr
     Cell gradient error     =      3.5E+02 kbar

     number of scf cycles    =   2
     number of bfgs steps    =   1

     enthalpy           old  =     -30.0710556342 Ry
     enthalpy           new  =     -30.2903298052 Ry

     CASE: enthalpy          _new < enthalpy          _old

     new trust radius        =       0.3786798624 bohr
ibrav =      4
 celldm(1) =      5.65536327
 celldm(3) =      1.19312160
Input lattice vectors:
     0.85228808    -0.00000000     0.00000000
    -0.42614404     0.73810313     0.00000000
    -0.00000000    -0.00000000     1.01688332
New lattice vectors in INITIAL alat:
     0.85228808     0.00000000     0.00000000
    -0.42614404     0.73810313     0.00000000
     0.00000000     0.00000000     1.01688332
New lattice vectors in NEW alat (for information only):
     1.00000000     0.00000000     0.00000000
    -0.50000000     0.86602540     0.00000000
     0.00000000     0.00000000     1.19312160
Discrepancy in bohr =     0.000000    0.000000    0.000000
     new conv_thr            =       0.0000000100 Ry

     new unit-cell volume =    186.89465 a.u.^3 (    27.69493 Ang^3 )
     density =      3.78408 g/cm^3

CELL_PARAMETERS (alat=  6.63550670)
   0.852288080   0.000000000   0.000000000
  -0.426144040   0.738103129   0.000000000
   0.000000000   0.000000000   1.016883319

ATOMIC_POSITIONS (crystal)
Si            0.3333333300        0.6666666700        0.2992608508
Si            0.6666666700        0.3333333300        0.7007391492
Li            0.0000000000       -0.0000000000        0.0000000000



     Writing config-only to output data dir ./output/SiLi.save/
     NEW-OLD atomic charge density approx. for the potential

     negative rho (up, down):  2.512E-05 0.000E+00
     extrapolated charge    7.36315, renormalised to   11.00000

     total cpu time spent up to now is       17.3 secs

     Self-consistent Calculation

     iteration #  1     ecut=    80.00 Ry     beta= 0.70
     Davidson diagonalization with overlap
     c_bands:  1 eigenvalues not converged
     c_bands:  1 eigenvalues not converged
     ethr =  1.00E-06,  avg # of iterations = 12.5

     total cpu time spent up to now is       19.2 secs

     total energy              =     -30.80028167 Ry
     estimated scf accuracy    <       0.10917672 Ry

     iteration #  2     ecut=    80.00 Ry     beta= 0.70
     Davidson diagonalization with overlap
     ethr =  9.93E-04,  avg # of iterations =  2.5

     total cpu time spent up to now is       19.9 secs

     total energy              =     -30.95401804 Ry
     estimated scf accuracy    <       0.16541666 Ry

     iteration #  3     ecut=    80.00 Ry     beta= 0.70
     Davidson diagonalization with overlap
     ethr =  9.93E-04,  avg # of iterations =  1.0

     total cpu time spent up to now is       20.4 secs

     total energy              =     -30.95578233 Ry
     estimated scf accuracy    <       0.02328645 Ry

     iteration #  4     ecut=    80.00 Ry     beta= 0.70
     Davidson diagonalization with overlap
     ethr =  2.12E-04,  avg # of iterations =  1.8

     total cpu time spent up to now is       20.9 secs

     total energy              =     -30.95811666 Ry
     estimated scf accuracy    <       0.00101746 Ry

     iteration #  5     ecut=    80.00 Ry     beta= 0.70
     Davidson diagonalization with overlap
     c_bands:  1 eigenvalues not converged
     ethr =  9.25E-06,  avg # of iterations =  4.2

     total cpu time spent up to now is       21.6 secs

     total energy              =     -30.95838713 Ry
     estimated scf accuracy    <       0.00000513 Ry

     iteration #  6     ecut=    80.00 Ry     beta= 0.70
     Davidson diagonalization with overlap
     ethr =  4.66E-08,  avg # of iterations =  3.9

     total cpu time spent up to now is       22.3 secs

     total energy              =     -30.95839269 Ry
     estimated scf accuracy    <       0.00000038 Ry

     iteration #  7     ecut=    80.00 Ry     beta= 0.70
     Davidson diagonalization with overlap
     ethr =  3.47E-09,  avg # of iterations =  2.0

     total cpu time spent up to now is       22.9 secs

     total energy              =     -30.95839279 Ry
     estimated scf accuracy    <       0.00000004 Ry

     iteration #  8     ecut=    80.00 Ry     beta= 0.70
     Davidson diagonalization with overlap
     ethr =  3.29E-10,  avg # of iterations =  2.0

     total cpu time spent up to now is       23.4 secs

     End of self-consistent calculation

          k = 0.0000 0.0000 0.0000 (  3889 PWs)   bands (ev):

   -33.4491  -1.7459   8.6025   9.0072  15.6401  15.6401  16.5683  16.5683
    20.5185  24.7350

          k = 0.0000 0.0000 0.1405 (  3912 PWs)   bands (ev):

   -33.4486  -1.5868   6.2683  11.7452  15.8185  15.8185  16.7843  16.7843
    20.6752  23.2792

          k = 0.0000 0.0000 0.2810 (  3888 PWs)   bands (ev):

   -33.4474  -1.1480   4.2371  14.9604  16.3256  16.3256  17.4241  17.4241
    21.2079  21.2080

          k = 0.0000 0.0000 0.4215 (  3906 PWs)   bands (ev):

   -33.4464  -0.6391   2.9275  16.9717  16.9717  18.0143  18.4310  18.4311
    19.6326  19.6326

          k = 0.0000 0.1505 0.0000 (  3921 PWs)   bands (ev):

   -33.4454  -1.5191   8.8597   9.1167  13.1618  14.1629  17.1535  18.4339
    21.8667  22.6721

          k = 0.0000 0.1505 0.1405 (  3930 PWs)   bands (ev):

   -33.4449  -1.3569   6.4603  11.8898  13.3647  14.3743  17.3940  18.4393
    20.5535  22.0900

          k = 0.0000 0.1505 0.2810 (  3931 PWs)   bands (ev):

   -33.4438  -0.9082   4.4197  13.8603  14.9850  15.1154  17.9773  18.3090
    18.4635  21.8623

          k = 0.0000 0.1505 0.4215 (  3909 PWs)   bands (ev):

   -33.4429  -0.3821   3.0936  14.7137  15.9183  16.7455  17.3895  17.7637
    19.0390  21.6189

          k = 0.0000 0.3011 0.0000 (  3918 PWs)   bands (ev):

   -33.4361  -0.8436   9.1053   9.6199  10.4395  12.7530  16.7091  19.4735
    20.6775  20.7371

          k = 0.0000 0.3011 0.1405 (  3910 PWs)   bands (ev):

   -33.4357  -0.6723   7.0044  10.1118  12.5989  12.9624  16.7526  17.5967
    19.5580  23.0672

          k = 0.0000 0.3011 0.2810 (  3927 PWs)   bands (ev):

   -33.4346  -0.1944   4.9592  10.6931  13.5807  15.1697  15.6655  17.4466
    17.7915  22.6140

          k = 0.0000 0.3011 0.4215 (  3913 PWs)   bands (ev):

   -33.4338   0.3846   3.5880  11.4836  13.6889  14.5644  16.1298  17.2657
    18.8027  22.6484

          k = 0.0000 0.4516 0.0000 (  3888 PWs)   bands (ev):

   -33.4255   0.2533   6.8685  10.4841  10.9248  11.8000  15.7565  17.1396
    18.1258  21.1772

          k = 0.0000 0.4516 0.1405 (  3898 PWs)   bands (ev):

   -33.4251   0.4397   6.8795   8.3540  12.0083  13.5066  14.5277  16.4908
    19.1258  20.6214

          k = 0.0000 0.4516 0.2810 (  3903 PWs)   bands (ev):

   -33.4242   0.9666   5.7520   7.9007  12.4751  12.6282  16.2822  16.8869
    16.9837  22.8877

          k = 0.0000 0.4516 0.4215 (  3911 PWs)   bands (ev):

   -33.4235   1.6439   4.3737   8.4635  11.0748  13.6268  15.2044  16.6350
    18.9453  23.5770

          k = 0.0000 0.6021 0.0000 (  3902 PWs)   bands (ev):

   -33.4186   1.5901   4.6758  11.2622  11.3217  12.6167  14.3680  15.0841
    16.9688  20.8409

          k = 0.0000 0.6021 0.1405 (  3891 PWs)   bands (ev):

   -33.4183   1.8026   4.8041   9.3848  11.5293  12.1850  15.1328  15.9376
    18.3855  18.7636

          k = 0.0000 0.6021 0.2810 (  3892 PWs)   bands (ev):

   -33.4174   2.4190   5.1316   7.2759  10.4072  12.1492  16.1766  16.5490
    17.7012  21.2539

          k = 0.0000 0.6021 0.4215 (  3901 PWs)   bands (ev):

   -33.4168   3.3078   5.1620   5.9682   9.2741  13.1522  14.7350  16.2372
    19.3017  24.5503

          k = 0.1304 0.2258 0.0000 (  3927 PWs)   bands (ev):

   -33.4389  -1.0675   9.2967   9.3673  11.1593  12.4780  18.3767  18.9772
    20.3603  22.1761

          k = 0.1304 0.2258 0.1405 (  3923 PWs)   bands (ev):

   -33.4385  -0.8997   6.8329  11.3470  12.0371  12.8080  18.2851  18.8991
    19.2401  19.9647

          k = 0.1304 0.2258 0.2810 (  3917 PWs)   bands (ev):

   -33.4374  -0.4319   4.7832  11.9683  13.0342  15.0402  16.6624  18.0376
    19.3888  19.6038

          k = 0.1304 0.2258 0.4215 (  3915 PWs)   bands (ev):

   -33.4365   0.1293   3.4258  12.9148  13.7335  14.6276  15.8288  18.6463
    20.4951  20.6041

          k = 0.1304 0.3763 0.0000 (  3894 PWs)   bands (ev):

   -33.4290  -0.1756   8.2477   9.7736  10.4076  11.3868  17.8299  18.0378
    19.4695  20.9294

          k = 0.1304 0.3763 0.1405 (  3897 PWs)   bands (ev):

   -33.4286   0.0038   7.4635   8.7025  11.1478  13.1369  15.9333  17.9566
    19.1636  21.5975

          k = 0.1304 0.3763 0.2810 (  3908 PWs)   bands (ev):

   -33.4276   0.5093   5.4898   9.2172  11.6135  13.8884  15.0957  17.6254
    19.0272  21.8178

          k = 0.1304 0.3763 0.4215 (  3916 PWs)   bands (ev):

   -33.4269   1.1436   4.0822  10.0331  11.9632  12.5014  14.6093  18.8515
    20.0213  22.8793

          k = 0.1304 0.5269 0.0000 (  3896 PWs)   bands (ev):

   -33.4203   1.0973   5.7550   9.8234  11.3013  11.8947  15.6512  16.7856
    17.6348  20.7067

          k = 0.1304 0.5269 0.1405 (  3892 PWs)   bands (ev):

   -33.4199   1.2949   5.8972   8.7679  10.4326  13.4265  14.3354  17.3630
    18.4596  19.9913

          k = 0.1304 0.5269 0.2810 (  3898 PWs)   bands (ev):

   -33.4190   1.8607   6.0253   7.1347  10.5116  11.8220  14.9289  18.1652
    18.5122  22.6225

          k = 0.1304 0.5269 0.4215 (  3907 PWs)   bands (ev):

   -33.4184   2.6274   4.9804   7.2624   9.8199  11.6779  13.9746  18.5947
    20.1566  24.4794

          k = 0.1304 0.6774 0.0000 (  3888 PWs)   bands (ev):

   -33.4168   2.1372   4.2835   9.7397  11.6087  13.6272  13.8581  15.5298
    17.4157  20.7755

          k = 0.1304 0.6774 0.1405 (  3888 PWs)   bands (ev):

   -33.4165   2.3620   4.4156   9.7566   9.9765  12.0760  15.6151  17.0713
    17.3541  19.2727

          k = 0.1304 0.6774 0.2810 (  3891 PWs)   bands (ev):

   -33.4156   3.0307   4.7680   7.7173   9.4572  11.1927  14.9043  18.2133
    19.4002  20.5895

          k = 0.1304 0.6774 0.4215 (  3897 PWs)   bands (ev):

   -33.4150   4.1001   5.1450   5.8213   8.7227  11.4232  13.7810  18.4095
    20.5937  24.0813

          k = 0.2607 0.4516 0.0000 (  3899 PWs)   bands (ev):

   -33.4209   0.9170   6.7514   8.4870  11.3214  11.6202  16.0421  18.2953
    18.9518  20.0642

          k = 0.2607 0.4516 0.1405 (  3897 PWs)   bands (ev):

   -33.4205   1.1081   6.9658   7.9781   9.7703  13.4321  14.6998  17.4002
    20.7962  21.0355

          k = 0.2607 0.4516 0.2810 (  3901 PWs)   bands (ev):

   -33.4197   1.6565   6.3429   7.6166   9.5615  12.1214  14.1478  18.6783
    21.4527  21.8718

          k = 0.2607 0.4516 0.4215 (  3896 PWs)   bands (ev):

   -33.4190   2.3882   4.9089   8.6310   9.7173  10.3453  13.4891  20.6501
    22.6227  22.8290

          k = 0.2607 0.6021 0.0000 (  3895 PWs)   bands (ev):

   -33.4156   2.3060   4.8333   7.8573  11.9687  13.1585  14.5289  16.2555
    18.2418  19.5382

          k = 0.2607 0.6021 0.1405 (  3902 PWs)   bands (ev):

   -33.4153   2.5178   5.0265   7.8590  10.2324  12.5766  14.3019  17.4152
    19.2962  20.7356

          k = 0.2607 0.6021 0.2810 (  3903 PWs)   bands (ev):

   -33.4145   3.1364   5.5718   7.4795   8.6117  10.5752  13.6382  19.8650
    21.4553  22.3002

          k = 0.2607 0.6021 0.4215 (  3905 PWs)   bands (ev):

   -33.4138   4.0445   5.9099   6.5039   8.3232   9.1587  12.9860  21.5207
    22.4251  25.4591

          k = 0.3911 0.6774 0.0000 (  3918 PWs)   bands (ev):

   -33.4138   3.6955   3.6955   6.9902  12.9520  12.9520  14.6090  16.3732
    16.3732  19.8313

          k = 0.3911 0.6774 0.1405 (  3897 PWs)   bands (ev):

   -33.4135   3.9174   3.9174   7.0121  11.4037  11.4037  14.0705  18.2755
    18.2755  20.8477

          k = 0.3911 0.6774 0.2810 (  3909 PWs)   bands (ev):

   -33.4127   4.5775   4.5775   7.0644   9.2139   9.2139  13.1962  21.4435
    21.4435  22.8926

          k = 0.3911 0.6774 0.4215 (  3912 PWs)   bands (ev):

   -33.4121   5.6289   5.6289   7.1097   7.3487   7.3487  12.6570  23.7735
    24.0859  24.0859

          k = 0.0000 0.1505-0.1405 (  3930 PWs)   bands (ev):

   -33.4449  -1.3571   6.4597  11.9024  13.3683  14.3543  17.2553  18.7222
    20.6258  21.7289

          k = 0.0000 0.1505-0.2810 (  3931 PWs)   bands (ev):

   -33.4438  -0.9085   4.4199  13.9505  14.9344  14.9959  17.5661  18.9960
    19.3039  19.5892

          k = 0.0000 0.1505-0.4215 (  3909 PWs)   bands (ev):

   -33.4429  -0.3823   3.0938  14.8104  15.8258  16.3309  17.6948  18.0124
    19.6310  20.4807

          k = 0.0000 0.3011-0.1405 (  3910 PWs)   bands (ev):

   -33.4357  -0.6737   6.9886  10.2411  12.3974  12.9548  16.7294  18.0122
    20.2778  21.3693

          k = 0.0000 0.3011-0.2810 (  3927 PWs)   bands (ev):

   -33.4346  -0.1967   4.9582  10.7903  13.5612  14.2767  17.0070  17.2817
    18.0434  21.4872

          k = 0.0000 0.3011-0.4215 (  3913 PWs)   bands (ev):

   -33.4338   0.3830   3.5892  11.5628  13.4930  14.5264  16.2255  17.3323
    19.9040  20.4910

          k = 0.0000 0.4516-0.1405 (  3898 PWs)   bands (ev):

   -33.4251   0.4362   6.8044   8.5610  12.0055  12.7230  15.3718  16.9433
    19.2723  19.3191

          k = 0.0000 0.4516-0.2810 (  3903 PWs)   bands (ev):

   -33.4242   0.9605   5.7203   8.0412  12.1363  12.6207  16.3972  17.0695
    17.8264  20.5070

          k = 0.0000 0.4516-0.4215 (  3911 PWs)   bands (ev):

   -33.4235   1.6392   4.3733   8.5308  10.9629  13.6113  15.2414  16.6189
    19.8699  21.4164

          k = 0.0000 0.6021-0.1405 (  3891 PWs)   bands (ev):

   -33.4183   1.7988   4.7997   9.5308  11.5286  11.8078  15.3819  16.9801
    17.1104  18.8110

          k = 0.0000 0.6021-0.2810 (  3892 PWs)   bands (ev):

   -33.4174   2.4122   5.1101   7.3829  10.2691  12.1472  16.1195  16.5717
    18.7481  19.6820

          k = 0.0000 0.6021-0.4215 (  3901 PWs)   bands (ev):

   -33.4168   3.3026   5.1205   6.0462   9.2286  13.1480  14.7451  16.2267
    19.6358  22.9946

          k =-0.1304 0.3763-0.1405 (  3897 PWs)   bands (ev):

   -33.4286   0.0023   7.4018   8.8537  11.1065  12.8692  16.6540  17.8283
    18.7657  21.5614

          k =-0.1304 0.3763-0.2810 (  3908 PWs)   bands (ev):

   -33.4276   0.5067   5.4836   9.3056  11.5639  13.4253  15.7665  17.8799
    18.6471  22.1708

          k =-0.1304 0.3763-0.4215 (  3916 PWs)   bands (ev):

   -33.4269   1.1417   4.0828  10.1026  11.8294  12.4888  14.6996  18.8544
    20.8651  21.4922

          k =-0.1304 0.5269-0.1405 (  3892 PWs)   bands (ev):

   -33.4199   1.2916   5.8768   8.9234  10.3958  12.6136  15.8736  16.8227
    18.0910  19.7855

          k =-0.1304 0.5269-0.2810 (  3898 PWs)   bands (ev):

   -33.4190   1.8549   5.9481   7.3163  10.4031  11.6757  15.1969  18.2086
    18.9715  20.9150

          k =-0.1304 0.5269-0.4215 (  3907 PWs)   bands (ev):

   -33.4184   2.6228   4.9698   7.3311   9.7363  11.6683  14.0223  18.5293
    21.0132  22.2869

          k =-0.2607 0.6021-0.1405 (  3902 PWs)   bands (ev):

   -33.4153   2.5165   5.0239   7.8733  10.2683  12.3510  14.6323  17.2441
    19.2730  20.6887

          k =-0.2607 0.6021-0.2810 (  3903 PWs)   bands (ev):

   -33.4145   3.1345   5.5549   7.5746   8.5383  10.5420  13.6819  20.1534
    21.3407  21.6717

          k =-0.2607 0.6021-0.4215 (  3905 PWs)   bands (ev):

   -33.4138   4.0442   5.8464   6.6167   8.2419   9.1856  12.9929  21.4885
    23.0265  23.8288

     the Fermi energy is    13.1169 ev

!    total energy              =     -30.95839280 Ry
     estimated scf accuracy    <          1.2E-09 Ry
     smearing contrib. (-TS)   =      -0.00005105 Ry
     internal energy E=F+TS    =     -30.95834175 Ry

     The total energy is F=E-TS. E is the sum of the following terms:
     one-electron contribution =       5.30896434 Ry
     hartree contribution      =       3.15438528 Ry
     xc contribution           =     -10.28018895 Ry
     ewald contribution        =     -29.14150242 Ry

     convergence has been achieved in   8 iterations

     Forces acting on atoms (cartesian axes, Ry/au):

     atom    1 type  1   force =     0.00000000    0.00000000    0.04267654
     atom    2 type  1   force =     0.00000000    0.00000000   -0.04267654
     atom    3 type  2   force =     0.00000000    0.00000000    0.00000000
     The non-local contrib.  to forces
     atom    1 type  1   force =     0.00000000    0.00000000    0.00273957
     atom    2 type  1   force =    -0.00000000   -0.00000000   -0.00273957
     atom    3 type  2   force =     0.00000000   -0.00000000    0.00000000
     The ionic contribution  to forces
     atom    1 type  1   force =     0.00000004   -0.00000002    0.29805598
     atom    2 type  1   force =    -0.00000004    0.00000002   -0.29805598
     atom    3 type  2   force =     0.00000000   -0.00000000   -0.00000000
     The local contribution  to forces
     atom    1 type  1   force =    -0.00000001    0.00000001   -0.26110542
     atom    2 type  1   force =     0.00000001   -0.00000001    0.26110542
     atom    3 type  2   force =    -0.00000000    0.00000000    0.00000000
     The core correction contribution to forces
     atom    1 type  1   force =    -0.00000000    0.00000000    0.00296053
     atom    2 type  1   force =     0.00000000   -0.00000000   -0.00296053
     atom    3 type  2   force =     0.00000000    0.00000000    0.00000000
     The Hubbard contrib.    to forces
     atom    1 type  1   force =     0.00000000    0.00000000    0.00000000
     atom    2 type  1   force =     0.00000000    0.00000000    0.00000000
     atom    3 type  2   force =     0.00000000    0.00000000    0.00000000
     The SCF correction term to forces
     atom    1 type  1   force =     0.00000000   -0.00000000    0.00002587
     atom    2 type  1   force =    -0.00000000    0.00000000   -0.00002587
     atom    3 type  2   force =    -0.00000000   -0.00000000    0.00000000

     Total force =     0.060354     Total SCF correction =     0.000037


     Computing stress (Cartesian axis) and pressure

          total   stress  (Ry/bohr**3)                   (kbar)     P=      910.13
   0.00651782   0.00000000   0.00000000          958.80        0.00        0.00
   0.00000000   0.00651782   0.00000000            0.00      958.80        0.00
   0.00000000   0.00000000   0.00552527            0.00        0.00      812.80

     Energy error            =      3.3E-02 Ry
     Gradient error          =      4.3E-02 Ry/Bohr
     Cell gradient error     =      4.6E+02 kbar

     number of scf cycles    =   3
     number of bfgs steps    =   2

     enthalpy           old  =     -30.2903298052 Ry
     enthalpy           new  =     -30.3231508078 Ry

     CASE: enthalpy          _new < enthalpy          _old

     new trust radius        =       0.1386292426 bohr
ibrav =      4
 celldm(1) =      5.92438177
 celldm(3) =      1.19669039
Input lattice vectors:
     0.89283035     0.00000000    -0.00000000
    -0.44641517     0.77321376    -0.00000000
     0.00000000     0.00000000     1.06844150
New lattice vectors in INITIAL alat:
     0.89283035     0.00000000     0.00000000
    -0.44641517     0.77321376     0.00000000
     0.00000000     0.00000000     1.06844150
New lattice vectors in NEW alat (for information only):
     1.00000000     0.00000000     0.00000000
    -0.50000000     0.86602540     0.00000000
     0.00000000     0.00000000     1.19669039
Discrepancy in bohr =     0.000000    0.000000    0.000000
     new conv_thr            =       0.0000000043 Ry

     new unit-cell volume =    215.49716 a.u.^3 (    31.93338 Ang^3 )
     density =      3.28183 g/cm^3

CELL_PARAMETERS (alat=  6.63550670)
   0.892830350   0.000000000   0.000000000
  -0.446415175   0.773213764   0.000000000
   0.000000000   0.000000000   1.068441495

ATOMIC_POSITIONS (crystal)
Si            0.3333333300        0.6666666700        0.2971101840
Si            0.6666666700        0.3333333300        0.7028898160
Li            0.0000000000       -0.0000000000        0.0000000000



     Writing config-only to output data dir ./output/SiLi.save/
     NEW-OLD atomic charge density approx. for the potential
     extrapolated charge   12.45924, renormalised to   11.00000

     total cpu time spent up to now is       24.9 secs

     Self-consistent Calculation

     iteration #  1     ecut=    80.00 Ry     beta= 0.70
     Davidson diagonalization with overlap
     c_bands:  1 eigenvalues not converged
     c_bands:  1 eigenvalues not converged
     ethr =  1.00E-06,  avg # of iterations = 10.3

     total cpu time spent up to now is       26.4 secs

     total energy              =     -31.07095469 Ry
     estimated scf accuracy    <       0.00462857 Ry

     iteration #  2     ecut=    80.00 Ry     beta= 0.70
     Davidson diagonalization with overlap
     ethr =  4.21E-05,  avg # of iterations =  3.5

     total cpu time spent up to now is       27.2 secs

     total energy              =     -31.09021333 Ry
     estimated scf accuracy    <       0.01621212 Ry

     iteration #  3     ecut=    80.00 Ry     beta= 0.70
     Davidson diagonalization with overlap
     ethr =  4.21E-05,  avg # of iterations =  1.7

     total cpu time spent up to now is       27.6 secs

     total energy              =     -31.09011398 Ry
     estimated scf accuracy    <       0.00394636 Ry

     iteration #  4     ecut=    80.00 Ry     beta= 0.70
     Davidson diagonalization with overlap
     ethr =  3.59E-05,  avg # of iterations =  1.0

     total cpu time spent up to now is       28.1 secs

     total energy              =     -31.08928889 Ry
     estimated scf accuracy    <       0.00178372 Ry

     iteration #  5     ecut=    80.00 Ry     beta= 0.70
     Davidson diagonalization with overlap
     ethr =  1.62E-05,  avg # of iterations =  1.9

     total cpu time spent up to now is       28.6 secs

     total energy              =     -31.08945921 Ry
     estimated scf accuracy    <       0.00006803 Ry

     iteration #  6     ecut=    80.00 Ry     beta= 0.70
     Davidson diagonalization with overlap
     ethr =  6.18E-07,  avg # of iterations =  4.0

     total cpu time spent up to now is       29.2 secs

     total energy              =     -31.08948889 Ry
     estimated scf accuracy    <       0.00004220 Ry

     iteration #  7     ecut=    80.00 Ry     beta= 0.70
     Davidson diagonalization with overlap
     ethr =  3.84E-07,  avg # of iterations =  1.2

     total cpu time spent up to now is       29.7 secs

     total energy              =     -31.08949387 Ry
     estimated scf accuracy    <       0.00000092 Ry

     iteration #  8     ecut=    80.00 Ry     beta= 0.70
     Davidson diagonalization with overlap
     ethr =  8.33E-09,  avg # of iterations =  2.4

     total cpu time spent up to now is       30.3 secs

     total energy              =     -31.08949422 Ry
     estimated scf accuracy    <       0.00000001 Ry

     iteration #  9     ecut=    80.00 Ry     beta= 0.70
     Davidson diagonalization with overlap
     ethr =  1.28E-10,  avg # of iterations =  3.8

     total cpu time spent up to now is       30.9 secs

     End of self-consistent calculation

          k = 0.0000 0.0000 0.0000 (  3889 PWs)   bands (ev):

   -35.0785  -2.6792   6.7753   7.2476  13.2635  13.2635  14.4375  14.4375
    17.5706  21.9889

          k = 0.0000 0.0000 0.1337 (  3912 PWs)   bands (ev):

   -35.0783  -2.5247   4.6606   9.7132  13.4228  13.4228  14.6244  14.6244
    17.7428  20.5288

          k = 0.0000 0.0000 0.2674 (  3888 PWs)   bands (ev):

   -35.0777  -2.0946   2.7626  12.6252  13.8690  13.8690  15.1661  15.1661
    18.6089  18.6096

          k = 0.0000 0.0000 0.4011 (  3906 PWs)   bands (ev):

   -35.0773  -1.5810   1.5100  14.4116  14.4116  15.2815  15.9270  15.9270
    17.2549  17.2549

          k = 0.0000 0.1437 0.0000 (  3921 PWs)   bands (ev):

   -35.0764  -2.4689   7.0066   7.3690  11.0592  12.0433  14.8142  15.9794
    19.0025  19.8609

          k = 0.0000 0.1437 0.1337 (  3930 PWs)   bands (ev):

   -35.0762  -2.3121   4.8425   9.8810  11.2171  12.2476  15.0326  15.8864
    17.9514  19.2144

          k = 0.0000 0.1437 0.2674 (  3931 PWs)   bands (ev):

   -35.0757  -1.8746   2.9387  11.7177  12.7569  12.8111  15.4107  15.6403
    16.1718  19.2756

          k = 0.0000 0.1437 0.4011 (  3909 PWs)   bands (ev):

   -35.0752  -1.3473   1.6736  12.4612  13.6362  14.3048  14.8967  15.2326
    16.5513  18.9573

          k = 0.0000 0.2874 0.0000 (  3918 PWs)   bands (ev):

   -35.0711  -1.8427   7.4077   7.7311   8.4990  10.7734  14.3706  16.9905
    17.9116  17.9765

          k = 0.0000 0.2874 0.1337 (  3910 PWs)   bands (ev):

   -35.0709  -1.6786   5.3396   8.3779  10.4223  10.9721  14.2534  15.3131
    16.8285  20.2000

          k = 0.0000 0.2874 0.2674 (  3927 PWs)   bands (ev):

   -35.0704  -1.2188   3.4503   8.8563  11.5429  12.9103  13.2006  15.0967
    15.2851  19.9575

          k = 0.0000 0.2874 0.4011 (  3913 PWs)   bands (ev):

   -35.0700  -0.6492   2.1565   9.5662  11.4886  12.4333  13.8348  14.9758
    16.0413  19.9704

          k = 0.0000 0.4311 0.0000 (  3888 PWs)   bands (ev):

   -35.0651  -0.8275   5.3187   8.6391   8.8713   9.9050  13.5799  14.8413
    15.4326  18.6642

          k = 0.0000 0.4311 0.1337 (  3898 PWs)   bands (ev):

   -35.0649  -0.6502   5.2138   6.7823  10.0997  11.3404  12.1376  14.2827
    16.5742  17.8900

          k = 0.0000 0.4311 0.2674 (  3903 PWs)   bands (ev):

   -35.0645  -0.1511   4.1634   6.3584  10.3579  10.6703  13.9838  14.3918
    14.6297  20.0586

          k = 0.0000 0.4311 0.4011 (  3911 PWs)   bands (ev):

   -35.0641   0.4979   2.9108   6.8386   9.0513  11.5773  13.0277  14.4280
    16.1397  20.7183

          k = 0.0000 0.5748 0.0000 (  3902 PWs)   bands (ev):

   -35.0611   0.4042   3.2912   9.3679   9.4675  10.3896  12.1244  13.3241
    14.1914  18.5447

          k = 0.0000 0.5748 0.1337 (  3891 PWs)   bands (ev):

   -35.0610   0.6034   3.3958   7.6411   9.6590  10.1278  12.6616  13.9002
    15.7428  16.3074

          k = 0.0000 0.5748 0.2674 (  3892 PWs)   bands (ev):

   -35.0606   1.1750   3.6752   5.7377   8.4445  10.2276  13.9655  14.2680
    15.0848  18.4852

          k = 0.0000 0.5748 0.4011 (  3901 PWs)   bands (ev):

   -35.0602   2.0019   3.5983   4.6620   7.3586  11.1383  12.6175  14.0448
    16.5082  21.4590

          k = 0.1244 0.2156 0.0000 (  3927 PWs)   bands (ev):

   -35.0727  -2.0502   7.4550   7.5845   9.2137  10.4997  15.8904  16.3742
    17.7991  19.3981

          k = 0.1244 0.2156 0.1337 (  3923 PWs)   bands (ev):

   -35.0725  -1.8895   5.2066   9.3512  10.0899  10.7573  15.6907  16.1937
    16.8840  17.6693

          k = 0.1244 0.2156 0.2674 (  3917 PWs)   bands (ev):

   -35.0720  -1.4380   3.2932   9.9273  11.0560  12.7450  14.2742  15.3886
    17.0712  17.2617

          k = 0.1244 0.2156 0.4011 (  3915 PWs)   bands (ev):

   -35.0716  -0.8825   2.0014  10.7778  11.7182  12.3689  13.6075  15.8950
    17.8584  18.3727

          k = 0.1244 0.3593 0.0000 (  3894 PWs)   bands (ev):

   -35.0671  -1.2244   6.5645   8.0380   8.4550   9.4368  15.4279  15.5438
    16.9096  17.8100

          k = 0.1244 0.3593 0.1337 (  3897 PWs)   bands (ev):

   -35.0669  -1.0542   5.7382   7.1052   9.2449  11.0025  13.5736  15.4241
    16.6631  19.0043

          k = 0.1244 0.3593 0.2674 (  3908 PWs)   bands (ev):

   -35.0664  -0.5734   3.9544   7.4990   9.7020  11.6888  12.9207  14.9918
    16.5450  19.2886

          k = 0.1244 0.3593 0.4011 (  3916 PWs)   bands (ev):

   -35.0660   0.0407   2.6374   8.2331   9.9052  10.5668  12.4566  16.2937
    17.2081  20.3074

          k = 0.1244 0.5030 0.0000 (  3896 PWs)   bands (ev):

   -35.0621  -0.0488   4.2710   8.1446   9.3476   9.8024  13.3553  14.4258
    15.2207  17.6806

          k = 0.1244 0.5030 0.1337 (  3892 PWs)   bands (ev):

   -35.0619   0.1376   4.3607   7.1867   8.5425  11.3135  12.0554  14.8328
    16.1960  17.1916

          k = 0.1244 0.5030 0.2674 (  3898 PWs)   bands (ev):

   -35.0615   0.6678   4.3855   5.7152   8.6417   9.8056  12.7932  15.4119
    16.1280  19.7747

          k = 0.1244 0.5030 0.4011 (  3907 PWs)   bands (ev):

   -35.0611   1.3905   3.4742   5.7666   7.9071   9.7931  11.8681  16.1868
    17.2567  21.5349

          k = 0.1244 0.6467 0.0000 (  3888 PWs)   bands (ev):

   -35.0601   0.9035   2.9239   8.0499   9.6817  11.4301  11.5492  13.3812
    15.0000  17.5325

          k = 0.1244 0.6467 0.1337 (  3888 PWs)   bands (ev):

   -35.0599   1.1059   3.0585   8.0040   8.1883  10.0144  13.3740  14.4210
    15.2017  16.5771

          k = 0.1244 0.6467 0.2674 (  3891 PWs)   bands (ev):

   -35.0595   1.7066   3.4230   6.0284   7.7500   9.2225  12.7736  15.7043
    16.7251  17.9028

          k = 0.1244 0.6467 0.4011 (  3897 PWs)   bands (ev):

   -35.0592   2.6506   3.7896   4.3733   6.9200   9.5424  11.6923  15.9962
    17.7256  21.0911

          k = 0.2489 0.4311 0.0000 (  3899 PWs)   bands (ev):

   -35.0624  -0.2154   5.1211   6.9991   9.3473   9.5538  13.8176  15.5903
    15.9944  17.7616

          k = 0.2489 0.4311 0.1337 (  3897 PWs)   bands (ev):

   -35.0623  -0.0376   5.3019   6.4944   7.9126  11.3014  12.5177  14.8370
    17.7282  18.3978

          k = 0.2489 0.4311 0.2674 (  3901 PWs)   bands (ev):

   -35.0618   0.4744   4.7939   5.9544   7.8807  10.0715  12.0387  15.9311
    18.8906  19.1017

          k = 0.2489 0.4311 0.4011 (  3896 PWs)   bands (ev):

   -35.0615   1.1665   3.4430   6.8400   8.1078   8.4761  11.3485  17.7605
    19.6886  20.3465

          k = 0.2489 0.5748 0.0000 (  3895 PWs)   bands (ev):

   -35.0594   1.0598   3.3874   6.3756  10.0020  10.9792  12.4028  13.7043
    15.4394  17.2351

          k = 0.2489 0.5748 0.1337 (  3902 PWs)   bands (ev):

   -35.0593   1.2555   3.5544   6.4251   8.3110  10.4836  12.2123  14.7090
    16.5288  18.2490

          k = 0.2489 0.5748 0.2674 (  3903 PWs)   bands (ev):

   -35.0589   1.8243   4.0283   6.0956   6.8558   8.6444  11.5272  16.9774
    18.5685  19.6218

          k = 0.2489 0.5748 0.4011 (  3905 PWs)   bands (ev):

   -35.0585   2.6605   4.2500   5.1604   6.6183   7.5052  10.8374  18.8163
    19.2798  22.2955

          k = 0.3733 0.6467 0.0000 (  3918 PWs)   bands (ev):

   -35.0584   2.3267   2.3267   5.6017  10.9066  10.9066  12.5426  13.6925
    13.6925  17.4516

          k = 0.3733 0.6467 0.1337 (  3897 PWs)   bands (ev):

   -35.0582   2.5263   2.5263   5.6506   9.4216   9.4216  11.9869  15.4900
    15.4900  18.4162

          k = 0.3733 0.6467 0.2674 (  3909 PWs)   bands (ev):

   -35.0578   3.1173   3.1173   5.7711   7.4088   7.4088  11.0677  18.3421
    18.3421  20.3421

          k = 0.3733 0.6467 0.4011 (  3912 PWs)   bands (ev):

   -35.0575   4.0301   4.0301   5.7465   5.7465   5.8810  10.4803  20.6536
    20.6536  21.1611

          k = 0.0000 0.1437-0.1337 (  3930 PWs)   bands (ev):

   -35.0762  -2.3124   4.8481   9.8396  11.2746  12.2022  14.8694  16.2913
    18.1027  19.0968

          k = 0.0000 0.1437-0.2674 (  3931 PWs)   bands (ev):

   -35.0757  -1.8752   2.9418  11.7449  12.7055  12.7070  14.9819  16.7666
    16.8707  17.2004

          k = 0.0000 0.1437-0.4011 (  3909 PWs)   bands (ev):

   -35.0752  -1.3477   1.6748  12.5554  13.4773  13.8951  15.3372  15.3733
    17.5029  17.9955

          k = 0.0000 0.2874-0.1337 (  3910 PWs)   bands (ev):

   -35.0709  -1.6813   5.4041   8.2338  10.3984  10.9495  14.4653  15.5955
    17.7340  18.6549

          k = 0.0000 0.2874-0.2674 (  3927 PWs)   bands (ev):

   -35.0704  -1.2238   3.4797   8.8074  11.4919  12.0756  14.4693  15.2489
    15.6736  18.6478

          k = 0.0000 0.2874-0.4011 (  3913 PWs)   bands (ev):

   -35.0700  -0.6533   2.1676   9.5656  11.3658  12.3515  14.0066  14.9451
    17.4621  17.6941

          k = 0.0000 0.4311-0.1337 (  3898 PWs)   bands (ev):

   -35.0649  -0.6588   5.4559   6.4945  10.0890  10.6582  13.7245  14.0724
    16.6539  16.8617

          k = 0.0000 0.4311-0.2674 (  3903 PWs)   bands (ev):

   -35.0645  -0.1682   4.3343   6.1506  10.1729  10.6464  14.1755  14.7762
    15.4273  17.6532

          k = 0.0000 0.4311-0.4011 (  3911 PWs)   bands (ev):

   -35.0641   0.4815   2.9617   6.7713   9.0376  11.5389  13.1015  14.3602
    17.1587  18.6368

          k = 0.0000 0.5748-0.1337 (  3891 PWs)   bands (ev):

   -35.0610   0.5895   3.4458   7.5955   9.6559   9.8645  13.5931  14.0472
    14.7492  16.3811

          k = 0.0000 0.5748-0.2674 (  3892 PWs)   bands (ev):

   -35.0606   1.1429   3.8365   5.5612   8.4338  10.2205  13.9033  14.3082
    16.2869  16.8335

          k = 0.0000 0.5748-0.4011 (  3901 PWs)   bands (ev):

   -35.0602   1.9532   3.8759   4.4023   7.3765  11.1269  12.6387  14.0206
    16.8671  20.0729

          k =-0.1244 0.3593-0.1337 (  3897 PWs)   bands (ev):

   -35.0669  -1.0574   5.9084   6.8685   9.3188  10.7787  14.2399  15.7841
    15.9731  18.5552

          k =-0.1244 0.3593-0.2674 (  3908 PWs)   bands (ev):

   -35.0664  -0.5797   4.0027   7.4103   9.7557  11.2795  13.5296  15.3131
    16.3330  19.5294

          k =-0.1244 0.3593-0.4011 (  3916 PWs)   bands (ev):

   -35.0660   0.0350   2.6538   8.1954   9.9793  10.4335  12.5574  16.2153
    18.4142  18.6403

          k =-0.1244 0.5030-0.1337 (  3892 PWs)   bands (ev):

   -35.0619   0.1274   4.4521   7.0111   8.6744  10.5563  13.5782  14.7362
    15.3118  17.1506

          k =-0.1244 0.5030-0.2674 (  3898 PWs)   bands (ev):

   -35.0615   0.6461   4.7520   5.2926   8.7660   9.6104  13.0352  15.7645
    16.3979  18.1386

          k =-0.1244 0.5030-0.4011 (  3907 PWs)   bands (ev):

   -35.0611   1.3655   3.5717   5.6437   7.9560   9.7505  11.9215  16.0603
    18.1770  19.5082

          k =-0.2489 0.5748-0.1337 (  3902 PWs)   bands (ev):

   -35.0593   1.2492   3.5771   6.3878   8.3700  10.2863  12.5237  14.6015
    16.4709  18.1141

          k =-0.2489 0.5748-0.2674 (  3903 PWs)   bands (ev):

   -35.0589   1.8092   4.1116   5.8902   7.0272   8.5806  11.5689  17.1774
    18.7504  18.8793

          k =-0.2489 0.5748-0.4011 (  3905 PWs)   bands (ev):

   -35.0585   2.6352   4.4855   4.8724   6.7520   7.4427  10.8456  18.6622
    19.9311  21.0700

     the Fermi energy is    11.0232 ev

!    total energy              =     -31.08949423 Ry
     estimated scf accuracy    <          8.4E-10 Ry
     smearing contrib. (-TS)   =       0.00001536 Ry
     internal energy E=F+TS    =     -31.08950959 Ry

     The total energy is F=E-TS. E is the sum of the following terms:
     one-electron contribution =       3.45119095 Ry
     hartree contribution      =       3.26572944 Ry
     xc contribution           =     -10.02539245 Ry
[...]
        k(   68) = (  -0.2005684   0.4631928  -0.4210422), wk =   0.0423280
        k(   69) = (  -0.2005684   0.4631928  -0.6315633), wk =   0.0423280

     Dense  grid:    20365 G-vectors     FFT dimensions: (  45,  45,  25)

     Estimated max dynamical RAM per process >      17.07 MB

     Estimated total dynamical RAM >     136.56 MB

     Initial potential from superposition of free atoms

     starting charge      10.9942, renormalised to      11.0000
     Starting wfcs are   10 randomized atomic wfcs

     total cpu time spent up to now is      147.3 secs

     Self-consistent Calculation

     iteration #  1     ecut=    80.00 Ry     beta= 0.70
     Davidson diagonalization with overlap
     c_bands:  1 eigenvalues not converged
     c_bands:  2 eigenvalues not converged
     c_bands:  1 eigenvalues not converged
     c_bands:  1 eigenvalues not converged
     c_bands:  1 eigenvalues not converged
     c_bands:  1 eigenvalues not converged
     c_bands:  1 eigenvalues not converged
     c_bands:  1 eigenvalues not converged
     c_bands:  1 eigenvalues not converged
     c_bands:  1 eigenvalues not converged
     c_bands:  1 eigenvalues not converged
     c_bands:  1 eigenvalues not converged
     c_bands:  1 eigenvalues not converged
     c_bands:  1 eigenvalues not converged
     c_bands:  1 eigenvalues not converged
     c_bands:  1 eigenvalues not converged
     c_bands:  2 eigenvalues not converged
     c_bands:  1 eigenvalues not converged
     c_bands:  1 eigenvalues not converged
     c_bands:  1 eigenvalues not converged
     c_bands:  1 eigenvalues not converged
     c_bands:  1 eigenvalues not converged
     c_bands:  1 eigenvalues not converged
     ethr =  1.00E-06,  avg # of iterations = 18.2

     total cpu time spent up to now is      149.3 secs

     total energy              =     -31.23656840 Ry
     estimated scf accuracy    <       0.01378422 Ry

     iteration #  2     ecut=    80.00 Ry     beta= 0.70
     Davidson diagonalization with overlap
     ethr =  1.25E-04,  avg # of iterations =  1.0

     total cpu time spent up to now is      149.7 secs

     total energy              =     -31.23682927 Ry
     estimated scf accuracy    <       0.00088621 Ry

     iteration #  3     ecut=    80.00 Ry     beta= 0.70
     Davidson diagonalization with overlap
     ethr =  8.06E-06,  avg # of iterations =  1.1

     total cpu time spent up to now is      150.2 secs

     total energy              =     -31.23685865 Ry
     estimated scf accuracy    <       0.00002274 Ry

     iteration #  4     ecut=    80.00 Ry     beta= 0.70
     Davidson diagonalization with overlap
     ethr =  2.07E-07,  avg # of iterations =  2.2

     total cpu time spent up to now is      150.7 secs

     total energy              =     -31.23686180 Ry
     estimated scf accuracy    <       0.00000058 Ry

     iteration #  5     ecut=    80.00 Ry     beta= 0.70
     Davidson diagonalization with overlap
     ethr =  5.31E-09,  avg # of iterations =  2.4

     total cpu time spent up to now is      151.2 secs

     total energy              =     -31.23686196 Ry
     estimated scf accuracy    <          5.1E-09 Ry

     iteration #  6     ecut=    80.00 Ry     beta= 0.70
     Davidson diagonalization with overlap
     ethr =  4.60E-11,  avg # of iterations =  3.8

     total cpu time spent up to now is      151.8 secs

     total energy              =     -31.23686197 Ry
     estimated scf accuracy    <          2.1E-10 Ry

     iteration #  7     ecut=    80.00 Ry     beta= 0.70
     Davidson diagonalization with overlap
     ethr =  1.93E-12,  avg # of iterations =  1.9

     total cpu time spent up to now is      152.2 secs

     End of self-consistent calculation

          k = 0.0000 0.0000 0.0000 (  2593 PWs)   bands (ev):

   -34.6133  -3.0598   7.1727   7.1727   8.3859   9.6750   9.6750  16.4627
    19.9267  22.9330

          k = 0.0000 0.0000 0.2105 (  2545 PWs)   bands (ev):

   -34.5969  -2.5711   7.6303   7.6303   8.8530  10.1790  10.1790  13.5088
    19.1006  25.5671

          k = 0.0000 0.0000 0.4210 (  2551 PWs)   bands (ev):

   -34.5599  -1.1228   8.9069   8.9672   8.9672  10.1691  11.6791  11.6791
    18.5869  19.9962

          k = 0.0000 0.0000 0.6316 (  2544 PWs)   bands (ev):

   -34.5301   1.1666   4.9135  10.8698  10.8698  11.8425  14.0511  14.0511
    16.1641  16.1641

          k = 0.0000 0.1158 0.0000 (  2564 PWs)   bands (ev):

   -34.6131  -2.9364   5.6513   6.7305   9.0980  10.4140  10.5664  16.8499
    20.0555  22.9267

          k = 0.0000 0.1158 0.2105 (  2559 PWs)   bands (ev):

   -34.5967  -2.4465   6.1297   7.1965   9.5488  10.9086  10.9824  13.8189
    19.3479  23.5452

          k = 0.0000 0.1158 0.4210 (  2542 PWs)   bands (ev):

   -34.5598  -0.9947   7.5329   8.5628   8.9797  10.9141  12.3650  12.3735
    18.5271  19.1455

          k = 0.0000 0.1158 0.6316 (  2552 PWs)   bands (ev):

   -34.5300   1.3038   5.0253   9.7237  10.5437  11.8927  13.9456  14.5910
    15.6806  15.8381

          k = 0.0000 0.2316 0.0000 (  2560 PWs)   bands (ev):

   -34.6126  -2.5719   3.7940   6.0386   9.0786  11.9952  12.7039  17.9328
    20.4388  22.8645

          k = 0.0000 0.2316 0.2105 (  2562 PWs)   bands (ev):

   -34.5962  -2.0785   4.2796   6.5116   9.4645  12.4792  12.9082  14.6700
    20.0533  22.0250

          k = 0.0000 0.2316 0.4210 (  2549 PWs)   bands (ev):

   -34.5594  -0.6160   5.7097   7.9042   9.1855  11.0523  13.8448  13.8959
    17.3322  18.8613

          k = 0.0000 0.2316 0.6316 (  2543 PWs)   bands (ev):

   -34.5296   1.7098   5.3528   8.0325   9.9662  10.9213  13.5144  14.6567
    16.0196  16.2652

          k = 0.0000 0.3474 0.0000 (  2558 PWs)   bands (ev):

   -34.6119  -1.9971   2.1815   5.5144   8.9638  13.9963  14.9093  19.2692
    21.0619  21.8866

          k = 0.0000 0.3474 0.2105 (  2557 PWs)   bands (ev):

   -34.5957  -1.4974   2.6658   5.9907   9.2958  14.4697  14.5180  15.9979
    20.0794  22.1350

          k = 0.0000 0.3474 0.4210 (  2550 PWs)   bands (ev):

   -34.5589  -0.0151   4.0945   7.3959   9.4728  11.0386  14.3165  15.7989
    17.3261  18.3851

          k = 0.0000 0.3474 0.6316 (  2536 PWs)   bands (ev):

   -34.5293   2.3594   5.7788   6.5539   9.5004   9.5973  13.0855  14.1334
    16.4458  18.1082

          k = 0.0000 0.4632 0.0000 (  2540 PWs)   bands (ev):

   -34.6115  -1.3725   1.0296   5.2426   8.8900  16.3113  16.9134  19.0093
    19.1685  21.8354

          k = 0.0000 0.4632 0.2105 (  2545 PWs)   bands (ev):

   -34.5953  -0.8623   1.5054   5.7202   9.1964  15.4341  16.7667  17.3978
    19.4343  19.5878

          k = 0.0000 0.4632 0.4210 (  2539 PWs)   bands (ev):

   -34.5586   0.6548   2.9072   7.1305   9.7068  11.0243  13.9466  17.4351
    18.3342  18.7343

          k = 0.0000 0.4632 0.6316 (  2547 PWs)   bands (ev):

   -34.5290   3.1189   5.0620   6.6571   8.5095   9.2532  12.8485  13.8484
    16.7669  20.3259

          k = 0.1003 0.1737 0.0000 (  2573 PWs)   bands (ev):

   -34.6127  -2.6919   4.3188   6.0538   9.6195  10.7392  12.4996  17.5783
    20.3117  22.8862

          k = 0.1003 0.1737 0.2105 (  2556 PWs)   bands (ev):

   -34.5964  -2.1997   4.8086   6.5096  10.0881  11.0701  12.9137  14.3598
    19.8484  22.3781

          k = 0.1003 0.1737 0.4210 (  2547 PWs)   bands (ev):

   -34.5595  -0.7408   6.2578   7.7869   9.3095  11.3625  12.6920  13.8989
    17.9703  18.3455

          k = 0.1003 0.1737 0.6316 (  2550 PWs)   bands (ev):

   -34.5297   1.5757   5.2467   8.5656   9.8643  11.3941  14.1486  14.6956
    14.8063  16.7663

          k = 0.1003 0.2895 0.0000 (  2561 PWs)   bands (ev):

   -34.6122  -2.2155   2.7759   5.3643   9.7689  12.0947  14.8028  18.7531
    20.8166  22.3200

          k = 0.1003 0.2895 0.2105 (  2560 PWs)   bands (ev):

   -34.5958  -1.7188   3.2699   5.8107  10.1647  12.3750  14.8970  15.3864
    20.5586  21.4060

          k = 0.1003 0.2895 0.4210 (  2546 PWs)   bands (ev):

   -34.5590  -0.2455   4.7322   7.0790   9.7285  11.5158  13.7894  14.8151
    17.5192  18.3498

          k = 0.1003 0.2895 0.6316 (  2542 PWs)   bands (ev):

   -34.5294   2.1072   5.6702   7.1154   9.0935  10.3065  13.8006  14.2744
    15.6733  17.7403

          k = 0.1003 0.4053 0.0000 (  2554 PWs)   bands (ev):

   -34.6116  -1.5686   1.4218   4.9392   9.6933  14.0614  17.0652  18.6776
    21.0272  21.5381

          k = 0.1003 0.4053 0.2105 (  2548 PWs)   bands (ev):

   -34.5954  -1.0641   1.9114   5.3824  10.0373  14.2002  15.9325  17.1468
    19.6853  20.0502

          k = 0.1003 0.4053 0.4210 (  2543 PWs)   bands (ev):

   -34.5587   0.4339   3.3589   6.6582  10.2098  11.3303  14.0902  15.9657
    17.3284  19.5878

          k = 0.1003 0.4053 0.6316 (  2534 PWs)   bands (ev):

   -34.5291   2.8484   5.5875   6.4376   8.4328   9.3058  13.3628  14.0354
    16.7937  18.9203

          k = 0.1003 0.5211 0.0000 (  2552 PWs)   bands (ev):

   -34.6114  -1.1255   0.7348   4.7972   9.6558  16.0421  16.5798  19.3302
    19.5562  22.1467

          k = 0.1003 0.5211 0.2105 (  2541 PWs)   bands (ev):

   -34.5952  -0.6121   1.2165   5.2398   9.9851  15.3526  16.8592  17.7299
    17.8707  20.5977

          k = 0.1003 0.5211 0.4210 (  2546 PWs)   bands (ev):

   -34.5585   0.9163   2.6364   6.5187  10.5394  11.1140  13.8746  17.2132
    17.7276  18.5202

          k = 0.1003 0.5211 0.6316 (  2536 PWs)   bands (ev):

   -34.5290   3.4155   4.8385   6.9013   7.8959   8.9706  13.2105  13.9521
    17.2106  20.6956

          k = 0.2006 0.3474 0.0000 (  2557 PWs)   bands (ev):

   -34.6117  -1.6410   1.6348   4.6402  10.9938  12.3052  17.2907  18.4191
    21.4289  21.4912

          k = 0.2006 0.3474 0.2105 (  2557 PWs)   bands (ev):

   -34.5954  -1.1389   2.1380   5.0566  11.4321  12.4796  15.8814  17.0696
    19.6136  20.7335

          k = 0.2006 0.3474 0.4210 (  2540 PWs)   bands (ev):

   -34.5587   0.3513   3.6336   6.2372  10.4269  12.1804  14.0261  14.6502
    17.1523  20.0920

          k = 0.2006 0.3474 0.6316 (  2534 PWs)   bands (ev):

   -34.5291   2.7471   6.0647   6.1924   8.1234   9.3833  13.4560  15.1778
    15.8124  18.8745

          k = 0.2006 0.4632 0.0000 (  2543 PWs)   bands (ev):

   -34.6114  -0.9531   0.6175   4.2645  11.3381  13.8270  16.2660  19.6753
    21.4516  22.1981

          k = 0.2006 0.4632 0.2105 (  2545 PWs)   bands (ev):

   -34.5951  -0.4438   1.1201   4.6681  11.6944  13.9917  16.0734  17.5741
    17.7816  21.1882

          k = 0.2006 0.4632 0.4210 (  2549 PWs)   bands (ev):

   -34.5585   1.0707   2.6124   5.8192  11.1311  11.9039  14.1875  15.6467
    16.9133  18.1159

          k = 0.2006 0.4632 0.6316 (  2525 PWs)   bands (ev):

   -34.5289   3.5319   5.0180   6.8644   7.5021   8.5583  13.1619  15.3372
    17.2374  19.4789

          k = 0.3009 0.5211 0.0000 (  2508 PWs)   bands (ev):

   -34.6113  -0.1985  -0.1985   4.0060  13.1697  13.1697  14.7562  21.4248
    21.4249  22.9069

          k = 0.3009 0.5211 0.2105 (  2547 PWs)   bands (ev):

   -34.5950   0.3117   0.3117   4.3947  13.4676  13.4676  14.9643  17.5289
    17.5289  21.2686

          k = 0.3009 0.5211 0.4210 (  2547 PWs)   bands (ev):

   -34.5584   1.8300   1.8300   5.5000  11.7655  11.7655  15.1322  15.7927
    15.7927  17.0836

          k = 0.3009 0.5211 0.6316 (  2535 PWs)   bands (ev):

   -34.5289   4.3099   4.3099   6.9128   7.7528   7.7528  13.0310  16.5234
    17.9201  17.9201

          k = 0.0000 0.1158-0.2105 (  2559 PWs)   bands (ev):

   -34.5967  -2.4465   6.1298   7.1965   9.5487  10.9086  10.9825  13.8189
    19.3479  23.5450

          k = 0.0000 0.1158-0.4210 (  2542 PWs)   bands (ev):

   -34.5598  -0.9947   7.5330   8.5628   8.9795  10.9145  12.3647  12.3735
    18.5276  19.1445

          k = 0.0000 0.1158-0.6316 (  2552 PWs)   bands (ev):

   -34.5300   1.3038   5.0253   9.7236  10.5437  11.8929  13.9457  14.5907
    15.6810  15.8376

          k = 0.0000 0.2316-0.2105 (  2562 PWs)   bands (ev):

   -34.5962  -2.0785   4.2796   6.5116   9.4644  12.4792  12.9085  14.6697
    20.0538  22.0240

          k = 0.0000 0.2316-0.4210 (  2549 PWs)   bands (ev):

   -34.5594  -0.6160   5.7098   7.9042   9.1850  11.0531  13.8444  13.8958
    17.3321  18.8616

          k = 0.0000 0.2316-0.6316 (  2543 PWs)   bands (ev):

   -34.5296   1.7098   5.3528   8.0323   9.9662  10.9216  13.5145  14.6565
    16.0188  16.2655

          k = 0.0000 0.3474-0.2105 (  2557 PWs)   bands (ev):

   -34.5957  -1.4974   2.6658   5.9907   9.2957  14.4697  14.5185  15.9972
    20.0801  22.1333

          k = 0.0000 0.3474-0.4210 (  2550 PWs)   bands (ev):

   -34.5589  -0.0151   4.0945   7.3959   9.4722  11.0395  14.3163  15.7987
    17.3253  18.3856

          k = 0.0000 0.3474-0.6316 (  2536 PWs)   bands (ev):

   -34.5293   2.3594   5.7792   6.5533   9.5004   9.5977  13.0856  14.1333
    16.4451  18.1084

          k = 0.0000 0.4632-0.2105 (  2545 PWs)   bands (ev):

   -34.5953  -0.8623   1.5054   5.7202   9.1964  15.4344  16.7666  17.3973
    19.4345  19.5878

          k = 0.0000 0.4632-0.4210 (  2539 PWs)   bands (ev):

   -34.5586   0.6548   2.9073   7.1305   9.7065  11.0248  13.9465  17.4346
    18.3334  18.7352

          k = 0.0000 0.4632-0.6316 (  2547 PWs)   bands (ev):

   -34.5290   3.1189   5.0621   6.6568   8.5097   9.2532  12.8485  13.8483
    16.7667  20.3261

          k =-0.1003 0.2895-0.2105 (  2560 PWs)   bands (ev):

   -34.5958  -1.7188   3.2699   5.8107  10.1646  12.3751  14.8975  15.3858
    20.5596  21.4048

          k =-0.1003 0.2895-0.4210 (  2546 PWs)   bands (ev):

   -34.5590  -0.2455   4.7323   7.0789   9.7282  11.5165  13.7890  14.8151
    17.5187  18.3503

          k =-0.1003 0.2895-0.6316 (  2542 PWs)   bands (ev):

   -34.5294   2.1072   5.6703   7.1151   9.0936  10.3066  13.8007  14.2745
    15.6727  17.7405

          k =-0.1003 0.4053-0.2105 (  2548 PWs)   bands (ev):

   -34.5954  -1.0641   1.9114   5.3824  10.0372  14.2004  15.9325  17.1464
    19.6856  20.0502

          k =-0.1003 0.4053-0.4210 (  2543 PWs)   bands (ev):

   -34.5587   0.4339   3.3589   6.6582  10.2093  11.3311  14.0900  15.9655
    17.3281  19.5881

          k =-0.1003 0.4053-0.6316 (  2534 PWs)   bands (ev):

   -34.5291   2.8484   5.5879   6.4371   8.4331   9.3058  13.3628  14.0355
    16.7930  18.9211

          k =-0.2006 0.4632-0.2105 (  2545 PWs)   bands (ev):

   -34.5951  -0.4438   1.1201   4.6681  11.6944  13.9918  16.0732  17.5744
    17.7814  21.1876

          k =-0.2006 0.4632-0.4210 (  2549 PWs)   bands (ev):

   -34.5585   1.0707   2.6124   5.8191  11.1309  11.9042  14.1875  15.6466
    16.9133  18.1161

          k =-0.2006 0.4632-0.6316 (  2525 PWs)   bands (ev):

   -34.5289   3.5319   5.0180   6.8642   7.5023   8.5583  13.1619  15.3373
    17.2369  19.4808

     the Fermi energy is    11.5381 ev

!    total energy              =     -31.23686197 Ry
     estimated scf accuracy    <          5.4E-12 Ry
     smearing contrib. (-TS)   =       0.00044430 Ry
     internal energy E=F+TS    =     -31.23730626 Ry

     The total energy is F=E-TS. E is the sum of the following terms:
     one-electron contribution =       4.32984824 Ry
     hartree contribution      =       2.92135150 Ry
     xc contribution           =     -10.12319467 Ry
     ewald contribution        =     -28.36531134 Ry

     convergence has been achieved in   7 iterations

     Forces acting on atoms (cartesian axes, Ry/au):

     atom    1 type  1   force =     0.00000000    0.00000000   -0.00000593
     atom    2 type  1   force =     0.00000000    0.00000000    0.00000593
     atom    3 type  2   force =     0.00000000   -0.00000000    0.00000000
     The non-local contrib.  to forces
     atom    1 type  1   force =     0.00000000    0.00000000    0.00002944
     atom    2 type  1   force =     0.00000000   -0.00000000   -0.00002944
     atom    3 type  2   force =     0.00000000   -0.00000000    0.00000000
     The ionic contribution  to forces
     atom    1 type  1   force =     0.00000010   -0.00000006    0.00012908
     atom    2 type  1   force =    -0.00000010    0.00000006   -0.00012908
     atom    3 type  2   force =    -0.00000000   -0.00000000   -0.00000000
     The local contribution  to forces
     atom    1 type  1   force =    -0.00000001    0.00000001   -0.00016073
     atom    2 type  1   force =     0.00000001   -0.00000001    0.00016073
     atom    3 type  2   force =     0.00000000    0.00000000    0.00000000
     The core correction contribution to forces
     atom    1 type  1   force =    -0.00000000    0.00000000   -0.00000371
     atom    2 type  1   force =     0.00000000   -0.00000000    0.00000371
     atom    3 type  2   force =     0.00000000    0.00000000    0.00000000
     The Hubbard contrib.    to forces
     atom    1 type  1   force =     0.00000000    0.00000000    0.00000000
     atom    2 type  1   force =     0.00000000    0.00000000    0.00000000
     atom    3 type  2   force =     0.00000000    0.00000000    0.00000000
     The SCF correction term to forces
     atom    1 type  1   force =    -0.00000000    0.00000000    0.00000000
     atom    2 type  1   force =     0.00000000   -0.00000000   -0.00000000
     atom    3 type  2   force =     0.00000000    0.00000000    0.00000000

     Total force =     0.000008     Total SCF correction =     0.000000


     Computing stress (Cartesian axis) and pressure

          total   stress  (Ry/bohr**3)                   (kbar)     P=      500.71
   0.00340545   0.00000000   0.00000000          500.96        0.00        0.00
   0.00000000   0.00340545   0.00000000            0.00      500.96        0.00
  -0.00000000  -0.00000000   0.00340047           -0.00       -0.00      500.23


     Writing all to output data dir ./output/SiLi.save/

     init_run     :      0.97s CPU      1.19s WALL (       2 calls)
     electrons    :    103.20s CPU    112.48s WALL (      29 calls)
     update_pot   :      8.17s CPU      8.28s WALL (      27 calls)
     forces       :      5.88s CPU      6.12s WALL (      29 calls)
     stress       :     22.86s CPU     23.94s WALL (      29 calls)

     Called by init_run:
     wfcinit      :      0.31s CPU      0.34s WALL (       2 calls)
     potinit      :      0.23s CPU      0.31s WALL (       2 calls)
     hinit0       :      0.41s CPU      0.46s WALL (       2 calls)

     Called by electrons:
     c_bands      :     89.13s CPU     95.97s WALL (     175 calls)
     sum_band     :     12.41s CPU     12.94s WALL (     175 calls)
     v_of_rho     :      1.62s CPU      2.83s WALL (     195 calls)
     mix_rho      :      0.15s CPU      0.44s WALL (     175 calls)

     Called by c_bands:
     init_us_2    :      3.16s CPU      3.38s WALL (   28290 calls)
     init_us_2:cp :      3.13s CPU      3.35s WALL (   28290 calls)
     cegterg      :     82.72s CPU     85.63s WALL (   12075 calls)

     Called by *egterg:
     cdiaghg      :      5.54s CPU      5.76s WALL (   48562 calls)
     h_psi        :     69.56s CPU     72.00s WALL (   51184 calls)
     g_psi        :      0.39s CPU      0.41s WALL (   38971 calls)

     Called by h_psi:
     h_psi:calbec :      3.97s CPU      4.10s WALL (   51184 calls)
     vloc_psi     :     62.25s CPU     64.41s WALL (   51184 calls)
     add_vuspsi   :      3.00s CPU      3.11s WALL (   51184 calls)

     General routines
     calbec       :      5.05s CPU      5.23s WALL (   61189 calls)
     fft          :      1.54s CPU      3.19s WALL (    2682 calls)
     ffts         :      0.17s CPU      0.28s WALL (     175 calls)
     fftw         :     62.84s CPU     64.95s WALL (  828978 calls)

     Parallel routines

     PWSCF        :   2m21.48s CPU   2m33.19s WALL


   This run was terminated on:  12:58:54  27Dec2024            

=------------------------------------------------------------------------------=
   JOB DONE.
=------------------------------------------------------------------------------=
