
     Program PWSCF v.7.2 starts on 11Jan2025 at 18:33: 4 

     This program is part of the open-source Quantum ESPRESSO suite
     for quantum simulation of materials; please cite
         "P. Giannozzi et al., J. Phys.:Condens. Matter 21 395502 (2009);
         "P. Giannozzi et al., J. Phys.:Condens. Matter 29 465901 (2017);
         "P. Giannozzi et al., J. Chem. Phys. 152 154105 (2020);
          URL http://www.quantum-espresso.org", 
     in publications or presentations arising from this work. More details at
     http://www.quantum-espresso.org/quote

     Parallel version (MPI & OpenMP), running on       8 processor cores
     Number of MPI processes:                 8
     Threads/MPI process:                     1

     MPI processes distributed on     1 nodes
     481631 MiB available memory on the printing compute node when the environment starts

     Waiting for input...
     Reading input from standard input

     Current dimensions of program PWSCF are:
     Max number of different atomic species (ntypx) = 10
     Max number of k-points (npk) =  40000
     Max angular momentum in pseudopotentials (lmaxx) =  4

     R & G space division:  proc/nbgrp/npool/nimage =       8
     Subspace diagonalization in iterative solution of the eigenvalue problem:
     a serial algorithm will be used


     Parallelization info
     --------------------
     sticks:   dense  smooth     PW     G-vecs:    dense   smooth      PW
     Min         219     219     69                 3785     3785     661
     Max         220     220     70                 3786     3786     663
     Sum        1755    1755    559                30283    30283    5297

     Using Slab Decomposition



     bravais-lattice index     =            7
     lattice parameter (alat)  =       5.2679  a.u.
     unit-cell volume          =     484.1492 (a.u.)^3
     number of atoms/cell      =            6
     number of atomic types    =            2
     number of electrons       =        22.00
     number of Kohn-Sham states=           15
     kinetic-energy cutoff     =      60.0000  Ry
     charge density cutoff     =     240.0000  Ry
     scf convergence threshold =      1.0E-08
     mixing beta               =       0.8000
     number of iterations used =            8  plain     mixing
     energy convergence thresh.=      1.0E-03
     force convergence thresh. =      5.0E-03
     press convergence thresh. =      2.0E+00
     Exchange-correlation= PBE
                           (   1   4   3   4   0   0   0)
     nstep                     =           50


     celldm(1)=   5.267898  celldm(2)=   0.000000  celldm(3)=   6.623645
     celldm(4)=   0.000000  celldm(5)=   0.000000  celldm(6)=   0.000000

     crystal axes: (cart. coord. in units of alat)
               a(1) = (   0.500000  -0.500000   3.311823 )  
               a(2) = (   0.500000   0.500000   3.311823 )  
               a(3) = (  -0.500000  -0.500000   3.311823 )  

     reciprocal axes: (cart. coord. in units 2 pi/alat)
               b(1) = (  1.000000 -1.000000  0.000000 )  
               b(2) = (  0.000000  1.000000  0.150974 )  
               b(3) = ( -1.000000  0.000000  0.150974 )  


     PseudoPot. # 1 for Si read from file:
     ../pseudo/Si_ONCV_PBE_sr.upf
     MD5 check sum: e543d271109d17c80368dfa7c482276d
     Pseudo is Norm-conserving + core correction, Zval =  4.0
     Generated using ONCVPSP code by D. R. Hamann
     Using radial grid of 1510 points,  6 beta functions with: 
                l(1) =   0
                l(2) =   0
                l(3) =   1
                l(4) =   1
                l(5) =   2
                l(6) =   2

     PseudoPot. # 2 for Li read from file:
     ../pseudo/Li_ONCV_PBE_sr.upf
     MD5 check sum: 50ff420e78310ffa21704f3361e624a4
     Pseudo is Norm-conserving, Zval =  3.0
     Generated using ONCVPSP code by D. R. Hamann
     Using radial grid of 1944 points,  4 beta functions with: 
                l(1) =   0
                l(2) =   0
                l(3) =   1
                l(4) =   1

     atomic species   valence    mass     pseudopotential
        Si             4.00    28.08550     Si( 1.00)
        Li             3.00     6.94100     Li( 1.00)

      8 Sym. Ops. (no inversion) found



   Cartesian axes

     site n.     atom                  positions (alat units)
         1           Si  tau(   1) = (   0.0000000   0.0000000   2.3407913  )
         2           Si  tau(   2) = (   0.0000000   0.0000000   4.2828541  )
         3           Si  tau(   3) = (   0.0000000   0.0000000   0.0000000  )
         4           Si  tau(   4) = (   0.0000000   0.5000000   1.6559113  )
         5           Li  tau(   5) = (   0.0000000   0.5000000   3.8054846  )
         6           Li  tau(   6) = (   0.5000000   0.0000000   2.8181608  )

     number of k points=    31  Marzari-Vanderbilt smearing, width (Ry)=  0.0200
                       cart. coord. in units 2pi/alat
        k(    1) = (   0.0000000   0.0000000   0.0000000), wk =   0.0200000
        k(    2) = (   0.0000000   0.1000000   0.0150974), wk =   0.0800000
        k(    3) = (   0.0000000   0.2000000   0.0301949), wk =   0.0800000
        k(    4) = (   0.0000000   0.3000000   0.0452923), wk =   0.0800000
        k(    5) = (   0.0000000   0.4000000   0.0603897), wk =   0.0800000
        k(    6) = (   0.0000000  -0.5000000  -0.0754871), wk =   0.0400000
        k(    7) = (   0.1000000  -0.1000000   0.0000000), wk =   0.0400000
        k(    8) = (   0.1000000   0.1000000   0.0301949), wk =   0.0400000
        k(    9) = (   0.1000000   0.2000000   0.0452923), wk =   0.0800000
        k(   10) = (   0.1000000   0.3000000   0.0603897), wk =   0.0800000
        k(   11) = (   0.1000000  -0.6000000  -0.0754871), wk =   0.0800000
        k(   12) = (   0.1000000  -0.5000000  -0.0603897), wk =   0.0800000
        k(   13) = (   0.1000000  -0.4000000  -0.0452923), wk =   0.0800000
        k(   14) = (   0.1000000  -0.3000000  -0.0301949), wk =   0.0800000
        k(   15) = (   0.1000000  -0.2000000  -0.0150974), wk =   0.0800000
        k(   16) = (   0.2000000  -0.2000000   0.0000000), wk =   0.0400000
        k(   17) = (   0.2000000   0.2000000   0.0603897), wk =   0.0400000
        k(   18) = (   0.2000000  -0.7000000  -0.0754871), wk =   0.0800000
        k(   19) = (   0.2000000  -0.6000000  -0.0603897), wk =   0.0800000
        k(   20) = (   0.2000000  -0.5000000  -0.0452923), wk =   0.0800000
        k(   21) = (   0.2000000  -0.4000000  -0.0301949), wk =   0.0800000
        k(   22) = (   0.2000000  -0.3000000  -0.0150974), wk =   0.0800000
        k(   23) = (   0.3000000  -0.3000000   0.0000000), wk =   0.0400000
        k(   24) = (   0.3000000  -0.7000000  -0.0603897), wk =   0.0400000
        k(   25) = (   0.3000000  -0.6000000  -0.0452923), wk =   0.0800000
        k(   26) = (   0.3000000  -0.5000000  -0.0301949), wk =   0.0800000
        k(   27) = (   0.3000000  -0.4000000  -0.0150974), wk =   0.0800000
        k(   28) = (   0.4000000  -0.4000000   0.0000000), wk =   0.0400000
        k(   29) = (   0.4000000  -0.6000000  -0.0301949), wk =   0.0400000
        k(   30) = (   0.4000000  -0.5000000  -0.0150974), wk =   0.0800000
        k(   31) = (  -0.5000000   0.5000000   0.0000000), wk =   0.0200000

     Dense  grid:    30283 G-vectors     FFT dimensions: (  90,  90,  90)

     Estimated max dynamical RAM per process >      22.93 MB

     Estimated total dynamical RAM >     183.43 MB

     Initial potential from superposition of free atoms

     starting charge      21.9884, renormalised to      22.0000
     Starting wfcs are   20 randomized atomic wfcs

     total cpu time spent up to now is        2.6 secs

     Self-consistent Calculation

     iteration #  1     ecut=    60.00 Ry     beta= 0.80
     Davidson diagonalization with overlap
     ethr =  1.00E-02,  avg # of iterations =  4.3

     total cpu time spent up to now is        5.8 secs

     total energy              =     -60.62790749 Ry
     estimated scf accuracy    <       1.72462457 Ry

     iteration #  2     ecut=    60.00 Ry     beta= 0.80
     Davidson diagonalization with overlap
     ethr =  7.84E-03,  avg # of iterations =  7.5

     total cpu time spent up to now is       10.0 secs

     total energy              =     -57.08240236 Ry
     estimated scf accuracy    <      69.94679952 Ry

     iteration #  3     ecut=    60.00 Ry     beta= 0.80
     Davidson diagonalization with overlap
     ethr =  7.84E-03,  avg # of iterations =  6.4

     total cpu time spent up to now is       13.9 secs

     total energy              =     -61.98330448 Ry
     estimated scf accuracy    <       0.27230672 Ry

     iteration #  4     ecut=    60.00 Ry     beta= 0.80
     Davidson diagonalization with overlap
     ethr =  1.24E-03,  avg # of iterations =  4.4

     total cpu time spent up to now is       16.4 secs

     total energy              =     -62.03968128 Ry
     estimated scf accuracy    <       0.00261504 Ry

     iteration #  5     ecut=    60.00 Ry     beta= 0.80
     Davidson diagonalization with overlap
     ethr =  1.19E-05,  avg # of iterations =  9.0

     total cpu time spent up to now is       20.2 secs

     total energy              =     -62.04209281 Ry
     estimated scf accuracy    <       0.00064196 Ry

     iteration #  6     ecut=    60.00 Ry     beta= 0.80
     Davidson diagonalization with overlap
     ethr =  2.92E-06,  avg # of iterations =  2.0

     total cpu time spent up to now is       22.3 secs

     total energy              =     -62.04213819 Ry
     estimated scf accuracy    <       0.00003660 Ry

     iteration #  7     ecut=    60.00 Ry     beta= 0.80
     Davidson diagonalization with overlap
     ethr =  1.66E-07,  avg # of iterations =  2.8

     total cpu time spent up to now is       24.7 secs

     total energy              =     -62.04214505 Ry
     estimated scf accuracy    <       0.00000053 Ry

     iteration #  8     ecut=    60.00 Ry     beta= 0.80
     Davidson diagonalization with overlap
     ethr =  2.40E-09,  avg # of iterations =  4.6

     total cpu time spent up to now is       27.7 secs

     total energy              =     -62.04214545 Ry
     estimated scf accuracy    <       0.00000147 Ry

     iteration #  9     ecut=    60.00 Ry     beta= 0.80
     Davidson diagonalization with overlap
     ethr =  2.40E-09,  avg # of iterations =  1.7

     total cpu time spent up to now is       29.8 secs

     total energy              =     -62.04214550 Ry
     estimated scf accuracy    <       0.00000012 Ry

     iteration # 10     ecut=    60.00 Ry     beta= 0.80
     Davidson diagonalization with overlap
     ethr =  5.27E-10,  avg # of iterations =  2.5

     total cpu time spent up to now is       32.0 secs

     End of self-consistent calculation

          k = 0.0000 0.0000 0.0000 (  3847 PWs)   bands (ev):

   -36.5562 -36.5489  -4.1844  -1.8944  -1.1203   2.2726   4.6618   9.2055
    11.8789  12.4483  12.4483  12.9886  12.9887  14.6316  14.9142

          k = 0.0000 0.1000 0.0151 (  3824 PWs)   bands (ev):

   -36.5533 -36.5460  -4.0083  -1.7345  -0.9559   2.4178   4.7888   9.1671
    10.3005  11.3483  12.0440  12.5891  13.1564  13.1576  14.4180

          k = 0.0000 0.2000 0.0302 (  3801 PWs)   bands (ev):

   -36.5462 -36.5395  -3.4846  -1.2634  -0.4650   2.8344   5.1318   7.5560
     8.4991   9.5813  10.6098  12.0970  13.0066  13.0147  13.6482

          k = 0.0000 0.3000 0.0453 (  3817 PWs)   bands (ev):

   -36.5377 -36.5328  -2.6332  -0.5132   0.3367   3.4051   4.9076   5.7576
     6.6662   8.0970   9.1020  11.4321  12.5671  13.6741  14.4221

          k = 0.0000 0.4000 0.0604 (  3804 PWs)   bands (ev):

   -36.5297 -36.5274  -1.5323   0.4109   1.3264   2.7964   3.9527   4.9605
     5.6685   7.2428   7.9685  11.2277  11.6927  14.3464  14.4870

          k = 0.0000-0.5000-0.0755 (  3786 PWs)   bands (ev):

   -36.5262 -36.5254  -0.7395   0.9288   1.4985   2.3797   3.7134   3.8758
     6.0723   6.4965   7.9663  10.6215  11.7335  14.0341  14.9903

          k = 0.1000-0.1000 0.0000 (  3807 PWs)   bands (ev):

   -36.5504 -36.5435  -3.8326  -1.5625  -0.8110   2.5990   4.8640   9.2242
    10.3807  10.5070  11.2726  11.6778  12.1385  12.8919  14.0201

          k = 0.1000 0.1000 0.0302 (  3812 PWs)   bands (ev):

   -36.5505 -36.5436  -3.8318  -1.5863  -0.7715   2.5274   4.9731   9.0845
    10.3675  10.5161  11.3156  11.6745  12.1861  12.9180  13.7967

          k = 0.1000 0.2000 0.0453 (  3805 PWs)   bands (ev):

   -36.5437 -36.5373  -3.3077  -1.1265  -0.2596   2.9091   5.3764   7.6929
     8.6097   9.5477  10.5284  10.9128  11.9102  12.2903  13.2979

          k = 0.1000 0.3000 0.0604 (  3802 PWs)   bands (ev):

   -36.5349 -36.5302  -2.4556  -0.3841   0.5607   3.4608   5.0697   6.0265
     6.8324   8.1397   9.1607  11.2506  11.6795  12.2515  13.3232

          k = 0.1000-0.6000-0.0755 (  3800 PWs)   bands (ev):

   -36.5275 -36.5248  -1.3532   0.5453   1.5420   2.9871   4.0296   5.0627
     5.8413   7.4262   8.1617  11.0254  11.5866  12.5060  13.7556

          k = 0.1000-0.5000-0.0604 (  3796 PWs)   bands (ev):

   -36.5240 -36.5234  -0.5583   1.0906   1.6676   2.5443   3.8661   4.0383
     6.1999   6.6178   8.0723  10.6710  11.7112  13.0978  13.6954

          k = 0.1000-0.4000-0.0453 (  3804 PWs)   bands (ev):

   -36.5276 -36.5249  -1.3565   0.6057   1.4421   2.9409   4.1893   5.1725
     5.7556   7.2851   7.9906  11.3525  11.8123  12.5629  13.6364

          k = 0.1000-0.3000-0.0302 (  3805 PWs)   bands (ev):

   -36.5351 -36.5302  -2.4583  -0.3175   0.4444   3.6558   5.0540   5.8024
     6.7714   8.2495   9.1626  11.4007  11.7991  12.2924  13.1401

          k = 0.1000-0.2000-0.0151 (  3803 PWs)   bands (ev):

   -36.5437 -36.5373  -3.3093  -1.0789  -0.3397   3.0538   5.1635   7.7196
     8.6201   9.6368  10.6799  10.9786  11.8709  12.2044  13.1354

          k = 0.2000-0.2000 0.0000 (  3813 PWs)   bands (ev):

   -36.5370 -36.5317  -2.7866  -0.5809   0.1127   3.5504   5.4409   8.1010
     8.2558   8.7962   9.1405  10.2267  10.7040  11.9918  12.3773

          k = 0.2000 0.2000 0.0604 (  3827 PWs)   bands (ev):

   -36.5374 -36.5318  -2.7830  -0.6757   0.2736   3.2628   5.8506   8.0460
     8.1768   8.7999   9.2908  10.0746  10.5019  11.4030  12.5624

          k = 0.2000-0.7000-0.0755 (  3805 PWs)   bands (ev):

   -36.5284 -36.5246  -1.9296   0.0631   1.1113   3.8138   5.5419   6.5206
     7.2817   8.3174   8.7769   9.4379  10.2615  11.3418  12.0554

          k = 0.2000-0.6000-0.0604 (  3799 PWs)   bands (ev):

   -36.5212 -36.5190  -0.8226   1.0027   2.0797   3.5063   4.4288   5.4601
     6.2180   7.7998   8.5095   9.8378  10.6951  11.3488  12.0000

          k = 0.2000-0.5000-0.0453 (  3790 PWs)   bands (ev):

   -36.5178 -36.5173  -0.0170   1.5680   2.1693   3.0292   4.3120   4.5236
     6.5422   6.9801   8.3419  10.2590  10.9037  11.5234  12.0539

          k = 0.2000-0.4000-0.0302 (  3795 PWs)   bands (ev):

   -36.5212 -36.5189  -0.8298   1.1227   1.8853   3.4141   4.7094   5.6911
     6.1137   7.5141   8.1947   9.7713  10.8219  11.9677  12.1101

          k = 0.2000-0.3000-0.0151 (  3816 PWs)   bands (ev):

   -36.5286 -36.5247  -1.9355   0.1952   0.8802   4.1960   5.4701   6.1752
     7.1199   8.4807   8.8480   9.3819  10.2221  11.8157  12.2350

          k = 0.3000-0.3000 0.0000 (  3807 PWs)   bands (ev):

   -36.5203 -36.5175  -1.0826   0.9900   1.6315   4.9234   5.8874   6.6055
     6.9195   7.5812   7.7369   9.0854   9.3020  10.1883  11.9504

          k = 0.3000-0.7000-0.0604 (  3795 PWs)   bands (ev):

   -36.5202 -36.5172  -1.0731   0.8049   1.9585   4.4056   6.1665   6.4626
     7.0438   7.7045   8.3798   8.5923   9.1844  10.2316  11.8975

          k = 0.3000-0.6000-0.0453 (  3786 PWs)   bands (ev):

   -36.5134 -36.5114   0.0446   1.7584   2.9043   4.3213   5.1270   6.1011
     6.6850   7.2845   8.1596   8.9453   9.1259  10.1413  11.4025

          k = 0.3000-0.5000-0.0302 (  3774 PWs)   bands (ev):

   -36.5099 -36.5097   0.8766   2.3274   2.9801   3.7955   5.0146   5.3070
     6.9802   7.4860   7.9878   8.5788   9.5842   9.9807  11.3032

          k = 0.3000-0.4000-0.0151 (  3783 PWs)   bands (ev):

   -36.5131 -36.5115   0.0325   1.9291   2.6383   4.1905   5.4387   6.4084
     6.6102   7.4244   7.9722   8.4014   9.0075  10.1070  11.5930

          k = 0.4000-0.4000 0.0000 (  3777 PWs)   bands (ev):

   -36.5066 -36.5058   1.1755   2.8891   3.6369   5.0713   5.2906   6.0519
     6.8461   7.3723   7.5514   8.0885   8.5867   8.8456  10.5150

          k = 0.4000-0.6000-0.0302 (  3771 PWs)   bands (ev):

   -36.5066 -36.5055   1.1923   2.7227   3.8402   5.1070   5.5270   6.0468
     6.6846   6.8739   7.2600   8.0823   8.6996   9.2233  11.3635

          k = 0.4000-0.5000-0.0151 (  3759 PWs)   bands (ev):

   -36.5037 -36.5034   2.1023   3.2511   4.0048   4.6312   5.8518   5.9537
     6.3167   7.1878   7.4863   8.0948   8.3345   8.5659  10.6431

          k =-0.5000 0.5000 0.0000 (  3730 PWs)   bands (ev):

   -36.5008 -36.5006   3.4126   3.7918   3.8408   4.9967   5.3921   6.5543
     6.6348   7.0431   7.1497   7.2758   7.7290   8.4026  10.1501

     the Fermi energy is     9.3166 ev

!    total energy              =     -62.04214552 Ry
     estimated scf accuracy    <          7.6E-09 Ry
     smearing contrib. (-TS)   =      -0.00003669 Ry
     internal energy E=F+TS    =     -62.04210883 Ry

     The total energy is F=E-TS. E is the sum of the following terms:
     one-electron contribution =       0.72051394 Ry
     hartree contribution      =       8.34454113 Ry
     xc contribution           =     -19.80714166 Ry
     ewald contribution        =     -51.30002224 Ry

     convergence has been achieved in  10 iterations

     Forces acting on atoms (cartesian axes, Ry/au):

     atom    1 type  1   force =     0.00000000    0.00000000   -0.17615266
     atom    2 type  1   force =    -0.00000000    0.00000000    0.17615266
     atom    3 type  1   force =     0.00000000    0.00000000   -0.00000000
     atom    4 type  1   force =    -0.00000000    0.00000000    0.00000000
     atom    5 type  2   force =     0.00000000    0.00000000   -0.00473733
     atom    6 type  2   force =    -0.00000000    0.00000000    0.00473733
     The non-local contrib.  to forces
     atom    1 type  1   force =     0.00000000    0.00000000   -0.24741750
     atom    2 type  1   force =     0.00000000    0.00000000    0.24741750
     atom    3 type  1   force =     0.00000000    0.00000000    0.00000000
     atom    4 type  1   force =     0.00000000    0.00000000   -0.00000000
     atom    5 type  2   force =     0.00000000    0.00000000   -0.00253815
     atom    6 type  2   force =    -0.00000000    0.00000000    0.00253815
     The ionic contribution  to forces
     atom    1 type  1   force =     0.00000000   -0.00000000   -1.73967721
     atom    2 type  1   force =    -0.00000000   -0.00000000    1.73967721
     atom    3 type  1   force =     0.00000000    0.00000000   -0.00000000
     atom    4 type  1   force =    -0.00000000   -0.00000000    0.00000000
     atom    5 type  2   force =    -0.00000000   -0.00000000    0.61493636
     atom    6 type  2   force =    -0.00000000    0.00000000   -0.61493636
     The local contribution  to forces
     atom    1 type  1   force =     0.00000000    0.00000000    1.79889128
     atom    2 type  1   force =    -0.00000000   -0.00000000   -1.79889128
     atom    3 type  1   force =    -0.00000000    0.00000000    0.00000000
     atom    4 type  1   force =    -0.00000000   -0.00000000   -0.00000000
     atom    5 type  2   force =     0.00000000    0.00000000   -0.61724922
     atom    6 type  2   force =     0.00000000    0.00000000    0.61724922
     The core correction contribution to forces
     atom    1 type  1   force =    -0.00000000   -0.00000000    0.01211906
     atom    2 type  1   force =     0.00000000   -0.00000000   -0.01211906
     atom    3 type  1   force =     0.00000000    0.00000000   -0.00000000
     atom    4 type  1   force =    -0.00000000   -0.00000000   -0.00000000
     atom    5 type  2   force =     0.00000000    0.00000000    0.00000000
     atom    6 type  2   force =     0.00000000    0.00000000    0.00000000
     The Hubbard contrib.    to forces
     atom    1 type  1   force =     0.00000000    0.00000000    0.00000000
     atom    2 type  1   force =     0.00000000    0.00000000    0.00000000
     atom    3 type  1   force =     0.00000000    0.00000000    0.00000000
     atom    4 type  1   force =     0.00000000    0.00000000    0.00000000
     atom    5 type  2   force =     0.00000000    0.00000000    0.00000000
     atom    6 type  2   force =     0.00000000    0.00000000    0.00000000
     The SCF correction term to forces
     atom    1 type  1   force =    -0.00000000    0.00000000   -0.00006830
     atom    2 type  1   force =     0.00000000    0.00000000    0.00006830
     atom    3 type  1   force =     0.00000000    0.00000000    0.00000000
     atom    4 type  1   force =    -0.00000000   -0.00000000   -0.00000000
     atom    5 type  2   force =     0.00000000    0.00000000    0.00011368
     atom    6 type  2   force =    -0.00000000    0.00000000   -0.00011368

     Total force =     0.249208     Total SCF correction =     0.000188


     Computing stress (Cartesian axis) and pressure

          total   stress  (Ry/bohr**3)                   (kbar)     P=      410.80
   0.00185013   0.00000000   0.00000000          272.16        0.00        0.00
  -0.00000000   0.00185013  -0.00000000           -0.00      272.16       -0.00
   0.00000000  -0.00000000   0.00467752            0.00       -0.00      688.09


     BFGS Geometry Optimization
     Energy error            =      0.0E+00 Ry
     Gradient error          =      1.8E-01 Ry/Bohr
     Cell gradient error     =      2.3E+02 kbar

     number of scf cycles    =   1
     number of bfgs steps    =   0

     enthalpy           new  =     -60.3965559475 Ry

     new trust radius        =       0.1761526634 bohr
ibrav =      7
 celldm(1) =      5.06392539
 celldm(3) =      7.11069401
Input lattice vectors:
     0.48064002    -0.48064002     3.41768414
     0.48064002     0.48064002     3.41768414
    -0.48064002    -0.48064002     3.41768414
New lattice vectors in INITIAL alat:
     0.48064002    -0.48064002     3.41768414
     0.48064002     0.48064002     3.41768414
    -0.48064002    -0.48064002     3.41768414
New lattice vectors in NEW alat (for information only):
     0.50000000    -0.50000000     3.55534700
     0.50000000     0.50000000     3.55534700
    -0.50000000    -0.50000000     3.55534700
Discrepancy in bohr =     0.000000    0.000000    0.000000
     new conv_thr            =       0.0000000100 Ry

     new unit-cell volume =    461.68301 a.u.^3 (    68.41436 Ang^3 )
     density =      3.06368 g/cm^3

CELL_PARAMETERS (alat=  5.26789815)
   0.480640024  -0.480640024   3.417684138
   0.480640024   0.480640024   3.417684138
  -0.480640024  -0.480640024   3.417684138

ATOMIC_POSITIONS (crystal)
Si            0.0000000000        0.3483508382        0.3483508382
Si            0.0000000000        0.6516491618        0.6516491618
Si            0.0000000000       -0.0000000000       -0.0000000000
Si           -0.5000000000        0.7500000000        0.2500000000
Li           -0.5000000000        1.0743944814        0.5743944814
Li            0.5000000000        0.4256055186       -0.0743944814



     Writing config-only to output data dir ./output/SiLi.save/
     NEW-OLD atomic charge density approx. for the potential
     extrapolated charge   20.93001, renormalised to   22.00000

     total cpu time spent up to now is       33.8 secs

     Self-consistent Calculation

     iteration #  1     ecut=    60.00 Ry     beta= 0.80
     Davidson diagonalization with overlap
     c_bands:  1 eigenvalues not converged
     c_bands:  1 eigenvalues not converged
     c_bands:  1 eigenvalues not converged
     ethr =  1.00E-06,  avg # of iterations = 14.2

     total cpu time spent up to now is       41.1 secs

     total energy              =     -61.95316754 Ry
     estimated scf accuracy    <       0.13983032 Ry

     iteration #  2     ecut=    60.00 Ry     beta= 0.80
     Davidson diagonalization with overlap
     ethr =  6.36E-04,  avg # of iterations =  7.1

     total cpu time spent up to now is       44.9 secs

     total energy              =     -61.26418699 Ry
     estimated scf accuracy    <      15.77313792 Ry

     iteration #  3     ecut=    60.00 Ry     beta= 0.80
     Davidson diagonalization with overlap
     ethr =  6.36E-04,  avg # of iterations =  6.9

     total cpu time spent up to now is       48.5 secs

     total energy              =     -62.09451174 Ry
     estimated scf accuracy    <       0.10483012 Ry

     iteration #  4     ecut=    60.00 Ry     beta= 0.80
     Davidson diagonalization with overlap
     ethr =  4.77E-04,  avg # of iterations =  1.6

     total cpu time spent up to now is       50.5 secs

     total energy              =     -62.09893678 Ry
     estimated scf accuracy    <       0.03444185 Ry

     iteration #  5     ecut=    60.00 Ry     beta= 0.80
     Davidson diagonalization with overlap
     ethr =  1.57E-04,  avg # of iterations =  1.9

     total cpu time spent up to now is       52.5 secs

     total energy              =     -62.09642026 Ry
     estimated scf accuracy    <       0.01994121 Ry

     iteration #  6     ecut=    60.00 Ry     beta= 0.80
     Davidson diagonalization with overlap
     ethr =  9.06E-05,  avg # of iterations =  3.2

     total cpu time spent up to now is       54.8 secs

     total energy              =     -62.09792439 Ry
     estimated scf accuracy    <       0.00032248 Ry

     iteration #  7     ecut=    60.00 Ry     beta= 0.80
     Davidson diagonalization with overlap
     ethr =  1.47E-06,  avg # of iterations =  8.4

     total cpu time spent up to now is       58.0 secs

     total energy              =     -62.09805085 Ry
     estimated scf accuracy    <       0.00000461 Ry

     iteration #  8     ecut=    60.00 Ry     beta= 0.80
     Davidson diagonalization with overlap
     ethr =  2.10E-08,  avg # of iterations =  3.2

     total cpu time spent up to now is       60.5 secs

     total energy              =     -62.09805143 Ry
     estimated scf accuracy    <       0.00000802 Ry

     iteration #  9     ecut=    60.00 Ry     beta= 0.80
     Davidson diagonalization with overlap
     ethr =  2.10E-08,  avg # of iterations =  1.8

     total cpu time spent up to now is       62.6 secs

     End of self-consistent calculation

          k = 0.0000 0.0000 0.0000 (  3847 PWs)   bands (ev):

   -35.7362 -35.7287  -4.4362  -1.9941  -0.7506   2.1252   4.8793   8.9487
    11.7006  13.7206  13.7206  14.8845  14.8845  15.3119  15.6687

          k = 0.0000 0.1040 0.0146 (  3824 PWs)   bands (ev):

   -35.7325 -35.7251  -4.2424  -1.8100  -0.5751   2.2985   5.0160   8.9886
    11.1495  11.8380  12.8593  13.8807  14.1455  15.0604  15.2169

          k = 0.0000 0.2081 0.0293 (  3801 PWs)   bands (ev):

   -35.7229 -35.7163  -3.6650  -1.2646  -0.0516   2.8068   5.3948   8.1266
     8.8938  10.3765  11.3003  12.2714  13.4709  14.3535  15.5805

          k = 0.0000 0.3121 0.0439 (  3817 PWs)   bands (ev):

   -35.7109 -35.7061  -2.7205  -0.3859   0.8068   3.5853   5.2355   6.1409
     7.1990   8.8472   9.5730  11.5659  12.7682  15.1065  15.1791

          k = 0.0000 0.4161 0.0585 (  3804 PWs)   bands (ev):

   -35.7005 -35.6982  -1.4715   0.7027   1.9123   3.0606   4.4000   5.2574
     5.9840   7.6594   8.5004  11.3455  11.9267  14.5199  16.0194

          k =-0.0000-0.5201-0.0731 (  3786 PWs)   bands (ev):

   -35.6960 -35.6954  -0.4850   1.0537   2.0841   3.0063   3.8324   4.3081
     6.4414   6.7293   8.4006  10.9740  11.7488  14.1472  16.5740

          k = 0.1040-0.1040 0.0000 (  3807 PWs)   bands (ev):

   -35.7288 -35.7218  -4.0488  -1.6231  -0.4072   2.4914   5.1191   9.0984
    11.2369  11.3537  11.9291  12.8657  13.1117  13.9199  15.1458

          k = 0.1040 0.1040 0.0293 (  3812 PWs)   bands (ev):

   -35.7288 -35.7218  -4.0486  -1.6292  -0.3913   2.4517   5.1916   8.9790
    11.2305  11.3538  12.0313  12.8691  13.1413  13.9294  14.9673

          k = 0.1040 0.2081 0.0439 (  3805 PWs)   bands (ev):

   -35.7194 -35.7132  -3.4714  -1.0878   0.1428   2.9366   5.6164   8.2770
     8.9523  10.4455  11.2838  11.7150  12.5992  13.4484  13.9837

          k = 0.1040 0.3121 0.0585 (  3802 PWs)   bands (ev):

   -35.7073 -35.7028  -2.5271  -0.2138   1.0139   3.6907   5.4190   6.4018
     7.3822   8.9061   9.5998  11.5419  12.4847  13.2191  14.3664

          k = 0.1040-0.6242-0.0731 (  3800 PWs)   bands (ev):

   -35.6974 -35.6948  -1.2778   0.8745   2.1206   3.2574   4.4942   5.4046
     6.2263   7.8139   8.6802  11.2460  11.9045  13.6021  15.0018

          k = 0.1040-0.5201-0.0585 (  3796 PWs)   bands (ev):

   -35.6929 -35.6924  -0.2890   1.2353   2.2682   3.1879   4.0107   4.4839
     6.6003   6.8647   8.5393  11.0493  11.8167  13.8497  14.7809

          k = 0.1040-0.4161-0.0439 (  3804 PWs)   bands (ev):

   -35.6973 -35.6948  -1.2787   0.8974   2.0671   3.2275   4.6654   5.4534
     6.0625   7.7669   8.5790  11.5657  12.0543  13.5137  14.8200

          k = 0.1040-0.3121-0.0293 (  3805 PWs)   bands (ev):

   -35.7074 -35.7029  -2.5279  -0.1920   0.9585   3.8267   5.3902   6.2191
     7.3428   9.0207   9.7188  11.6693  12.3541  13.2429  14.1746

          k = 0.1040-0.2081-0.0146 (  3803 PWs)   bands (ev):

   -35.7194 -35.7131  -3.4719  -1.0744   0.1085   3.0215   5.4684   8.2991
     9.0469  10.5132  11.4162  11.7889  12.2676  13.4284  13.9026

          k = 0.2081-0.2081 0.0000 (  3813 PWs)   bands (ev):

   -35.7100 -35.7047  -2.8959  -0.5229   0.6183   3.5739   5.8062   8.6710
     8.9032   9.2285  10.5943  11.0312  11.5997  12.4950  12.9543

          k = 0.2081 0.2081 0.0585 (  3827 PWs)   bands (ev):

   -35.7105 -35.7050  -2.8949  -0.5517   0.6906   3.3972   6.1002   8.6187
     8.8393   9.1858  10.6171  10.8619  11.4488  12.1986  13.2392

          k = 0.2081-0.7282-0.0731 (  3805 PWs)   bands (ev):

   -35.6983 -35.6946  -1.9514   0.3170   1.5773   4.1333   5.9351   6.9404
     7.8946   9.1813   9.3640  10.0654  11.4239  11.9359  12.9296

          k = 0.2081-0.6242-0.0585 (  3799 PWs)   bands (ev):

   -35.6887 -35.6865  -0.7012   1.4061   2.6863   3.8115   4.9511   5.8797
     6.7412   8.2045   9.0709  10.6165  11.5881  11.8344  12.9766

          k = 0.2081-0.5201-0.0439 (  3790 PWs)   bands (ev):

   -35.6844 -35.6839   0.2965   1.7733   2.8140   3.7253   4.5396   5.0049
     7.0378   7.2673   8.9194  10.9594  11.6131  12.2743  12.9360

          k = 0.2081-0.4161-0.0293 (  3795 PWs)   bands (ev):

   -35.6885 -35.6865  -0.7033   1.4531   2.5803   3.7521   5.2678   5.9832
     6.4714   8.0887   8.8728  10.6187  11.9336  12.2264  12.9901

          k = 0.2081-0.3121-0.0146 (  3816 PWs)   bands (ev):

   -35.6986 -35.6947  -1.9531   0.3626   1.4636   4.4060   5.8558   6.6340
     7.7879   9.3051   9.4551  10.2564  11.4122  12.2740  12.9063

          k = 0.3121-0.3121 0.0000 (  3807 PWs)   bands (ev):

   -35.6872 -35.6847  -1.0114   1.2506   2.3076   5.2722   6.3788   7.0751
     7.4231   8.2736   8.7699   9.9554  10.2844  11.0148  12.6252

          k = 0.3121-0.7282-0.0585 (  3795 PWs)   bands (ev):

   -35.6872 -35.6843  -1.0086   1.1812   2.4787   4.8710   6.5789   6.9990
     7.6817   8.4909   9.1052   9.6136  10.0011  10.6831  12.6410

          k = 0.3121-0.6242-0.0439 (  3786 PWs)   bands (ev):

   -35.6780 -35.6762   0.2446   2.2724   3.5855   4.6952   5.7451   6.6299
     7.4038   7.8605   8.9503   9.6624  10.0329  10.9422  12.0888

          k = 0.3121-0.5201-0.0293 (  3774 PWs)   bands (ev):

   -35.6738 -35.6735   1.2630   2.6405   3.6938   4.5894   5.3954   5.8432
     7.5845   7.8590   8.8800   9.3751  10.5386  11.0787  12.0889

          k = 0.3121-0.4161-0.0146 (  3783 PWs)   bands (ev):

   -35.6777 -35.6763   0.2409   2.3423   3.4354   4.6101   6.1529   6.7677
     7.1064   7.9264   8.8122   9.2990  10.0045  11.0656  12.2559

          k = 0.4161-0.4161 0.0000 (  3777 PWs)   bands (ev):

   -35.6688 -35.6682   1.5061   3.4380   4.5789   5.6947   5.7378   7.0817
     7.3051   7.7936   8.2645   9.0909   9.4058   9.7807  11.2458

          k = 0.4161-0.6242-0.0293 (  3771 PWs)   bands (ev):

   -35.6691 -35.6679   1.5114   3.3674   4.6950   5.7401   5.8597   6.7498
     7.3038   7.8016   8.1903   8.7525   9.5746  10.0910  12.0418

          k = 0.4161-0.5201-0.0146 (  3759 PWs)   bands (ev):

   -35.6652 -35.6649   2.5898   3.7358   4.7781   5.6606   6.4671   6.5116
     6.9738   7.6803   8.3793   8.9592   9.3046   9.5032  11.3794

          k =-0.5201 0.5201-0.0000 (  3730 PWs)   bands (ev):

   -35.6618 -35.6616   4.0159   4.4657   4.4827   5.8683   6.4067   6.8906
     7.6645   7.6789   8.0287   8.0787   8.3501   9.4374  10.6317

     the Fermi energy is    10.1551 ev

!    total energy              =     -62.09805227 Ry
     estimated scf accuracy    <          7.8E-09 Ry
     smearing contrib. (-TS)   =       0.00003440 Ry
     internal energy E=F+TS    =     -62.09808667 Ry

     The total energy is F=E-TS. E is the sum of the following terms:
     one-electron contribution =       3.09146479 Ry
     hartree contribution      =       7.66389060 Ry
     xc contribution           =     -19.96288365 Ry
     ewald contribution        =     -52.89055841 Ry

     convergence has been achieved in   9 iterations

     Forces acting on atoms (cartesian axes, Ry/au):

     atom    1 type  1   force =     0.00000000    0.00000000   -0.11072533
     atom    2 type  1   force =    -0.00000000   -0.00000000    0.11072533
     atom    3 type  1   force =    -0.00000000    0.00000000   -0.00000000
     atom    4 type  1   force =     0.00000000    0.00000000   -0.00000000
     atom    5 type  2   force =    -0.00000000    0.00000000    0.05496235
     atom    6 type  2   force =    -0.00000000   -0.00000000   -0.05496235
     The non-local contrib.  to forces
     atom    1 type  1   force =     0.00000000   -0.00000000   -0.20347629
     atom    2 type  1   force =    -0.00000000   -0.00000000    0.20347629
     atom    3 type  1   force =    -0.00000000   -0.00000000    0.00000000
     atom    4 type  1   force =     0.00000000   -0.00000000    0.00000000
     atom    5 type  2   force =    -0.00000000   -0.00000000    0.02774367
     atom    6 type  2   force =     0.00000000    0.00000000   -0.02774367
     The ionic contribution  to forces
     atom    1 type  1   force =    -0.00000000   -0.00000000   -1.15830978
     atom    2 type  1   force =    -0.00000000   -0.00000000    1.15830978
     atom    3 type  1   force =     0.00000000   -0.00000000    0.00000000
     atom    4 type  1   force =     0.00000000   -0.00000000   -0.00000000
     atom    5 type  2   force =     0.00000000   -0.00000000    0.62553222
     atom    6 type  2   force =    -0.00000000   -0.00000000   -0.62553222
     The local contribution  to forces
     atom    1 type  1   force =    -0.00000000   -0.00000000    1.24247693
     atom    2 type  1   force =     0.00000000    0.00000000   -1.24247693
     atom    3 type  1   force =    -0.00000000   -0.00000000    0.00000000
     atom    4 type  1   force =     0.00000000    0.00000000    0.00000000
     atom    5 type  2   force =     0.00000000   -0.00000000   -0.59831592
     atom    6 type  2   force =    -0.00000000    0.00000000    0.59831592
     The core correction contribution to forces
     atom    1 type  1   force =    -0.00000000    0.00000000    0.00859571
     atom    2 type  1   force =     0.00000000    0.00000000   -0.00859571
     atom    3 type  1   force =    -0.00000000   -0.00000000    0.00000000
     atom    4 type  1   force =     0.00000000    0.00000000    0.00000000
     atom    5 type  2   force =     0.00000000    0.00000000    0.00000000
     atom    6 type  2   force =     0.00000000    0.00000000    0.00000000
     The Hubbard contrib.    to forces
     atom    1 type  1   force =     0.00000000    0.00000000    0.00000000
     atom    2 type  1   force =     0.00000000    0.00000000    0.00000000
     atom    3 type  1   force =     0.00000000    0.00000000    0.00000000
     atom    4 type  1   force =     0.00000000    0.00000000    0.00000000
     atom    5 type  2   force =     0.00000000    0.00000000    0.00000000
     atom    6 type  2   force =     0.00000000    0.00000000    0.00000000
     The SCF correction term to forces
     atom    1 type  1   force =    -0.00000000    0.00000000   -0.00001191
     atom    2 type  1   force =     0.00000000    0.00000000    0.00001191
     atom    3 type  1   force =     0.00000000   -0.00000000   -0.00000000
     atom    4 type  1   force =    -0.00000000   -0.00000000    0.00000000
     atom    5 type  2   force =     0.00000000    0.00000000    0.00000238
     atom    6 type  2   force =     0.00000000    0.00000000   -0.00000238

     Total force =     0.174820     Total SCF correction =     0.000017


     Computing stress (Cartesian axis) and pressure

          total   stress  (Ry/bohr**3)                   (kbar)     P=      472.79
   0.00210723  -0.00000000  -0.00000000          309.98       -0.00       -0.00
   0.00000000   0.00210723  -0.00000000            0.00      309.98       -0.00
   0.00000000  -0.00000000   0.00542733            0.00       -0.00      798.39

     Energy error            =      1.3E-01 Ry
     Gradient error          =      1.1E-01 Ry/Bohr
     Cell gradient error     =      3.0E+02 kbar

     number of scf cycles    =   2
     number of bfgs steps    =   1

     enthalpy           old  =     -60.3965559475 Ry
     enthalpy           new  =     -60.5288236306 Ry

     CASE: enthalpy          _new < enthalpy          _old


     WARNING: bfgs curvature condition failed, Theta= 0.959
     new trust radius        =       0.1999616645 bohr
ibrav =      7
 celldm(1) =      4.84561371
 celldm(3) =      7.77683176
Input lattice vectors:
     0.45991908    -0.45991908     3.57671328
     0.45991908     0.45991908     3.57671328
    -0.45991908    -0.45991908     3.57671328
New lattice vectors in INITIAL alat:
     0.45991908    -0.45991908     3.57671328
     0.45991908     0.45991908     3.57671328
    -0.45991908    -0.45991908     3.57671328
New lattice vectors in NEW alat (for information only):
     0.50000000    -0.50000000     3.88841588
     0.50000000     0.50000000     3.88841588
    -0.50000000    -0.50000000     3.88841588
Discrepancy in bohr =     0.000000    0.000000    0.000000
     new conv_thr            =       0.0000000022 Ry

     new unit-cell volume =    442.40403 a.u.^3 (    65.55751 Ang^3 )
     density =      3.19719 g/cm^3

CELL_PARAMETERS (alat=  5.26789815)
   0.459919077  -0.459919077   3.576713284
   0.459919077   0.459919077   3.576713284
  -0.459919077  -0.459919077   3.576713284

ATOMIC_POSITIONS (crystal)
Si           -0.0000000000        0.3435575961        0.3435575961
Si           -0.0000000000        0.6564424039        0.6564424039
Si           -0.0000000000       -0.0000000000        0.0000000000
Si           -0.5000000000        0.7500000000        0.2500000000
Li           -0.5000000000        1.0754245807        0.5754245807
Li            0.5000000000        0.4245754193       -0.0754245807



     Writing config-only to output data dir ./output/SiLi.save/
     NEW-OLD atomic charge density approx. for the potential
     extrapolated charge   21.04179, renormalised to   22.00000

     total cpu time spent up to now is       64.4 secs

     Self-consistent Calculation

     iteration #  1     ecut=    60.00 Ry     beta= 0.80
     Davidson diagonalization with overlap
     c_bands:  1 eigenvalues not converged
     c_bands:  1 eigenvalues not converged
     c_bands:  1 eigenvalues not converged
     c_bands:  1 eigenvalues not converged
     c_bands:  1 eigenvalues not converged
     c_bands:  1 eigenvalues not converged
     ethr =  1.00E-06,  avg # of iterations = 15.1

     total cpu time spent up to now is       72.1 secs

     total energy              =     -62.12991398 Ry
     estimated scf accuracy    <       0.02063367 Ry

     iteration #  2     ecut=    60.00 Ry     beta= 0.80
     Davidson diagonalization with overlap
     ethr =  9.38E-05,  avg # of iterations =  8.5

     total cpu time spent up to now is       75.8 secs

     total energy              =     -62.00108318 Ry
     estimated scf accuracy    <       3.29182218 Ry

     iteration #  3     ecut=    60.00 Ry     beta= 0.80
     Davidson diagonalization with overlap
     ethr =  9.38E-05,  avg # of iterations =  6.9

     total cpu time spent up to now is       79.1 secs

     total energy              =     -62.15213490 Ry
     estimated scf accuracy    <       0.02478258 Ry

     iteration #  4     ecut=    60.00 Ry     beta= 0.80
     Davidson diagonalization with overlap
     ethr =  9.38E-05,  avg # of iterations =  1.5

     total cpu time spent up to now is       81.2 secs

     total energy              =     -62.15263246 Ry
     estimated scf accuracy    <       0.01343500 Ry

     iteration #  5     ecut=    60.00 Ry     beta= 0.80
     Davidson diagonalization with overlap
     ethr =  6.11E-05,  avg # of iterations =  1.2

     total cpu time spent up to now is       83.2 secs

     total energy              =     -62.15244023 Ry
     estimated scf accuracy    <       0.00455249 Ry

     iteration #  6     ecut=    60.00 Ry     beta= 0.80
     Davidson diagonalization with overlap
     ethr =  2.07E-05,  avg # of iterations =  3.0

     total cpu time spent up to now is       85.4 secs

     total energy              =     -62.15263868 Ry
     estimated scf accuracy    <       0.00033874 Ry

     iteration #  7     ecut=    60.00 Ry     beta= 0.80
     Davidson diagonalization with overlap
     ethr =  1.54E-06,  avg # of iterations =  5.6

     total cpu time spent up to now is       88.0 secs

     total energy              =     -62.15268514 Ry
     estimated scf accuracy    <       0.00000591 Ry

     iteration #  8     ecut=    60.00 Ry     beta= 0.80
     Davidson diagonalization with overlap
     ethr =  2.68E-08,  avg # of iterations =  3.5

     total cpu time spent up to now is       90.5 secs

     total energy              =     -62.15268700 Ry
     estimated scf accuracy    <       0.00000128 Ry

     iteration #  9     ecut=    60.00 Ry     beta= 0.80
     Davidson diagonalization with overlap
     ethr =  5.80E-09,  avg # of iterations =  2.1

     total cpu time spent up to now is       92.6 secs

     total energy              =     -62.15268711 Ry
     estimated scf accuracy    <       0.00000004 Ry

     iteration # 10     ecut=    60.00 Ry     beta= 0.80
     Davidson diagonalization with overlap
     ethr =  1.79E-10,  avg # of iterations =  4.5

     total cpu time spent up to now is       95.2 secs

     End of self-consistent calculation

          k = 0.0000 0.0000 0.0000 (  3847 PWs)   bands (ev):

   -35.0180 -35.0123  -4.7087  -2.2083  -0.5590   1.8187   4.9201   8.4188
    11.2365  15.2905  15.2905  15.9833  16.4507  16.9624  16.9624

          k =-0.0000 0.1087 0.0140 (  3824 PWs)   bands (ev):

   -35.0130 -35.0075  -4.4944  -2.0008  -0.3629   2.0187   5.0768   8.5243
    11.3541  12.2475  14.1768  15.2993  15.4690  16.0662  17.1509

          k =-0.0000 0.2174 0.0280 (  3801 PWs)   bands (ev):

   -34.9994 -34.9948  -3.8548  -1.3834   0.2223   2.6118   5.5226   8.6235
     9.0215  11.1089  11.8601  12.4411  14.1486  15.9986  17.0059

          k =-0.0000 0.3261 0.0419 (  3817 PWs)   bands (ev):

   -34.9826 -34.9793  -2.8033  -0.3773   1.1840   3.5661   5.6378   6.4617
     7.7688   9.5002   9.8202  11.7357  12.7108  15.5287  16.8520

          k =-0.0000 0.4349 0.0559 (  3804 PWs)   bands (ev):

   -34.9689 -34.9670  -1.3865   0.9121   2.4579   3.3051   4.7431   5.5143
     6.3853   7.9774   8.9439  11.1691  12.1564  14.4469  16.1000

          k = 0.0000-0.5436-0.0699 (  3786 PWs)   bands (ev):

   -34.9636 -34.9620  -0.1497   1.1828   2.5073   3.7054   3.9033   4.7687
     6.6727   6.8650   8.7809  11.1907  11.6165  14.0123  16.8980

          k = 0.1087-0.1087 0.0000 (  3807 PWs)   bands (ev):

   -35.0079 -35.0027  -4.2802  -1.7929  -0.1695   2.2271   5.2142   8.6778
    11.4393  12.2419  12.5408  13.9069  14.9343  15.0906  16.4207

          k = 0.1087 0.1087 0.0280 (  3812 PWs)   bands (ev):

   -35.0078 -35.0027  -4.2802  -1.7942  -0.1634   2.2096   5.2565   8.5900
    11.5210  12.2397  12.5635  13.8947  14.9542  15.0999  16.3230

          k = 0.1087 0.2174 0.0419 (  3805 PWs)   bands (ev):

   -34.9945 -34.9903  -3.6412  -1.1784   0.4265   2.7901   5.7320   8.7118
     9.1695  11.2288  11.9964  12.4543  12.9441  14.8555  15.1966

          k = 0.1087 0.3261 0.0559 (  3802 PWs)   bands (ev):

   -34.9777 -34.9747  -2.5905  -0.1747   1.3948   3.7264   5.8396   6.7020
     7.9708   9.5180   9.9260  11.8501  12.7646  14.3308  15.4633

          k = 0.1087-0.6523-0.0699 (  3800 PWs)   bands (ev):

   -34.9645 -34.9623  -1.1746   1.1129   2.6737   3.5100   4.8736   5.7060
     6.6629   8.1203   9.1178  11.1877  12.2140  14.4186  15.7187

          k = 0.1087-0.5436-0.0559 (  3796 PWs)   bands (ev):

   -34.9590 -34.9576   0.0638   1.3854   2.7080   3.9097   4.1028   4.9656
     6.8607   7.0246   8.9538  11.3005  11.7527  14.0198  15.9085

          k = 0.1087-0.4349-0.0419 (  3804 PWs)   bands (ev):

   -34.9641 -34.9623  -1.1747   1.1200   2.6441   3.4992   5.0126   5.7002
     6.4967   8.1451   9.0805  11.4063  12.3022  14.1031  15.5699

          k = 0.1087-0.3261-0.0280 (  3805 PWs)   bands (ev):

   -34.9778 -34.9748  -2.5907  -0.1689   1.3703   3.7990   5.8051   6.5915
     7.9377   9.7777   9.9793  11.7873  12.5603  14.3167  15.4288

          k = 0.1087-0.2174-0.0140 (  3803 PWs)   bands (ev):

   -34.9945 -34.9901  -3.6413  -1.1752   0.4126   2.8299   5.6423   8.8122
     9.2088  11.2884  11.9291  12.4058  12.8339  14.8529  15.1567

          k = 0.2174-0.2174 0.0000 (  3813 PWs)   bands (ev):

   -34.9811 -34.9774  -3.0040  -0.5585   0.9927   3.4413   6.0640   9.1204
     9.6568   9.6936  11.5491  11.9616  12.5508  12.5711  14.0504

          k = 0.2174 0.2174 0.0559 (  3827 PWs)   bands (ev):

   -34.9822 -34.9781  -3.0038  -0.5658   1.0231   3.3542   6.2480   8.9574
     9.5738   9.7225  11.2937  12.1011  12.4522  13.0131  13.8083

          k = 0.2174-0.7610-0.0699 (  3805 PWs)   bands (ev):

   -34.9653 -34.9625  -1.9557   0.4330   2.0007   4.2703   6.3985   7.2782
     8.5210   9.7665  10.1826  10.5696  12.6126  12.7305  13.6934

          k = 0.2174-0.6523-0.0559 (  3799 PWs)   bands (ev):

   -34.9522 -34.9503  -0.5423   1.7163   3.2869   4.1086   5.4013   6.2605
     7.2955   8.5568   9.5617  11.1560  12.1934  12.6677  14.0424

          k = 0.2174-0.5436-0.0419 (  3790 PWs)   bands (ev):

   -34.9468 -34.9457   0.7014   1.9876   3.3026   4.5159   4.6979   5.5497
     7.3996   7.4865   9.4494  11.4825  12.0267  13.0611  13.9908

          k = 0.2174-0.4349-0.0280 (  3795 PWs)   bands (ev):

   -34.9519 -34.9504  -0.5428   1.7315   3.2280   4.0860   5.6647   6.2555
     6.9998   8.5746   9.4702  11.4503  12.2194  12.9380  14.0241

          k = 0.2174-0.3261-0.0140 (  3816 PWs)   bands (ev):

   -34.9653 -34.9628  -1.9560   0.4458   1.9490   4.4202   6.3168   7.0847
     8.4414  10.0547  10.2225  10.8483  12.3775  12.7295  13.6011

          k = 0.3261-0.3261 0.0000 (  3807 PWs)   bands (ev):

   -34.9495 -34.9483  -0.9124   1.4454   2.9063   5.4028   6.9221   7.6984
     7.9695   8.8489  10.1430  10.7676  11.1019  11.9392  13.0929

          k = 0.3261-0.7610-0.0559 (  3795 PWs)   bands (ev):

   -34.9499 -34.9477  -0.9118   1.4244   2.9886   5.1668   7.0625   7.6624
     8.1836   9.0840  10.2221  10.5133  10.7785  11.3277  13.4483

          k = 0.3261-0.6523-0.0419 (  3786 PWs)   bands (ev):

   -34.9370 -34.9357   0.4976   2.6992   4.2797   5.0765   6.2949   7.1159
     8.1312   8.5468   9.6712  10.3888  11.1083  11.7438  12.7512

          k = 0.3261-0.5436-0.0280 (  3774 PWs)   bands (ev):

   -34.9318 -34.9312   1.7527   2.9669   4.2592   5.5010   5.6733   6.4928
     8.0782   8.1945   9.9878  10.1482  11.5966  12.0750  12.8001

          k = 0.3261-0.4349-0.0140 (  3783 PWs)   bands (ev):

   -34.9366 -34.9358   0.4966   2.7231   4.1946   5.0411   6.6481   7.1185
     7.7958   8.5646   9.5636  10.3100  11.1003  12.1397  12.6820

          k = 0.4349-0.4349 0.0000 (  3777 PWs)   bands (ev):

   -34.9240 -34.9238   1.9034   3.9852   5.4984   6.1762   6.4129   7.7695
     7.7954   8.7423   9.0435  10.0814  10.3609  10.8062  11.8719

          k = 0.4349-0.6523-0.0280 (  3771 PWs)   bands (ev):

   -34.9247 -34.9236   1.9048   3.9595   5.5659   6.2721   6.3954   7.4086
     7.8013   8.9930   9.2911   9.5147  10.5036  10.8827  12.6711

          k = 0.4349-0.5436-0.0140 (  3759 PWs)   bands (ev):

   -34.9193 -34.9188   3.1955   4.2401   5.4392   6.8106   6.9587   7.1750
     7.7984   8.1868   9.3980   9.9341  10.4565  10.4806  11.9682

          k =-0.5436 0.5436-0.0000 (  3730 PWs)   bands (ev):

   -34.9149 -34.9143   4.7908   5.1839   5.1889   6.4153   7.2476   7.9935
     8.1545   8.8942   8.9033   9.0355   9.1313  10.5194  11.1507

     the Fermi energy is    10.9658 ev

!    total energy              =     -62.15268712 Ry
     estimated scf accuracy    <          1.5E-09 Ry
     smearing contrib. (-TS)   =      -0.00025996 Ry
     internal energy E=F+TS    =     -62.15242716 Ry

     The total energy is F=E-TS. E is the sum of the following terms:
     one-electron contribution =       5.29193703 Ry
     hartree contribution      =       7.02440394 Ry
     xc contribution           =     -20.11197239 Ry
     ewald contribution        =     -54.35679574 Ry

     convergence has been achieved in  10 iterations

     Forces acting on atoms (cartesian axes, Ry/au):

     atom    1 type  1   force =    -0.00000000   -0.00000000   -0.05542310
     atom    2 type  1   force =    -0.00000000    0.00000000    0.05542310
     atom    3 type  1   force =     0.00000000   -0.00000000   -0.00000000
     atom    4 type  1   force =     0.00000000   -0.00000000   -0.00000000
     atom    5 type  2   force =     0.00000000    0.00000000    0.08360340
     atom    6 type  2   force =    -0.00000000    0.00000000   -0.08360340
     The non-local contrib.  to forces
     atom    1 type  1   force =     0.00000000    0.00000000   -0.15746935
     atom    2 type  1   force =     0.00000000   -0.00000000    0.15746935
     atom    3 type  1   force =    -0.00000000    0.00000000    0.00000000
     atom    4 type  1   force =    -0.00000000    0.00000000   -0.00000000
     atom    5 type  2   force =     0.00000000    0.00000000    0.06066698
     atom    6 type  2   force =     0.00000000   -0.00000000   -0.06066698
     The ionic contribution  to forces
     atom    1 type  1   force =     0.00000000   -0.00000000   -0.45083845
     atom    2 type  1   force =    -0.00000000   -0.00000000    0.45083845
     atom    3 type  1   force =    -0.00000000    0.00000000    0.00000000
     atom    4 type  1   force =     0.00000000    0.00000000   -0.00000000
     atom    5 type  2   force =     0.00000000    0.00000000    0.53770006
     atom    6 type  2   force =     0.00000000   -0.00000000   -0.53770006
     The local contribution  to forces
     atom    1 type  1   force =    -0.00000000    0.00000000    0.54766661
     atom    2 type  1   force =     0.00000000   -0.00000000   -0.54766661
     atom    3 type  1   force =    -0.00000000   -0.00000000    0.00000000
     atom    4 type  1   force =    -0.00000000    0.00000000    0.00000000
     atom    5 type  2   force =    -0.00000000   -0.00000000   -0.51476035
     atom    6 type  2   force =    -0.00000000    0.00000000    0.51476035
     The core correction contribution to forces
     atom    1 type  1   force =     0.00000000    0.00000000    0.00516086
     atom    2 type  1   force =     0.00000000    0.00000000   -0.00516086
     atom    3 type  1   force =    -0.00000000   -0.00000000   -0.00000000
     atom    4 type  1   force =     0.00000000    0.00000000    0.00000000
     atom    5 type  2   force =     0.00000000    0.00000000    0.00000000
     atom    6 type  2   force =     0.00000000    0.00000000    0.00000000
     The Hubbard contrib.    to forces
     atom    1 type  1   force =     0.00000000    0.00000000    0.00000000
     atom    2 type  1   force =     0.00000000    0.00000000    0.00000000
     atom    3 type  1   force =     0.00000000    0.00000000    0.00000000
     atom    4 type  1   force =     0.00000000    0.00000000    0.00000000
     atom    5 type  2   force =     0.00000000    0.00000000    0.00000000
     atom    6 type  2   force =     0.00000000    0.00000000    0.00000000
     The SCF correction term to forces
     atom    1 type  1   force =     0.00000000   -0.00000000    0.00005723
     atom    2 type  1   force =    -0.00000000   -0.00000000   -0.00005723
     atom    3 type  1   force =    -0.00000000   -0.00000000   -0.00000000
     atom    4 type  1   force =    -0.00000000   -0.00000000    0.00000000
     atom    5 type  2   force =     0.00000000   -0.00000000   -0.00000328
     atom    6 type  2   force =    -0.00000000    0.00000000    0.00000328

     Total force =     0.141854     Total SCF correction =     0.000081


     Computing stress (Cartesian axis) and pressure

          total   stress  (Ry/bohr**3)                   (kbar)     P=      527.06
   0.00260708  -0.00000000  -0.00000000          383.52       -0.00       -0.00
  -0.00000000   0.00260708   0.00000000           -0.00      383.52        0.00
  -0.00000000  -0.00000000   0.00553442           -0.00       -0.00      814.14

     Energy error            =      1.2E-01 Ry
     Gradient error          =      8.4E-02 Ry/Bohr
     Cell gradient error     =      3.1E+02 kbar

     number of scf cycles    =   3
     number of bfgs steps    =   2

     enthalpy           old  =     -60.5288236306 Ry
     enthalpy           new  =     -60.6489863815 Ry

     CASE: enthalpy          _new < enthalpy          _old

     new trust radius        =       0.2842882910 bohr
ibrav =      7
 celldm(1) =      4.57825414
 celldm(3) =      8.78723224
Input lattice vectors:
     0.43454277    -0.43454277     3.81842826
     0.43454277     0.43454277     3.81842826
    -0.43454277    -0.43454277     3.81842826
New lattice vectors in INITIAL alat:
     0.43454277    -0.43454277     3.81842826
     0.43454277     0.43454277     3.81842826
    -0.43454277    -0.43454277     3.81842826
New lattice vectors in NEW alat (for information only):
     0.50000000    -0.50000000     4.39361612
     0.50000000     0.50000000     4.39361612
    -0.50000000    -0.50000000     4.39361612
Discrepancy in bohr =     0.000000    0.000000    0.000000
     new conv_thr            =       0.0000000017 Ry

     new unit-cell volume =    421.62058 a.u.^3 (    62.47772 Ang^3 )
     density =      3.35479 g/cm^3

CELL_PARAMETERS (alat=  5.26789815)
   0.434542773  -0.434542773   3.818428264
   0.434542773   0.434542773   3.818428264
  -0.434542773  -0.434542773   3.818428264

ATOMIC_POSITIONS (crystal)
Si           -0.0000000000        0.3376374406        0.3376374406
Si           -0.0000000000        0.6623625594        0.6623625594
Si            0.0000000000       -0.0000000000       -0.0000000000
Si           -0.5000000000        0.7500000000        0.2500000000
Li           -0.5000000000        1.0781971774        0.5781971774
Li            0.5000000000        0.4218028226       -0.0781971774



     Writing config-only to output data dir ./output/SiLi.save/
     NEW-OLD atomic charge density approx. for the potential
     extrapolated charge   20.91610, renormalised to   22.00000

     total cpu time spent up to now is       97.0 secs

     Self-consistent Calculation

     iteration #  1     ecut=    60.00 Ry     beta= 0.80
     Davidson diagonalization with overlap
     c_bands:  1 eigenvalues not converged
     c_bands:  1 eigenvalues not converged
     c_bands:  1 eigenvalues not converged
     c_bands:  1 eigenvalues not converged
     c_bands:  1 eigenvalues not converged
     c_bands:  1 eigenvalues not converged
     c_bands:  1 eigenvalues not converged
     c_bands:  2 eigenvalues not converged
     ethr =  1.00E-06,  avg # of iterations = 17.1

     total cpu time spent up to now is      105.5 secs

     total energy              =     -62.05321526 Ry
     estimated scf accuracy    <       0.17192145 Ry

     iteration #  2     ecut=    60.00 Ry     beta= 0.80
     Davidson diagonalization with overlap
     ethr =  7.81E-04,  avg # of iterations =  6.6

     total cpu time spent up to now is      109.3 secs

     total energy              =     -60.99202045 Ry
     estimated scf accuracy    <      19.96077696 Ry

     iteration #  3     ecut=    60.00 Ry     beta= 0.80
     Davidson diagonalization with overlap
     ethr =  7.81E-04,  avg # of iterations =  6.5

     total cpu time spent up to now is      112.7 secs

     total energy              =     -62.20189302 Ry
     estimated scf accuracy    <       0.01947616 Ry

     iteration #  4     ecut=    60.00 Ry     beta= 0.80
     Davidson diagonalization with overlap
     ethr =  8.85E-05,  avg # of iterations =  4.7

     total cpu time spent up to now is      115.3 secs

     total energy              =     -62.20481297 Ry
     estimated scf accuracy    <       0.00515405 Ry

     iteration #  5     ecut=    60.00 Ry     beta= 0.80
     Davidson diagonalization with overlap
     ethr =  2.34E-05,  avg # of iterations =  2.6

     total cpu time spent up to now is      117.4 secs

     total energy              =     -62.20537340 Ry
     estimated scf accuracy    <       0.00014714 Ry

     iteration #  6     ecut=    60.00 Ry     beta= 0.80
     Davidson diagonalization with overlap
     ethr =  6.69E-07,  avg # of iterations =  6.5

     total cpu time spent up to now is      120.4 secs

     total energy              =     -62.20541833 Ry
     estimated scf accuracy    <       0.00001030 Ry

     iteration #  7     ecut=    60.00 Ry     beta= 0.80
     Davidson diagonalization with overlap
     ethr =  4.68E-08,  avg # of iterations =  2.5

     total cpu time spent up to now is      122.7 secs

     total energy              =     -62.20542072 Ry
     estimated scf accuracy    <       0.00000050 Ry

     iteration #  8     ecut=    60.00 Ry     beta= 0.80
     Davidson diagonalization with overlap
     ethr =  2.26E-09,  avg # of iterations =  3.1

     total cpu time spent up to now is      125.1 secs

     total energy              =     -62.20542081 Ry
     estimated scf accuracy    <       0.00000003 Ry

     iteration #  9     ecut=    60.00 Ry     beta= 0.80
     Davidson diagonalization with overlap
     ethr =  1.14E-10,  avg # of iterations =  3.9

     total cpu time spent up to now is      127.6 secs

     total energy              =     -62.20542082 Ry
     estimated scf accuracy    <          3.5E-09 Ry

     iteration # 10     ecut=    60.00 Ry     beta= 0.80
     Davidson diagonalization with overlap
     ethr =  1.59E-11,  avg # of iterations =  2.0

     total cpu time spent up to now is      129.6 secs

     End of self-consistent calculation

          k = 0.0000 0.0000 0.0000 (  3847 PWs)   bands (ev):

   -34.3413 -34.3387  -4.9788  -2.4688  -0.7838   1.4949   4.8453   7.5194
    10.6532  16.0417  16.9169  17.6578  17.6578  18.1495  19.0470

          k = 0.0000 0.1151 0.0131 (  3824 PWs)   bands (ev):

   -34.3336 -34.3319  -4.7363  -2.2316  -0.5543   1.7256   5.0349   7.6885
    10.8175  13.6924  15.5857  16.3087  17.2375  17.5074  17.8591

          k = 0.0000 0.2301 0.0262 (  3801 PWs)   bands (ev):

   -34.3127 -34.3116  -4.0122  -1.5239   0.1308   2.4126   5.5868   8.1547
    10.0097  11.3514  12.4046  13.5253  15.2284  17.1556  18.3845

          k = 0.0000 0.3452 0.0393 (  3817 PWs)   bands (ev):

   -34.2879 -34.2861  -2.8172  -0.3608   1.2600   3.5384   6.1870   6.9659
     8.4306   9.5727  10.4257  12.0194  12.8751  16.0407  17.1834

          k = 0.0000 0.4603 0.0524 (  3804 PWs)   bands (ev):

   -34.2679 -34.2660  -1.1821   1.1906   2.7981   3.7462   5.0378   6.0206
     6.9714   8.3006   9.3896  10.9144  12.4720  14.3133  15.9954

          k =-0.0000-0.5753-0.0655 (  3786 PWs)   bands (ev):

   -34.2598 -34.2578   0.4293   1.4442   2.9594   4.0807   4.4453   5.1296
     6.9742   7.1480   9.2104  11.3368  11.6004  13.6589  16.5137

          k = 0.1151-0.1151-0.0000 (  3807 PWs)   bands (ev):

   -34.3260 -34.3243  -4.4942  -1.9946  -0.3255   1.9580   5.2159   7.8817
    10.9554  13.6602  14.0340  15.1771  16.3069  17.0976  17.5801

          k = 0.1151 0.1151 0.0262 (  3812 PWs)   bands (ev):

   -34.3255 -34.3248  -4.4942  -1.9948  -0.3243   1.9535   5.2352   7.8368
    11.0161  13.6508  14.0444  15.1439  16.2957  17.0392  17.4663

          k = 0.1151 0.2301 0.0393 (  3805 PWs)   bands (ev):

   -34.3059 -34.3046  -3.7710  -1.2882   0.3615   2.6357   5.8028   8.2866
    10.2044  11.5843  12.5240  13.6002  14.1460  16.2740  17.1641

          k = 0.1151 0.3452 0.0524 (  3802 PWs)   bands (ev):

   -34.2806 -34.2792  -2.5775  -0.1272   1.4923   3.7523   6.4119   7.2002
     8.6259   9.6689  10.5956  12.3602  12.8524  15.8115  16.3125

          k = 0.1151-0.6904-0.0655 (  3800 PWs)   bands (ev):

   -34.2610 -34.2593  -0.9444   1.4213   3.0338   3.9703   5.2303   6.2435
     7.2642   8.4607   9.5574  11.0647  12.6282  14.5679  16.0201

          k = 0.1151-0.5753-0.0524 (  3796 PWs)   bands (ev):

   -34.2530 -34.2512   0.6670   1.6739   3.1841   4.3102   4.6760   5.3534
     7.1922   7.3453   9.4231  11.5026  11.7916  13.8117  16.3562

          k = 0.1151-0.4603-0.0393 (  3804 PWs)   bands (ev):

   -34.2604 -34.2587  -0.9444   1.4232   3.0209   3.9717   5.2914   6.2328
     7.1355   8.5200   9.6023  11.1310  12.6297  14.2967  16.0290

          k = 0.1151-0.3452-0.0262 (  3805 PWs)   bands (ev):

   -34.2808 -34.2793  -2.5775  -0.1261   1.4855   3.7767   6.3689   7.1601
     8.6384   9.8597  10.6242  12.0810  12.8244  15.8757  16.4456

          k = 0.1151-0.2301-0.0131 (  3803 PWs)   bands (ev):

   -34.3052 -34.3044  -3.7710  -1.2877   0.3583   2.6471   5.7588   8.3749
    10.2093  11.4798  12.5263  13.5861  14.1249  16.3437  17.2105

          k = 0.2301-0.2301-0.0000 (  3813 PWs)   bands (ev):

   -34.2843 -34.2840  -3.0505  -0.5836   1.0403   3.3359   6.2982   8.9020
    10.7188  10.8241  12.0355  12.3652  13.5775  14.3190  15.5386

          k = 0.2301 0.2301 0.0524 (  3827 PWs)   bands (ev):

   -34.2870 -34.2858  -3.0505  -0.5850   1.0479   3.3088   6.3931   8.7351
    10.6999  10.8253  12.0930  12.4793  13.6687  14.3883  15.3387

          k = 0.2301-0.8054-0.0655 (  3805 PWs)   bands (ev):

   -34.2617 -34.2599  -1.8615   0.5701   2.1799   4.4102   7.0269   7.8493
     9.1839  10.1285  11.0890  11.4954  13.1269  14.2696  14.8419

          k = 0.2301-0.6904-0.0524 (  3799 PWs)   bands (ev):

   -34.2418 -34.2404  -0.2348   2.1099   3.7238   4.6386   5.8626   6.8846
     7.9932   8.9925  10.0780  11.4036  12.9591  13.9990  15.2958

          k = 0.2301-0.5753-0.0393 (  3790 PWs)   bands (ev):

   -34.2341 -34.2327   1.3758   2.3585   3.8508   4.9939   5.3627   6.0193
     7.8273   7.9150  10.0484  11.9212  12.3321  13.9245  15.2641

          k = 0.2301-0.4603-0.0262 (  3795 PWs)   bands (ev):

   -34.2418 -34.2403  -0.2348   2.1142   3.6976   4.6402   5.9786   6.8706
     7.7524   9.0797  10.1237  11.6802  12.7563  14.0317  15.0606

          k = 0.2301-0.3452-0.0131 (  3816 PWs)   bands (ev):

   -34.2615 -34.2604  -1.8616   0.5729   2.1647   4.4632   6.9362   7.7735
     9.2060  10.4539  11.1237  11.5863  12.5426  14.3035  14.8218

          k = 0.3452-0.3452-0.0000 (  3807 PWs)   bands (ev):

   -34.2382 -34.2365  -0.6807   1.7196   3.2852   5.5778   7.6786   8.7061
     8.7768   9.6714  11.3646  11.6095  11.8515  12.9664  13.7806

          k = 0.3452-0.8054-0.0524 (  3795 PWs)   bands (ev):

   -34.2379 -34.2374  -0.6806   1.7144   3.3119   5.4872   7.7888   8.6877
     8.9194   9.7854  10.7412  11.4859  12.0331  12.7900  14.2814

          k = 0.3452-0.6904-0.0393 (  3786 PWs)   bands (ev):

   -34.2185 -34.2180   0.9346   3.2362   4.8538   5.7262   6.8990   7.8678
     9.0294   9.4082  10.4383  11.1849  12.6091  12.7657  13.7576

          k = 0.3452-0.5753-0.0262 (  3774 PWs)   bands (ev):

   -34.2112 -34.2101   2.5419   3.4802   4.9269   6.1120   6.4872   7.1032
     8.7293   8.7391  11.0169  11.4738  12.9652  13.0637  13.4607

          k = 0.3452-0.4603-0.0131 (  3783 PWs)   bands (ev):

   -34.2184 -34.2172   0.9344   3.2433   4.8143   5.7262   7.0562   7.8604
     8.7345   9.4658  10.3244  11.5327  12.6174  12.9190  13.5628

          k = 0.4603-0.4603-0.0000 (  3777 PWs)   bands (ev):

   -34.1993 -34.1970   2.5314   4.7280   6.3348   6.9810   7.3524   8.3577
     8.5814   9.9333  10.4175  11.1068  11.6954  12.2070  12.7986

          k = 0.4603-0.6904-0.0262 (  3771 PWs)   bands (ev):

   -34.1997 -34.1988   2.5316   4.7197   6.3789   7.0047   7.3258   8.1990
     8.5907  10.1275  10.5946  11.0057  11.6147  11.8150  13.4944

          k = 0.4603-0.5753-0.0131 (  3759 PWs)   bands (ev):

   -34.1918 -34.1899   4.1365   4.9758   6.2799   7.5913   8.0003   8.2223
     8.6054   9.0035  10.8302  11.3648  11.7021  11.9949  12.8192

          k =-0.5753 0.5753 0.0000 (  3730 PWs)   bands (ev):

   -34.1847 -34.1832   5.9603   6.2264   6.2274   7.2745   7.8585   8.8818
     9.6739   9.7390   9.9452  10.5862  10.5978  11.9212  11.9383

     the Fermi energy is    11.4884 ev

!    total energy              =     -62.20542082 Ry
     estimated scf accuracy    <          3.4E-10 Ry
     smearing contrib. (-TS)   =      -0.00091036 Ry
     internal energy E=F+TS    =     -62.20451046 Ry

     The total energy is F=E-TS. E is the sum of the following terms:
     one-electron contribution =       7.33762799 Ry
     hartree contribution      =       6.51573177 Ry
     xc contribution           =     -20.30751675 Ry
     ewald contribution        =     -55.75035347 Ry

     convergence has been achieved in  10 iterations

     Forces acting on atoms (cartesian axes, Ry/au):

     atom    1 type  1   force =     0.00000000   -0.00000000    0.03052168
     atom    2 type  1   force =    -0.00000000   -0.00000000   -0.03052168
     atom    3 type  1   force =    -0.00000000   -0.00000000    0.00000000
     atom    4 type  1   force =     0.00000000    0.00000000   -0.00000000
     atom    5 type  2   force =     0.00000000    0.00000000    0.06971898
     atom    6 type  2   force =    -0.00000000   -0.00000000   -0.06971898
     The non-local contrib.  to forces
     atom    1 type  1   force =    -0.00000000   -0.00000000   -0.06419960
     atom    2 type  1   force =     0.00000000    0.00000000    0.06419960
     atom    3 type  1   force =     0.00000000    0.00000000   -0.00000000
     atom    4 type  1   force =    -0.00000000   -0.00000000    0.00000000
     atom    5 type  2   force =     0.00000000    0.00000000    0.06470498
     atom    6 type  2   force =     0.00000000    0.00000000   -0.06470498
     The ionic contribution  to forces
     atom    1 type  1   force =     0.00000000   -0.00000000    0.69193390
     atom    2 type  1   force =     0.00000000    0.00000000   -0.69193390
     atom    3 type  1   force =    -0.00000000   -0.00000000    0.00000000
     atom    4 type  1   force =     0.00000000    0.00000000   -0.00000000
     atom    5 type  2   force =     0.00000000    0.00000000    0.19042036
     atom    6 type  2   force =     0.00000000    0.00000000   -0.19042036
     The local contribution  to forces
     atom    1 type  1   force =    -0.00000000    0.00000000   -0.59656906
     atom    2 type  1   force =     0.00000000   -0.00000000    0.59656906
     atom    3 type  1   force =     0.00000000   -0.00000000   -0.00000000
     atom    4 type  1   force =    -0.00000000    0.00000000    0.00000000
     atom    5 type  2   force =    -0.00000000   -0.00000000   -0.18540278
     atom    6 type  2   force =    -0.00000000   -0.00000000    0.18540278
     The core correction contribution to forces
     atom    1 type  1   force =    -0.00000000    0.00000000   -0.00067354
     atom    2 type  1   force =     0.00000000   -0.00000000    0.00067354
     atom    3 type  1   force =     0.00000000    0.00000000   -0.00000000
     atom    4 type  1   force =    -0.00000000    0.00000000    0.00000000
     atom    5 type  2   force =     0.00000000    0.00000000    0.00000000
     atom    6 type  2   force =     0.00000000    0.00000000    0.00000000
     The Hubbard contrib.    to forces
     atom    1 type  1   force =     0.00000000    0.00000000    0.00000000
     atom    2 type  1   force =     0.00000000    0.00000000    0.00000000
     atom    3 type  1   force =     0.00000000    0.00000000    0.00000000
     atom    4 type  1   force =     0.00000000    0.00000000    0.00000000
     atom    5 type  2   force =     0.00000000    0.00000000    0.00000000
     atom    6 type  2   force =     0.00000000    0.00000000    0.00000000
     The SCF correction term to forces
     atom    1 type  1   force =     0.00000000    0.00000000    0.00002999
     atom    2 type  1   force =     0.00000000   -0.00000000   -0.00002999
     atom    3 type  1   force =     0.00000000    0.00000000    0.00000000
     atom    4 type  1   force =     0.00000000    0.00000000    0.00000000
     atom    5 type  2   force =     0.00000000   -0.00000000   -0.00000358
     atom    6 type  2   force =     0.00000000   -0.00000000    0.00000358

     Total force =     0.107632     Total SCF correction =     0.000043


     Computing stress (Cartesian axis) and pressure

          total   stress  (Ry/bohr**3)                   (kbar)     P=      593.03
   0.00293615   0.00000000   0.00000000          431.92        0.00        0.00
  -0.00000000   0.00293615  -0.00000000           -0.00      431.92       -0.00
   0.00000000  -0.00000000   0.00622171            0.00       -0.00      915.25

     Energy error            =      1.2E-01 Ry
     Gradient error          =      7.0E-02 Ry/Bohr
     Cell gradient error     =      4.2E+02 kbar

     number of scf cycles    =   4
     number of bfgs steps    =   3

     enthalpy           old  =     -60.6489863815 Ry
     enthalpy           new  =     -60.7723616003 Ry

     CASE: enthalpy          _new < enthalpy          _old

     new trust radius        =       0.3899429612 bohr
ibrav =      7
 celldm(1) =      4.24710876
 celldm(3) =     10.37180223
Input lattice vectors:
     0.40311227    -0.40311227     4.18100073
     0.40311227     0.40311227     4.18100073
    -0.40311227    -0.40311227     4.18100073
New lattice vectors in INITIAL alat:
     0.40311227    -0.40311227     4.18100073
     0.40311227     0.40311227     4.18100073
    -0.40311227    -0.40311227     4.18100073
New lattice vectors in NEW alat (for information only):
     0.50000000    -0.50000000     5.18590112
     0.50000000     0.50000000     5.18590112
    -0.50000000    -0.50000000     5.18590112
Discrepancy in bohr =     0.000000    0.000000    0.000000
     new conv_thr            =       0.0000000014 Ry

     new unit-cell volume =    397.28702 a.u.^3 (    58.87186 Ang^3 )
     density =      3.56027 g/cm^3

CELL_PARAMETERS (alat=  5.26789815)
   0.403112269  -0.403112269   4.181000735
   0.403112269   0.403112269   4.181000735
  -0.403112269  -0.403112269   4.181000735

ATOMIC_POSITIONS (crystal)
Si           -0.0000000000        0.3323360805        0.3323360805
Si           -0.0000000000        0.6676639195        0.6676639195
Si            0.0000000000        0.0000000000       -0.0000000000
Si           -0.5000000000        0.7500000000        0.2500000000
Li           -0.5000000000        1.0813033581        0.5813033581
Li            0.5000000000        0.4186966419       -0.0813033581



     Writing config-only to output data dir ./output/SiLi.save/
     NEW-OLD atomic charge density approx. for the potential
     extrapolated charge   20.65322, renormalised to   22.00000

     total cpu time spent up to now is      131.3 secs

     Self-consistent Calculation

     iteration #  1     ecut=    60.00 Ry     beta= 0.80
     Davidson diagonalization with overlap
     c_bands:  1 eigenvalues not converged
     c_bands:  1 eigenvalues not converged
     c_bands:  1 eigenvalues not converged
     c_bands:  1 eigenvalues not converged
     c_bands:  2 eigenvalues not converged
     c_bands:  2 eigenvalues not converged
     c_bands:  1 eigenvalues not converged
     ethr =  1.00E-06,  avg # of iterations = 16.6

     total cpu time spent up to now is      139.5 secs

     total energy              =     -61.02094816 Ry
     estimated scf accuracy    <       1.19311163 Ry

     iteration #  2     ecut=    60.00 Ry     beta= 0.80
     Davidson diagonalization with overlap
     ethr =  5.42E-03,  avg # of iterations =  8.7

     total cpu time spent up to now is      143.9 secs

     total energy              =     -53.27618817 Ry
     estimated scf accuracy    <     208.75577083 Ry

     iteration #  3     ecut=    60.00 Ry     beta= 0.80
     Davidson diagonalization with overlap
     ethr =  5.42E-03,  avg # of iterations =  7.4

     total cpu time spent up to now is      147.8 secs

     total energy              =     -62.14211608 Ry
     estimated scf accuracy    <       1.58014117 Ry

     iteration #  4     ecut=    60.00 Ry     beta= 0.80
     Davidson diagonalization with overlap
     ethr =  5.42E-03,  avg # of iterations =  1.5

     total cpu time spent up to now is      149.6 secs

     total energy              =     -62.15809972 Ry
     estimated scf accuracy    <       0.56958480 Ry

     iteration #  5     ecut=    60.00 Ry     beta= 0.80
     Davidson diagonalization with overlap
     ethr =  2.59E-03,  avg # of iterations =  1.3

     total cpu time spent up to now is      151.4 secs

     total energy              =     -62.15400685 Ry
     estimated scf accuracy    <       0.15763194 Ry

     iteration #  6     ecut=    60.00 Ry     beta= 0.80
     Davidson diagonalization with overlap
     ethr =  7.17E-04,  avg # of iterations =  3.3

     total cpu time spent up to now is      153.4 secs

     total energy              =     -62.16725515 Ry
     estimated scf accuracy    <       0.01018863 Ry

     iteration #  7     ecut=    60.00 Ry     beta= 0.80
     Davidson diagonalization with overlap
     ethr =  4.63E-05,  avg # of iterations =  6.4

     total cpu time spent up to now is      155.8 secs

     total energy              =     -62.16799732 Ry
     estimated scf accuracy    <       0.00216186 Ry

     iteration #  8     ecut=    60.00 Ry     beta= 0.80
     Davidson diagonalization with overlap
     ethr =  9.83E-06,  avg # of iterations =  2.7

     total cpu time spent up to now is      157.8 secs

     total energy              =     -62.16825703 Ry
     estimated scf accuracy    <       0.00053928 Ry

     iteration #  9     ecut=    60.00 Ry     beta= 0.80
     Davidson diagonalization with overlap
     ethr =  2.45E-06,  avg # of iterations =  3.3

     total cpu time spent up to now is      159.7 secs

     total energy              =     -62.16829557 Ry
     estimated scf accuracy    <       0.00045475 Ry

     iteration # 10     ecut=    60.00 Ry     beta= 0.80
     Davidson diagonalization with overlap
     ethr =  2.07E-06,  avg # of iterations =  1.1

     total cpu time spent up to now is      161.4 secs

     total energy              =     -62.16832642 Ry
     estimated scf accuracy    <       0.00002188 Ry

     iteration # 11     ecut=    60.00 Ry     beta= 0.80
     Davidson diagonalization with overlap
     ethr =  9.95E-08,  avg # of iterations =  2.0

     total cpu time spent up to now is      163.2 secs

     total energy              =     -62.16832781 Ry
     estimated scf accuracy    <       0.00000075 Ry

     iteration # 12     ecut=    60.00 Ry     beta= 0.80
     Davidson diagonalization with overlap
     ethr =  3.43E-09,  avg # of iterations =  3.6

     total cpu time spent up to now is      165.3 secs

     total energy              =     -62.16832801 Ry
     estimated scf accuracy    <       0.00000002 Ry

     iteration # 13     ecut=    60.00 Ry     beta= 0.80
     Davidson diagonalization with overlap
     ethr =  8.65E-11,  avg # of iterations =  3.4

     total cpu time spent up to now is      167.4 secs

     End of self-consistent calculation

          k = 0.0000 0.0000 0.0000 (  3847 PWs)   bands (ev):

   -33.8754 -33.8747  -5.1763  -2.7312  -1.3328   1.0316   4.5912   6.5687
     9.7492  14.7292  15.4804  20.0129  20.1135  20.9305  21.6794

          k = 0.0000 0.1240 0.0120 (  3824 PWs)   bands (ev):

   -33.8650 -33.8614  -4.8929  -2.4522  -1.0569   1.3047   4.8327   6.7976
     9.9601  14.6308  15.4971  16.8044  18.2169  19.2340  19.6747

          k = 0.0000 0.2481 0.0239 (  3801 PWs)   bands (ev):

   -33.8287 -33.8238  -4.0463  -1.6190  -0.2330   2.1189   5.5465   7.4725
    10.4960  12.0489  14.1362  14.7893  15.8322  16.7101  17.5344

          k = 0.0000 0.3721 0.0359 (  3817 PWs)   bands (ev):

   -33.7828 -33.7811  -2.6471  -0.2443   1.1261   3.4545   6.6300   8.1521
     8.5988  10.4349  11.4125  11.9817  13.8495  15.8526  17.5052

          k = 0.0000 0.4961 0.0478 (  3804 PWs)   bands (ev):

   -33.7485 -33.7449  -0.7158   1.6386   2.9975   4.6590   5.3051   7.0789
     7.8538   8.7822   9.9058  10.9314  12.7649  14.4711  15.8229

          k =-0.0000-0.6202-0.0598 (  3786 PWs)   bands (ev):

   -33.7335 -33.7306   1.4826   1.9846   3.6590   4.5640   5.2863   5.4125
     7.6217   7.6616   9.9025  11.5257  11.8869  13.3759  16.0405

          k = 0.1240-0.1240-0.0000 (  3807 PWs)   bands (ev):

   -33.8504 -33.8489  -4.6100  -2.1737  -0.7814   1.5775   5.0719   7.0349
    10.1599  14.7221  15.4105  16.6146  17.0220  17.6621  18.6369

          k = 0.1240 0.1240 0.0239 (  3812 PWs)   bands (ev):

   -33.8528 -33.8474  -4.6100  -2.1737  -0.7813   1.5771   5.0771   7.0206
    10.1878  14.5472  15.5671  16.5995  17.0834  17.6639  18.6290

          k = 0.1240 0.2481 0.0359 (  3805 PWs)   bands (ev):

   -33.8171 -33.8124  -3.7648  -1.3420   0.0413   2.3888   5.7961   7.6882
    10.7492  12.2630  14.2271  14.8739  15.7869  16.2376  17.3440

          k = 0.1240 0.3721 0.0478 (  3802 PWs)   bands (ev):

   -33.7717 -33.7685  -2.3680   0.0301   1.3987   3.7195   6.8884   8.4036
     8.8063  10.6638  11.6297  12.2969  13.9114  15.7628  17.6139

          k = 0.1240-0.7442-0.0598 (  3800 PWs)   bands (ev):

   -33.7374 -33.7341  -0.4401   1.9088   3.2681   4.9183   5.5612   7.3335
     8.1670   8.9891  10.0832  11.2101  13.0319  14.7045  15.9331

          k = 0.1240-0.6202-0.0478 (  3796 PWs)   bands (ev):

   -33.7230 -33.7190   1.7561   2.2519   3.9204   4.8314   5.5477   5.6815
     7.8672   7.9186  10.1658  11.7659  12.1265  13.6156  16.1729

          k = 0.1240-0.4961-0.0359 (  3804 PWs)   bands (ev):

   -33.7355 -33.7322  -0.4401   1.9091   3.2654   4.9212   5.5717   7.3323
     8.0762   9.0519  10.2190  11.1155  12.9295  14.6889  16.1017

          k = 0.1240-0.3721-0.0239 (  3805 PWs)   bands (ev):

   -33.7725 -33.7672  -2.3680   0.0302   1.3978   3.7236   6.8601   8.3934
     8.8795  10.6814  11.6495  12.1151  13.9041  16.2790  17.3012

          k = 0.1240-0.2481-0.0120 (  3803 PWs)   bands (ev):

   -33.8153 -33.8120  -3.7648  -1.3420   0.0411   2.3903   5.7820   7.7237
[...]
        k(    6) = (   0.0000000  -0.6064534  -0.0587285), wk =   0.0400000
        k(    7) = (   0.1212907  -0.1212907  -0.0000000), wk =   0.0400000
        k(    8) = (   0.1212907   0.1212907   0.0234914), wk =   0.0400000
        k(    9) = (   0.1212907   0.2425814   0.0352371), wk =   0.0800000
        k(   10) = (   0.1212907   0.3638721   0.0469828), wk =   0.0800000
        k(   11) = (   0.1212907  -0.7277441  -0.0587285), wk =   0.0800000
        k(   12) = (   0.1212907  -0.6064534  -0.0469828), wk =   0.0800000
        k(   13) = (   0.1212907  -0.4851627  -0.0352371), wk =   0.0800000
        k(   14) = (   0.1212907  -0.3638721  -0.0234914), wk =   0.0800000
        k(   15) = (   0.1212907  -0.2425814  -0.0117457), wk =   0.0800000
        k(   16) = (   0.2425814  -0.2425814  -0.0000000), wk =   0.0400000
        k(   17) = (   0.2425814   0.2425814   0.0469828), wk =   0.0400000
        k(   18) = (   0.2425814  -0.8490348  -0.0587285), wk =   0.0800000
        k(   19) = (   0.2425814  -0.7277441  -0.0469828), wk =   0.0800000
        k(   20) = (   0.2425814  -0.6064534  -0.0352371), wk =   0.0800000
        k(   21) = (   0.2425814  -0.4851627  -0.0234914), wk =   0.0800000
        k(   22) = (   0.2425814  -0.3638721  -0.0117457), wk =   0.0800000
        k(   23) = (   0.3638721  -0.3638721  -0.0000000), wk =   0.0400000
        k(   24) = (   0.3638721  -0.8490348  -0.0469828), wk =   0.0400000
        k(   25) = (   0.3638721  -0.7277441  -0.0352371), wk =   0.0800000
        k(   26) = (   0.3638721  -0.6064534  -0.0234914), wk =   0.0800000
        k(   27) = (   0.3638721  -0.4851627  -0.0117457), wk =   0.0800000
        k(   28) = (   0.4851627  -0.4851627  -0.0000000), wk =   0.0400000
        k(   29) = (   0.4851627  -0.7277441  -0.0234914), wk =   0.0400000
        k(   30) = (   0.4851627  -0.6064534  -0.0117457), wk =   0.0800000
        k(   31) = (  -0.6064534   0.6064534   0.0000000), wk =   0.0200000

     Dense  grid:    26511 G-vectors     FFT dimensions: ( 120, 120, 120)

     Estimated max dynamical RAM per process >      30.36 MB

     Estimated total dynamical RAM >     242.87 MB

     Initial potential from superposition of free atoms

     starting charge      21.9884, renormalised to      22.0000
     Starting wfcs are   20 randomized atomic wfcs

     total cpu time spent up to now is      346.4 secs

     Self-consistent Calculation

     iteration #  1     ecut=    60.00 Ry     beta= 0.80
     Davidson diagonalization with overlap
     c_bands:  4 eigenvalues not converged
     c_bands:  1 eigenvalues not converged
     c_bands:  1 eigenvalues not converged
     c_bands:  1 eigenvalues not converged
     c_bands:  1 eigenvalues not converged
     c_bands:  2 eigenvalues not converged
     c_bands:  1 eigenvalues not converged
     c_bands:  1 eigenvalues not converged
     c_bands:  1 eigenvalues not converged
     c_bands:  1 eigenvalues not converged
     c_bands:  1 eigenvalues not converged
     c_bands:  2 eigenvalues not converged
     c_bands:  2 eigenvalues not converged
     c_bands:  2 eigenvalues not converged
     c_bands:  2 eigenvalues not converged
     c_bands:  2 eigenvalues not converged
     ethr =  1.00E-06,  avg # of iterations = 18.6

     total cpu time spent up to now is      361.8 secs

     total energy              =     -61.41755731 Ry
     estimated scf accuracy    <       1.06826850 Ry

     iteration #  2     ecut=    60.00 Ry     beta= 0.80
     Davidson diagonalization with overlap
     ethr =  4.86E-03,  avg # of iterations =  8.0

     total cpu time spent up to now is      368.8 secs

     total energy              =     -57.14600883 Ry
     estimated scf accuracy    <     110.01735411 Ry

     iteration #  3     ecut=    60.00 Ry     beta= 0.80
     Davidson diagonalization with overlap
     ethr =  4.86E-03,  avg # of iterations =  7.7

     total cpu time spent up to now is      375.9 secs

     total energy              =     -62.31896428 Ry
     estimated scf accuracy    <       0.02943575 Ry

     iteration #  4     ecut=    60.00 Ry     beta= 0.80
     Davidson diagonalization with overlap
     ethr =  1.34E-04,  avg # of iterations =  7.9

     total cpu time spent up to now is      381.2 secs

     total energy              =     -62.32552986 Ry
     estimated scf accuracy    <       0.02217970 Ry

     iteration #  5     ecut=    60.00 Ry     beta= 0.80
     Davidson diagonalization with overlap
     ethr =  1.01E-04,  avg # of iterations =  2.4

     total cpu time spent up to now is      385.0 secs

     total energy              =     -62.32849278 Ry
     estimated scf accuracy    <       0.00796388 Ry

     iteration #  6     ecut=    60.00 Ry     beta= 0.80
     Davidson diagonalization with overlap
     ethr =  3.62E-05,  avg # of iterations =  2.2

     total cpu time spent up to now is      388.5 secs

     total energy              =     -62.32965312 Ry
     estimated scf accuracy    <       0.00047150 Ry

     iteration #  7     ecut=    60.00 Ry     beta= 0.80
     Davidson diagonalization with overlap
     ethr =  2.14E-06,  avg # of iterations =  4.9

     total cpu time spent up to now is      392.6 secs

     total energy              =     -62.32970676 Ry
     estimated scf accuracy    <       0.00000876 Ry

     iteration #  8     ecut=    60.00 Ry     beta= 0.80
     Davidson diagonalization with overlap
     ethr =  3.98E-08,  avg # of iterations =  3.8

     total cpu time spent up to now is      396.7 secs

     total energy              =     -62.32970882 Ry
     estimated scf accuracy    <       0.00000468 Ry

     iteration #  9     ecut=    60.00 Ry     beta= 0.80
     Davidson diagonalization with overlap
     ethr =  2.13E-08,  avg # of iterations =  1.5

     total cpu time spent up to now is      400.2 secs

     total energy              =     -62.32970905 Ry
     estimated scf accuracy    <       0.00000029 Ry

     iteration # 10     ecut=    60.00 Ry     beta= 0.80
     Davidson diagonalization with overlap
     ethr =  1.30E-09,  avg # of iterations =  3.3

     total cpu time spent up to now is      404.2 secs

     total energy              =     -62.32970912 Ry
     estimated scf accuracy    <       0.00000004 Ry

     iteration # 11     ecut=    60.00 Ry     beta= 0.80
     Davidson diagonalization with overlap
     ethr =  1.76E-10,  avg # of iterations =  2.2

     total cpu time spent up to now is      407.8 secs

     total energy              =     -62.32970913 Ry
     estimated scf accuracy    <          1.3E-09 Ry

     iteration # 12     ecut=    60.00 Ry     beta= 0.80
     Davidson diagonalization with overlap
     ethr =  5.82E-12,  avg # of iterations =  4.1

     total cpu time spent up to now is      412.3 secs

     End of self-consistent calculation

          k = 0.0000 0.0000 0.0000 (  3331 PWs)   bands (ev):

   -34.5830 -34.5825  -4.8315  -2.8461  -1.6753   0.1399   3.9471   6.0825
     8.5004  13.6288  14.6887  19.3451  19.4492  20.0331  20.4799

          k =-0.0000 0.1213 0.0117 (  3336 PWs)   bands (ev):

   -34.5715 -34.5706  -4.5599  -2.5784  -1.4111   0.4023   4.1797   6.3011
     8.7145  13.6561  14.7061  16.1071  17.2955  18.2025  18.6468

          k =-0.0000 0.2426 0.0235 (  3340 PWs)   bands (ev):

   -34.5407 -34.5397  -3.7482  -1.7790  -0.6222   1.1849   4.8682   6.9430
     9.3223  11.6525  13.2391  13.9232  14.6928  15.5794  16.3938

          k =-0.0000 0.3639 0.0352 (  3334 PWs)   bands (ev):

   -34.5021 -34.5013  -2.4062  -0.4591   0.6801   2.4731   5.9471   7.8097
     8.1355   9.7562  10.3930  10.9097  12.4445  14.9227  16.3208

          k =-0.0000 0.4852 0.0470 (  3310 PWs)   bands (ev):

   -34.4704 -34.4697  -0.5545   1.3514   2.4746   4.2217   4.6943   6.5097
     7.1109   7.9746   8.9905   9.9224  11.5797  13.5486  14.7936

          k = 0.0000-0.6065-0.0587 (  3310 PWs)   bands (ev):

   -34.4583 -34.4580   1.4987   2.0942   3.3787   4.0984   4.6588   4.8163
     6.4759   6.4929   9.0041  10.6334  11.0062  12.6677  14.9186

          k = 0.1213-0.1213-0.0000 (  3347 PWs)   bands (ev):

   -34.5604 -34.5589  -4.2887  -2.3112  -1.1474   0.6644   4.4095   6.5308
     8.9144  13.8120  14.6478  15.8668  16.3761  16.7702  17.5582

          k = 0.1213 0.1213 0.0235 (  3339 PWs)   bands (ev):

   -34.5603 -34.5586  -4.2887  -2.3112  -1.1472   0.6638   4.4156   6.5105
     8.9465  13.6392  14.8300  15.8666  16.3939  16.7710  17.5503

          k = 0.1213 0.2426 0.0352 (  3341 PWs)   bands (ev):

   -34.5296 -34.5283  -3.4782  -1.5131  -0.3592   1.4441   5.1100   7.1416
     9.5796  11.8562  13.3294  14.0408  14.7331  15.2588  16.3116

          k = 0.1213 0.3639 0.0470 (  3324 PWs)   bands (ev):

   -34.4909 -34.4904  -2.1383  -0.1956   0.9421   2.7277   6.1995   8.0198
     8.3530   9.9741  10.6334  11.1889  12.5702  14.8419  16.4640

          k = 0.1213-0.7277-0.0587 (  3309 PWs)   bands (ev):

   -34.4597 -34.4595  -0.2895   1.6112   2.7357   4.4659   4.9451   6.7575
     7.4085   8.1708   9.1754  10.1622  11.8615  13.7677  14.9306

          k = 0.1213-0.6065-0.0470 (  3306 PWs)   bands (ev):

   -34.4479 -34.4476   1.7627   2.3507   3.6326   4.3530   4.9168   5.0670
     6.7146   6.7395   9.2568  10.8622  11.2329  12.8949  15.0856

          k = 0.1213-0.4852-0.0352 (  3313 PWs)   bands (ev):

   -34.4598 -34.4595  -0.2895   1.6123   2.7305   4.4810   4.9452   6.7496
     7.3248   8.2369   9.2736  10.1320  11.7326  13.7652  15.0455

          k = 0.1213-0.3639-0.0235 (  3320 PWs)   bands (ev):

   -34.4908 -34.4903  -2.1383  -0.1951   0.9400   2.7327   6.1674   8.0597
     8.3925   9.9939  10.5942  11.0722  12.5601  15.3096  16.2224

          k = 0.1213-0.2426-0.0117 (  3341 PWs)   bands (ev):

   -34.5295 -34.5283  -3.4782  -1.5129  -0.3599   1.4460   5.0942   7.1895
     9.5085  11.8557  13.4092  14.0505  14.8253  15.2599  16.0915

          k = 0.2426-0.2426-0.0000 (  3345 PWs)   bands (ev):

   -34.4996 -34.4992  -2.6714  -0.7185   0.4239   2.2234   5.7763   7.8729
    10.1037  12.2253  12.5403  13.2352  14.0447  15.4317  15.4910

          k = 0.2426 0.2426 0.0470 (  3332 PWs)   bands (ev):

   -34.4994 -34.4988  -2.6714  -0.7190   0.4260   2.2182   5.8140   7.7660
    10.2537  12.2032  12.5760  13.1633  14.0702  14.8740  15.8428

          k = 0.2426-0.8490-0.0587 (  3311 PWs)   bands (ev):

   -34.4623 -34.4616  -1.3378   0.5913   1.7225   3.4901   6.9174   8.6716
     9.0274  10.5988  11.2643  11.8283  12.4181  14.7472  15.5558

          k = 0.2426-0.7277-0.0470 (  3308 PWs)   bands (ev):

   -34.4323 -34.4320   0.5017   2.3871   3.5096   5.2068   5.6900   7.4739
     8.2045   8.8263   9.8122  10.7680  12.5324  14.3686  15.2694

          k = 0.2426-0.6065-0.0352 (  3305 PWs)   bands (ev):

   -34.4207 -34.4206   2.5489   3.1163   4.3882   5.1112   5.6826   5.8141
     7.4101   7.4694  10.0088  11.5174  11.9025  13.5098  15.3777

          k = 0.2426-0.4852-0.0235 (  3291 PWs)   bands (ev):

   -34.4321 -34.4315   0.5017   2.3897   3.4984   5.2369   5.6899   7.4641
     8.0415   8.9313   9.9696  10.8104  12.2403  14.3021  15.3942

          k = 0.2426-0.3639-0.0117 (  3315 PWs)   bands (ev):

   -34.4622 -34.4619  -1.3378   0.5926   1.7174   3.5021   6.8485   8.7552
     9.1057  10.6542  11.1873  11.6002  12.3819  14.9781  15.8526

          k = 0.3639-0.3639-0.0000 (  3302 PWs)   bands (ev):

   -34.4267 -34.4264  -0.0154   1.8914   2.9999   4.7635   7.9196   9.6969
    10.0935  10.1226  11.2369  11.8439  11.9576  13.4590  14.4514

          k = 0.3639-0.8490-0.0470 (  3315 PWs)   bands (ev):

   -34.4271 -34.4265  -0.0153   1.8887   3.0100   4.7408   8.0257   9.6391
    10.0016  10.1161  10.9721  11.7234  12.6197  13.6076  14.1335

          k = 0.3639-0.7277-0.0352 (  3309 PWs)   bands (ev):

   -34.3983 -34.3978   1.8068   3.6629   4.7814   6.4169   6.8947   8.5701
     9.4159   9.8184  10.6345  11.3147  13.0925  13.6813  14.3370

          k = 0.3639-0.6065-0.0235 (  3317 PWs)   bands (ev):

   -34.3874 -34.3871   3.8376   4.3759   5.6185   6.3511   6.9263   7.0367
     8.4881   8.5934  11.2287  12.3569  12.9367  13.7762  14.5519

          k = 0.3639-0.4852-0.0117 (  3304 PWs)   bands (ev):

   -34.3981 -34.3977   1.8067   3.6673   4.7632   6.4611   6.8940   8.5646
     9.2014   9.9177  10.6109  11.8389  12.5742  13.7181  14.3429

          k = 0.4852-0.4852-0.0000 (  3318 PWs)   bands (ev):

   -34.3708 -34.3704   3.5984   5.3986   6.4911   8.0477   8.2285   8.6811
     9.3369  10.2994  11.3865  11.7771  12.8223  12.9600  13.3979

          k = 0.4852-0.7277-0.0235 (  3318 PWs)   bands (ev):

   -34.3709 -34.3703   3.5986   5.3926   6.5163   7.9906   8.2315   8.6762
     9.3461  10.3786  11.5900  11.8570  12.3174  12.4881  13.9786

          k = 0.4852-0.6065-0.0117 (  3316 PWs)   bands (ev):

   -34.3600 -34.3599   5.5855   6.0793   7.2149   7.9932   8.5568   8.6435
     9.3427   9.4767  11.8389  12.4186  12.6027  13.1557  13.5516

          k =-0.6065 0.6065 0.0000 (  3316 PWs)   bands (ev):

   -34.3495 -34.3495   7.6442   7.6802   7.6805   8.3955   8.6940   9.3228
     9.9146   9.9436  11.3515  11.5911  11.8250  12.5522  12.7628

     the Fermi energy is    11.5389 ev

!    total energy              =     -62.32970913 Ry
     estimated scf accuracy    <          3.9E-11 Ry
     smearing contrib. (-TS)   =       0.00012943 Ry
     internal energy E=F+TS    =     -62.32983856 Ry

     The total energy is F=E-TS. E is the sum of the following terms:
     one-electron contribution =       7.82361293 Ry
     hartree contribution      =       6.22792661 Ry
     xc contribution           =     -20.28862839 Ry
     ewald contribution        =     -56.09274971 Ry

     convergence has been achieved in  12 iterations

     Forces acting on atoms (cartesian axes, Ry/au):

     atom    1 type  1   force =    -0.00000000   -0.00000000   -0.00011259
     atom    2 type  1   force =     0.00000000    0.00000000    0.00011259
     atom    3 type  1   force =    -0.00000000    0.00000000    0.00000000
     atom    4 type  1   force =     0.00000000    0.00000000    0.00000000
     atom    5 type  2   force =     0.00000000   -0.00000000   -0.00016807
     atom    6 type  2   force =    -0.00000000    0.00000000    0.00016807
     The non-local contrib.  to forces
     atom    1 type  1   force =     0.00000000    0.00000000   -0.05096921
     atom    2 type  1   force =     0.00000000   -0.00000000    0.05096921
     atom    3 type  1   force =     0.00000000   -0.00000000   -0.00000000
     atom    4 type  1   force =     0.00000000    0.00000000    0.00000000
     atom    5 type  2   force =    -0.00000000    0.00000000    0.02820434
     atom    6 type  2   force =     0.00000000    0.00000000   -0.02820434
     The ionic contribution  to forces
     atom    1 type  1   force =    -0.00000000   -0.00000000    0.49987230
     atom    2 type  1   force =     0.00000000    0.00000000   -0.49987230
     atom    3 type  1   force =     0.00000000   -0.00000000   -0.00000000
     atom    4 type  1   force =    -0.00000000   -0.00000000   -0.00000000
     atom    5 type  2   force =    -0.00000000    0.00000000   -0.18173806
     atom    6 type  2   force =    -0.00000000   -0.00000000    0.18173806
     The local contribution  to forces
     atom    1 type  1   force =     0.00000000   -0.00000000   -0.45025713
     atom    2 type  1   force =     0.00000000   -0.00000000    0.45025713
     atom    3 type  1   force =     0.00000000    0.00000000    0.00000000
     atom    4 type  1   force =     0.00000000    0.00000000    0.00000000
     atom    5 type  2   force =    -0.00000000   -0.00000000    0.15336862
     atom    6 type  2   force =    -0.00000000   -0.00000000   -0.15336862
     The core correction contribution to forces
     atom    1 type  1   force =     0.00000000    0.00000000    0.00122989
     atom    2 type  1   force =    -0.00000000    0.00000000   -0.00122989
     atom    3 type  1   force =     0.00000000   -0.00000000    0.00000000
     atom    4 type  1   force =     0.00000000    0.00000000    0.00000000
     atom    5 type  2   force =     0.00000000    0.00000000    0.00000000
     atom    6 type  2   force =     0.00000000    0.00000000    0.00000000
     The Hubbard contrib.    to forces
     atom    1 type  1   force =     0.00000000    0.00000000    0.00000000
     atom    2 type  1   force =     0.00000000    0.00000000    0.00000000
     atom    3 type  1   force =     0.00000000    0.00000000    0.00000000
     atom    4 type  1   force =     0.00000000    0.00000000    0.00000000
     atom    5 type  2   force =     0.00000000    0.00000000    0.00000000
     atom    6 type  2   force =     0.00000000    0.00000000    0.00000000
     The SCF correction term to forces
     atom    1 type  1   force =    -0.00000000    0.00000000    0.00001156
     atom    2 type  1   force =     0.00000000    0.00000000   -0.00001156
     atom    3 type  1   force =     0.00000000    0.00000000    0.00000000
     atom    4 type  1   force =    -0.00000000   -0.00000000   -0.00000000
     atom    5 type  2   force =    -0.00000000    0.00000000   -0.00000297
     atom    6 type  2   force =     0.00000000    0.00000000    0.00000297

     Total force =     0.000286     Total SCF correction =     0.000017


     Computing stress (Cartesian axis) and pressure

          total   stress  (Ry/bohr**3)                   (kbar)     P=      539.13
   0.00338875  -0.00000000  -0.00000000          498.50       -0.00       -0.00
  -0.00000000   0.00338875   0.00000000           -0.00      498.50        0.00
   0.00000000  -0.00000000   0.00421733            0.00       -0.00      620.39


     Writing all to output data dir ./output/SiLi.save/

     init_run     :      4.30s CPU      5.30s WALL (       2 calls)
     electrons    :    363.10s CPU    387.61s WALL (      13 calls)
     update_pot   :      3.81s CPU      3.88s WALL (      11 calls)
     forces       :      3.24s CPU      3.35s WALL (      13 calls)
     stress       :     12.12s CPU     12.66s WALL (      13 calls)

     Called by init_run:
     wfcinit      :      2.71s CPU      3.21s WALL (       2 calls)
     potinit      :      0.41s CPU      0.71s WALL (       2 calls)
     hinit0       :      1.14s CPU      1.27s WALL (       2 calls)

     Called by electrons:
     c_bands      :    309.92s CPU    330.13s WALL (     134 calls)
     sum_band     :     46.11s CPU     49.00s WALL (     134 calls)
     v_of_rho     :      7.36s CPU      8.54s WALL (     147 calls)
     mix_rho      :      0.27s CPU      0.42s WALL (     134 calls)

     Called by c_bands:
     init_us_2    :      1.38s CPU      1.57s WALL (    9176 calls)
     init_us_2:cp :      1.37s CPU      1.55s WALL (    9176 calls)
     cegterg      :    305.77s CPU    324.42s WALL (    4154 calls)

     Called by *egterg:
     cdiaghg      :      5.54s CPU      6.05s WALL (   23006 calls)
     h_psi        :    296.56s CPU    314.82s WALL (   23409 calls)
     g_psi        :      0.23s CPU      0.24s WALL (   19193 calls)

     Called by h_psi:
     h_psi:calbec :      4.11s CPU      4.40s WALL (   23409 calls)
     vloc_psi     :    289.03s CPU    306.77s WALL (   23409 calls)
     add_vuspsi   :      3.21s CPU      3.43s WALL (   23409 calls)

     General routines
     calbec       :      4.77s CPU      5.08s WALL (   25424 calls)
     fft          :      3.03s CPU      4.41s WALL (    1793 calls)
     ffts         :      0.16s CPU      0.26s WALL (     134 calls)
     fftw         :    289.46s CPU    306.96s WALL (  464802 calls)

     Parallel routines

     PWSCF        :   6m26.91s CPU   6m53.83s WALL


   This run was terminated on:  18:39:58  11Jan2025            

=------------------------------------------------------------------------------=
   JOB DONE.
=------------------------------------------------------------------------------=
