
     Program PWSCF v.7.2 starts on 11Feb2025 at 22:47:53 

     This program is part of the open-source Quantum ESPRESSO suite
     for quantum simulation of materials; please cite
         "P. Giannozzi et al., J. Phys.:Condens. Matter 21 395502 (2009);
         "P. Giannozzi et al., J. Phys.:Condens. Matter 29 465901 (2017);
         "P. Giannozzi et al., J. Chem. Phys. 152 154105 (2020);
          URL http://www.quantum-espresso.org", 
     in publications or presentations arising from this work. More details at
     http://www.quantum-espresso.org/quote

     Parallel version (MPI & OpenMP), running on       8 processor cores
     Number of MPI processes:                 8
     Threads/MPI process:                     1

     MPI processes distributed on     1 nodes
     482157 MiB available memory on the printing compute node when the environment starts

     Waiting for input...
     Reading input from standard input

     Current dimensions of program PWSCF are:
     Max number of different atomic species (ntypx) = 10
     Max number of k-points (npk) =  40000
     Max angular momentum in pseudopotentials (lmaxx) =  4

     R & G space division:  proc/nbgrp/npool/nimage =       8
     Subspace diagonalization in iterative solution of the eigenvalue problem:
     a serial algorithm will be used


     Parallelization info
     --------------------
     sticks:   dense  smooth     PW     G-vecs:    dense   smooth      PW
     Min         170     170     61                 3068     3068     647
     Max         171     171     62                 3071     3071     648
     Sum        1367    1367    489                24561    24561    5177

     Using Slab Decomposition



     bravais-lattice index     =            7
     lattice parameter (alat)  =       4.8212  a.u.
     unit-cell volume          =     253.0391 (a.u.)^3
     number of atoms/cell      =            4
     number of atomic types    =            2
     number of electrons       =        14.00
     number of Kohn-Sham states=           11
     kinetic-energy cutoff     =      80.0000  Ry
     charge density cutoff     =     320.0000  Ry
     scf convergence threshold =      1.0E-08
     mixing beta               =       0.7000
     number of iterations used =            8  plain     mixing
     energy convergence thresh.=      1.0E-04
     force convergence thresh. =      1.0E-03
     press convergence thresh. =      1.0E+00
     Exchange-correlation= PBE
                           (   1   4   3   4   0   0   0)
     nstep                     =           50


     celldm(1)=   4.821151  celldm(2)=   0.000000  celldm(3)=   4.516118
     celldm(4)=   0.000000  celldm(5)=   0.000000  celldm(6)=   0.000000

     crystal axes: (cart. coord. in units of alat)
               a(1) = (   0.500000  -0.500000   2.258059 )  
               a(2) = (   0.500000   0.500000   2.258059 )  
               a(3) = (  -0.500000  -0.500000   2.258059 )  

     reciprocal axes: (cart. coord. in units 2 pi/alat)
               b(1) = (  1.000000 -1.000000  0.000000 )  
               b(2) = (  0.000000  1.000000  0.221429 )  
               b(3) = ( -1.000000  0.000000  0.221429 )  


     PseudoPot. # 1 for Li read from file:
     ../pseudo/Li_ONCV_PBE_sr.upf
     MD5 check sum: 50ff420e78310ffa21704f3361e624a4
     Pseudo is Norm-conserving, Zval =  3.0
     Generated using ONCVPSP code by D. R. Hamann
     Using radial grid of 1944 points,  4 beta functions with: 
                l(1) =   0
                l(2) =   0
                l(3) =   1
                l(4) =   1

     PseudoPot. # 2 for Si read from file:
     ../pseudo/Si_ONCV_PBE_sr.upf
     MD5 check sum: e543d271109d17c80368dfa7c482276d
     Pseudo is Norm-conserving + core correction, Zval =  4.0
     Generated using ONCVPSP code by D. R. Hamann
     Using radial grid of 1510 points,  6 beta functions with: 
                l(1) =   0
                l(2) =   0
                l(3) =   1
                l(4) =   1
                l(5) =   2
                l(6) =   2

     atomic species   valence    mass     pseudopotential
        Li             3.00     6.94100     Li( 1.00)
        Si             4.00    28.08550     Si( 1.00)

     16 Sym. Ops., with inversion, found



   Cartesian axes

     site n.     atom                  positions (alat units)
         1           Li  tau(   1) = (   0.0000000   0.5000000   1.1290294  )
         2           Li  tau(   2) = (   0.0000000   0.5000000   3.3870883  )
         3           Si  tau(   3) = (   0.0000000   0.0000000   0.4731130  )
         4           Si  tau(   4) = (   0.0000000   0.0000000   4.0430047  )

     number of k points=   147  Marzari-Vanderbilt smearing, width (Ry)=  0.0200

     Number of k-points >= 100: set verbosity='high' to print them.

     Dense  grid:    24561 G-vectors     FFT dimensions: (  72,  72,  72)

     Estimated max dynamical RAM per process >      26.14 MB

     Estimated total dynamical RAM >     209.15 MB

     Initial potential from superposition of free atoms

     starting charge      13.9897, renormalised to      14.0000
     Starting wfcs are   12 randomized atomic wfcs

     total cpu time spent up to now is        8.1 secs

     Self-consistent Calculation

     iteration #  1     ecut=    80.00 Ry     beta= 0.70
     Davidson diagonalization with overlap
     ethr =  1.00E-02,  avg # of iterations =  6.4

     total cpu time spent up to now is       14.5 secs

     total energy              =     -44.42156734 Ry
     estimated scf accuracy    <       1.48826774 Ry

     iteration #  2     ecut=    80.00 Ry     beta= 0.70
     Davidson diagonalization with overlap
     ethr =  1.00E-02,  avg # of iterations =  3.2

     total cpu time spent up to now is       19.5 secs

     total energy              =     -44.30688081 Ry
     estimated scf accuracy    <       6.63945696 Ry

     iteration #  3     ecut=    80.00 Ry     beta= 0.70
     Davidson diagonalization with overlap
     ethr =  1.00E-02,  avg # of iterations =  2.2

     total cpu time spent up to now is       23.8 secs

     total energy              =     -45.31238319 Ry
     estimated scf accuracy    <       0.01631449 Ry

     iteration #  4     ecut=    80.00 Ry     beta= 0.70
     Davidson diagonalization with overlap
     ethr =  1.17E-04,  avg # of iterations =  5.5

     total cpu time spent up to now is       29.5 secs

     total energy              =     -45.32292782 Ry
     estimated scf accuracy    <       0.00620389 Ry

     iteration #  5     ecut=    80.00 Ry     beta= 0.70
     Davidson diagonalization with overlap
     ethr =  4.43E-05,  avg # of iterations =  2.4

     total cpu time spent up to now is       33.3 secs

     total energy              =     -45.32431522 Ry
     estimated scf accuracy    <       0.00512873 Ry

     iteration #  6     ecut=    80.00 Ry     beta= 0.70
     Davidson diagonalization with overlap
     ethr =  3.66E-05,  avg # of iterations =  1.1

     total cpu time spent up to now is       36.6 secs

     total energy              =     -45.32475061 Ry
     estimated scf accuracy    <       0.00021001 Ry

     iteration #  7     ecut=    80.00 Ry     beta= 0.70
     Davidson diagonalization with overlap
     c_bands:  1 eigenvalues not converged
     ethr =  1.50E-06,  avg # of iterations =  4.6

     total cpu time spent up to now is       40.8 secs

     total energy              =     -45.32479580 Ry
     estimated scf accuracy    <       0.00000403 Ry

     iteration #  8     ecut=    80.00 Ry     beta= 0.70
     Davidson diagonalization with overlap
     ethr =  2.88E-08,  avg # of iterations =  3.1

     total cpu time spent up to now is       44.8 secs

     total energy              =     -45.32479610 Ry
     estimated scf accuracy    <       0.00000556 Ry

     iteration #  9     ecut=    80.00 Ry     beta= 0.70
     Davidson diagonalization with overlap
     ethr =  2.88E-08,  avg # of iterations =  1.4

     total cpu time spent up to now is       48.0 secs

     total energy              =     -45.32479643 Ry
     estimated scf accuracy    <       0.00000041 Ry

     iteration # 10     ecut=    80.00 Ry     beta= 0.70
     Davidson diagonalization with overlap
     ethr =  2.96E-09,  avg # of iterations =  2.0

     total cpu time spent up to now is       51.3 secs

     End of self-consistent calculation

     Number of k-points >= 100: set verbosity='high' to print the bands.

     the Fermi energy is    10.8605 ev

!    total energy              =     -45.32479649 Ry
     estimated scf accuracy    <          8.9E-09 Ry
     smearing contrib. (-TS)   =      -0.00056170 Ry
     internal energy E=F+TS    =     -45.32423478 Ry

     The total energy is F=E-TS. E is the sum of the following terms:
     one-electron contribution =      -9.64884625 Ry
     hartree contribution      =       9.59107316 Ry
     xc contribution           =     -13.67818828 Ry
     ewald contribution        =     -31.58827341 Ry

     convergence has been achieved in  10 iterations

     Forces acting on atoms (cartesian axes, Ry/au):

     atom    1 type  1   force =     0.00000000    0.00000000    0.00000000
     atom    2 type  1   force =     0.00000000    0.00000000    0.00000000
     atom    3 type  2   force =     0.00000000    0.00000000   -0.21327621
     atom    4 type  2   force =    -0.00000000    0.00000000    0.21327621
     The non-local contrib.  to forces
     atom    1 type  1   force =     0.00000000    0.00000000    0.00000000
     atom    2 type  1   force =     0.00000000    0.00000000   -0.00000000
     atom    3 type  2   force =    -0.00000000    0.00000000   -0.31304616
     atom    4 type  2   force =     0.00000000    0.00000000    0.31304616
     The ionic contribution  to forces
     atom    1 type  1   force =     0.00000000    0.00000000    0.00000000
     atom    2 type  1   force =    -0.00000000   -0.00000000   -0.00000000
     atom    3 type  2   force =     0.00000000    0.00000000   -3.79037482
     atom    4 type  2   force =    -0.00000000   -0.00000000    3.79037482
     The local contribution  to forces
     atom    1 type  1   force =     0.00000000    0.00000000   -0.00000000
     atom    2 type  1   force =    -0.00000000    0.00000000    0.00000000
     atom    3 type  2   force =    -0.00000000   -0.00000000    3.87070969
     atom    4 type  2   force =     0.00000000    0.00000000   -3.87070969
     The core correction contribution to forces
     atom    1 type  1   force =     0.00000000    0.00000000    0.00000000
     atom    2 type  1   force =     0.00000000    0.00000000    0.00000000
     atom    3 type  2   force =     0.00000000    0.00000000    0.01957529
     atom    4 type  2   force =    -0.00000000   -0.00000000   -0.01957529
     The Hubbard contrib.    to forces
     atom    1 type  1   force =     0.00000000    0.00000000    0.00000000
     atom    2 type  1   force =     0.00000000    0.00000000    0.00000000
     atom    3 type  2   force =     0.00000000    0.00000000    0.00000000
     atom    4 type  2   force =     0.00000000    0.00000000    0.00000000
     The SCF correction term to forces
     atom    1 type  1   force =     0.00000000   -0.00000000    0.00000000
     atom    2 type  1   force =    -0.00000000    0.00000000    0.00000000
     atom    3 type  2   force =    -0.00000000   -0.00000000   -0.00014022
     atom    4 type  2   force =    -0.00000000   -0.00000000    0.00014022

     Total force =     0.301618     Total SCF correction =     0.000198


     Computing stress (Cartesian axis) and pressure

          total   stress  (Ry/bohr**3)                   (kbar)     P=      660.35
   0.00464435  -0.00000000  -0.00000000          683.21       -0.00       -0.00
   0.00000000   0.00464435   0.00000000            0.00      683.21        0.00
   0.00000000   0.00000000   0.00417823            0.00        0.00      614.64


     BFGS Geometry Optimization
     Energy error            =      0.0E+00 Ry
     Gradient error          =      2.1E-01 Ry/Bohr
     Cell gradient error     =      1.8E+02 kbar

     number of scf cycles    =   1
     number of bfgs steps    =   0

     enthalpy           new  =     -44.4647341839 Ry

     new trust radius        =       0.2132762067 bohr
ibrav =      7
 celldm(1) =      4.97126006
 celldm(3) =      4.46508110
Input lattice vectors:
     0.51556772    -0.51556772     2.30205167
     0.51556772     0.51556772     2.30205167
    -0.51556772    -0.51556772     2.30205167
New lattice vectors in INITIAL alat:
     0.51556772    -0.51556772     2.30205167
     0.51556772     0.51556772     2.30205167
    -0.51556772    -0.51556772     2.30205167
New lattice vectors in NEW alat (for information only):
     0.50000000    -0.50000000     2.23254055
     0.50000000     0.50000000     2.23254055
    -0.50000000    -0.50000000     2.23254055
Discrepancy in bohr =     0.000000    0.000000    0.000000
     new conv_thr            =       0.0000000100 Ry

     new unit-cell volume =    274.28295 a.u.^3 (    40.64454 Ang^3 )
     density =      2.86203 g/cm^3

CELL_PARAMETERS (alat=  4.82115141)
   0.515567718  -0.515567718   2.302051675
   0.515567718   0.515567718   2.302051675
  -0.515567718  -0.515567718   2.302051675

ATOMIC_POSITIONS (crystal)
Li           -0.5000000000        0.7500000000        0.2500000000
Li           -0.5000000000        1.2500000000        0.7500000000
Si            0.0000000000        0.0949655052        0.0949655052
Si           -0.0000000000        0.9050344948        0.9050344948



     Writing config-only to output data dir ./output/LiSi.save/
     NEW-OLD atomic charge density approx. for the potential
     extrapolated charge   15.08353, renormalised to   14.00000

     total cpu time spent up to now is       53.3 secs

     Self-consistent Calculation

     iteration #  1     ecut=    80.00 Ry     beta= 0.70
     Davidson diagonalization with overlap
     c_bands:  1 eigenvalues not converged
     c_bands:  1 eigenvalues not converged
     c_bands:  1 eigenvalues not converged
     c_bands:  1 eigenvalues not converged
     c_bands:  1 eigenvalues not converged
     c_bands:  1 eigenvalues not converged
     ethr =  1.00E-06,  avg # of iterations = 12.6

     total cpu time spent up to now is       65.2 secs

     total energy              =     -44.92947601 Ry
     estimated scf accuracy    <       0.58362151 Ry

     iteration #  2     ecut=    80.00 Ry     beta= 0.70
     Davidson diagonalization with overlap
     ethr =  4.17E-03,  avg # of iterations =  3.4

     total cpu time spent up to now is       69.9 secs

     total energy              =     -45.01694840 Ry
     estimated scf accuracy    <       4.72135482 Ry

     iteration #  3     ecut=    80.00 Ry     beta= 0.70
     Davidson diagonalization with overlap
     ethr =  4.17E-03,  avg # of iterations =  2.3

     total cpu time spent up to now is       73.8 secs

     total energy              =     -45.46668003 Ry
     estimated scf accuracy    <       0.19606906 Ry

     iteration #  4     ecut=    80.00 Ry     beta= 0.70
     Davidson diagonalization with overlap
     ethr =  1.40E-03,  avg # of iterations =  1.6

     total cpu time spent up to now is       77.0 secs

     total energy              =     -45.45952949 Ry
     estimated scf accuracy    <       0.07937113 Ry

     iteration #  5     ecut=    80.00 Ry     beta= 0.70
     Davidson diagonalization with overlap
     ethr =  5.67E-04,  avg # of iterations =  2.0

     total cpu time spent up to now is       80.3 secs

     total energy              =     -45.46100150 Ry
     estimated scf accuracy    <       0.01568623 Ry

     iteration #  6     ecut=    80.00 Ry     beta= 0.70
     Davidson diagonalization with overlap
     ethr =  1.12E-04,  avg # of iterations =  3.1

     total cpu time spent up to now is       84.1 secs

     total energy              =     -45.46333483 Ry
     estimated scf accuracy    <       0.00052348 Ry

     iteration #  7     ecut=    80.00 Ry     beta= 0.70
     Davidson diagonalization with overlap
     ethr =  3.74E-06,  avg # of iterations =  4.9

     total cpu time spent up to now is       88.8 secs

     total energy              =     -45.46350686 Ry
     estimated scf accuracy    <       0.00003444 Ry

     iteration #  8     ecut=    80.00 Ry     beta= 0.70
     Davidson diagonalization with overlap
     ethr =  2.46E-07,  avg # of iterations =  1.5

     total cpu time spent up to now is       92.0 secs

     total energy              =     -45.46349769 Ry
     estimated scf accuracy    <       0.00003587 Ry

     iteration #  9     ecut=    80.00 Ry     beta= 0.70
     Davidson diagonalization with overlap
     ethr =  2.46E-07,  avg # of iterations =  1.7

     total cpu time spent up to now is       95.2 secs

     total energy              =     -45.46350167 Ry
     estimated scf accuracy    <       0.00000094 Ry

     iteration # 10     ecut=    80.00 Ry     beta= 0.70
     Davidson diagonalization with overlap
     ethr =  6.69E-09,  avg # of iterations =  2.8

     total cpu time spent up to now is       98.8 secs

     total energy              =     -45.46350186 Ry
     estimated scf accuracy    <       0.00000006 Ry

     iteration # 11     ecut=    80.00 Ry     beta= 0.70
     Davidson diagonalization with overlap
     ethr =  4.56E-10,  avg # of iterations =  3.0

     total cpu time spent up to now is      102.4 secs

     End of self-consistent calculation

     Number of k-points >= 100: set verbosity='high' to print the bands.

     the Fermi energy is    10.0377 ev

!    total energy              =     -45.46350187 Ry
     estimated scf accuracy    <          4.3E-09 Ry
     smearing contrib. (-TS)   =      -0.00022771 Ry
     internal energy E=F+TS    =     -45.46327416 Ry

     The total energy is F=E-TS. E is the sum of the following terms:
     one-electron contribution =      -8.15156703 Ry
     hartree contribution      =       8.30368861 Ry
     xc contribution           =     -13.51477877 Ry
     ewald contribution        =     -32.10061697 Ry

     convergence has been achieved in  11 iterations

     Forces acting on atoms (cartesian axes, Ry/au):

     atom    1 type  1   force =    -0.00000000    0.00000000    0.00000000
     atom    2 type  1   force =     0.00000000    0.00000000   -0.00000000
     atom    3 type  2   force =    -0.00000000    0.00000000   -0.05749148
     atom    4 type  2   force =    -0.00000000    0.00000000    0.05749148
     The non-local contrib.  to forces
     atom    1 type  1   force =    -0.00000000   -0.00000000    0.00000000
     atom    2 type  1   force =     0.00000000   -0.00000000   -0.00000000
     atom    3 type  2   force =    -0.00000000    0.00000000   -0.14182184
     atom    4 type  2   force =     0.00000000    0.00000000    0.14182184
     The ionic contribution  to forces
     atom    1 type  1   force =     0.00000000   -0.00000000   -0.00000000
     atom    2 type  1   force =     0.00000000    0.00000000   -0.00000000
     atom    3 type  2   force =     0.00000000   -0.00000000   -2.40340674
     atom    4 type  2   force =    -0.00000000    0.00000000    2.40340674
     The local contribution  to forces
     atom    1 type  1   force =     0.00000000    0.00000000    0.00000000
     atom    2 type  1   force =    -0.00000000    0.00000000    0.00000000
     atom    3 type  2   force =    -0.00000000    0.00000000    2.47996409
     atom    4 type  2   force =     0.00000000   -0.00000000   -2.47996409
     The core correction contribution to forces
     atom    1 type  1   force =     0.00000000    0.00000000    0.00000000
     atom    2 type  1   force =     0.00000000    0.00000000    0.00000000
     atom    3 type  2   force =    -0.00000000   -0.00000000    0.00768692
     atom    4 type  2   force =     0.00000000    0.00000000   -0.00768692
     The Hubbard contrib.    to forces
     atom    1 type  1   force =     0.00000000    0.00000000    0.00000000
     atom    2 type  1   force =     0.00000000    0.00000000    0.00000000
     atom    3 type  2   force =     0.00000000    0.00000000    0.00000000
     atom    4 type  2   force =     0.00000000    0.00000000    0.00000000
     The SCF correction term to forces
     atom    1 type  1   force =    -0.00000000    0.00000000    0.00000000
     atom    2 type  1   force =     0.00000000   -0.00000000    0.00000000
     atom    3 type  2   force =     0.00000000   -0.00000000    0.00008609
     atom    4 type  2   force =    -0.00000000   -0.00000000   -0.00008609

     Total force =     0.081305     Total SCF correction =     0.000122


     Computing stress (Cartesian axis) and pressure

          total   stress  (Ry/bohr**3)                   (kbar)     P=      439.08
   0.00324212  -0.00000000   0.00000000          476.93       -0.00        0.00
  -0.00000000   0.00324212  -0.00000000           -0.00      476.93       -0.00
   0.00000000  -0.00000000   0.00247017            0.00       -0.00      363.37

     Energy error            =      6.6E-02 Ry
     Gradient error          =      5.7E-02 Ry/Bohr
     Cell gradient error     =      1.4E+02 kbar

     number of scf cycles    =   2
     number of bfgs steps    =   1

     enthalpy           old  =     -44.4647341839 Ry
     enthalpy           new  =     -44.5312330880 Ry

     CASE: enthalpy          _new < enthalpy          _old

     new trust radius        =       0.0989092699 bohr
ibrav =      7
 celldm(1) =      4.96736355
 celldm(3) =      4.35192471
Input lattice vectors:
     0.51516361    -0.51516361     2.24195325
     0.51516361     0.51516361     2.24195325
    -0.51516361    -0.51516361     2.24195325
New lattice vectors in INITIAL alat:
     0.51516361    -0.51516361     2.24195325
     0.51516361     0.51516361     2.24195325
    -0.51516361    -0.51516361     2.24195325
New lattice vectors in NEW alat (for information only):
     0.50000000    -0.50000000     2.17596235
     0.50000000     0.50000000     2.17596235
    -0.50000000    -0.50000000     2.17596235
Discrepancy in bohr =     0.000000    0.000000    0.000000
     new conv_thr            =       0.0000000057 Ry

     new unit-cell volume =    266.70381 a.u.^3 (    39.52143 Ang^3 )
     density =      2.94336 g/cm^3

CELL_PARAMETERS (alat=  4.82115141)
   0.515163612  -0.515163612   2.241953252
   0.515163612   0.515163612   2.241953252
  -0.515163612  -0.515163612   2.241953252

ATOMIC_POSITIONS (crystal)
Li           -0.5000000000        0.7500000000        0.2500000000
Li           -0.5000000000        1.2500000000        0.7500000000
Si           -0.0000000000        0.0905095464        0.0905095464
Si           -0.0000000000        0.9094904536        0.9094904536



     Writing config-only to output data dir ./output/LiSi.save/
     NEW-OLD atomic charge density approx. for the potential
     extrapolated charge   13.60244, renormalised to   14.00000

     total cpu time spent up to now is      104.3 secs

     Self-consistent Calculation

     iteration #  1     ecut=    80.00 Ry     beta= 0.70
     Davidson diagonalization with overlap
     c_bands:  1 eigenvalues not converged
     ethr =  1.00E-06,  avg # of iterations =  9.4

     total cpu time spent up to now is      113.2 secs

     total energy              =     -45.42660451 Ry
     estimated scf accuracy    <       0.01019244 Ry

     iteration #  2     ecut=    80.00 Ry     beta= 0.70
     Davidson diagonalization with overlap
     ethr =  7.28E-05,  avg # of iterations =  3.9

     total cpu time spent up to now is      118.1 secs

     total energy              =     -45.43450810 Ry
     estimated scf accuracy    <       0.12461762 Ry

     iteration #  3     ecut=    80.00 Ry     beta= 0.70
     Davidson diagonalization with overlap
     ethr =  7.28E-05,  avg # of iterations =  2.5

     total cpu time spent up to now is      121.9 secs

     total energy              =     -45.43959217 Ry
     estimated scf accuracy    <       0.01480873 Ry

     iteration #  4     ecut=    80.00 Ry     beta= 0.70
     Davidson diagonalization with overlap
     ethr =  7.28E-05,  avg # of iterations =  2.0

     total cpu time spent up to now is      125.2 secs

     total energy              =     -45.44022512 Ry
     estimated scf accuracy    <       0.00170480 Ry

     iteration #  5     ecut=    80.00 Ry     beta= 0.70
     Davidson diagonalization with overlap
     ethr =  1.22E-05,  avg # of iterations =  3.1

     total cpu time spent up to now is      128.9 secs

     total energy              =     -45.44053369 Ry
     estimated scf accuracy    <       0.00000707 Ry

     iteration #  6     ecut=    80.00 Ry     beta= 0.70
     Davidson diagonalization with overlap
     ethr =  5.05E-08,  avg # of iterations =  4.3

     total cpu time spent up to now is      133.2 secs

     total energy              =     -45.44054670 Ry
     estimated scf accuracy    <       0.00000024 Ry

     iteration #  7     ecut=    80.00 Ry     beta= 0.70
     Davidson diagonalization with overlap
     ethr =  1.70E-09,  avg # of iterations =  2.7

     total cpu time spent up to now is      136.9 secs

     total energy              =     -45.44054642 Ry
     estimated scf accuracy    <       0.00000172 Ry

     iteration #  8     ecut=    80.00 Ry     beta= 0.70
     Davidson diagonalization with overlap
     ethr =  1.70E-09,  avg # of iterations =  2.6

     total cpu time spent up to now is      140.5 secs

     total energy              =     -45.44054678 Ry
     estimated scf accuracy    <       0.00000006 Ry

     iteration #  9     ecut=    80.00 Ry     beta= 0.70
     Davidson diagonalization with overlap
     ethr =  4.19E-10,  avg # of iterations =  1.3

     total cpu time spent up to now is      143.6 secs

     End of self-consistent calculation

     Number of k-points >= 100: set verbosity='high' to print the bands.

     the Fermi energy is    10.4641 ev

!    total energy              =     -45.44054679 Ry
     estimated scf accuracy    <          2.1E-09 Ry
     smearing contrib. (-TS)   =      -0.00048331 Ry
     internal energy E=F+TS    =     -45.44006348 Ry

     The total energy is F=E-TS. E is the sum of the following terms:
     one-electron contribution =      -6.80946839 Ry
     hartree contribution      =       7.80818215 Ry
     xc contribution           =     -13.58284430 Ry
     ewald contribution        =     -32.85593294 Ry

     convergence has been achieved in   9 iterations

     Forces acting on atoms (cartesian axes, Ry/au):

     atom    1 type  1   force =     0.00000000   -0.00000000    0.00000000
     atom    2 type  1   force =     0.00000000    0.00000000   -0.00000000
     atom    3 type  2   force =    -0.00000000    0.00000000    0.05351629
     atom    4 type  2   force =    -0.00000000   -0.00000000   -0.05351629
     The non-local contrib.  to forces
     atom    1 type  1   force =     0.00000000    0.00000000   -0.00000000
     atom    2 type  1   force =     0.00000000   -0.00000000    0.00000000
     atom    3 type  2   force =     0.00000000   -0.00000000   -0.02972318
     atom    4 type  2   force =     0.00000000    0.00000000    0.02972318
     The ionic contribution  to forces
     atom    1 type  1   force =     0.00000000   -0.00000000   -0.00000000
     atom    2 type  1   force =     0.00000000   -0.00000000   -0.00000000
     atom    3 type  2   force =     0.00000000    0.00000000   -1.81389958
     atom    4 type  2   force =    -0.00000000   -0.00000000    1.81389958
     The local contribution  to forces
     atom    1 type  1   force =    -0.00000000    0.00000000    0.00000000
     atom    2 type  1   force =    -0.00000000   -0.00000000    0.00000000
     atom    3 type  2   force =    -0.00000000    0.00000000    1.89759231
     atom    4 type  2   force =     0.00000000   -0.00000000   -1.89759231
     The core correction contribution to forces
     atom    1 type  1   force =     0.00000000    0.00000000    0.00000000
     atom    2 type  1   force =     0.00000000    0.00000000    0.00000000
     atom    3 type  2   force =    -0.00000000   -0.00000000   -0.00039294
     atom    4 type  2   force =     0.00000000    0.00000000    0.00039294
     The Hubbard contrib.    to forces
     atom    1 type  1   force =     0.00000000    0.00000000    0.00000000
     atom    2 type  1   force =     0.00000000    0.00000000    0.00000000
     atom    3 type  2   force =     0.00000000    0.00000000    0.00000000
     atom    4 type  2   force =     0.00000000    0.00000000    0.00000000
     The SCF correction term to forces
     atom    1 type  1   force =    -0.00000000   -0.00000000   -0.00000000
     atom    2 type  1   force =    -0.00000000   -0.00000000    0.00000000
     atom    3 type  2   force =     0.00000000   -0.00000000   -0.00006032
     atom    4 type  2   force =    -0.00000000    0.00000000    0.00006032

     Total force =     0.075683     Total SCF correction =     0.000085


     Computing stress (Cartesian axis) and pressure

          total   stress  (Ry/bohr**3)                   (kbar)     P=      529.94
   0.00333513  -0.00000000  -0.00000000          490.62       -0.00       -0.00
  -0.00000000   0.00333513   0.00000000           -0.00      490.62        0.00
  -0.00000000   0.00000000   0.00413714           -0.00        0.00      608.59

     Energy error            =      2.8E-03 Ry
     Gradient error          =      5.4E-02 Ry/Bohr
     Cell gradient error     =      1.1E+02 kbar

     number of scf cycles    =   3
     number of bfgs steps    =   2

     enthalpy           old  =     -44.5312330880 Ry
     enthalpy           new  =     -44.5340389718 Ry

     CASE: enthalpy          _new < enthalpy          _old

     new trust radius        =       0.0458668685 bohr
ibrav =      7
 celldm(1) =      4.95684535
 celldm(3) =      4.41356050
Input lattice vectors:
     0.51407277    -0.51407277     2.26889129
     0.51407277     0.51407277     2.26889129
    -0.51407277    -0.51407277     2.26889129
New lattice vectors in INITIAL alat:
     0.51407277    -0.51407277     2.26889129
     0.51407277     0.51407277     2.26889129
    -0.51407277    -0.51407277     2.26889129
New lattice vectors in NEW alat (for information only):
     0.50000000    -0.50000000     2.20678025
     0.50000000     0.50000000     2.20678025
    -0.50000000    -0.50000000     2.20678025
Discrepancy in bohr =     0.000000    0.000000    0.000000
     new conv_thr            =       0.0000000028 Ry

     new unit-cell volume =    268.76654 a.u.^3 (    39.82709 Ang^3 )
     density =      2.92077 g/cm^3

CELL_PARAMETERS (alat=  4.82115141)
   0.514072774  -0.514072774   2.268891287
   0.514072774   0.514072774   2.268891287
  -0.514072774  -0.514072774   2.268891287

ATOMIC_POSITIONS (crystal)
Li           -0.5000000000        0.7500000000        0.2500000000
Li           -0.5000000000        1.2500000000        0.7500000000
Si           -0.0000000000        0.0926312845        0.0926312845
Si            0.0000000000        0.9073687155        0.9073687155



     Writing config-only to output data dir ./output/LiSi.save/
     NEW-OLD atomic charge density approx. for the potential
     extrapolated charge   14.10737, renormalised to   14.00000

     total cpu time spent up to now is      145.5 secs

     Self-consistent Calculation

     iteration #  1     ecut=    80.00 Ry     beta= 0.70
     Davidson diagonalization with overlap
     ethr =  1.00E-06,  avg # of iterations =  7.6

     total cpu time spent up to now is      152.8 secs

     total energy              =     -45.45013875 Ry
     estimated scf accuracy    <       0.00044046 Ry

     iteration #  2     ecut=    80.00 Ry     beta= 0.70
     Davidson diagonalization with overlap
     ethr =  3.15E-06,  avg # of iterations =  3.5

     total cpu time spent up to now is      157.4 secs

     total energy              =     -45.45049621 Ry
     estimated scf accuracy    <       0.00315356 Ry

     iteration #  3     ecut=    80.00 Ry     beta= 0.70
     Davidson diagonalization with overlap
     ethr =  3.15E-06,  avg # of iterations =  2.0

     total cpu time spent up to now is      160.7 secs

     total energy              =     -45.45051084 Ry
     estimated scf accuracy    <       0.00056535 Ry

     iteration #  4     ecut=    80.00 Ry     beta= 0.70
     Davidson diagonalization with overlap
     ethr =  3.15E-06,  avg # of iterations =  1.9

     total cpu time spent up to now is      164.0 secs

     total energy              =     -45.45055109 Ry
     estimated scf accuracy    <       0.00003853 Ry

     iteration #  5     ecut=    80.00 Ry     beta= 0.70
     Davidson diagonalization with overlap
     ethr =  2.75E-07,  avg # of iterations =  2.7

     total cpu time spent up to now is      167.4 secs

     total energy              =     -45.45056236 Ry
     estimated scf accuracy    <       0.00000228 Ry

     iteration #  6     ecut=    80.00 Ry     beta= 0.70
     Davidson diagonalization with overlap
     ethr =  1.63E-08,  avg # of iterations =  2.0

     total cpu time spent up to now is      170.7 secs

     total energy              =     -45.45056287 Ry
     estimated scf accuracy    <          4.6E-09 Ry

     iteration #  7     ecut=    80.00 Ry     beta= 0.70
     Davidson diagonalization with overlap
     ethr =  3.28E-11,  avg # of iterations =  4.6

     total cpu time spent up to now is      175.1 secs

     End of self-consistent calculation

     Number of k-points >= 100: set verbosity='high' to print the bands.

     the Fermi energy is    10.3471 ev

!    total energy              =     -45.45056289 Ry
     estimated scf accuracy    <          1.4E-09 Ry
     smearing contrib. (-TS)   =      -0.00022683 Ry
     internal energy E=F+TS    =     -45.45033606 Ry

     The total energy is F=E-TS. E is the sum of the following terms:
     one-electron contribution =      -7.34548990 Ry
     hartree contribution      =       8.02746740 Ry
     xc contribution           =     -13.55856154 Ry
     ewald contribution        =     -32.57375201 Ry

     convergence has been achieved in   7 iterations

     Forces acting on atoms (cartesian axes, Ry/au):

     atom    1 type  1   force =    -0.00000000   -0.00000000    0.00000000
     atom    2 type  1   force =     0.00000000    0.00000000   -0.00000000
     atom    3 type  2   force =     0.00000000    0.00000000   -0.00735635
     atom    4 type  2   force =     0.00000000   -0.00000000    0.00735635
     The non-local contrib.  to forces
     atom    1 type  1   force =    -0.00000000   -0.00000000    0.00000000
     atom    2 type  1   force =     0.00000000    0.00000000    0.00000000
     atom    3 type  2   force =    -0.00000000   -0.00000000   -0.08944422
     atom    4 type  2   force =     0.00000000    0.00000000    0.08944422
     The ionic contribution  to forces
     atom    1 type  1   force =     0.00000000   -0.00000000   -0.00000000
     atom    2 type  1   force =    -0.00000000   -0.00000000   -0.00000000
     atom    3 type  2   force =     0.00000000   -0.00000000   -2.11261630
     atom    4 type  2   force =     0.00000000   -0.00000000    2.11261630
     The local contribution  to forces
     atom    1 type  1   force =    -0.00000000    0.00000000    0.00000000
     atom    2 type  1   force =    -0.00000000    0.00000000    0.00000000
     atom    3 type  2   force =    -0.00000000   -0.00000000    2.19091878
     atom    4 type  2   force =     0.00000000    0.00000000   -2.19091878
     The core correction contribution to forces
     atom    1 type  1   force =     0.00000000    0.00000000    0.00000000
     atom    2 type  1   force =     0.00000000    0.00000000    0.00000000
     atom    3 type  2   force =     0.00000000    0.00000000    0.00383304
     atom    4 type  2   force =    -0.00000000    0.00000000   -0.00383304
     The Hubbard contrib.    to forces
     atom    1 type  1   force =     0.00000000    0.00000000    0.00000000
     atom    2 type  1   force =     0.00000000    0.00000000    0.00000000
     atom    3 type  2   force =     0.00000000    0.00000000    0.00000000
     atom    4 type  2   force =     0.00000000    0.00000000    0.00000000
     The SCF correction term to forces
     atom    1 type  1   force =     0.00000000   -0.00000000   -0.00000000
     atom    2 type  1   force =     0.00000000   -0.00000000   -0.00000000
     atom    3 type  2   force =     0.00000000   -0.00000000   -0.00004765
     atom    4 type  2   force =    -0.00000000    0.00000000    0.00004765

     Total force =     0.010403     Total SCF correction =     0.000067


     Computing stress (Cartesian axis) and pressure

          total   stress  (Ry/bohr**3)                   (kbar)     P=      491.82
   0.00337696   0.00000000   0.00000000          496.77        0.00        0.00
   0.00000000   0.00337696  -0.00000000            0.00      496.77       -0.00
   0.00000000  -0.00000000   0.00327598            0.00       -0.00      481.91

     Energy error            =      3.0E-03 Ry
     Gradient error          =      7.4E-03 Ry/Bohr
     Cell gradient error     =      1.8E+01 kbar

     number of scf cycles    =   4
     number of bfgs steps    =   3

     enthalpy           old  =     -44.5340389718 Ry
     enthalpy           new  =     -44.5370439921 Ry

     CASE: enthalpy          _new < enthalpy          _old

     new trust radius        =       0.0055486464 bohr
ibrav =      7
 celldm(1) =      4.95508471
 celldm(3) =      4.40772367
Input lattice vectors:
     0.51389018    -0.51389018     2.26508590
     0.51389018     0.51389018     2.26508590
    -0.51389018    -0.51389018     2.26508590
New lattice vectors in INITIAL alat:
     0.51389018    -0.51389018     2.26508590
     0.51389018     0.51389018     2.26508590
    -0.51389018    -0.51389018     2.26508590
New lattice vectors in NEW alat (for information only):
     0.50000000    -0.50000000     2.20386183
     0.50000000     0.50000000     2.20386183
    -0.50000000    -0.50000000     2.20386183
Discrepancy in bohr =     0.000000    0.000000    0.000000
     new conv_thr            =       0.0000000007 Ry

     new unit-cell volume =    268.12519 a.u.^3 (    39.73205 Ang^3 )
     density =      2.92776 g/cm^3

CELL_PARAMETERS (alat=  4.82115141)
   0.513890177  -0.513890177   2.265085897
   0.513890177   0.513890177   2.265085897
  -0.513890177  -0.513890177   2.265085897

ATOMIC_POSITIONS (crystal)
Li           -0.5000000000        0.7500000000        0.2500000000
Li           -0.5000000000        1.2500000000        0.7500000000
Si           -0.0000000000        0.0923776592        0.0923776592
Si            0.0000000000        0.9076223408        0.9076223408



     Writing config-only to output data dir ./output/LiSi.save/
     NEW-OLD atomic charge density approx. for the potential
     extrapolated charge   13.96654, renormalised to   14.00000

     total cpu time spent up to now is      176.9 secs

     Self-consistent Calculation

     iteration #  1     ecut=    80.00 Ry     beta= 0.70
     Davidson diagonalization with overlap
     ethr =  1.00E-06,  avg # of iterations =  3.0

     total cpu time spent up to now is      181.0 secs

     total energy              =     -45.44834647 Ry
     estimated scf accuracy    <       0.00008224 Ry

     iteration #  2     ecut=    80.00 Ry     beta= 0.70
     Davidson diagonalization with overlap
     ethr =  5.87E-07,  avg # of iterations =  3.4

     total cpu time spent up to now is      185.4 secs

     total energy              =     -45.44840953 Ry
     estimated scf accuracy    <       0.00104756 Ry

     iteration #  3     ecut=    80.00 Ry     beta= 0.70
     Davidson diagonalization with overlap
     ethr =  5.87E-07,  avg # of iterations =  2.3

     total cpu time spent up to now is      188.7 secs

     total energy              =     -45.44845274 Ry
     estimated scf accuracy    <       0.00012280 Ry

     iteration #  4     ecut=    80.00 Ry     beta= 0.70
     Davidson diagonalization with overlap
     ethr =  5.87E-07,  avg # of iterations =  1.9

     total cpu time spent up to now is      191.9 secs

     total energy              =     -45.44845904 Ry
     estimated scf accuracy    <       0.00001307 Ry

     iteration #  5     ecut=    80.00 Ry     beta= 0.70
     Davidson diagonalization with overlap
     ethr =  9.33E-08,  avg # of iterations =  2.0

     total cpu time spent up to now is      195.2 secs

     total energy              =     -45.44846126 Ry
     estimated scf accuracy    <       0.00000016 Ry

     iteration #  6     ecut=    80.00 Ry     beta= 0.70
     Davidson diagonalization with overlap
     ethr =  1.15E-09,  avg # of iterations =  4.0

     total cpu time spent up to now is      199.1 secs

     total energy              =     -45.44846140 Ry
     estimated scf accuracy    <          2.1E-09 Ry

     iteration #  7     ecut=    80.00 Ry     beta= 0.70
     Davidson diagonalization with overlap
     ethr =  1.49E-11,  avg # of iterations =  3.1

     total cpu time spent up to now is      202.9 secs

     total energy              =     -45.44846139 Ry
     estimated scf accuracy    <       0.00000004 Ry

     iteration #  8     ecut=    80.00 Ry     beta= 0.70
     Davidson diagonalization with overlap
     ethr =  1.49E-11,  avg # of iterations =  3.5

     total cpu time spent up to now is      206.7 secs

     total energy              =     -45.44846140 Ry
     estimated scf accuracy    <          9.2E-10 Ry

     iteration #  9     ecut=    80.00 Ry     beta= 0.70
     Davidson diagonalization with overlap
     ethr =  6.55E-12,  avg # of iterations =  1.0

     total cpu time spent up to now is      209.6 secs

     End of self-consistent calculation

     Number of k-points >= 100: set verbosity='high' to print the bands.

     the Fermi energy is    10.3818 ev

!    total energy              =     -45.44846140 Ry
     estimated scf accuracy    <          1.6E-10 Ry
     smearing contrib. (-TS)   =      -0.00024665 Ry
     internal energy E=F+TS    =     -45.44821475 Ry

     The total energy is F=E-TS. E is the sum of the following terms:
     one-electron contribution =      -7.25846672 Ry
     hartree contribution      =       7.99911140 Ry
     xc contribution           =     -13.56391990 Ry
     ewald contribution        =     -32.62493953 Ry

     convergence has been achieved in   9 iterations

     Forces acting on atoms (cartesian axes, Ry/au):

     atom    1 type  1   force =     0.00000000    0.00000000   -0.00000000
     atom    2 type  1   force =     0.00000000    0.00000000    0.00000000
     atom    3 type  2   force =    -0.00000000    0.00000000   -0.00080608
     atom    4 type  2   force =     0.00000000    0.00000000    0.00080608
     The non-local contrib.  to forces
     atom    1 type  1   force =    -0.00000000    0.00000000    0.00000000
     atom    2 type  1   force =    -0.00000000    0.00000000    0.00000000
     atom    3 type  2   force =    -0.00000000   -0.00000000   -0.08291746
     atom    4 type  2   force =     0.00000000   -0.00000000    0.08291746
     The ionic contribution  to forces
     atom    1 type  1   force =     0.00000000   -0.00000000   -0.00000000
     atom    2 type  1   force =     0.00000000   -0.00000000   -0.00000000
     atom    3 type  2   force =     0.00000000   -0.00000000   -2.08039902
     atom    4 type  2   force =    -0.00000000   -0.00000000    2.08039902
     The local contribution  to forces
     atom    1 type  1   force =    -0.00000000   -0.00000000    0.00000000
     atom    2 type  1   force =    -0.00000000    0.00000000    0.00000000
     atom    3 type  2   force =    -0.00000000    0.00000000    2.15916491
     atom    4 type  2   force =     0.00000000    0.00000000   -2.15916491
     The core correction contribution to forces
     atom    1 type  1   force =     0.00000000    0.00000000    0.00000000
     atom    2 type  1   force =     0.00000000    0.00000000    0.00000000
     atom    3 type  2   force =    -0.00000000   -0.00000000    0.00336271
     atom    4 type  2   force =     0.00000000    0.00000000   -0.00336271
     The Hubbard contrib.    to forces
     atom    1 type  1   force =     0.00000000    0.00000000    0.00000000
     atom    2 type  1   force =     0.00000000    0.00000000    0.00000000
     atom    3 type  2   force =     0.00000000    0.00000000    0.00000000
     atom    4 type  2   force =     0.00000000    0.00000000    0.00000000
     The SCF correction term to forces
     atom    1 type  1   force =    -0.00000000    0.00000000    0.00000000
     atom    2 type  1   force =    -0.00000000    0.00000000    0.00000000
     atom    3 type  2   force =    -0.00000000    0.00000000   -0.00001721
     atom    4 type  2   force =     0.00000000    0.00000000    0.00001721

     Total force =     0.001140     Total SCF correction =     0.000024


     Computing stress (Cartesian axis) and pressure

          total   stress  (Ry/bohr**3)                   (kbar)     P=      498.82
   0.00339198   0.00000000  -0.00000000          498.98        0.00       -0.00
   0.00000000   0.00339198  -0.00000000            0.00      498.98       -0.00
   0.00000000  -0.00000000   0.00338868            0.00       -0.00      498.49

     Energy error            =      7.8E-05 Ry
     Gradient error          =      8.1E-04 Ry/Bohr
     Cell gradient error     =      1.5E+00 kbar

     number of scf cycles    =   5
     number of bfgs steps    =   4

     enthalpy           old  =     -44.5370439921 Ry
     enthalpy           new  =     -44.5371224050 Ry

     CASE: enthalpy          _new < enthalpy          _old

     new trust radius        =       0.0007319719 bohr
ibrav =      7
 celldm(1) =      4.95423650
 celldm(3) =      4.40791223
Input lattice vectors:
     0.51380221    -0.51380221     2.26479504
     0.51380221     0.51380221     2.26479504
    -0.51380221    -0.51380221     2.26479504
New lattice vectors in INITIAL alat:
     0.51380221    -0.51380221     2.26479504
     0.51380221     0.51380221     2.26479504
    -0.51380221    -0.51380221     2.26479504
New lattice vectors in NEW alat (for information only):
     0.50000000    -0.50000000     2.20395611
     0.50000000     0.50000000     2.20395611
    -0.50000000    -0.50000000     2.20395611
Discrepancy in bohr =     0.000000    0.000000    0.000000
     new conv_thr            =            1.0E-10 Ry

     new unit-cell volume =    267.99898 a.u.^3 (    39.71335 Ang^3 )
     density =      2.92913 g/cm^3

CELL_PARAMETERS (alat=  4.82115141)
   0.513802210  -0.513802210   2.264795042
   0.513802210   0.513802210   2.264795042
  -0.513802210  -0.513802210   2.264795042

ATOMIC_POSITIONS (crystal)
Li           -0.5000000000        0.7500000000        0.2500000000
Li           -0.5000000000        1.2500000000        0.7500000000
Si           -0.0000000000        0.0923441450        0.0923441450
Si           -0.0000000000        0.9076558550        0.9076558550



     Writing config-only to output data dir ./output/LiSi.save/
     NEW-OLD atomic charge density approx. for the potential
     extrapolated charge   13.99341, renormalised to   14.00000

     total cpu time spent up to now is      211.5 secs

     Self-consistent Calculation

     iteration #  1     ecut=    80.00 Ry     beta= 0.70
     Davidson diagonalization with overlap
     ethr =  1.00E-06,  avg # of iterations =  1.0

     Threshold (ethr) on eigenvalues was too large:
     Diagonalizing with lowered threshold

     Davidson diagonalization with overlap
     ethr =  2.10E-08,  avg # of iterations =  1.7

     total cpu time spent up to now is      217.6 secs

     total energy              =     -45.44802909 Ry
     estimated scf accuracy    <       0.00000319 Ry

     iteration #  2     ecut=    80.00 Ry     beta= 0.70
     Davidson diagonalization with overlap
     ethr =  2.28E-08,  avg # of iterations =  3.2

     total cpu time spent up to now is      221.5 secs

     total energy              =     -45.44803151 Ry
     estimated scf accuracy    <       0.00004142 Ry

     iteration #  3     ecut=    80.00 Ry     beta= 0.70
     Davidson diagonalization with overlap
     ethr =  2.28E-08,  avg # of iterations =  2.2

     total cpu time spent up to now is      224.8 secs

     total energy              =     -45.44803342 Ry
     estimated scf accuracy    <       0.00000474 Ry

     iteration #  4     ecut=    80.00 Ry     beta= 0.70
     Davidson diagonalization with overlap
     ethr =  2.28E-08,  avg # of iterations =  1.7

     total cpu time spent up to now is      228.0 secs

     total energy              =     -45.44803351 Ry
     estimated scf accuracy    <       0.00000084 Ry

     iteration #  5     ecut=    80.00 Ry     beta= 0.70
     Davidson diagonalization with overlap
     ethr =  5.99E-09,  avg # of iterations =  1.9

     total cpu time spent up to now is      231.1 secs

     total energy              =     -45.44803357 Ry
     estimated scf accuracy    <       0.00000009 Ry

     iteration #  6     ecut=    80.00 Ry     beta= 0.70
     Davidson diagonalization with overlap
     ethr =  6.31E-10,  avg # of iterations =  2.7

     total cpu time spent up to now is      234.5 secs

     total energy              =     -45.44803359 Ry
     estimated scf accuracy    <          7.1E-10 Ry

     iteration #  7     ecut=    80.00 Ry     beta= 0.70
     Davidson diagonalization with overlap
     ethr =  5.08E-12,  avg # of iterations =  3.7

     total cpu time spent up to now is      238.2 secs

     End of self-consistent calculation

     Number of k-points >= 100: set verbosity='high' to print the bands.

     the Fermi energy is    10.3886 ev

!    total energy              =     -45.44803359 Ry
     estimated scf accuracy    <          9.2E-11 Ry
     smearing contrib. (-TS)   =      -0.00024872 Ry
     internal energy E=F+TS    =     -45.44778487 Ry

     The total energy is F=E-TS. E is the sum of the following terms:
     one-electron contribution =      -7.24545893 Ry
     hartree contribution      =       7.99555191 Ry
     xc contribution           =     -13.56483708 Ry
     ewald contribution        =     -32.63304077 Ry

     convergence has been achieved in   7 iterations

     Forces acting on atoms (cartesian axes, Ry/au):

     atom    1 type  1   force =     0.00000000    0.00000000   -0.00000000
     atom    2 type  1   force =    -0.00000000   -0.00000000    0.00000000
     atom    3 type  2   force =    -0.00000000    0.00000000   -0.00003034
     atom    4 type  2   force =    -0.00000000    0.00000000    0.00003034
     The non-local contrib.  to forces
     atom    1 type  1   force =    -0.00000000   -0.00000000    0.00000000
     atom    2 type  1   force =     0.00000000   -0.00000000    0.00000000
     atom    3 type  2   force =     0.00000000    0.00000000   -0.08213312
     atom    4 type  2   force =    -0.00000000    0.00000000    0.08213312
     The ionic contribution  to forces
     atom    1 type  1   force =     0.00000000   -0.00000000   -0.00000000
     atom    2 type  1   force =    -0.00000000   -0.00000000   -0.00000000
     atom    3 type  2   force =     0.00000000   -0.00000000   -2.07703939
     atom    4 type  2   force =    -0.00000000   -0.00000000    2.07703939
     The local contribution  to forces
     atom    1 type  1   force =    -0.00000000   -0.00000000    0.00000000
     atom    2 type  1   force =    -0.00000000    0.00000000    0.00000000
     atom    3 type  2   force =    -0.00000000   -0.00000000    2.15582222
     atom    4 type  2   force =     0.00000000    0.00000000   -2.15582222
     The core correction contribution to forces
     atom    1 type  1   force =     0.00000000    0.00000000    0.00000000
     atom    2 type  1   force =     0.00000000    0.00000000    0.00000000
     atom    3 type  2   force =    -0.00000000    0.00000000    0.00330724
     atom    4 type  2   force =    -0.00000000    0.00000000   -0.00330724
     The Hubbard contrib.    to forces
     atom    1 type  1   force =     0.00000000    0.00000000    0.00000000
     atom    2 type  1   force =     0.00000000    0.00000000    0.00000000
     atom    3 type  2   force =     0.00000000    0.00000000    0.00000000
     atom    4 type  2   force =     0.00000000    0.00000000    0.00000000
     The SCF correction term to forces
     atom    1 type  1   force =    -0.00000000    0.00000000    0.00000000
     atom    2 type  1   force =     0.00000000    0.00000000   -0.00000000
     atom    3 type  2   force =     0.00000000    0.00000000    0.00001269
     atom    4 type  2   force =     0.00000000   -0.00000000   -0.00001269

     Total force =     0.000043     Total SCF correction =     0.000018
     SCF correction compared to forces is large: reduce conv_thr to get better values


     Computing stress (Cartesian axis) and pressure

          total   stress  (Ry/bohr**3)                   (kbar)     P=      499.93
   0.00339720   0.00000000   0.00000000          499.74        0.00        0.00
   0.00000000   0.00339720  -0.00000000            0.00      499.74       -0.00
   0.00000000  -0.00000000   0.00340087            0.00       -0.00      500.29

     Energy error            =      1.2E-06 Ry
     Gradient error          =      3.0E-05 Ry/Bohr
     Cell gradient error     =      2.9E-01 kbar
ibrav =      7
 celldm(1) =      4.95423650
 celldm(3) =      4.40791223
Input lattice vectors:
     0.51380221    -0.51380221     2.26479504
     0.51380221     0.51380221     2.26479504
    -0.51380221    -0.51380221     2.26479504
New lattice vectors in INITIAL alat:
     0.51380221    -0.51380221     2.26479504
     0.51380221     0.51380221     2.26479504
    -0.51380221    -0.51380221     2.26479504
New lattice vectors in NEW alat (for information only):
     0.50000000    -0.50000000     2.20395611
     0.50000000     0.50000000     2.20395611
    -0.50000000    -0.50000000     2.20395611
Discrepancy in bohr =     0.000000    0.000000    0.000000

     bfgs converged in   6 scf cycles and   5 bfgs steps
     (criteria: energy <  1.0E-04 Ry, force <  1.0E-03 Ry/Bohr, cell <  1.0E+00 kbar)

     End of BFGS Geometry Optimization

     Final enthalpy           =     -44.5371235601 Ry

     File ./output/LiSi.bfgs deleted, as requested
Begin final coordinates
     new unit-cell volume =    267.99898 a.u.^3 (    39.71335 Ang^3 )
     density =      2.92913 g/cm^3

CELL_PARAMETERS (alat=  4.82115141)
   0.513802210  -0.513802210   2.264795042
   0.513802210   0.513802210   2.264795042
  -0.513802210  -0.513802210   2.264795042

ATOMIC_POSITIONS (crystal)
Li           -0.5000000000        0.7500000000        0.2500000000
Li           -0.5000000000        1.2500000000        0.7500000000
Si           -0.0000000000        0.0923441450        0.0923441450
Si           -0.0000000000        0.9076558550        0.9076558550
End final coordinates



     Writing config-only to output data dir ./output/LiSi.save/

     Final scf calculation at the relaxed structure.
     The G-vectors are recalculated for the final unit cell
     Results may differ from those at the preceding step.

     Parallelization info
     --------------------
     sticks:   dense  smooth     PW     G-vecs:    dense   smooth      PW
     Min         176     176     62                 3233     3233     681
     Max         177     177     63                 3235     3235     683
     Sum        1413    1413    501                25871    25871    5457

     Using Slab Decomposition



     bravais-lattice index     =            7
     lattice parameter (alat)  =       4.8212  a.u.
     unit-cell volume          =     267.9990 (a.u.)^3
     number of atoms/cell      =            4
     number of atomic types    =            2
     number of electrons       =        14.00
     number of Kohn-Sham states=           11
     kinetic-energy cutoff     =      80.0000  Ry
     charge density cutoff     =     320.0000  Ry
     scf convergence threshold =      1.0E-10
     mixing beta               =       0.7000
     number of iterations used =            8  plain     mixing
     press convergence thresh. =      1.0E+00
     Exchange-correlation= PBE
                           (   1   4   3   4   0   0   0)

     celldm(1)=   4.821151  celldm(2)=   0.000000  celldm(3)=   4.516118
     celldm(4)=   0.000000  celldm(5)=   0.000000  celldm(6)=   0.000000

     crystal axes: (cart. coord. in units of alat)
               a(1) = (   0.513802  -0.513802   2.264795 )  
               a(2) = (   0.513802   0.513802   2.264795 )  
               a(3) = (  -0.513802  -0.513802   2.264795 )  

     reciprocal axes: (cart. coord. in units 2 pi/alat)
               b(1) = (  0.973137 -0.973137 -0.000000 )  
               b(2) = (  0.000000  0.973137  0.220771 )  
               b(3) = ( -0.973137 -0.000000  0.220771 )  


     PseudoPot. # 1 for Li read from file:
     ../pseudo/Li_ONCV_PBE_sr.upf
     MD5 check sum: 50ff420e78310ffa21704f3361e624a4
     Pseudo is Norm-conserving, Zval =  3.0
     Generated using ONCVPSP code by D. R. Hamann
     Using radial grid of 1944 points,  4 beta functions with: 
                l(1) =   0
                l(2) =   0
                l(3) =   1
                l(4) =   1

     PseudoPot. # 2 for Si read from file:
     ../pseudo/Si_ONCV_PBE_sr.upf
     MD5 check sum: e543d271109d17c80368dfa7c482276d
     Pseudo is Norm-conserving + core correction, Zval =  4.0
     Generated using ONCVPSP code by D. R. Hamann
     Using radial grid of 1510 points,  6 beta functions with: 
                l(1) =   0
                l(2) =   0
                l(3) =   1
                l(4) =   1
                l(5) =   2
                l(6) =   2

     atomic species   valence    mass     pseudopotential
        Li             3.00     6.94100     Li( 1.00)
        Si             4.00    28.08550     Si( 1.00)

     16 Sym. Ops., with inversion, found



   Cartesian axes

     site n.     atom                  positions (alat units)
         1           Li  tau(   1) = (   0.0000000   0.5138022   1.1323975  )
         2           Li  tau(   2) = (   0.0000000   0.5138022   3.3971926  )
         3           Si  tau(   3) = (  -0.0000000  -0.0000000   0.4182811  )
         4           Si  tau(   4) = (  -0.0000000  -0.0000000   4.1113090  )

     number of k points=   147  Marzari-Vanderbilt smearing, width (Ry)=  0.0200

     Number of k-points >= 100: set verbosity='high' to print them.

     Dense  grid:    25871 G-vectors     FFT dimensions: (  72,  72,  72)

     Estimated max dynamical RAM per process >      26.84 MB

     Estimated total dynamical RAM >     214.74 MB

     Initial potential from superposition of free atoms

     starting charge      13.9897, renormalised to      14.0000
     Starting wfcs are   12 randomized atomic wfcs

     total cpu time spent up to now is      242.5 secs

     Self-consistent Calculation

     iteration #  1     ecut=    80.00 Ry     beta= 0.70
     Davidson diagonalization with overlap
     c_bands:  1 eigenvalues not converged
     c_bands:  1 eigenvalues not converged
     c_bands:  1 eigenvalues not converged
     c_bands:  1 eigenvalues not converged
     c_bands:  1 eigenvalues not converged
     c_bands:  1 eigenvalues not converged
     c_bands:  1 eigenvalues not converged
     c_bands:  1 eigenvalues not converged
     c_bands:  1 eigenvalues not converged
     c_bands:  1 eigenvalues not converged
     c_bands:  1 eigenvalues not converged
     c_bands:  1 eigenvalues not converged
     c_bands:  1 eigenvalues not converged
     c_bands:  1 eigenvalues not converged
     c_bands:  1 eigenvalues not converged
     c_bands:  1 eigenvalues not converged
     c_bands:  1 eigenvalues not converged
     c_bands:  1 eigenvalues not converged
     c_bands:  1 eigenvalues not converged
     c_bands:  1 eigenvalues not converged
     c_bands:  1 eigenvalues not converged
     c_bands:  1 eigenvalues not converged
     c_bands:  1 eigenvalues not converged
     c_bands:  1 eigenvalues not converged
     c_bands:  1 eigenvalues not converged
     c_bands:  1 eigenvalues not converged
     c_bands:  2 eigenvalues not converged
     c_bands:  1 eigenvalues not converged
     c_bands:  1 eigenvalues not converged
     c_bands:  1 eigenvalues not converged
     c_bands:  1 eigenvalues not converged
     c_bands:  1 eigenvalues not converged
     c_bands:  1 eigenvalues not converged
     c_bands:  2 eigenvalues not converged
     c_bands:  1 eigenvalues not converged
     c_bands:  1 eigenvalues not converged
     c_bands:  1 eigenvalues not converged
     c_bands:  1 eigenvalues not converged
     c_bands:  2 eigenvalues not converged
     c_bands:  1 eigenvalues not converged
     c_bands:  1 eigenvalues not converged
     c_bands:  1 eigenvalues not converged
     c_bands:  1 eigenvalues not converged
     c_bands:  1 eigenvalues not converged
     c_bands:  1 eigenvalues not converged
     c_bands:  1 eigenvalues not converged
     c_bands:  1 eigenvalues not converged
     c_bands:  1 eigenvalues not converged
     c_bands:  1 eigenvalues not converged
     c_bands:  1 eigenvalues not converged
     c_bands:  1 eigenvalues not converged
     c_bands:  1 eigenvalues not converged
     c_bands:  1 eigenvalues not converged
     c_bands:  1 eigenvalues not converged
     c_bands:  1 eigenvalues not converged
     c_bands:  1 eigenvalues not converged
     c_bands:  2 eigenvalues not converged
     c_bands:  1 eigenvalues not converged
     c_bands:  3 eigenvalues not converged
     c_bands:  2 eigenvalues not converged
     c_bands:  1 eigenvalues not converged
     c_bands:  1 eigenvalues not converged
     c_bands:  1 eigenvalues not converged
     c_bands:  1 eigenvalues not converged
     c_bands:  1 eigenvalues not converged
     c_bands:  1 eigenvalues not converged
     ethr =  1.00E-06,  avg # of iterations = 18.5

     total cpu time spent up to now is      256.6 secs

     total energy              =     -44.89436579 Ry
     estimated scf accuracy    <       0.92048592 Ry

     iteration #  2     ecut=    80.00 Ry     beta= 0.70
     Davidson diagonalization with overlap
     ethr =  6.57E-03,  avg # of iterations =  3.2

     total cpu time spent up to now is      260.8 secs

     total energy              =     -44.85643874 Ry
     estimated scf accuracy    <       3.84735581 Ry

     iteration #  3     ecut=    80.00 Ry     beta= 0.70
     Davidson diagonalization with overlap
     ethr =  6.57E-03,  avg # of iterations =  2.2

     total cpu time spent up to now is      264.5 secs

     total energy              =     -45.43973298 Ry
     estimated scf accuracy    <       0.01389271 Ry

     iteration #  4     ecut=    80.00 Ry     beta= 0.70
     Davidson diagonalization with overlap
     ethr =  9.92E-05,  avg # of iterations =  4.8

     total cpu time spent up to now is      269.1 secs

     total energy              =     -45.44765053 Ry
     estimated scf accuracy    <       0.00269930 Ry

     iteration #  5     ecut=    80.00 Ry     beta= 0.70
     Davidson diagonalization with overlap
     ethr =  1.93E-05,  avg # of iterations =  2.1

     total cpu time spent up to now is      272.3 secs

     total energy              =     -45.44803637 Ry
     estimated scf accuracy    <       0.00001069 Ry

     iteration #  6     ecut=    80.00 Ry     beta= 0.70
     Davidson diagonalization with overlap
     ethr =  7.64E-08,  avg # of iterations =  4.5

     total cpu time spent up to now is      276.7 secs

     total energy              =     -45.44804595 Ry
     estimated scf accuracy    <       0.00000250 Ry

     iteration #  7     ecut=    80.00 Ry     beta= 0.70
     Davidson diagonalization with overlap
     ethr =  1.79E-08,  avg # of iterations =  1.9

     total cpu time spent up to now is      279.9 secs

     total energy              =     -45.44804648 Ry
     estimated scf accuracy    <       0.00000017 Ry

     iteration #  8     ecut=    80.00 Ry     beta= 0.70
     Davidson diagonalization with overlap
     ethr =  1.18E-09,  avg # of iterations =  2.0

     total cpu time spent up to now is      283.1 secs

     total energy              =     -45.44804647 Ry
     estimated scf accuracy    <       0.00000008 Ry

     iteration #  9     ecut=    80.00 Ry     beta= 0.70
     Davidson diagonalization with overlap
     ethr =  5.50E-10,  avg # of iterations =  1.6

     total cpu time spent up to now is      286.2 secs

     total energy              =     -45.44804648 Ry
     estimated scf accuracy    <          8.8E-10 Ry

     iteration # 10     ecut=    80.00 Ry     beta= 0.70
     Davidson diagonalization with overlap
     ethr =  6.27E-12,  avg # of iterations =  3.3

     total cpu time spent up to now is      289.9 secs

     total energy              =     -45.44804648 Ry
     estimated scf accuracy    <          1.9E-10 Ry

     iteration # 11     ecut=    80.00 Ry     beta= 0.70
     Davidson diagonalization with overlap
     ethr =  1.37E-12,  avg # of iterations =  1.9

     total cpu time spent up to now is      293.1 secs

     End of self-consistent calculation

     Number of k-points >= 100: set verbosity='high' to print the bands.

     the Fermi energy is    10.3886 ev

!    total energy              =     -45.44804648 Ry
     estimated scf accuracy    <          6.2E-12 Ry
     smearing contrib. (-TS)   =      -0.00024872 Ry
     internal energy E=F+TS    =     -45.44779776 Ry

     The total energy is F=E-TS. E is the sum of the following terms:
     one-electron contribution =      -7.24553662 Ry
     hartree contribution      =       7.99563094 Ry
     xc contribution           =     -13.56485131 Ry
     ewald contribution        =     -32.63304077 Ry

     convergence has been achieved in  11 iterations

     Forces acting on atoms (cartesian axes, Ry/au):

     atom    1 type  1   force =     0.00000000    0.00000000    0.00000000
     atom    2 type  1   force =     0.00000000    0.00000000   -0.00000000
     atom    3 type  2   force =    -0.00000000    0.00000000   -0.00002834
     atom    4 type  2   force =     0.00000000   -0.00000000    0.00002834
     The non-local contrib.  to forces
     atom    1 type  1   force =     0.00000000    0.00000000   -0.00000000
     atom    2 type  1   force =    -0.00000000   -0.00000000    0.00000000
     atom    3 type  2   force =    -0.00000000    0.00000000   -0.08213477
     atom    4 type  2   force =     0.00000000    0.00000000    0.08213477
     The ionic contribution  to forces
     atom    1 type  1   force =     0.00000000   -0.00000000    0.00000000
     atom    2 type  1   force =    -0.00000000    0.00000000    0.00000000
     atom    3 type  2   force =     0.00000000   -0.00000000   -2.07703939
     atom    4 type  2   force =    -0.00000000   -0.00000000    2.07703939
     The local contribution  to forces
     atom    1 type  1   force =    -0.00000000   -0.00000000    0.00000000
     atom    2 type  1   force =    -0.00000000    0.00000000    0.00000000
     atom    3 type  2   force =     0.00000000    0.00000000    2.15584187
     atom    4 type  2   force =    -0.00000000    0.00000000   -2.15584187
     The core correction contribution to forces
     atom    1 type  1   force =     0.00000000    0.00000000    0.00000000
     atom    2 type  1   force =     0.00000000    0.00000000    0.00000000
     atom    3 type  2   force =     0.00000000   -0.00000000    0.00330740
     atom    4 type  2   force =     0.00000000    0.00000000   -0.00330740
     The Hubbard contrib.    to forces
     atom    1 type  1   force =     0.00000000    0.00000000    0.00000000
     atom    2 type  1   force =     0.00000000    0.00000000    0.00000000
     atom    3 type  2   force =     0.00000000    0.00000000    0.00000000
     atom    4 type  2   force =     0.00000000    0.00000000    0.00000000
     The SCF correction term to forces
     atom    1 type  1   force =     0.00000000   -0.00000000   -0.00000000
     atom    2 type  1   force =    -0.00000000    0.00000000    0.00000000
     atom    3 type  2   force =     0.00000000    0.00000000   -0.00000345
     atom    4 type  2   force =     0.00000000   -0.00000000    0.00000345

     Total force =     0.000040     Total SCF correction =     0.000005
     SCF correction compared to forces is large: reduce conv_thr to get better values


     Computing stress (Cartesian axis) and pressure

          total   stress  (Ry/bohr**3)                   (kbar)     P=      500.02
   0.00339798  -0.00000000  -0.00000000          499.86       -0.00       -0.00
  -0.00000000   0.00339798   0.00000000           -0.00      499.86        0.00
  -0.00000000   0.00000000   0.00340117           -0.00        0.00      500.33


     Writing all to output data dir ./output/LiSi.save/

     init_run     :      5.28s CPU     10.50s WALL (       2 calls)
     electrons    :    243.08s CPU    271.41s WALL (       7 calls)
     update_pot   :      1.29s CPU      1.33s WALL (       5 calls)
     forces       :      1.74s CPU      1.85s WALL (       7 calls)
     stress       :      8.69s CPU      9.06s WALL (       7 calls)

     Called by init_run:
     wfcinit      :      4.39s CPU      9.10s WALL (       2 calls)
     potinit      :      0.27s CPU      0.55s WALL (       2 calls)
     hinit0       :      0.58s CPU      0.72s WALL (       2 calls)

     Called by electrons:
     c_bands      :    208.12s CPU    231.96s WALL (      65 calls)
     sum_band     :     33.28s CPU     36.81s WALL (      65 calls)
     v_of_rho     :      1.73s CPU      2.59s WALL (      71 calls)
     mix_rho      :      0.09s CPU      0.18s WALL (      65 calls)

     Called by c_bands:
     init_us_2    :      2.10s CPU      2.37s WALL (   21462 calls)
     init_us_2:cp :      2.07s CPU      2.35s WALL (   21462 calls)
     cegterg      :    203.45s CPU    224.40s WALL (    9555 calls)

     Called by *egterg:
     cdiaghg      :      5.21s CPU      5.67s WALL (   40266 calls)
     h_psi        :    196.41s CPU    221.04s WALL (   41442 calls)
     g_psi        :      0.27s CPU      0.29s WALL (   31593 calls)

     Called by h_psi:
     h_psi:calbec :      3.75s CPU      4.21s WALL (   41442 calls)
     vloc_psi     :    189.87s CPU    213.65s WALL (   41442 calls)
     add_vuspsi   :      2.55s CPU      2.85s WALL (   41442 calls)

     General routines
     calbec       :      4.29s CPU      4.78s WALL (   46587 calls)
     fft          :      1.13s CPU      2.19s WALL (     884 calls)
     ffts         :      0.06s CPU      0.09s WALL (      65 calls)
     fftw         :    193.49s CPU    217.55s WALL (  722193 calls)

     Parallel routines

     PWSCF        :   4m20.51s CPU   4m55.32s WALL


   This run was terminated on:  22:52:48  11Feb2025            

=------------------------------------------------------------------------------=
   JOB DONE.
=------------------------------------------------------------------------------=
