
     Program PWSCF v.7.2 starts on 29Nov2024 at  0:17:56 

     This program is part of the open-source Quantum ESPRESSO suite
     for quantum simulation of materials; please cite
         "P. Giannozzi et al., J. Phys.:Condens. Matter 21 395502 (2009);
         "P. Giannozzi et al., J. Phys.:Condens. Matter 29 465901 (2017);
         "P. Giannozzi et al., J. Chem. Phys. 152 154105 (2020);
          URL http://www.quantum-espresso.org", 
     in publications or presentations arising from this work. More details at
     http://www.quantum-espresso.org/quote

     Parallel version (MPI & OpenMP), running on       8 processor cores
     Number of MPI processes:                 8
     Threads/MPI process:                     1

     MPI processes distributed on     1 nodes
     482848 MiB available memory on the printing compute node when the environment starts

     Waiting for input...
     Reading input from standard input

     Current dimensions of program PWSCF are:
     Max number of different atomic species (ntypx) = 10
     Max number of k-points (npk) =  40000
     Max angular momentum in pseudopotentials (lmaxx) =  4

     R & G space division:  proc/nbgrp/npool/nimage =       8
     Subspace diagonalization in iterative solution of the eigenvalue problem:
     a serial algorithm will be used


     Parallelization info
     --------------------
     sticks:   dense  smooth     PW     G-vecs:    dense   smooth      PW
     Min         403     403    119                 9296     9296    1493
     Max         404     404    121                 9299     9299    1494
     Sum        3229    3229    959                74377    74377   11949

     Using Slab Decomposition



     bravais-lattice index     =            5
     lattice parameter (alat)  =      18.5887  a.u.
     unit-cell volume          =     770.0164 (a.u.)^3
     number of atoms/cell      =            4
     number of atomic types    =            2
     number of electrons       =        14.00
     number of Kohn-Sham states=           11
     kinetic-energy cutoff     =      80.0000  Ry
     charge density cutoff     =     320.0000  Ry
     scf convergence threshold =      1.0E-08
     mixing beta               =       0.7000
     number of iterations used =            8  plain     mixing
     energy convergence thresh.=      1.0E-04
     force convergence thresh. =      1.0E-03
     press convergence thresh. =      1.0E+00
     Exchange-correlation= PBE
                           (   1   4   3   4   0   0   0)
     nstep                     =           50


     celldm(1)=  18.588683  celldm(2)=   0.000000  celldm(3)=   0.000000
     celldm(4)=   0.929090  celldm(5)=   0.000000  celldm(6)=   0.000000

     crystal axes: (cart. coord. in units of alat)
               a(1) = (   0.188295  -0.108712   0.976077 )  
               a(2) = (   0.000000   0.217425   0.976077 )  
               a(3) = (  -0.188295  -0.108712   0.976077 )  

     reciprocal axes: (cart. coord. in units 2 pi/alat)
               b(1) = (  2.655402 -1.533097  0.341503 )  
               b(2) = (  0.000000  3.066194  0.341503 )  
               b(3) = ( -2.655402 -1.533097  0.341503 )  


     PseudoPot. # 1 for Li read from file:
     ../pseudo/Li_ONCV_PBE_sr.upf
     MD5 check sum: 50ff420e78310ffa21704f3361e624a4
     Pseudo is Norm-conserving, Zval =  3.0
     Generated using ONCVPSP code by D. R. Hamann
     Using radial grid of 1944 points,  4 beta functions with: 
                l(1) =   0
                l(2) =   0
                l(3) =   1
                l(4) =   1

     PseudoPot. # 2 for Si read from file:
     ../pseudo/Si_ONCV_PBE_sr.upf
     MD5 check sum: e543d271109d17c80368dfa7c482276d
     Pseudo is Norm-conserving + core correction, Zval =  4.0
     Generated using ONCVPSP code by D. R. Hamann
     Using radial grid of 1510 points,  6 beta functions with: 
                l(1) =   0
                l(2) =   0
                l(3) =   1
                l(4) =   1
                l(5) =   2
                l(6) =   2

     atomic species   valence    mass     pseudopotential
        Li             3.00     6.94100     Li( 1.00)
        Si             4.00    28.08550     Si( 1.00)

     12 Sym. Ops., with inversion, found



   Cartesian axes

     site n.     atom                  positions (alat units)
         1           Li  tau(   1) = (  -0.0000000  -0.0000000   0.9364410  )
         2           Li  tau(   2) = (  -0.0000000  -0.0000000   1.9917902  )
         3           Si  tau(   3) = (  -0.0000000  -0.0000000   0.6708475  )
         4           Si  tau(   4) = (  -0.0000000  -0.0000000   2.2573837  )

     number of k points=    13  Marzari-Vanderbilt smearing, width (Ry)=  0.0200
                       cart. coord. in units 2pi/alat
        k(    1) = (   0.0000000   0.0000000   0.0000000), wk =   0.0312500
        k(    2) = (  -0.6638506  -0.3832743   0.0853758), wk =   0.1875000
        k(    3) = (   1.3277011   0.7665486  -0.1707515), wk =   0.0937500
        k(    4) = (  -0.6638506   0.3832743   0.1707515), wk =   0.1875000
        k(    5) = (   1.3277011   1.5330972  -0.0853758), wk =   0.3750000
        k(    6) = (   0.6638506   1.1498229   0.0000000), wk =   0.1875000
        k(    7) = (   1.3277011  -0.7665486  -0.3415031), wk =   0.0937500
        k(    8) = (   0.0000000   0.0000000   0.2561273), wk =   0.0625000
        k(    9) = (   1.9915517   1.1498229   0.0000000), wk =   0.1875000
        k(   10) = (   1.3277011   0.7665486   0.0853758), wk =   0.1875000
        k(   11) = (   1.9915517  -1.1498229  -0.2561273), wk =   0.1875000
        k(   12) = (   1.3277011  -1.5330972  -0.1707515), wk =   0.1875000
        k(   13) = (   0.0000000   0.0000000  -0.5122546), wk =   0.0312500

     Dense  grid:    74377 G-vectors     FFT dimensions: ( 108, 108, 108)

     Estimated max dynamical RAM per process >      31.32 MB

     Estimated total dynamical RAM >     250.55 MB

     Initial potential from superposition of free atoms

     starting charge      13.9897, renormalised to      14.0000
     Starting wfcs are   12 randomized atomic wfcs

     total cpu time spent up to now is        2.0 secs

     Self-consistent Calculation

     iteration #  1     ecut=    80.00 Ry     beta= 0.70
     Davidson diagonalization with overlap
     ethr =  1.00E-02,  avg # of iterations =  3.2

     total cpu time spent up to now is        3.7 secs

     total energy              =     -45.16146084 Ry
     estimated scf accuracy    <       0.19851505 Ry

     iteration #  2     ecut=    80.00 Ry     beta= 0.70
     Davidson diagonalization with overlap
     ethr =  1.42E-03,  avg # of iterations =  3.5

     total cpu time spent up to now is        5.3 secs

     total energy              =     -45.05462098 Ry
     estimated scf accuracy    <       2.19602870 Ry

     iteration #  3     ecut=    80.00 Ry     beta= 0.70
     Davidson diagonalization with overlap
     ethr =  1.42E-03,  avg # of iterations =  3.1

     total cpu time spent up to now is        6.7 secs

     total energy              =     -45.29519591 Ry
     estimated scf accuracy    <       0.00518312 Ry

     iteration #  4     ecut=    80.00 Ry     beta= 0.70
     Davidson diagonalization with overlap
     ethr =  3.70E-05,  avg # of iterations =  5.0

     total cpu time spent up to now is        8.6 secs

     total energy              =     -45.29605683 Ry
     estimated scf accuracy    <       0.00371243 Ry

     iteration #  5     ecut=    80.00 Ry     beta= 0.70
     Davidson diagonalization with overlap
     ethr =  2.65E-05,  avg # of iterations =  1.9

     total cpu time spent up to now is        9.9 secs

     total energy              =     -45.29659601 Ry
     estimated scf accuracy    <       0.00084848 Ry

     iteration #  6     ecut=    80.00 Ry     beta= 0.70
     Davidson diagonalization with overlap
     ethr =  6.06E-06,  avg # of iterations =  1.2

     total cpu time spent up to now is       11.1 secs

     total energy              =     -45.29672367 Ry
     estimated scf accuracy    <       0.00008125 Ry

     iteration #  7     ecut=    80.00 Ry     beta= 0.70
     Davidson diagonalization with overlap
     ethr =  5.80E-07,  avg # of iterations =  1.8

     total cpu time spent up to now is       12.3 secs

     total energy              =     -45.29672451 Ry
     estimated scf accuracy    <       0.00001809 Ry

     iteration #  8     ecut=    80.00 Ry     beta= 0.70
     Davidson diagonalization with overlap
     ethr =  1.29E-07,  avg # of iterations =  2.2

     total cpu time spent up to now is       13.7 secs

     total energy              =     -45.29672697 Ry
     estimated scf accuracy    <       0.00000050 Ry

     iteration #  9     ecut=    80.00 Ry     beta= 0.70
     Davidson diagonalization with overlap
     ethr =  3.59E-09,  avg # of iterations =  3.8

     total cpu time spent up to now is       15.2 secs

     total energy              =     -45.29672718 Ry
     estimated scf accuracy    <       0.00000044 Ry

     iteration # 10     ecut=    80.00 Ry     beta= 0.70
     Davidson diagonalization with overlap
     ethr =  3.15E-09,  avg # of iterations =  1.0

     total cpu time spent up to now is       16.3 secs

     total energy              =     -45.29672717 Ry
     estimated scf accuracy    <       0.00000008 Ry

     iteration # 11     ecut=    80.00 Ry     beta= 0.70
     Davidson diagonalization with overlap
     ethr =  6.01E-10,  avg # of iterations =  2.5

     total cpu time spent up to now is       17.6 secs

     End of self-consistent calculation

          k = 0.0000 0.0000 0.0000 (  9237 PWs)   bands (ev):

   -45.9655 -45.7978  -6.5322  -6.1174  -1.5118   0.5201   1.5922   4.5787
     4.5787   4.7591   4.7591

          k =-0.6639-0.3833 0.0854 (  9291 PWs)   bands (ev):

   -45.9437 -45.8188  -5.8621  -5.4878  -0.8120   0.8809   1.4636   1.7770
     2.6491   3.8103   3.9716

          k = 1.3277 0.7665-0.1708 (  9304 PWs)   bands (ev):

   -45.9088 -45.8530  -4.7312  -4.5745  -0.6754  -0.6654   0.9496   1.4671
     2.1532   3.2790   3.3875

          k =-0.6639 0.3833 0.1708 (  9293 PWs)   bands (ev):

   -45.9437 -45.8188  -5.8595  -5.4917  -0.7681   0.7098   1.5793   1.7907
     2.6232   3.7341   4.0721

          k = 1.3277 1.5331-0.0854 (  9322 PWs)   bands (ev):

   -45.9088 -45.8529  -4.8187  -4.5981  -0.0705   0.2219   0.7936   1.4085
     1.6684   1.8500   2.6423

          k = 0.6639 1.1498 0.0000 (  9342 PWs)   bands (ev):

   -45.9088 -45.8529  -4.8218  -4.5944   0.0115   0.2202   0.5935   1.3626
     1.6500   2.0312   2.7802

          k = 1.3277-0.7665-0.3415 (  9316 PWs)   bands (ev):

   -45.9088 -45.8530  -4.7277  -4.5776  -0.8584  -0.5185   1.3008   1.5624
     1.8225   3.0348   3.1412

          k = 0.0000 0.0000 0.2561 (  9271 PWs)   bands (ev):

   -45.9655 -45.7978  -6.5249  -6.1289  -1.3360  -0.0895   2.3132   4.5986
     4.5986   4.7349   4.7349

          k = 1.9916 1.1498 0.0000 (  9273 PWs)   bands (ev):

   -45.9437 -45.8188  -5.8529  -5.5015  -0.5517   0.1960   1.6378   1.9205
     2.9752   3.7975   3.9870

          k = 1.3277 0.7665 0.0854 (  9308 PWs)   bands (ev):

   -45.9088 -45.8530  -4.7294  -4.5761  -0.8026  -0.5553   1.0580   1.6180
     1.9274   3.1889   3.5019

          k = 1.9916-1.1498-0.2561 (  9278 PWs)   bands (ev):

   -45.9437 -45.8188  -5.8501  -5.5055  -0.4388   0.0311   1.6836   1.9097
     2.9620   3.7280   4.0809

          k = 1.3277-1.5331-0.1708 (  9324 PWs)   bands (ev):

   -45.9088 -45.8529  -4.8156  -4.6018  -0.1278   0.2176   1.0653   1.4057
     1.6349   1.7016   2.4927

          k = 0.0000 0.0000-0.5123 (  9280 PWs)   bands (ev):

   -45.9655 -45.7978  -6.5171  -6.1408  -0.8569  -0.8130   2.9904   4.6302
     4.6302   4.6991   4.6991

     the Fermi energy is     1.4876 ev

!    total energy              =     -45.29672718 Ry
     estimated scf accuracy    <          3.0E-09 Ry
     smearing contrib. (-TS)   =      -0.00501153 Ry
     internal energy E=F+TS    =     -45.29171566 Ry

     The total energy is F=E-TS. E is the sum of the following terms:
     one-electron contribution =     -21.20161770 Ry
     hartree contribution      =      10.22829508 Ry
     xc contribution           =     -12.16907082 Ry
     ewald contribution        =     -22.14932222 Ry

     convergence has been achieved in  11 iterations

     Forces acting on atoms (cartesian axes, Ry/au):

     atom    1 type  1   force =     0.00000000   -0.00000000   -0.02249096
     atom    2 type  1   force =     0.00000000    0.00000000    0.02249096
     atom    3 type  2   force =     0.00000000   -0.00000000   -0.01153748
     atom    4 type  2   force =    -0.00000000    0.00000000    0.01153748
     The non-local contrib.  to forces
     atom    1 type  1   force =     0.00000000    0.00000000    0.07616209
     atom    2 type  1   force =     0.00000000    0.00000000   -0.07616209
     atom    3 type  2   force =    -0.00000000   -0.00000000   -0.00359961
     atom    4 type  2   force =     0.00000000   -0.00000000    0.00359961
     The ionic contribution  to forces
     atom    1 type  1   force =    -0.00000000    0.00000000   -0.41614430
     atom    2 type  1   force =     0.00000000   -0.00000000    0.41614430
     atom    3 type  2   force =     0.00000000    0.00000000   -1.60374508
     atom    4 type  2   force =    -0.00000000    0.00000000    1.60374508
     The local contribution  to forces
     atom    1 type  1   force =     0.00000000   -0.00000000    0.31751282
     atom    2 type  1   force =     0.00000000    0.00000000   -0.31751282
     atom    3 type  2   force =     0.00000000   -0.00000000    1.59519651
     atom    4 type  2   force =    -0.00000000    0.00000000   -1.59519651
     The core correction contribution to forces
     atom    1 type  1   force =     0.00000000    0.00000000    0.00000000
     atom    2 type  1   force =     0.00000000    0.00000000    0.00000000
     atom    3 type  2   force =     0.00000000    0.00000000    0.00065697
     atom    4 type  2   force =    -0.00000000   -0.00000000   -0.00065697
     The Hubbard contrib.    to forces
     atom    1 type  1   force =     0.00000000    0.00000000    0.00000000
     atom    2 type  1   force =     0.00000000    0.00000000    0.00000000
     atom    3 type  2   force =     0.00000000    0.00000000    0.00000000
     atom    4 type  2   force =     0.00000000    0.00000000    0.00000000
     The SCF correction term to forces
     atom    1 type  1   force =    -0.00000000    0.00000000   -0.00002158
     atom    2 type  1   force =     0.00000000   -0.00000000    0.00002158
     atom    3 type  2   force =     0.00000000   -0.00000000   -0.00004628
     atom    4 type  2   force =    -0.00000000    0.00000000    0.00004628

     Total force =     0.035748     Total SCF correction =     0.000072


     Computing stress (Cartesian axis) and pressure

          total   stress  (Ry/bohr**3)                   (kbar)     P=      -46.38
  -0.00029429  -0.00000000   0.00000000          -43.29       -0.00        0.00
   0.00000000  -0.00029429  -0.00000000            0.00      -43.29       -0.00
  -0.00000000  -0.00000000  -0.00035730           -0.00       -0.00      -52.56


     BFGS Geometry Optimization
     Energy error            =      0.0E+00 Ry
     Gradient error          =      2.2E-02 Ry/Bohr
     Cell gradient error     =      5.5E+02 kbar

     number of scf cycles    =   1
     number of bfgs steps    =   0

     enthalpy           new  =     -42.6794946939 Ry

     new trust radius        =       0.5000000000 bohr
ibrav =      5
 celldm(1) =     16.91530573
 celldm(4) =      0.92886511
Input lattice vectors:
     0.17161591    -0.09908249     0.88813957
     0.00000000     0.19816499     0.88813957
    -0.17161591    -0.09908249     0.88813957
New lattice vectors in INITIAL alat:
     0.17161591    -0.09908249     0.88813957
     0.00000000     0.19816499     0.88813957
    -0.17161591    -0.09908249     0.88813957
New lattice vectors in NEW alat (for information only):
     0.18859333    -0.10888441     0.97600038
     0.00000000     0.21776882     0.97600038
    -0.18859333    -0.10888441     0.97600038
Discrepancy in bohr =     0.000000    0.000000    0.000000
     new conv_thr            =       0.0000000100 Ry

     new unit-cell volume =    582.01316 a.u.^3 (    86.24545 Ang^3 )
     density =      1.34878 g/cm^3

CELL_PARAMETERS (alat= 18.58868284)
   0.171615913  -0.099082493   0.888139572
   0.000000000   0.198164987   0.888139572
  -0.171615913  -0.099082493   0.888139572

ATOMIC_POSITIONS (crystal)
Li            0.3194010831        0.3194010831        0.3194010831
Li            0.6805989169        0.6805989169        0.6805989169
Si            0.2288931449        0.2288931449        0.2288931449
Si            0.7711068551        0.7711068551        0.7711068551



     Writing config-only to output data dir ./output/LiSi.save/
     NEW-OLD atomic charge density approx. for the potential
     extrapolated charge    9.48103, renormalised to   14.00000

     total cpu time spent up to now is       20.5 secs

     Self-consistent Calculation

     iteration #  1     ecut=    80.00 Ry     beta= 0.70
     Davidson diagonalization with overlap
     c_bands:  1 eigenvalues not converged
     c_bands:  1 eigenvalues not converged
     c_bands:  1 eigenvalues not converged
     c_bands:  1 eigenvalues not converged
     c_bands:  1 eigenvalues not converged
     ethr =  1.00E-06,  avg # of iterations = 17.9

     total cpu time spent up to now is       25.9 secs

     total energy              =     -31.08118155 Ry
     estimated scf accuracy    <      14.56790063 Ry

     iteration #  2     ecut=    80.00 Ry     beta= 0.70
     Davidson diagonalization with overlap
     ethr =  1.00E-02,  avg # of iterations =  9.1

     total cpu time spent up to now is       29.0 secs

     total energy              =     -35.08532684 Ry
     estimated scf accuracy    <     100.36014953 Ry

     iteration #  3     ecut=    80.00 Ry     beta= 0.70
     Davidson diagonalization with overlap
     ethr =  1.00E-02,  avg # of iterations =  5.3

     total cpu time spent up to now is       31.1 secs

     total energy              =     -46.77938146 Ry
     estimated scf accuracy    <       8.25953132 Ry

     iteration #  4     ecut=    80.00 Ry     beta= 0.70
     Davidson diagonalization with overlap
     ethr =  1.00E-02,  avg # of iterations =  1.5

     total cpu time spent up to now is       32.2 secs

     total energy              =     -45.73289341 Ry
     estimated scf accuracy    <       5.20193917 Ry

     iteration #  5     ecut=    80.00 Ry     beta= 0.70
     Davidson diagonalization with overlap
     ethr =  1.00E-02,  avg # of iterations =  2.2

     total cpu time spent up to now is       33.4 secs

     total energy              =     -45.42988742 Ry
     estimated scf accuracy    <       2.56442499 Ry

     iteration #  6     ecut=    80.00 Ry     beta= 0.70
     Davidson diagonalization with overlap
     ethr =  1.00E-02,  avg # of iterations =  1.3

     total cpu time spent up to now is       34.6 secs

     total energy              =     -45.48304699 Ry
     estimated scf accuracy    <       1.01154075 Ry

     iteration #  7     ecut=    80.00 Ry     beta= 0.70
     Davidson diagonalization with overlap
     ethr =  7.23E-03,  avg # of iterations =  1.1

     total cpu time spent up to now is       35.7 secs

     total energy              =     -45.09274038 Ry
     estimated scf accuracy    <       0.98222458 Ry

     iteration #  8     ecut=    80.00 Ry     beta= 0.70
     Davidson diagonalization with overlap
     ethr =  7.02E-03,  avg # of iterations =  2.5

     total cpu time spent up to now is       37.0 secs

     total energy              =     -45.46416569 Ry
     estimated scf accuracy    <       0.72140577 Ry

     iteration #  9     ecut=    80.00 Ry     beta= 0.70
     Davidson diagonalization with overlap
     ethr =  5.15E-03,  avg # of iterations =  1.0

     total cpu time spent up to now is       38.2 secs

     total energy              =     -45.51066185 Ry
     estimated scf accuracy    <       0.74444833 Ry

     iteration # 10     ecut=    80.00 Ry     beta= 0.70
     Davidson diagonalization with overlap
     ethr =  5.15E-03,  avg # of iterations =  1.0

     total cpu time spent up to now is       39.3 secs

     total energy              =     -45.56485020 Ry
     estimated scf accuracy    <       1.10910629 Ry

     iteration # 11     ecut=    80.00 Ry     beta= 0.70
     Davidson diagonalization with overlap
     ethr =  5.15E-03,  avg # of iterations =  1.0

     total cpu time spent up to now is       40.4 secs

     total energy              =     -45.45845185 Ry
     estimated scf accuracy    <       1.49957394 Ry

     iteration # 12     ecut=    80.00 Ry     beta= 0.70
     Davidson diagonalization with overlap
     ethr =  5.15E-03,  avg # of iterations =  1.0

     total cpu time spent up to now is       41.6 secs

     total energy              =     -45.37413683 Ry
     estimated scf accuracy    <       0.87034289 Ry

     iteration # 13     ecut=    80.00 Ry     beta= 0.70
     Davidson diagonalization with overlap
     ethr =  5.15E-03,  avg # of iterations =  1.2

     total cpu time spent up to now is       42.7 secs

     total energy              =     -45.25038254 Ry
     estimated scf accuracy    <       0.28957893 Ry

     iteration # 14     ecut=    80.00 Ry     beta= 0.70
     Davidson diagonalization with overlap
     ethr =  2.07E-03,  avg # of iterations =  2.2

     total cpu time spent up to now is       44.0 secs

     total energy              =     -45.42358500 Ry
     estimated scf accuracy    <       0.64263937 Ry

     iteration # 15     ecut=    80.00 Ry     beta= 0.70
     Davidson diagonalization with overlap
     ethr =  2.07E-03,  avg # of iterations =  1.0

     total cpu time spent up to now is       45.1 secs

     total energy              =     -45.45819523 Ry
     estimated scf accuracy    <       0.52271253 Ry

     iteration # 16     ecut=    80.00 Ry     beta= 0.70
     Davidson diagonalization with overlap
     ethr =  2.07E-03,  avg # of iterations =  1.0

     total cpu time spent up to now is       46.2 secs

     total energy              =     -45.33523732 Ry
     estimated scf accuracy    <       0.75746360 Ry

     iteration # 17     ecut=    80.00 Ry     beta= 0.70
     Davidson diagonalization with overlap
     ethr =  2.07E-03,  avg # of iterations =  1.2

     total cpu time spent up to now is       47.3 secs

     total energy              =     -45.33053490 Ry
     estimated scf accuracy    <       0.12586382 Ry

     iteration # 18     ecut=    80.00 Ry     beta= 0.70
     Davidson diagonalization with overlap
     ethr =  8.99E-04,  avg # of iterations =  2.0

     total cpu time spent up to now is       48.5 secs

     total energy              =     -45.36033358 Ry
     estimated scf accuracy    <       0.02782590 Ry

     iteration # 19     ecut=    80.00 Ry     beta= 0.70
     Davidson diagonalization with overlap
     ethr =  1.99E-04,  avg # of iterations =  2.2

     total cpu time spent up to now is       49.6 secs

     total energy              =     -45.35982735 Ry
     estimated scf accuracy    <       0.04874330 Ry

     iteration # 20     ecut=    80.00 Ry     beta= 0.70
     Davidson diagonalization with overlap
     ethr =  1.99E-04,  avg # of iterations =  1.0

     total cpu time spent up to now is       50.7 secs

     total energy              =     -45.35090813 Ry
     estimated scf accuracy    <       0.03835556 Ry

     iteration # 21     ecut=    80.00 Ry     beta= 0.70
     Davidson diagonalization with overlap
     ethr =  1.99E-04,  avg # of iterations =  1.7

     total cpu time spent up to now is       51.8 secs

     total energy              =     -45.35504380 Ry
     estimated scf accuracy    <       0.00167242 Ry

     iteration # 22     ecut=    80.00 Ry     beta= 0.70
     Davidson diagonalization with overlap
     ethr =  1.19E-05,  avg # of iterations =  2.4

     total cpu time spent up to now is       52.9 secs

     total energy              =     -45.35530509 Ry
     estimated scf accuracy    <       0.00236403 Ry

     iteration # 23     ecut=    80.00 Ry     beta= 0.70
     Davidson diagonalization with overlap
     ethr =  1.19E-05,  avg # of iterations =  1.1

     total cpu time spent up to now is       54.0 secs

     total energy              =     -45.35531908 Ry
     estimated scf accuracy    <       0.00056879 Ry

     iteration # 24     ecut=    80.00 Ry     beta= 0.70
     Davidson diagonalization with overlap
     ethr =  4.06E-06,  avg # of iterations =  1.7

     total cpu time spent up to now is       55.1 secs

     total energy              =     -45.35525424 Ry
     estimated scf accuracy    <       0.00035955 Ry

     iteration # 25     ecut=    80.00 Ry     beta= 0.70
     Davidson diagonalization with overlap
     ethr =  2.57E-06,  avg # of iterations =  1.2

     total cpu time spent up to now is       56.1 secs

     total energy              =     -45.35528701 Ry
     estimated scf accuracy    <       0.00000485 Ry

     iteration # 26     ecut=    80.00 Ry     beta= 0.70
     Davidson diagonalization with overlap
     ethr =  3.46E-08,  avg # of iterations =  3.8

     total cpu time spent up to now is       57.4 secs

     total energy              =     -45.35529063 Ry
     estimated scf accuracy    <       0.00000313 Ry

     iteration # 27     ecut=    80.00 Ry     beta= 0.70
     Davidson diagonalization with overlap
     ethr =  2.23E-08,  avg # of iterations =  1.0

     total cpu time spent up to now is       58.5 secs

     total energy              =     -45.35529055 Ry
     estimated scf accuracy    <       0.00000071 Ry

     iteration # 28     ecut=    80.00 Ry     beta= 0.70
     Davidson diagonalization with overlap
     ethr =  5.07E-09,  avg # of iterations =  1.9

     total cpu time spent up to now is       59.6 secs

     total energy              =     -45.35529067 Ry
     estimated scf accuracy    <       0.00000006 Ry

     iteration # 29     ecut=    80.00 Ry     beta= 0.70
     Davidson diagonalization with overlap
     ethr =  4.36E-10,  avg # of iterations =  1.5

     total cpu time spent up to now is       60.7 secs

     End of self-consistent calculation

          k = 0.0000 0.0000 0.0000 (  9237 PWs)   bands (ev):

   -44.4125 -44.0591  -5.8601  -5.1957  -0.5449   1.9850   3.5010   7.5315
     7.5315   7.8453   7.8453

          k =-0.7284-0.4205 0.0938 (  9291 PWs)   bands (ev):

   -44.3662 -44.1029  -4.9249  -4.2931   0.3173   2.5371   3.3974   3.5655
     4.7504   6.3390   6.5665

          k = 1.4567 0.8411-0.1877 (  9304 PWs)   bands (ev):

   -44.2920 -44.1746  -3.0290  -2.7327   0.1883   0.2122   2.4021   3.3477
     3.9045   5.6898   5.7232

          k =-0.7284 0.4205 0.1877 (  9293 PWs)   bands (ev):

   -44.3662 -44.1029  -4.9223  -4.2981   0.3726   2.3257   3.4760   3.6645
     4.6773   6.2031   6.7693

          k = 1.4567 1.6821-0.0938 (  9322 PWs)   bands (ev):

   -44.2921 -44.1745  -3.2772  -2.8209   1.2310   1.5938   2.1941   2.8308
     3.2239   3.7512   4.5755

          k = 0.7284 1.2616 0.0000 (  9342 PWs)   bands (ev):

   -44.2921 -44.1745  -3.2815  -2.8144   1.3983   1.5082   1.9739   2.7562
     3.2205   3.9803   4.8093

          k = 1.4567-0.8411-0.3753 (  9316 PWs)   bands (ev):

   -44.2920 -44.1746  -3.0132  -2.7485  -0.0434   0.4244   2.9865   3.0084
     3.7304   5.0973   5.3751

          k =-0.0000 0.0000 0.2815 (  9271 PWs)   bands (ev):

   -44.4125 -44.0591  -5.8546  -5.2076  -0.3545   1.3171   4.3618   7.5678
     7.5678   7.7951   7.7951

          k = 2.1851 1.2616 0.0000 (  9273 PWs)   bands (ev):

   -44.3662 -44.1029  -4.9160  -4.3109   0.6419   1.6583   3.4965   3.9280
     5.1988   6.3080   6.6064

          k = 1.4567 0.8411 0.0938 (  9308 PWs)   bands (ev):

   -44.2920 -44.1746  -3.0213  -2.7404   0.0281   0.3632   2.5597   3.4304
     3.6705   5.4073   5.4502

          k = 2.1851-1.2616-0.2815 (  9278 PWs)   bands (ev):

   -44.3662 -44.1029  -4.9133  -4.3160   0.7728   1.4632   3.5276   3.9460
     5.1373   6.1904   7.4506

          k = 1.4567-1.6821-0.1877 (  9324 PWs)   bands (ev):

   -44.2921 -44.1745  -3.2727  -2.8275   1.1471   1.6071   2.4400   3.0072
     3.2921   3.3108   4.3850

          k = 0.0000 0.0000-0.5630 (  9280 PWs)   bands (ev):

   -44.4125 -44.0591  -5.8490  -5.2196  -0.0207   0.6994   5.2722   7.3377
     7.6359   7.7135   7.7135

     the Fermi energy is     3.0957 ev

!    total energy              =     -45.35529067 Ry
     estimated scf accuracy    <          2.6E-09 Ry
     smearing contrib. (-TS)   =      -0.00085915 Ry
     internal energy E=F+TS    =     -45.35443152 Ry

     The total energy is F=E-TS. E is the sum of the following terms:
     one-electron contribution =     -18.19330375 Ry
     hartree contribution      =       9.61664502 Ry
     xc contribution           =     -12.40000555 Ry
     ewald contribution        =     -24.37776724 Ry

     convergence has been achieved in  29 iterations

     Forces acting on atoms (cartesian axes, Ry/au):

     atom    1 type  1   force =     0.00000000   -0.00000000   -0.00832730
     atom    2 type  1   force =    -0.00000000   -0.00000000    0.00832730
     atom    3 type  2   force =     0.00000000   -0.00000000   -0.04138081
     atom    4 type  2   force =    -0.00000000    0.00000000    0.04138081
     The non-local contrib.  to forces
     atom    1 type  1   force =    -0.00000000    0.00000000    0.09852461
     atom    2 type  1   force =     0.00000000   -0.00000000   -0.09852461
     atom    3 type  2   force =     0.00000000    0.00000000   -0.05853977
     atom    4 type  2   force =    -0.00000000    0.00000000    0.05853977
     The ionic contribution  to forces
     atom    1 type  1   force =    -0.00000000    0.00000000   -0.50180760
     atom    2 type  1   force =    -0.00000000   -0.00000000    0.50180760
     atom    3 type  2   force =     0.00000000    0.00000000   -1.91033581
     atom    4 type  2   force =    -0.00000000   -0.00000000    1.91033581
     The local contribution  to forces
     atom    1 type  1   force =     0.00000000   -0.00000000    0.39496877
     atom    2 type  1   force =     0.00000000    0.00000000   -0.39496877
     atom    3 type  2   force =     0.00000000   -0.00000000    1.92338281
     atom    4 type  2   force =    -0.00000000    0.00000000   -1.92338281
     The core correction contribution to forces
     atom    1 type  1   force =     0.00000000    0.00000000    0.00000000
     atom    2 type  1   force =     0.00000000    0.00000000    0.00000000
     atom    3 type  2   force =     0.00000000   -0.00000000    0.00417156
     atom    4 type  2   force =    -0.00000000    0.00000000   -0.00417156
     The Hubbard contrib.    to forces
     atom    1 type  1   force =     0.00000000    0.00000000    0.00000000
     atom    2 type  1   force =     0.00000000    0.00000000    0.00000000
     atom    3 type  2   force =     0.00000000    0.00000000    0.00000000
     atom    4 type  2   force =     0.00000000    0.00000000    0.00000000
     The SCF correction term to forces
     atom    1 type  1   force =     0.00000000   -0.00000000   -0.00001308
     atom    2 type  1   force =     0.00000000    0.00000000    0.00001308
     atom    3 type  2   force =     0.00000000    0.00000000   -0.00005959
     atom    4 type  2   force =    -0.00000000   -0.00000000    0.00005959

     Total force =     0.059694     Total SCF correction =     0.000086


     Computing stress (Cartesian axis) and pressure

          total   stress  (Ry/bohr**3)                   (kbar)     P=      -37.64
  -0.00031654   0.00000000   0.00000000          -46.56        0.00        0.00
   0.00000000  -0.00031654  -0.00000000            0.00      -46.56       -0.00
   0.00000000  -0.00000000  -0.00013453            0.00       -0.00      -19.79

     Energy error            =      7.0E-01 Ry
     Gradient error          =      4.1E-02 Ry/Bohr
     Cell gradient error     =      5.5E+02 kbar

     number of scf cycles    =   2
     number of bfgs steps    =   1

     enthalpy           old  =     -42.6794946939 Ry
     enthalpy           new  =     -43.3770681431 Ry

     CASE: enthalpy          _new < enthalpy          _old


     WARNING: bfgs curvature condition failed, Theta= 0.989
     new trust radius        =       0.7166062251 bohr
ibrav =      5
 celldm(1) =     14.51463996
 celldm(4) =      0.92995470
Input lattice vectors:
     0.14612756    -0.08436679     0.76238293
     0.00000000     0.16873357     0.76238293
    -0.14612756    -0.08436679     0.76238293
New lattice vectors in INITIAL alat:
     0.14612756    -0.08436679     0.76238293
     0.00000000     0.16873357     0.76238293
    -0.14612756    -0.08436679     0.76238293
New lattice vectors in NEW alat (for information only):
     0.18714339    -0.10804729     0.97637244
     0.00000000     0.21609457     0.97637244
    -0.18714339    -0.10804729     0.97637244
Discrepancy in bohr =     0.000000    0.000000    0.000000
     new conv_thr            =       0.0000000041 Ry

     new unit-cell volume =    362.22124 a.u.^3 (    53.67565 Ang^3 )
     density =      2.16720 g/cm^3

CELL_PARAMETERS (alat= 18.58868284)
   0.146127562  -0.084366787   0.762382925
   0.000000000   0.168733575   0.762382925
  -0.146127562  -0.084366787   0.762382925

ATOMIC_POSITIONS (crystal)
Li            0.3191609226        0.3191609226        0.3191609226
Li            0.6808390774        0.6808390774        0.6808390774
Si            0.2276664300        0.2276664300        0.2276664300
Si            0.7723335700        0.7723335700        0.7723335700



     Writing config-only to output data dir ./output/LiSi.save/
     NEW-OLD atomic charge density approx. for the potential

     negative rho (up, down):  1.198E-01 0.000E+00
     extrapolated charge    5.51123, renormalised to   14.00000

     total cpu time spent up to now is       63.4 secs

     Self-consistent Calculation

     iteration #  1     ecut=    80.00 Ry     beta= 0.70
     Davidson diagonalization with overlap
     c_bands:  1 eigenvalues not converged
     c_bands:  1 eigenvalues not converged
     c_bands:  1 eigenvalues not converged
     c_bands:  1 eigenvalues not converged
     c_bands:  2 eigenvalues not converged
     ethr =  1.00E-06,  avg # of iterations = 17.6

     negative rho (up, down):  5.159E-02 0.000E+00

     total cpu time spent up to now is       68.4 secs

     total energy              =     -15.54122248 Ry
     estimated scf accuracy    <      30.59534590 Ry

     iteration #  2     ecut=    80.00 Ry     beta= 0.70
     Davidson diagonalization with overlap
     ethr =  1.00E-02,  avg # of iterations = 11.3

     total cpu time spent up to now is       71.9 secs

     total energy              =     -39.21961336 Ry
     estimated scf accuracy    <     139.50784255 Ry

     iteration #  3     ecut=    80.00 Ry     beta= 0.70
     Davidson diagonalization with overlap
     ethr =  1.00E-02,  avg # of iterations =  7.7

     total cpu time spent up to now is       74.4 secs

     total energy              =     -48.58617761 Ry
     estimated scf accuracy    <      13.23880642 Ry

     iteration #  4     ecut=    80.00 Ry     beta= 0.70
     Davidson diagonalization with overlap
     ethr =  1.00E-02,  avg # of iterations =  1.2

     total cpu time spent up to now is       75.4 secs

     total energy              =     -45.66745501 Ry
     estimated scf accuracy    <       9.12816074 Ry

     iteration #  5     ecut=    80.00 Ry     beta= 0.70
     Davidson diagonalization with overlap
     ethr =  1.00E-02,  avg # of iterations =  2.3

     total cpu time spent up to now is       76.6 secs

     total energy              =     -45.12552511 Ry
     estimated scf accuracy    <       2.73431202 Ry

     iteration #  6     ecut=    80.00 Ry     beta= 0.70
     Davidson diagonalization with overlap
     ethr =  1.00E-02,  avg # of iterations =  2.2

     total cpu time spent up to now is       77.7 secs

     total energy              =     -45.26685824 Ry
     estimated scf accuracy    <       0.20684256 Ry

     iteration #  7     ecut=    80.00 Ry     beta= 0.70
     Davidson diagonalization with overlap
     ethr =  1.48E-03,  avg # of iterations =  2.9

     total cpu time spent up to now is       79.0 secs

     total energy              =     -45.29550662 Ry
     estimated scf accuracy    <       0.29033944 Ry

     iteration #  8     ecut=    80.00 Ry     beta= 0.70
     Davidson diagonalization with overlap
     ethr =  1.48E-03,  avg # of iterations =  1.8

     total cpu time spent up to now is       80.1 secs

     total energy              =     -45.46096379 Ry
     estimated scf accuracy    <       0.03814178 Ry

     iteration #  9     ecut=    80.00 Ry     beta= 0.70
     Davidson diagonalization with overlap
     ethr =  2.72E-04,  avg # of iterations =  3.8

     total cpu time spent up to now is       81.6 secs

     total energy              =     -45.05890956 Ry
     estimated scf accuracy    <       2.07755565 Ry

     iteration # 10     ecut=    80.00 Ry     beta= 0.70
     Davidson diagonalization with overlap
     ethr =  2.72E-04,  avg # of iterations =  5.1

     total cpu time spent up to now is       83.2 secs

     total energy              =     -45.33781645 Ry
     estimated scf accuracy    <       0.02523736 Ry

     iteration # 11     ecut=    80.00 Ry     beta= 0.70
     Davidson diagonalization with overlap
     ethr =  1.80E-04,  avg # of iterations =  1.1

     total cpu time spent up to now is       84.2 secs

     total energy              =     -45.33566234 Ry
     estimated scf accuracy    <       0.00869529 Ry

     iteration # 12     ecut=    80.00 Ry     beta= 0.70
     Davidson diagonalization with overlap
     ethr =  6.21E-05,  avg # of iterations =  1.9

     total cpu time spent up to now is       85.3 secs

     total energy              =     -45.33749356 Ry
     estimated scf accuracy    <       0.00099385 Ry

     iteration # 13     ecut=    80.00 Ry     beta= 0.70
     Davidson diagonalization with overlap
     ethr =  7.10E-06,  avg # of iterations =  2.8

     total cpu time spent up to now is       86.3 secs

     total energy              =     -45.33734222 Ry
     estimated scf accuracy    <       0.00060079 Ry

     iteration # 14     ecut=    80.00 Ry     beta= 0.70
     Davidson diagonalization with overlap
     ethr =  4.29E-06,  avg # of iterations =  1.6

     total cpu time spent up to now is       87.4 secs

     total energy              =     -45.33741896 Ry
     estimated scf accuracy    <       0.00000180 Ry

     iteration # 15     ecut=    80.00 Ry     beta= 0.70
     Davidson diagonalization with overlap
     ethr =  1.29E-08,  avg # of iterations =  3.6

     total cpu time spent up to now is       88.6 secs

     total energy              =     -45.33742113 Ry
     estimated scf accuracy    <       0.00000065 Ry

     iteration # 16     ecut=    80.00 Ry     beta= 0.70
     Davidson diagonalization with overlap
     ethr =  4.66E-09,  avg # of iterations =  1.1

     total cpu time spent up to now is       89.6 secs

     total energy              =     -45.33742089 Ry
     estimated scf accuracy    <       0.00000080 Ry

     iteration # 17     ecut=    80.00 Ry     beta= 0.70
     Davidson diagonalization with overlap
     ethr =  4.66E-09,  avg # of iterations =  1.8

     total cpu time spent up to now is       90.7 secs

     total energy              =     -45.33742104 Ry
     estimated scf accuracy    <       0.00000006 Ry

     iteration # 18     ecut=    80.00 Ry     beta= 0.70
     Davidson diagonalization with overlap
     ethr =  4.54E-10,  avg # of iterations =  1.2

     total cpu time spent up to now is       91.7 secs

     total energy              =     -45.33742104 Ry
     estimated scf accuracy    <       0.00000003 Ry

     iteration # 19     ecut=    80.00 Ry     beta= 0.70
     Davidson diagonalization with overlap
     ethr =  2.01E-10,  avg # of iterations =  1.9

     total cpu time spent up to now is       92.8 secs

     End of self-consistent calculation

          k = 0.0000 0.0000 0.0000 (  9237 PWs)   bands (ev):

   -41.2260 -40.0982  -4.4948  -3.1625   1.8010   5.5160   8.2398  15.5283
    15.5283  15.9603  16.4097

          k =-0.8554-0.4939 0.1093 (  9291 PWs)   bands (ev):

   -41.0750 -40.2354  -3.0703  -1.7508   2.9907   6.5075   7.9657   8.2920
     9.7727  12.3142  12.6839

          k = 1.7108 0.9878-0.2186 (  9304 PWs)   bands (ev):

   -40.8343 -40.4621   0.7204   1.3536   2.5451   2.5585   5.8300   7.5719
     8.0487  10.6471  11.2108

          k =-0.8554 0.4939 0.2186 (  9293 PWs)   bands (ev):

   -41.0750 -40.2354  -3.0746  -1.7439   3.0114   6.3467   7.9783   8.5261
     9.5515  12.0325  13.2370

          k = 1.7108 1.9755-0.1093 (  9322 PWs)   bands (ev):

   -40.8355 -40.4609  -0.2779   0.9714   4.8133   5.4521   5.6418   6.2051
     6.8913   8.1610   9.3195

          k = 0.8554 1.4816 0.0000 (  9342 PWs)   bands (ev):

   -40.8355 -40.4609  -0.2802   0.9867   4.9620   5.1440   5.6132   6.1326
     6.9018   8.7399   9.5231

          k = 1.7108-0.9878-0.4372 (  9316 PWs)   bands (ev):

   -40.8343 -40.4621   0.7863   1.2658   2.2431   2.8974   6.1595   6.9463
     8.5226   9.9554  13.4729

          k =-0.0000 0.0000 0.3279 (  9271 PWs)   bands (ev):

   -41.2260 -40.0982  -4.5078  -3.1416   1.8746   5.0132   9.2339  13.8126
    14.8194  14.8197  15.3479

          k = 2.5663 1.4816 0.0000 (  9273 PWs)   bands (ev):

   -41.0750 -40.2354  -3.0809  -1.7404   3.2032   5.6058   7.9746   9.0470
    10.4653  12.1030  12.2217

          k = 1.7108 0.9878 0.1093 (  9308 PWs)   bands (ev):

   -40.8343 -40.4621   0.7517   1.3084   2.3494   2.7711   6.0126   7.1346
     8.4068  10.2731  10.8453

          k = 2.5663-1.4816-0.3279 (  9278 PWs)   bands (ev):

   -41.0750 -40.2354  -3.0852  -1.7336   3.2328   5.5074   8.0031   9.1305
    10.1969  11.9999  13.3388

          k = 1.7108-1.9755-0.2186 (  9324 PWs)   bands (ev):

   -40.8355 -40.4609  -0.2756   0.9562   4.7734   5.5614   5.6616   6.6188
     7.0193   7.1940   9.2967

          k = 0.0000-0.0000-0.6558 (  9280 PWs)   bands (ev):

   -41.2260 -40.0982  -4.5204  -3.1211   1.9592   4.6232  10.7762  11.9266
    15.0601  18.5703  18.9018

     the Fermi energy is     6.7839 ev

!    total energy              =     -45.33742104 Ry
     estimated scf accuracy    <          2.5E-09 Ry
     smearing contrib. (-TS)   =      -0.00018753 Ry
     internal energy E=F+TS    =     -45.33723351 Ry

     The total energy is F=E-TS. E is the sum of the following terms:
     one-electron contribution =     -12.27880305 Ry
     hartree contribution      =       8.73460256 Ry
     xc contribution           =     -12.98437971 Ry
     ewald contribution        =     -28.80865331 Ry

     convergence has been achieved in  19 iterations

     Forces acting on atoms (cartesian axes, Ry/au):

     atom    1 type  1   force =    -0.00000000   -0.00000000    0.03781964
     atom    2 type  1   force =     0.00000000    0.00000000   -0.03781964
     atom    3 type  2   force =    -0.00000000    0.00000000   -0.11532962
     atom    4 type  2   force =     0.00000000    0.00000000    0.11532962
     The non-local contrib.  to forces
     atom    1 type  1   force =     0.00000000   -0.00000000    0.15713556
     atom    2 type  1   force =    -0.00000000    0.00000000   -0.15713556
     atom    3 type  2   force =    -0.00000000    0.00000000   -0.17303704
     atom    4 type  2   force =     0.00000000   -0.00000000    0.17303704
     The ionic contribution  to forces
     atom    1 type  1   force =    -0.00000000    0.00000000   -0.73674105
     atom    2 type  1   force =    -0.00000000   -0.00000000    0.73674105
     atom    3 type  2   force =    -0.00000000    0.00000000   -2.41573055
     atom    4 type  2   force =    -0.00000000    0.00000000    2.41573055
     The local contribution  to forces
     atom    1 type  1   force =     0.00000000   -0.00000000    0.61740388
     atom    2 type  1   force =     0.00000000    0.00000000   -0.61740388
     atom    3 type  2   force =    -0.00000000   -0.00000000    2.46194036
     atom    4 type  2   force =     0.00000000    0.00000000   -2.46194036
     The core correction contribution to forces
     atom    1 type  1   force =     0.00000000    0.00000000    0.00000000
     atom    2 type  1   force =     0.00000000    0.00000000    0.00000000
     atom    3 type  2   force =     0.00000000   -0.00000000    0.01143019
     atom    4 type  2   force =     0.00000000    0.00000000   -0.01143019
     The Hubbard contrib.    to forces
     atom    1 type  1   force =     0.00000000    0.00000000    0.00000000
     atom    2 type  1   force =     0.00000000    0.00000000    0.00000000
     atom    3 type  2   force =     0.00000000    0.00000000    0.00000000
     atom    4 type  2   force =     0.00000000    0.00000000    0.00000000
     The SCF correction term to forces
     atom    1 type  1   force =    -0.00000000   -0.00000000    0.00002125
     atom    2 type  1   force =     0.00000000    0.00000000   -0.00002125
     atom    3 type  2   force =    -0.00000000    0.00000000    0.00006742
     atom    4 type  2   force =     0.00000000    0.00000000   -0.00006742

     Total force =     0.171646     Total SCF correction =     0.000100


     Computing stress (Cartesian axis) and pressure

          total   stress  (Ry/bohr**3)                   (kbar)     P=      140.92
   0.00056661   0.00000000   0.00000000           83.35        0.00        0.00
   0.00000000   0.00056661   0.00000000            0.00       83.35        0.00
  -0.00000000   0.00000000   0.00174055           -0.00        0.00      256.04

     Energy error            =      7.3E-01 Ry
     Gradient error          =      1.2E-01 Ry/Bohr
     Cell gradient error     =      4.2E+02 kbar

     number of scf cycles    =   3
     number of bfgs steps    =   2

     enthalpy           old  =     -43.3770681431 Ry
     enthalpy           new  =     -44.1062560605 Ry

     CASE: enthalpy          _new < enthalpy          _old

     new trust radius        =       0.7533160075 bohr
ibrav =      5
 celldm(1) =     12.34498690
 celldm(4) =      0.93770400
Input lattice vectors:
     0.11720796    -0.06767004     0.65017629
    -0.00000000     0.13534009     0.65017629
    -0.11720796    -0.06767004     0.65017629
New lattice vectors in INITIAL alat:
     0.11720796    -0.06767004     0.65017629
     0.00000000     0.13534009     0.65017629
    -0.11720796    -0.06767004     0.65017629
New lattice vectors in NEW alat (for information only):
     0.17648796    -0.10189537     0.97901447
     0.00000000     0.20379074     0.97901447
    -0.17648796    -0.10189537     0.97901447
Discrepancy in bohr =     0.000000    0.000000    0.000000
     new conv_thr            =       0.0000000100 Ry

     new unit-cell volume =    198.73840 a.u.^3 (    29.44999 Ang^3 )
     density =      3.94994 g/cm^3

CELL_PARAMETERS (alat= 18.58868284)
   0.117207955  -0.067670045   0.650176289
   0.000000000   0.135340089   0.650176289
  -0.117207955  -0.067670045   0.650176289

ATOMIC_POSITIONS (crystal)
Li            0.3201040416        0.3201040416        0.3201040416
Li            0.6798959584        0.6798959584        0.6798959584
Si            0.2237965774        0.2237965774        0.2237965774
Si            0.7762034226        0.7762034226        0.7762034226



     Writing config-only to output data dir ./output/LiSi.save/
     NEW-OLD atomic charge density approx. for the potential

     negative rho (up, down):  8.955E-01 0.000E+00
     extrapolated charge    2.49207, renormalised to   14.00000

     total cpu time spent up to now is       95.3 secs

     Self-consistent Calculation

     iteration #  1     ecut=    80.00 Ry     beta= 0.70
     Davidson diagonalization with overlap
     c_bands:  3 eigenvalues not converged
     c_bands:  1 eigenvalues not converged
     c_bands:  1 eigenvalues not converged
     c_bands:  2 eigenvalues not converged
     c_bands:  1 eigenvalues not converged
     c_bands:  1 eigenvalues not converged
     c_bands:  1 eigenvalues not converged
     c_bands:  1 eigenvalues not converged
     c_bands:  2 eigenvalues not converged
     ethr =  1.00E-06,  avg # of iterations = 19.2

     negative rho (up, down):  9.052E-01 0.000E+00

     total cpu time spent up to now is      100.5 secs

     total energy              =       4.21610473 Ry
     estimated scf accuracy    <      66.55715629 Ry

     iteration #  2     ecut=    80.00 Ry     beta= 0.70
     Davidson diagonalization with overlap
     ethr =  1.00E-02,  avg # of iterations = 13.5

     negative rho (up, down):  2.678E-01 0.000E+00

     total cpu time spent up to now is      104.3 secs

     total energy              =     -37.06959576 Ry
     estimated scf accuracy    <     189.15623809 Ry

     iteration #  3     ecut=    80.00 Ry     beta= 0.70
     Davidson diagonalization with overlap
     ethr =  1.00E-02,  avg # of iterations =  7.5

     negative rho (up, down):  1.067E-02 0.000E+00

     total cpu time spent up to now is      106.8 secs

     total energy              =     -46.73143892 Ry
     estimated scf accuracy    <      14.98839017 Ry

     iteration #  4     ecut=    80.00 Ry     beta= 0.70
     Davidson diagonalization with overlap
     ethr =  1.00E-02,  avg # of iterations =  2.1

     total cpu time spent up to now is      108.0 secs

     total energy              =     -43.16255889 Ry
     estimated scf accuracy    <       6.54392858 Ry

     iteration #  5     ecut=    80.00 Ry     beta= 0.70
     Davidson diagonalization with overlap
     ethr =  1.00E-02,  avg # of iterations =  3.6

     total cpu time spent up to now is      109.5 secs

     total energy              =     -44.24133136 Ry
     estimated scf accuracy    <       3.57930769 Ry

     iteration #  6     ecut=    80.00 Ry     beta= 0.70
     Davidson diagonalization with overlap
     ethr =  1.00E-02,  avg # of iterations =  2.1

     total cpu time spent up to now is      110.6 secs

     total energy              =     -44.87688964 Ry
     estimated scf accuracy    <       0.13096487 Ry

     iteration #  7     ecut=    80.00 Ry     beta= 0.70
     Davidson diagonalization with overlap
     ethr =  9.35E-04,  avg # of iterations =  2.0
     Minimization algorithm failed to find Fermi energy: reverting to bisection
     Possible cause: smearing is larger than the electronic band-gap.

     total cpu time spent up to now is      111.6 secs

     total energy              =     -44.90420096 Ry
     estimated scf accuracy    <       0.00805998 Ry

     iteration #  8     ecut=    80.00 Ry     beta= 0.70
     Davidson diagonalization with overlap
     ethr =  5.76E-05,  avg # of iterations =  5.5
     Minimization algorithm failed to find Fermi energy: reverting to bisection
     Possible cause: smearing is larger than the electronic band-gap.

     total cpu time spent up to now is      113.0 secs

     total energy              =     -44.89962019 Ry
     estimated scf accuracy    <       0.01530679 Ry

     iteration #  9     ecut=    80.00 Ry     beta= 0.70
     Davidson diagonalization with overlap
     ethr =  5.76E-05,  avg # of iterations =  3.5

     total cpu time spent up to now is      114.2 secs

     total energy              =     -44.90261783 Ry
     estimated scf accuracy    <       0.00177534 Ry

     iteration # 10     ecut=    80.00 Ry     beta= 0.70
     Davidson diagonalization with overlap
     ethr =  1.27E-05,  avg # of iterations =  3.2

     total cpu time spent up to now is      115.3 secs

     total energy              =     -44.90291820 Ry
     estimated scf accuracy    <       0.00001142 Ry

     iteration # 11     ecut=    80.00 Ry     beta= 0.70
     Davidson diagonalization with overlap
     ethr =  8.16E-08,  avg # of iterations =  4.1

     total cpu time spent up to now is      116.6 secs

     total energy              =     -44.90292132 Ry
     estimated scf accuracy    <       0.00000310 Ry

     iteration # 12     ecut=    80.00 Ry     beta= 0.70
     Davidson diagonalization with overlap
     ethr =  2.21E-08,  avg # of iterations =  1.6

     total cpu time spent up to now is      117.6 secs

     total energy              =     -44.90292183 Ry
     estimated scf accuracy    <       0.00000035 Ry

     iteration # 13     ecut=    80.00 Ry     beta= 0.70
     Davidson diagonalization with overlap
     ethr =  2.49E-09,  avg # of iterations =  1.8

     total cpu time spent up to now is      118.7 secs

     total energy              =     -44.90292188 Ry
     estimated scf accuracy    <       0.00000001 Ry

     iteration # 14     ecut=    80.00 Ry     beta= 0.70
     Davidson diagonalization with overlap
     ethr =  9.85E-11,  avg # of iterations =  2.3

     total cpu time spent up to now is      119.8 secs

     End of self-consistent calculation

          k = 0.0000 0.0000 0.0000 (  9237 PWs)   bands (ev):

   -37.0861 -32.7980  -2.0979   0.5007   6.4019  11.5749  17.5407  25.6793
    27.5999  29.4703  30.0110

          k =-1.0665-0.6157 0.1282 (  9291 PWs)   bands (ev):

   -36.5023 -33.3093   0.1117   2.6596   8.1939  13.1719  16.5439  17.8345
    19.5149  23.5451  24.3087

          k = 2.1330 1.2315-0.2563 (  9304 PWs)   bands (ev):

   -35.5642 -34.1740   6.2188   6.4828   8.5363  10.0432  12.5535  14.5956
    15.8568  19.9226  23.0021

          k =-1.0665 0.6157 0.2563 (  9293 PWs)   bands (ev):

   -36.5023 -33.3093   0.0906   2.7255   8.0398  13.3755  16.8719  17.3835
    19.4201  23.7718  23.8996

          k = 2.1330 2.4629-0.1282 (  9322 PWs)   bands (ev):

   -35.5782 -34.1577   4.3812   6.7931  11.3127  12.3112  13.0959  14.3723
    15.4928  16.9828  18.8084

          k = 1.0665 1.8472 0.0000 (  9342 PWs)   bands (ev):

   -35.5782 -34.1577   4.3959   6.7927  11.0410  12.3064  12.9262  15.4212
    15.4412  17.5603  17.9664

          k = 2.1330-1.2315-0.5127 (  9316 PWs)   bands (ev):

   -35.5642 -34.1740   6.0094   6.6331   9.1633   9.5715  12.0689  14.4192
    17.2328  19.3097  21.8553

          k =-0.0000 0.0000 0.3845 (  9271 PWs)   bands (ev):

   -37.0861 -32.7980  -2.1455   0.6462   6.0925  11.8692  18.0224  23.2160
    29.1604  29.1605  29.8820

          k = 3.1994 1.8472 0.0000 (  9273 PWs)   bands (ev):

   -36.5023 -33.3093   0.0560   2.8227   7.9503  13.0004  16.7487  18.9953
    19.7260  21.5497  24.4970

          k = 2.1330 1.2315 0.1282 (  9308 PWs)   bands (ev):

   -35.5642 -34.1740   6.0971   6.5704   8.8217   9.7881  12.5265  14.0700
    17.0114  19.1970  22.0271

          k = 3.1994-1.8472-0.3845 (  9278 PWs)   bands (ev):

   -36.5023 -33.3093   0.0366   2.8910   7.7998  13.1728  16.9305  18.7730
    19.4019  21.8948  23.8410

          k = 2.1330-2.4629-0.2563 (  9324 PWs)   bands (ev):

   -35.5782 -34.1577   4.3667   6.7934  11.6482  12.7304  12.7545  13.7275
    15.4328  16.4607  19.8606

          k = 0.0000-0.0000-0.7690 (  9280 PWs)   bands (ev):

   -37.0861 -32.7980  -2.1899   0.7966   5.7985  12.1335  18.8831  21.3801
    29.0533  29.8218  29.8218

     the Fermi energy is    14.6090 ev

!    total energy              =     -44.90292188 Ry
     estimated scf accuracy    <          8.3E-10 Ry
     smearing contrib. (-TS)   =       0.00053026 Ry
     internal energy E=F+TS    =     -44.90345215 Ry

     The total energy is F=E-TS. E is the sum of the following terms:
     one-electron contribution =      -2.79660855 Ry
     hartree contribution      =       7.71935038 Ry
     xc contribution           =     -14.08524515 Ry
     ewald contribution        =     -35.74094882 Ry

     convergence has been achieved in  14 iterations

     Forces acting on atoms (cartesian axes, Ry/au):

     atom    1 type  1   force =     0.00000000    0.00000000    0.05876855
     atom    2 type  1   force =    -0.00000000    0.00000000   -0.05876855
     atom    3 type  2   force =     0.00000000    0.00000000   -0.19204015
     atom    4 type  2   force =    -0.00000000   -0.00000000    0.19204015
     The non-local contrib.  to forces
     atom    1 type  1   force =     0.00000000    0.00000000    0.23799535
     atom    2 type  1   force =    -0.00000000    0.00000000   -0.23799535
     atom    3 type  2   force =    -0.00000000    0.00000000   -0.08963712
     atom    4 type  2   force =     0.00000000    0.00000000    0.08963712
     The ionic contribution  to forces
     atom    1 type  1   force =     0.00000000    0.00000000   -1.46349430
     atom    2 type  1   force =    -0.00000000   -0.00000000    1.46349430
     atom    3 type  2   force =    -0.00000000   -0.00000000   -2.62938814
     atom    4 type  2   force =    -0.00000000    0.00000000    2.62938814
     The local contribution  to forces
     atom    1 type  1   force =     0.00000000   -0.00000000    1.28428792
     atom    2 type  1   force =     0.00000000    0.00000000   -1.28428792
     atom    3 type  2   force =     0.00000000   -0.00000000    2.52188519
     atom    4 type  2   force =    -0.00000000    0.00000000   -2.52188519
     The core correction contribution to forces
     atom    1 type  1   force =     0.00000000    0.00000000    0.00000000
     atom    2 type  1   force =     0.00000000    0.00000000    0.00000000
     atom    3 type  2   force =    -0.00000000   -0.00000000    0.00513941
     atom    4 type  2   force =     0.00000000   -0.00000000   -0.00513941
     The Hubbard contrib.    to forces
     atom    1 type  1   force =     0.00000000    0.00000000    0.00000000
     atom    2 type  1   force =     0.00000000    0.00000000    0.00000000
     atom    3 type  2   force =     0.00000000    0.00000000    0.00000000
     atom    4 type  2   force =     0.00000000    0.00000000    0.00000000
     The SCF correction term to forces
     atom    1 type  1   force =    -0.00000000   -0.00000000   -0.00002042
     atom    2 type  1   force =     0.00000000    0.00000000    0.00002042
     atom    3 type  2   force =     0.00000000   -0.00000000   -0.00003950
     atom    4 type  2   force =    -0.00000000    0.00000000    0.00003950

     Total force =     0.284018     Total SCF correction =     0.000063


     Computing stress (Cartesian axis) and pressure

          total   stress  (Ry/bohr**3)                   (kbar)     P=     1111.29
   0.00687832   0.00000000   0.00000000         1011.84        0.00        0.00
  -0.00000000   0.00687832   0.00000000           -0.00     1011.84        0.00
   0.00000000   0.00000000   0.00890659            0.00        0.00     1310.20

     Energy error            =      1.2E-01 Ry
     Gradient error          =      1.9E-01 Ry/Bohr
     Cell gradient error     =      8.1E+02 kbar

     number of scf cycles    =   4
     number of bfgs steps    =   3

     enthalpy           old  =     -44.1062560605 Ry
     enthalpy           new  =     -44.2274237972 Ry

     CASE: enthalpy          _new < enthalpy          _old

     new trust radius        =       0.2932442014 bohr
ibrav =      5
 celldm(1) =     13.54645966
 celldm(4) =      0.93694309
Input lattice vectors:
     0.12939829    -0.07470814     0.71326571
     0.00000000     0.14941628     0.71326571
    -0.12939829    -0.07470814     0.71326571
New lattice vectors in INITIAL alat:
     0.12939829    -0.07470814     0.71326571
     0.00000000     0.14941628     0.71326571
    -0.12939829    -0.07470814     0.71326571
New lattice vectors in NEW alat (for information only):
     0.17756254    -0.10251578     0.97875536
     0.00000000     0.20503156     0.97875536
    -0.17756254    -0.10251578     0.97875536
Discrepancy in bohr =     0.000000    0.000000    0.000000
     new conv_thr            =       0.0000000100 Ry

     new unit-cell volume =    265.73264 a.u.^3 (    39.37751 Ang^3 )
     density =      2.95412 g/cm^3

CELL_PARAMETERS (alat= 18.58868284)
   0.129398290  -0.074708138   0.713265708
   0.000000000   0.149416275   0.713265708
  -0.129398290  -0.074708138   0.713265708

ATOMIC_POSITIONS (crystal)
Li            0.3202903269        0.3202903269        0.3202903269
Li            0.6797096731        0.6797096731        0.6797096731
Si            0.2235299013        0.2235299013        0.2235299013
Si            0.7764700987        0.7764700987        0.7764700987



     Writing config-only to output data dir ./output/LiSi.save/
     NEW-OLD atomic charge density approx. for the potential
     extrapolated charge   17.52695, renormalised to   14.00000

     total cpu time spent up to now is      122.3 secs

     Self-consistent Calculation

     iteration #  1     ecut=    80.00 Ry     beta= 0.70
     Davidson diagonalization with overlap
     c_bands:  1 eigenvalues not converged
     c_bands:  1 eigenvalues not converged
     ethr =  1.00E-06,  avg # of iterations = 15.5

     total cpu time spent up to now is      126.3 secs

     total energy              =     -41.77883872 Ry
     estimated scf accuracy    <       3.24889320 Ry

     iteration #  2     ecut=    80.00 Ry     beta= 0.70
     Davidson diagonalization with overlap
     ethr =  1.00E-02,  avg # of iterations =  6.2

     total cpu time spent up to now is      128.3 secs

     total energy              =     -43.02370122 Ry
     estimated scf accuracy    <      49.19357779 Ry

     iteration #  3     ecut=    80.00 Ry     beta= 0.70
     Davidson diagonalization with overlap
     ethr =  1.00E-02,  avg # of iterations =  3.2

     total cpu time spent up to now is      129.8 secs

     total energy              =     -45.35524374 Ry
     estimated scf accuracy    <       4.97818799 Ry

     iteration #  4     ecut=    80.00 Ry     beta= 0.70
     Davidson diagonalization with overlap
     ethr =  1.00E-02,  avg # of iterations =  1.4

     total cpu time spent up to now is      130.8 secs

     total energy              =     -45.26240074 Ry
     estimated scf accuracy    <       2.09657794 Ry

     iteration #  5     ecut=    80.00 Ry     beta= 0.70
     Davidson diagonalization with overlap
     ethr =  1.00E-02,  avg # of iterations =  1.2

     total cpu time spent up to now is      131.8 secs

     total energy              =     -45.23515964 Ry
     estimated scf accuracy    <       0.84719167 Ry

     iteration #  6     ecut=    80.00 Ry     beta= 0.70
     Davidson diagonalization with overlap
     ethr =  6.05E-03,  avg # of iterations =  1.6

     total cpu time spent up to now is      132.8 secs

     total energy              =     -45.19618148 Ry
     estimated scf accuracy    <       0.35517514 Ry

     iteration #  7     ecut=    80.00 Ry     beta= 0.70
     Davidson diagonalization with overlap
     ethr =  2.54E-03,  avg # of iterations =  1.8

     total cpu time spent up to now is      133.9 secs

     total energy              =     -45.21256549 Ry
     estimated scf accuracy    <       0.04753848 Ry

     iteration #  8     ecut=    80.00 Ry     beta= 0.70
     Davidson diagonalization with overlap
     ethr =  3.40E-04,  avg # of iterations =  5.0

     total cpu time spent up to now is      135.1 secs

     total energy              =     -45.21904908 Ry
     estimated scf accuracy    <       0.00211994 Ry

     iteration #  9     ecut=    80.00 Ry     beta= 0.70
     Davidson diagonalization with overlap
     ethr =  1.51E-05,  avg # of iterations =  5.5

     total cpu time spent up to now is      136.6 secs

     total energy              =     -45.21956760 Ry
     estimated scf accuracy    <       0.00009162 Ry

     iteration # 10     ecut=    80.00 Ry     beta= 0.70
     Davidson diagonalization with overlap
     ethr =  6.54E-07,  avg # of iterations =  4.3

     total cpu time spent up to now is      137.8 secs

     total energy              =     -45.21955497 Ry
     estimated scf accuracy    <       0.00005111 Ry

     iteration # 11     ecut=    80.00 Ry     beta= 0.70
     Davidson diagonalization with overlap
     ethr =  3.65E-07,  avg # of iterations =  2.3

     total cpu time spent up to now is      138.9 secs

     total energy              =     -45.21956358 Ry
     estimated scf accuracy    <       0.00008822 Ry

     iteration # 12     ecut=    80.00 Ry     beta= 0.70
     Davidson diagonalization with overlap
     ethr =  3.65E-07,  avg # of iterations =  1.5

     total cpu time spent up to now is      140.0 secs

     total energy              =     -45.21957028 Ry
     estimated scf accuracy    <       0.00000313 Ry

     iteration # 13     ecut=    80.00 Ry     beta= 0.70
     Davidson diagonalization with overlap
     ethr =  2.24E-08,  avg # of iterations =  2.4

     total cpu time spent up to now is      141.1 secs

     total energy              =     -45.21957086 Ry
     estimated scf accuracy    <       0.00000219 Ry

     iteration # 14     ecut=    80.00 Ry     beta= 0.70
     Davidson diagonalization with overlap
     ethr =  1.57E-08,  avg # of iterations =  1.3

     total cpu time spent up to now is      142.1 secs

     total energy              =     -45.21957113 Ry
     estimated scf accuracy    <       0.00000002 Ry

     iteration # 15     ecut=    80.00 Ry     beta= 0.70
     Davidson diagonalization with overlap
     ethr =  1.22E-10,  avg # of iterations =  3.2

     total cpu time spent up to now is      143.3 secs

     total energy              =     -45.21957114 Ry
     estimated scf accuracy    <       0.00000002 Ry

     iteration # 16     ecut=    80.00 Ry     beta= 0.70
     Davidson diagonalization with overlap
     ethr =  1.22E-10,  avg # of iterations =  1.6

     total cpu time spent up to now is      144.4 secs

     End of self-consistent calculation

          k = 0.0000 0.0000 0.0000 (  9237 PWs)   bands (ev):

   -39.0950 -36.6022  -3.6894  -1.5648   3.7744   8.1620  12.2158  20.3761
    20.9638  22.1317  22.1317

          k =-0.9660-0.5577 0.1168 (  9291 PWs)   bands (ev):

   -38.7589 -36.9036  -1.8505   0.2549   5.3040   9.5286  11.9159  12.7621
    14.3053  17.8330  18.1126

          k = 1.9320 1.1155-0.2337 (  9304 PWs)   bands (ev):

   -38.2216 -37.4057   3.4752   3.6036   5.2288   5.9337   8.8921  10.9762
    11.5300  15.0568  18.1401

          k =-0.9660 0.5577 0.2337 (  9293 PWs)   bands (ev):

   -38.7589 -36.9036  -1.8598   0.2809   5.2532   9.5266  12.1782  12.5848
    14.1895  17.7981  18.2938

          k = 1.9320 2.2309-0.1168 (  9322 PWs)   bands (ev):

   -38.2266 -37.4002   1.7626   3.8062   8.0776   8.7517   8.9589  10.1609
    10.6683  11.8498  13.7494

          k = 0.9660 1.6732 0.0000 (  9342 PWs)   bands (ev):

   -38.2266 -37.4002   1.7667   3.8189   7.8727   8.7493   8.8438  10.4288
    10.7143  12.7705  13.1726

          k = 1.9320-1.1155-0.4673 (  9316 PWs)   bands (ev):

   -38.2216 -37.4057   3.4727   3.5497   5.6020   5.6507   8.8714  10.4213
    12.5627  14.2787  16.1034

          k =-0.0000 0.0000 0.3505 (  9271 PWs)   bands (ev):

   -39.0950 -36.6022  -3.7128  -1.5019   3.6712   8.0589  13.0013  17.7133
    22.1838  22.1838  22.8163

          k = 2.8980 1.6732 0.0000 (  9273 PWs)   bands (ev):

   -38.7589 -36.9036  -1.8755   0.3162   5.3028   8.9674  12.0938  13.8924
    14.6752  16.3834  18.0004

          k = 1.9320 1.1155 0.1168 (  9308 PWs)   bands (ev):

   -38.2216 -37.4057   3.4952   3.5507   5.4073   5.7901   8.9866  10.3737
    12.3657  14.4918  16.2585

          k = 2.8980-1.6732-0.3505 (  9278 PWs)   bands (ev):

   -38.7589 -36.9036  -1.8844   0.3423   5.2493   8.9832  12.1908  13.9777
    14.3509  16.7389  17.7538

          k = 1.9320-2.2309-0.2337 (  9324 PWs)   bands (ev):

   -38.2266 -37.4002   1.7586   3.7939   8.3896   8.6792   9.1137   9.8503
    10.7239  11.1715  14.1002

          k = 0.0000-0.0000-0.7010 (  9280 PWs)   bands (ev):

   -39.0950 -36.6022  -3.7352  -1.4386   3.5680   7.9744  14.5671  15.4969
    22.3072  22.5107  22.5108

     the Fermi energy is    10.4575 ev

!    total energy              =     -45.21957114 Ry
     estimated scf accuracy    <          4.2E-10 Ry
     smearing contrib. (-TS)   =      -0.00103123 Ry
     internal energy E=F+TS    =     -45.21853991 Ry

     The total energy is F=E-TS. E is the sum of the following terms:
     one-electron contribution =      -7.15339035 Ry
     hartree contribution      =       7.91378406 Ry
     xc contribution           =     -13.48526873 Ry
     ewald contribution        =     -32.49366488 Ry

     convergence has been achieved in  16 iterations

     Forces acting on atoms (cartesian axes, Ry/au):

     atom    1 type  1   force =    -0.00000000    0.00000000    0.01408588
     atom    2 type  1   force =    -0.00000000   -0.00000000   -0.01408588
     atom    3 type  2   force =    -0.00000000   -0.00000000   -0.13359736
     atom    4 type  2   force =    -0.00000000    0.00000000    0.13359736
     The non-local contrib.  to forces
     atom    1 type  1   force =    -0.00000000   -0.00000000    0.21221872
     atom    2 type  1   force =     0.00000000   -0.00000000   -0.21221872
     atom    3 type  2   force =     0.00000000   -0.00000000   -0.14586048
     atom    4 type  2   force =    -0.00000000    0.00000000    0.14586048
     The ionic contribution  to forces
     atom    1 type  1   force =    -0.00000000    0.00000000   -1.17598604
     atom    2 type  1   force =     0.00000000   -0.00000000    1.17598604
     atom    3 type  2   force =    -0.00000000   -0.00000000   -2.10422245
     atom    4 type  2   force =    -0.00000000    0.00000000    2.10422245
     The local contribution  to forces
     atom    1 type  1   force =     0.00000000   -0.00000000    0.97784785
     atom    2 type  1   force =     0.00000000    0.00000000   -0.97784785
     atom    3 type  2   force =    -0.00000000   -0.00000000    2.10745378
     atom    4 type  2   force =    -0.00000000   -0.00000000   -2.10745378
     The core correction contribution to forces
     atom    1 type  1   force =     0.00000000    0.00000000    0.00000000
     atom    2 type  1   force =     0.00000000    0.00000000    0.00000000
     atom    3 type  2   force =     0.00000000   -0.00000000    0.00899845
     atom    4 type  2   force =    -0.00000000   -0.00000000   -0.00899845
     The Hubbard contrib.    to forces
     atom    1 type  1   force =     0.00000000    0.00000000    0.00000000
     atom    2 type  1   force =     0.00000000    0.00000000    0.00000000
     atom    3 type  2   force =     0.00000000    0.00000000    0.00000000
     atom    4 type  2   force =     0.00000000    0.00000000    0.00000000
     The SCF correction term to forces
     atom    1 type  1   force =     0.00000000    0.00000000    0.00000534
     atom    2 type  1   force =    -0.00000000   -0.00000000   -0.00000534
     atom    3 type  2   force =    -0.00000000   -0.00000000    0.00003335
     atom    4 type  2   force =     0.00000000    0.00000000   -0.00003335

     Total force =     0.189982     Total SCF correction =     0.000048


     Computing stress (Cartesian axis) and pressure

          total   stress  (Ry/bohr**3)                   (kbar)     P=      417.93
   0.00277377  -0.00000000   0.00000000          408.04       -0.00        0.00
   0.00000000   0.00277377   0.00000000            0.00      408.04        0.00
   0.00000000   0.00000000   0.00297549            0.00        0.00      437.71

     Energy error            =      8.9E-02 Ry
     Gradient error          =      1.3E-01 Ry/Bohr
     Cell gradient error     =      9.2E+01 kbar

     number of scf cycles    =   5
     number of bfgs steps    =   4

     enthalpy           old  =     -44.2274237972 Ry
     enthalpy           new  =     -44.3163642634 Ry

     CASE: enthalpy          _new < enthalpy          _old

     new trust radius        =       0.0858538094 bohr
ibrav =      5
 celldm(1) =     13.42984248
 celldm(4) =      0.93827693
Input lattice vectors:
     0.12692029    -0.07327746     0.70745355
     0.00000000     0.14655493     0.70745355
    -0.12692029    -0.07327746     0.70745355
New lattice vectors in INITIAL alat:
     0.12692029    -0.07327746     0.70745355
     0.00000000     0.14655493     0.70745355
    -0.12692029    -0.07327746     0.70745355
New lattice vectors in NEW alat (for information only):
     0.17567451    -0.10142573     0.97920952
     0.00000000     0.20285145     0.97920952
    -0.17567451    -0.10142573     0.97920952
Discrepancy in bohr =     0.000000    0.000000    0.000000
     new conv_thr            =       0.0000000100 Ry

     new unit-cell volume =    253.56921 a.u.^3 (    37.57508 Ang^3 )
     density =      3.09582 g/cm^3

CELL_PARAMETERS (alat= 18.58868284)
   0.126920291  -0.073277464   0.707453548
   0.000000000   0.146554928   0.707453548
  -0.126920291  -0.073277464   0.707453548

ATOMIC_POSITIONS (crystal)
Li            0.3206005541        0.3206005541        0.3206005541
Li            0.6793994459        0.6793994459        0.6793994459
Si            0.2213714694        0.2213714694        0.2213714694
Si            0.7786285306        0.7786285306        0.7786285306



     Writing config-only to output data dir ./output/LiSi.save/
     NEW-OLD atomic charge density approx. for the potential
     extrapolated charge   13.32893, renormalised to   14.00000

     total cpu time spent up to now is      146.9 secs

     Self-consistent Calculation

     iteration #  1     ecut=    80.00 Ry     beta= 0.70
     Davidson diagonalization with overlap
     ethr =  1.00E-06,  avg # of iterations = 11.2

     total cpu time spent up to now is      149.7 secs

     total energy              =     -45.09948897 Ry
     estimated scf accuracy    <       0.09528203 Ry

     iteration #  2     ecut=    80.00 Ry     beta= 0.70
     Davidson diagonalization with overlap
     ethr =  6.81E-04,  avg # of iterations =  5.0

     total cpu time spent up to now is      151.2 secs

     total energy              =     -45.05328880 Ry
     estimated scf accuracy    <       2.18767640 Ry

     iteration #  3     ecut=    80.00 Ry     beta= 0.70
     Davidson diagonalization with overlap
     ethr =  6.81E-04,  avg # of iterations =  3.1

     total cpu time spent up to now is      152.5 secs

     total energy              =     -45.20498676 Ry
     estimated scf accuracy    <       0.09513812 Ry

     iteration #  4     ecut=    80.00 Ry     beta= 0.70
     Davidson diagonalization with overlap
     ethr =  6.80E-04,  avg # of iterations =  1.1

     total cpu time spent up to now is      153.5 secs

     total energy              =     -45.20582641 Ry
     estimated scf accuracy    <       0.02800292 Ry

     iteration #  5     ecut=    80.00 Ry     beta= 0.70
     Davidson diagonalization with overlap
     ethr =  2.00E-04,  avg # of iterations =  2.3

     total cpu time spent up to now is      154.6 secs

     total energy              =     -45.20411602 Ry
     estimated scf accuracy    <       0.01522026 Ry

     iteration #  6     ecut=    80.00 Ry     beta= 0.70
     Davidson diagonalization with overlap
     ethr =  1.09E-04,  avg # of iterations =  2.8

     total cpu time spent up to now is      155.7 secs

     total energy              =     -45.20395205 Ry
     estimated scf accuracy    <       0.00345535 Ry

     iteration #  7     ecut=    80.00 Ry     beta= 0.70
     Davidson diagonalization with overlap
     ethr =  2.47E-05,  avg # of iterations =  4.8

     total cpu time spent up to now is      156.9 secs

     total energy              =     -45.20432214 Ry
     estimated scf accuracy    <       0.00007034 Ry

     iteration #  8     ecut=    80.00 Ry     beta= 0.70
     Davidson diagonalization with overlap
     ethr =  5.02E-07,  avg # of iterations =  4.0

     total cpu time spent up to now is      158.2 secs

     total energy              =     -45.20434051 Ry
     estimated scf accuracy    <       0.00000037 Ry

     iteration #  9     ecut=    80.00 Ry     beta= 0.70
     Davidson diagonalization with overlap
     ethr =  2.64E-09,  avg # of iterations =  3.1

     total cpu time spent up to now is      159.4 secs

     total energy              =     -45.20434082 Ry
     estimated scf accuracy    <       0.00000007 Ry

     iteration # 10     ecut=    80.00 Ry     beta= 0.70
     Davidson diagonalization with overlap
     ethr =  5.21E-10,  avg # of iterations =  2.2

     total cpu time spent up to now is      160.5 secs

     total energy              =     -45.20434083 Ry
     estimated scf accuracy    <       0.00000006 Ry

     iteration # 11     ecut=    80.00 Ry     beta= 0.70
     Davidson diagonalization with overlap
     ethr =  4.35E-10,  avg # of iterations =  1.5

     total cpu time spent up to now is      161.5 secs

     End of self-consistent calculation

          k = 0.0000 0.0000 0.0000 (  9237 PWs)   bands (ev):

   -38.7690 -35.9524  -3.7330  -1.2216   4.0925   8.6799  12.8603  21.2041
    21.6283  23.4467  23.4467

          k =-0.9849-0.5686 0.1178 (  9291 PWs)   bands (ev):

   -38.3898 -36.2936  -1.8202   0.6677   5.6937  10.0939  12.5139  13.4612
    15.1735  18.7689  19.0233

          k = 1.9697 1.1372-0.2356 (  9304 PWs)   bands (ev):

   -37.7826 -36.8622   3.7406   3.7818   5.8338   6.6412   9.4412  11.5436
    12.1490  15.9005  17.4475

          k =-0.9849 0.5686 0.2356 (  9293 PWs)   bands (ev):

   -38.3898 -36.2936  -1.8283   0.6947   5.6313  10.1221  12.8378  13.1574
    15.1139  18.7712  19.1674

          k = 1.9697 2.2745-0.1178 (  9322 PWs)   bands (ev):

   -37.7888 -36.8553   1.9325   4.3400   8.5961   9.1707   9.4059  10.8650
    11.4955  12.6364  14.5691

          k = 0.9849 1.7058 0.0000 (  9342 PWs)   bands (ev):

   -37.7888 -36.8553   1.9371   4.3507   8.3984   9.1377   9.3063  11.2850
    11.5148  13.5723  13.7771

          k = 1.9697-1.1372-0.4712 (  9316 PWs)   bands (ev):

   -37.7826 -36.8622   3.6792   3.7985   6.1944   6.3631   9.3679  11.0109
    13.2497  15.1150  17.0385

          k =-0.0000 0.0000 0.3534 (  9271 PWs)   bands (ev):

   -38.7690 -35.9524  -3.7532  -1.1567   3.9620   8.6476  13.5757  18.4096
    23.4777  23.4778  23.9411

          k = 2.9546 1.7058 0.0000 (  9273 PWs)   bands (ev):

   -38.3898 -36.2936  -1.8424   0.7329   5.6529   9.6011  12.6885  14.7882
    15.3430  17.1094  18.9412

          k = 1.9697 1.1372 0.1178 (  9308 PWs)   bands (ev):

   -37.7826 -36.8622   3.7194   3.7781   6.0044   6.4975   9.5155  10.9434
    13.0299  15.2965  17.1818

          k = 2.9546-1.7058-0.3534 (  9278 PWs)   bands (ev):

   -38.3898 -36.2936  -1.8503   0.7603   5.5886   9.6380  12.8039  14.6678
    15.2286  17.3882  18.7300

          k = 1.9697-2.2745-0.2356 (  9324 PWs)   bands (ev):

   -37.7888 -36.8553   1.9279   4.3296   8.8275   9.2535   9.5492  10.3493
    11.5302  12.0951  15.0250

          k = 0.0000-0.0000-0.7068 (  9280 PWs)   bands (ev):

   -38.7690 -35.9524  -3.7728  -1.0908   3.8334   8.6208  14.8990  16.3716
    23.5972  23.5973  23.6711

     the Fermi energy is    11.1638 ev

!    total energy              =     -45.20434084 Ry
     estimated scf accuracy    <          3.3E-10 Ry
     smearing contrib. (-TS)   =       0.00035073 Ry
     internal energy E=F+TS    =     -45.20469157 Ry

     The total energy is F=E-TS. E is the sum of the following terms:
     one-electron contribution =      -5.98339497 Ry
     hartree contribution      =       7.61312320 Ry
     xc contribution           =     -13.57369898 Ry
     ewald contribution        =     -33.26072082 Ry

     convergence has been achieved in  11 iterations

[...]
     The local contribution  to forces
     atom    1 type  1   force =     0.00000000    0.00000000   -0.60046369
     atom    2 type  1   force =     0.00000000   -0.00000000    0.60046369
     atom    3 type  2   force =    -0.00000000    0.00000000   -1.68920118
     atom    4 type  2   force =     0.00000000   -0.00000000    1.68920118
     The core correction contribution to forces
     atom    1 type  1   force =     0.00000000    0.00000000    0.00000000
     atom    2 type  1   force =     0.00000000    0.00000000    0.00000000
     atom    3 type  2   force =    -0.00000000   -0.00000000   -0.00469428
     atom    4 type  2   force =    -0.00000000   -0.00000000    0.00469428
     The Hubbard contrib.    to forces
     atom    1 type  1   force =     0.00000000    0.00000000    0.00000000
     atom    2 type  1   force =     0.00000000    0.00000000    0.00000000
     atom    3 type  2   force =     0.00000000    0.00000000    0.00000000
     atom    4 type  2   force =     0.00000000    0.00000000    0.00000000
     The SCF correction term to forces
     atom    1 type  1   force =    -0.00000000   -0.00000000    0.00001168
     atom    2 type  1   force =     0.00000000   -0.00000000   -0.00001168
     atom    3 type  2   force =     0.00000000    0.00000000    0.00000351
     atom    4 type  2   force =    -0.00000000   -0.00000000   -0.00000351

     Total force =     0.000998     Total SCF correction =     0.000017


     Computing stress (Cartesian axis) and pressure

          total   stress  (Ry/bohr**3)                   (kbar)     P=      499.41
   0.00339437  -0.00000000  -0.00000000          499.33       -0.00       -0.00
   0.00000000   0.00339437   0.00000000            0.00      499.33        0.00
   0.00000000   0.00000000   0.00339606            0.00        0.00      499.58

     Energy error            =      1.3E-05 Ry
     Gradient error          =      6.3E-04 Ry/Bohr
     Cell gradient error     =      6.7E-01 kbar
ibrav =      5
 celldm(1) =     15.81509654
 celldm(4) =      0.96072255
Input lattice vectors:
     0.11922845    -0.06883657     0.83957881
     0.00000000     0.13767315     0.83957881
    -0.11922845    -0.06883657     0.83957881
New lattice vectors in INITIAL alat:
     0.11922845    -0.06883657     0.83957881
     0.00000000     0.13767315     0.83957881
    -0.11922845    -0.06883657     0.83957881
New lattice vectors in NEW alat (for information only):
     0.14013824    -0.08090885     0.98682067
     0.00000000     0.16181770     0.98682067
    -0.14013824    -0.08090885     0.98682067
Discrepancy in bohr =     0.000000    0.000000    0.000000

     bfgs converged in  32 scf cycles and  25 bfgs steps
     (criteria: energy <  1.0E-04 Ry, force <  1.0E-03 Ry/Bohr, cell <  1.0E+00 kbar)

     End of BFGS Geometry Optimization

     Final enthalpy           =     -44.5345096569 Ry

     File ./output/LiSi.bfgs deleted, as requested
Begin final coordinates
     new unit-cell volume =    265.55697 a.u.^3 (    39.35148 Ang^3 )
     density =      2.95607 g/cm^3

CELL_PARAMETERS (alat= 18.58868284)
   0.119228445  -0.068836575   0.839578806
   0.000000000   0.137673150   0.839578806
  -0.119228445  -0.068836575   0.839578806

ATOMIC_POSITIONS (crystal)
Li            0.2950070976        0.2950070976        0.2950070976
Li            0.7049929024        0.7049929024        0.7049929024
Si            0.2069646747        0.2069646747        0.2069646747
Si            0.7930353253        0.7930353253        0.7930353253
End final coordinates



     Writing config-only to output data dir ./output/LiSi.save/

     Final scf calculation at the relaxed structure.
     The G-vectors are recalculated for the final unit cell
     Results may differ from those at the preceding step.

     Parallelization info
     --------------------
     sticks:   dense  smooth     PW     G-vecs:    dense   smooth      PW
     Min         221     221     71                 3220     3220     586
     Max         222     222     72                 3221     3221     588
     Sum        1769    1769    569                25763    25763    4695

     Using Slab Decomposition



     bravais-lattice index     =            5
     lattice parameter (alat)  =      18.5887  a.u.
     unit-cell volume          =     265.5570 (a.u.)^3
     number of atoms/cell      =            4
     number of atomic types    =            2
     number of electrons       =        14.00
     number of Kohn-Sham states=           11
     kinetic-energy cutoff     =      80.0000  Ry
     charge density cutoff     =     320.0000  Ry
     scf convergence threshold =      1.0E-10
     mixing beta               =       0.7000
     number of iterations used =            8  plain     mixing
     press convergence thresh. =      1.0E+00
     Exchange-correlation= PBE
                           (   1   4   3   4   0   0   0)

     celldm(1)=  18.588683  celldm(2)=   0.000000  celldm(3)=   0.000000
     celldm(4)=   0.929090  celldm(5)=   0.000000  celldm(6)=   0.000000

     crystal axes: (cart. coord. in units of alat)
               a(1) = (   0.119228  -0.068837   0.839579 )  
               a(2) = (   0.000000   0.137673   0.839579 )  
               a(3) = (  -0.119228  -0.068837   0.839579 )  

     reciprocal axes: (cart. coord. in units 2 pi/alat)
               b(1) = (  4.193630 -2.421193  0.397024 )  
               b(2) = ( -0.000000  4.842387  0.397024 )  
               b(3) = ( -4.193630 -2.421193  0.397024 )  


     PseudoPot. # 1 for Li read from file:
     ../pseudo/Li_ONCV_PBE_sr.upf
     MD5 check sum: 50ff420e78310ffa21704f3361e624a4
     Pseudo is Norm-conserving, Zval =  3.0
     Generated using ONCVPSP code by D. R. Hamann
     Using radial grid of 1944 points,  4 beta functions with: 
                l(1) =   0
                l(2) =   0
                l(3) =   1
                l(4) =   1

     PseudoPot. # 2 for Si read from file:
     ../pseudo/Si_ONCV_PBE_sr.upf
     MD5 check sum: e543d271109d17c80368dfa7c482276d
     Pseudo is Norm-conserving + core correction, Zval =  4.0
     Generated using ONCVPSP code by D. R. Hamann
     Using radial grid of 1510 points,  6 beta functions with: 
                l(1) =   0
                l(2) =   0
                l(3) =   1
                l(4) =   1
                l(5) =   2
                l(6) =   2

     atomic species   valence    mass     pseudopotential
        Li             3.00     6.94100     Li( 1.00)
        Si             4.00    28.08550     Si( 1.00)

     12 Sym. Ops., with inversion, found



   Cartesian axes

     site n.     atom                  positions (alat units)
         1           Li  tau(   1) = (  -0.0000000  -0.0000000   0.7430451  )
         2           Li  tau(   2) = (  -0.0000000  -0.0000000   1.7756913  )
         3           Si  tau(   3) = (  -0.0000000  -0.0000000   0.5212895  )
         4           Si  tau(   4) = (   0.0000000  -0.0000000   1.9974470  )

     number of k points=    13  Marzari-Vanderbilt smearing, width (Ry)=  0.0200
                       cart. coord. in units 2pi/alat
        k(    1) = (   0.0000000   0.0000000   0.0000000), wk =   0.0312500
        k(    2) = (  -1.0484075  -0.6052984   0.0992561), wk =   0.1875000
        k(    3) = (   2.0968151   1.2105967  -0.1985122), wk =   0.0937500
        k(    4) = (  -1.0484075   0.6052984   0.1985122), wk =   0.1875000
        k(    5) = (   2.0968151   2.4211935  -0.0992561), wk =   0.3750000
        k(    6) = (   1.0484075   1.8158951   0.0000000), wk =   0.1875000
        k(    7) = (   2.0968151  -1.2105967  -0.3970245), wk =   0.0937500
        k(    8) = (   0.0000000  -0.0000000   0.2977684), wk =   0.0625000
        k(    9) = (   3.1452226   1.8158951   0.0000000), wk =   0.1875000
        k(   10) = (   2.0968151   1.2105967   0.0992561), wk =   0.1875000
        k(   11) = (   3.1452226  -1.8158951  -0.2977684), wk =   0.1875000
        k(   12) = (   2.0968151  -2.4211935  -0.1985122), wk =   0.1875000
        k(   13) = (  -0.0000000   0.0000000  -0.5955367), wk =   0.0312500

     Dense  grid:    25763 G-vectors     FFT dimensions: (  96,  96,  96)

     Estimated max dynamical RAM per process >      22.22 MB

     Estimated total dynamical RAM >     177.78 MB

     Initial potential from superposition of free atoms

     starting charge      13.9897, renormalised to      14.0000
     Starting wfcs are   12 randomized atomic wfcs

     total cpu time spent up to now is      561.7 secs

     Self-consistent Calculation

     iteration #  1     ecut=    80.00 Ry     beta= 0.70
     Davidson diagonalization with overlap
     c_bands:  1 eigenvalues not converged
     c_bands:  1 eigenvalues not converged
     c_bands:  1 eigenvalues not converged
     c_bands:  1 eigenvalues not converged
     c_bands:  1 eigenvalues not converged
     c_bands:  1 eigenvalues not converged
     ethr =  1.00E-06,  avg # of iterations = 18.1

     total cpu time spent up to now is      564.2 secs

     total energy              =     -45.05565197 Ry
     estimated scf accuracy    <       0.52604800 Ry

     iteration #  2     ecut=    80.00 Ry     beta= 0.70
     Davidson diagonalization with overlap
     ethr =  3.76E-03,  avg # of iterations =  4.7

     total cpu time spent up to now is      565.0 secs

     total energy              =     -44.94076961 Ry
     estimated scf accuracy    <       6.91769498 Ry

     iteration #  3     ecut=    80.00 Ry     beta= 0.70
     Davidson diagonalization with overlap
     ethr =  3.76E-03,  avg # of iterations =  3.1
     Minimization algorithm failed to find Fermi energy: reverting to bisection
     Possible cause: smearing is larger than the electronic band-gap.

     total cpu time spent up to now is      565.8 secs

     total energy              =     -45.43139966 Ry
     estimated scf accuracy    <       0.13508057 Ry

     iteration #  4     ecut=    80.00 Ry     beta= 0.70
     Davidson diagonalization with overlap
     ethr =  9.65E-04,  avg # of iterations =  1.7

     total cpu time spent up to now is      566.4 secs

     total energy              =     -45.43200769 Ry
     estimated scf accuracy    <       0.02362147 Ry

     iteration #  5     ecut=    80.00 Ry     beta= 0.70
     Davidson diagonalization with overlap
     ethr =  1.69E-04,  avg # of iterations =  2.7

     total cpu time spent up to now is      567.0 secs

     total energy              =     -45.43607715 Ry
     estimated scf accuracy    <       0.00778398 Ry

     iteration #  6     ecut=    80.00 Ry     beta= 0.70
     Davidson diagonalization with overlap
     ethr =  5.56E-05,  avg # of iterations =  1.2

     total cpu time spent up to now is      567.6 secs

     total energy              =     -45.43699293 Ry
     estimated scf accuracy    <       0.00013887 Ry

     iteration #  7     ecut=    80.00 Ry     beta= 0.70
     Davidson diagonalization with overlap
     c_bands:  1 eigenvalues not converged
     ethr =  9.92E-07,  avg # of iterations =  5.7

     total cpu time spent up to now is      568.4 secs

     total energy              =     -45.43700953 Ry
     estimated scf accuracy    <       0.00000454 Ry

     iteration #  8     ecut=    80.00 Ry     beta= 0.70
     Davidson diagonalization with overlap
     ethr =  3.25E-08,  avg # of iterations =  2.4

     total cpu time spent up to now is      569.0 secs

     total energy              =     -45.43701031 Ry
     estimated scf accuracy    <       0.00000005 Ry

     iteration #  9     ecut=    80.00 Ry     beta= 0.70
     Davidson diagonalization with overlap
     ethr =  3.68E-10,  avg # of iterations =  3.5

     total cpu time spent up to now is      569.7 secs

     total energy              =     -45.43701035 Ry
     estimated scf accuracy    <          2.4E-10 Ry

     iteration # 10     ecut=    80.00 Ry     beta= 0.70
     Davidson diagonalization with overlap
     ethr =  1.71E-12,  avg # of iterations =  3.6

     total cpu time spent up to now is      570.5 secs

     End of self-consistent calculation

          k = 0.0000 0.0000 0.0000 (  3249 PWs)   bands (ev):

   -35.5944 -35.4390  -6.6794  -2.5587   2.7843   7.3344   8.6362  15.3220
    18.1472  24.4561  24.4562

          k =-1.0484-0.6053 0.0993 (  3213 PWs)   bands (ev):

   -35.4781 -35.3644  -4.5197  -0.4512   4.7205   8.6224  10.1089  12.3157
    15.4764  16.9367  18.0732

          k = 2.0968 1.2106-0.1985 (  3206 PWs)   bands (ev):

   -35.3480 -35.3017   1.5707   1.8352   5.5214   6.3718  10.1121  10.4534
    11.6202  13.8539  16.5919

          k =-1.0484 0.6053 0.1985 (  3213 PWs)   bands (ev):

   -35.4781 -35.3644  -4.5199  -0.4501   4.7215   8.5057  10.3284  12.2951
    15.5612  16.1614  18.8843

          k = 2.0968 2.4212-0.0993 (  3207 PWs)   bands (ev):

   -35.3498 -35.3004  -0.3044   3.5246   7.5934   8.2326   8.6684  10.9860
    11.6137  12.7876  14.2372

          k = 1.0484 1.8159 0.0000 (  3206 PWs)   bands (ev):

   -35.3498 -35.3004  -0.3042   3.5255   7.5903   8.2284   8.5896  11.3534
    11.6067  13.0030  13.4306

          k = 2.0968-1.2106-0.3970 (  3226 PWs)   bands (ev):

   -35.3480 -35.3017   1.5678   1.8352   5.5600   6.3727   9.7042  10.4111
    12.8875  13.0819  16.4454

          k = 0.0000-0.0000 0.2978 (  3215 PWs)   bands (ev):

   -35.5944 -35.4390  -6.6795  -2.5579   2.7883   7.1010   9.0644  14.4214
    19.5424  24.3034  24.4558

          k = 3.1452 1.8159 0.0000 (  3209 PWs)   bands (ev):

   -35.4781 -35.3644  -4.5199  -0.4501   4.7485   8.2274  10.7578  12.5376
    14.8309  15.8549  19.4963

          k = 2.0968 1.2106 0.0993 (  3210 PWs)   bands (ev):

   -35.3480 -35.3017   1.5693   1.8352   5.5405   6.3723   9.8857  10.4193
    12.1240  13.6338  16.5219

          k = 3.1452-1.8159-0.2978 (  3199 PWs)   bands (ev):

   -35.4781 -35.3644  -4.5201  -0.4491   4.7496   8.1592  10.9502  12.5489
    14.6423  15.6894  19.2155

          k = 2.0968-2.4212-0.1985 (  3194 PWs)   bands (ev):

   -35.3498 -35.3005  -0.3045   3.5238   7.5965   8.2368   8.7611  10.6839
    11.6010  12.7089  15.1894

          k =-0.0000 0.0000-0.5955 (  3218 PWs)   bands (ev):

   -35.5944 -35.4390  -6.6796  -2.5571   2.7925   6.9342   9.4667  13.7346
    21.7693  22.3564  24.4554

     the Fermi energy is    10.5774 ev

!    total energy              =     -45.43701035 Ry
     estimated scf accuracy    <          4.8E-11 Ry
     smearing contrib. (-TS)   =      -0.00011781 Ry
     internal energy E=F+TS    =     -45.43689254 Ry

     The total energy is F=E-TS. E is the sum of the following terms:
     one-electron contribution =      -3.83368859 Ry
     hartree contribution      =       6.46764725 Ry
     xc contribution           =     -13.70987538 Ry
     ewald contribution        =     -34.36097581 Ry

     convergence has been achieved in  10 iterations

     Forces acting on atoms (cartesian axes, Ry/au):

     atom    1 type  1   force =    -0.00000000   -0.00000000    0.00063881
     atom    2 type  1   force =     0.00000000    0.00000000   -0.00063881
     atom    3 type  2   force =    -0.00000000    0.00000000    0.00032462
     atom    4 type  2   force =     0.00000000   -0.00000000   -0.00032462
     The non-local contrib.  to forces
     atom    1 type  1   force =     0.00000000   -0.00000000   -0.00272170
     atom    2 type  1   force =     0.00000000   -0.00000000    0.00272170
     atom    3 type  2   force =     0.00000000    0.00000000    0.01272282
     atom    4 type  2   force =    -0.00000000   -0.00000000   -0.01272282
     The ionic contribution  to forces
     atom    1 type  1   force =    -0.00000000    0.00000000    0.60378682
     atom    2 type  1   force =     0.00000000   -0.00000000   -0.60378682
     atom    3 type  2   force =    -0.00000000   -0.00000000    1.68150433
     atom    4 type  2   force =     0.00000000    0.00000000   -1.68150433
     The local contribution  to forces
     atom    1 type  1   force =     0.00000000    0.00000000   -0.60042390
     atom    2 type  1   force =     0.00000000   -0.00000000    0.60042390
     atom    3 type  2   force =    -0.00000000    0.00000000   -1.68921560
     atom    4 type  2   force =     0.00000000   -0.00000000    1.68921560
     The core correction contribution to forces
     atom    1 type  1   force =     0.00000000    0.00000000    0.00000000
     atom    2 type  1   force =     0.00000000    0.00000000    0.00000000
     atom    3 type  2   force =    -0.00000000   -0.00000000   -0.00469622
     atom    4 type  2   force =     0.00000000   -0.00000000    0.00469622
     The Hubbard contrib.    to forces
     atom    1 type  1   force =     0.00000000    0.00000000    0.00000000
     atom    2 type  1   force =     0.00000000    0.00000000    0.00000000
     atom    3 type  2   force =     0.00000000    0.00000000    0.00000000
     atom    4 type  2   force =     0.00000000    0.00000000    0.00000000
     The SCF correction term to forces
     atom    1 type  1   force =     0.00000000   -0.00000000   -0.00000241
     atom    2 type  1   force =    -0.00000000    0.00000000    0.00000241
     atom    3 type  2   force =    -0.00000000   -0.00000000    0.00000929
     atom    4 type  2   force =     0.00000000    0.00000000   -0.00000929

     Total force =     0.001013     Total SCF correction =     0.000014


     Computing stress (Cartesian axis) and pressure

          total   stress  (Ry/bohr**3)                   (kbar)     P=      499.42
   0.00339447  -0.00000000  -0.00000000          499.34       -0.00       -0.00
   0.00000000   0.00339447   0.00000000            0.00      499.34        0.00
  -0.00000000   0.00000000   0.00339595           -0.00        0.00      499.56


     Writing all to output data dir ./output/LiSi.save/

     init_run     :      2.44s CPU      2.77s WALL (       2 calls)
     electrons    :    457.74s CPU    487.73s WALL (      33 calls)
     update_pot   :     23.93s CPU     24.20s WALL (      31 calls)
     forces       :     14.30s CPU     14.70s WALL (      33 calls)
     stress       :     37.92s CPU     40.51s WALL (      33 calls)

     Called by init_run:
     wfcinit      :      0.67s CPU      0.76s WALL (       2 calls)
     potinit      :      0.60s CPU      0.71s WALL (       2 calls)
     hinit0       :      1.09s CPU      1.17s WALL (       2 calls)

     Called by electrons:
     c_bands      :    365.68s CPU    388.87s WALL (     373 calls)
     sum_band     :     63.99s CPU     68.50s WALL (     373 calls)
     v_of_rho     :     29.00s CPU     30.33s WALL (     405 calls)
     mix_rho      :      0.98s CPU      1.26s WALL (     373 calls)

     Called by c_bands:
     init_us_2    :      3.02s CPU      3.29s WALL (   10582 calls)
     init_us_2:cp :      3.01s CPU      3.28s WALL (   10582 calls)
     cegterg      :    358.78s CPU    380.32s WALL (    4849 calls)

     Called by *egterg:
     cdiaghg      :      2.77s CPU      3.05s WALL (   20044 calls)
     h_psi        :    349.44s CPU    370.35s WALL (   20486 calls)
     g_psi        :      0.38s CPU      0.39s WALL (   15611 calls)

     Called by h_psi:
     h_psi:calbec :      3.95s CPU      4.31s WALL (   20486 calls)
     vloc_psi     :    342.08s CPU    362.35s WALL (   20486 calls)
     add_vuspsi   :      3.14s CPU      3.40s WALL (   20486 calls)

     General routines
     calbec       :      4.54s CPU      4.92s WALL (   22631 calls)
     fft          :      8.24s CPU      9.85s WALL (    4874 calls)
     ffts         :      0.52s CPU      0.61s WALL (     373 calls)
     fftw         :    352.04s CPU    374.45s WALL (  360131 calls)

     Parallel routines

     PWSCF        :   8m56.98s CPU   9m31.64s WALL


   This run was terminated on:   0:27:27  29Nov2024            

=------------------------------------------------------------------------------=
   JOB DONE.
=------------------------------------------------------------------------------=
