
     Program PWSCF v.7.2 starts on 11Feb2025 at 22:11:37 

     This program is part of the open-source Quantum ESPRESSO suite
     for quantum simulation of materials; please cite
         "P. Giannozzi et al., J. Phys.:Condens. Matter 21 395502 (2009);
         "P. Giannozzi et al., J. Phys.:Condens. Matter 29 465901 (2017);
         "P. Giannozzi et al., J. Chem. Phys. 152 154105 (2020);
          URL http://www.quantum-espresso.org", 
     in publications or presentations arising from this work. More details at
     http://www.quantum-espresso.org/quote

     Parallel version (MPI & OpenMP), running on       8 processor cores
     Number of MPI processes:                 8
     Threads/MPI process:                     1

     MPI processes distributed on     1 nodes
     481740 MiB available memory on the printing compute node when the environment starts

     Waiting for input...
     Reading input from standard input

     Current dimensions of program PWSCF are:
     Max number of different atomic species (ntypx) = 10
     Max number of k-points (npk) =  40000
     Max angular momentum in pseudopotentials (lmaxx) =  4

     R & G space division:  proc/nbgrp/npool/nimage =       8
     Subspace diagonalization in iterative solution of the eigenvalue problem:
     a serial algorithm will be used


     Parallelization info
     --------------------
     sticks:   dense  smooth     PW     G-vecs:    dense   smooth      PW
     Min         157     157     45                 6983     6983    1047
     Max         158     158     46                 6988     6988    1049
     Sum        1261    1261    361                55879    55879    8387

     Using Slab Decomposition



     bravais-lattice index     =            4
     lattice parameter (alat)  =       7.5275  a.u.
     unit-cell volume          =     577.0384 (a.u.)^3
     number of atoms/cell      =            4
     number of atomic types    =            2
     number of electrons       =        14.00
     number of Kohn-Sham states=           11
     kinetic-energy cutoff     =      80.0000  Ry
     charge density cutoff     =     320.0000  Ry
     scf convergence threshold =      1.0E-08
     mixing beta               =       0.7000
     number of iterations used =            8  plain     mixing
     energy convergence thresh.=      1.0E-04
     force convergence thresh. =      1.0E-03
     press convergence thresh. =      1.0E+00
     Exchange-correlation= PBE
                           (   1   4   3   4   0   0   0)
     nstep                     =           50


     celldm(1)=   7.527457  celldm(2)=   0.000000  celldm(3)=   1.562173
     celldm(4)=   0.000000  celldm(5)=   0.000000  celldm(6)=   0.000000

     crystal axes: (cart. coord. in units of alat)
               a(1) = (   1.000000   0.000000   0.000000 )  
               a(2) = (  -0.500000   0.866025   0.000000 )  
               a(3) = (   0.000000   0.000000   1.562173 )  

     reciprocal axes: (cart. coord. in units 2 pi/alat)
               b(1) = (  1.000000  0.577350 -0.000000 )  
               b(2) = (  0.000000  1.154701  0.000000 )  
               b(3) = (  0.000000 -0.000000  0.640134 )  


     PseudoPot. # 1 for Li read from file:
     ../pseudo/Li_ONCV_PBE_sr.upf
     MD5 check sum: 50ff420e78310ffa21704f3361e624a4
     Pseudo is Norm-conserving, Zval =  3.0
     Generated using ONCVPSP code by D. R. Hamann
     Using radial grid of 1944 points,  4 beta functions with: 
                l(1) =   0
                l(2) =   0
                l(3) =   1
                l(4) =   1

     PseudoPot. # 2 for Si read from file:
     ../pseudo/Si_ONCV_PBE_sr.upf
     MD5 check sum: e543d271109d17c80368dfa7c482276d
     Pseudo is Norm-conserving + core correction, Zval =  4.0
     Generated using ONCVPSP code by D. R. Hamann
     Using radial grid of 1510 points,  6 beta functions with: 
                l(1) =   0
                l(2) =   0
                l(3) =   1
                l(4) =   1
                l(5) =   2
                l(6) =   2

     atomic species   valence    mass     pseudopotential
        Li             3.00     6.94100     Li( 1.00)
        Si             4.00    28.08550     Si( 1.00)

     12 Sym. Ops. (no inversion) found ( 6 have fractional translation)



   Cartesian axes

     site n.     atom                  positions (alat units)
         1           Li  tau(   1) = (  -0.0000000   0.5773503   1.2584821  )
         2           Li  tau(   2) = (   0.5000000   0.2886751   0.4773955  )
         3           Si  tau(   3) = (  -0.0000000   0.5773503   0.3048675  )
         4           Si  tau(   4) = (   0.5000000   0.2886751   1.0859541  )

     number of k points=    30  Marzari-Vanderbilt smearing, width (Ry)=  0.0200
                       cart. coord. in units 2pi/alat
        k(    1) = (   0.0000000   0.0000000   0.0000000), wk =   0.0062500
        k(    2) = (   0.0000000   0.0000000   0.1280268), wk =   0.0125000
        k(    3) = (   0.0000000   0.0000000   0.2560535), wk =   0.0125000
        k(    4) = (   0.0000000   0.1443376   0.0000000), wk =   0.0375000
        k(    5) = (   0.0000000   0.1443376   0.1280268), wk =   0.0750000
        k(    6) = (   0.0000000   0.1443376   0.2560535), wk =   0.0750000
        k(    7) = (   0.0000000   0.2886751   0.0000000), wk =   0.0375000
        k(    8) = (   0.0000000   0.2886751   0.1280268), wk =   0.0750000
        k(    9) = (   0.0000000   0.2886751   0.2560535), wk =   0.0750000
        k(   10) = (   0.0000000   0.4330127   0.0000000), wk =   0.0375000
        k(   11) = (   0.0000000   0.4330127   0.1280268), wk =   0.0750000
        k(   12) = (   0.0000000   0.4330127   0.2560535), wk =   0.0750000
        k(   13) = (   0.0000000  -0.5773503   0.0000000), wk =   0.0187500
        k(   14) = (   0.0000000  -0.5773503   0.1280268), wk =   0.0375000
        k(   15) = (   0.0000000  -0.5773503   0.2560535), wk =   0.0375000
        k(   16) = (   0.1250000   0.2165064   0.0000000), wk =   0.0375000
        k(   17) = (   0.1250000   0.2165064   0.1280268), wk =   0.0750000
        k(   18) = (   0.1250000   0.2165064   0.2560535), wk =   0.0750000
        k(   19) = (   0.1250000   0.3608439   0.0000000), wk =   0.0750000
        k(   20) = (   0.1250000   0.3608439   0.1280268), wk =   0.1500000
        k(   21) = (   0.1250000   0.3608439   0.2560535), wk =   0.1500000
        k(   22) = (   0.1250000   0.5051815   0.0000000), wk =   0.0750000
        k(   23) = (   0.1250000   0.5051815   0.1280268), wk =   0.1500000
        k(   24) = (   0.1250000   0.5051815   0.2560535), wk =   0.1500000
        k(   25) = (   0.2500000   0.4330127   0.0000000), wk =   0.0375000
        k(   26) = (   0.2500000   0.4330127   0.1280268), wk =   0.0750000
        k(   27) = (   0.2500000   0.4330127   0.2560535), wk =   0.0750000
        k(   28) = (   0.2500000   0.5773503   0.0000000), wk =   0.0375000
        k(   29) = (   0.2500000   0.5773503   0.1280268), wk =   0.0750000
        k(   30) = (   0.2500000   0.5773503   0.2560535), wk =   0.0750000

     Dense  grid:    55879 G-vectors     FFT dimensions: (  45,  45,  72)

     Estimated max dynamical RAM per process >      21.70 MB

     Estimated total dynamical RAM >     173.58 MB

     Initial potential from superposition of free atoms

     starting charge      13.9897, renormalised to      14.0000
     Starting wfcs are   12 randomized atomic wfcs

     total cpu time spent up to now is        1.2 secs

     Self-consistent Calculation

     iteration #  1     ecut=    80.00 Ry     beta= 0.70
     Davidson diagonalization with overlap
     ethr =  1.00E-02,  avg # of iterations =  6.4

     Threshold (ethr) on eigenvalues was too large:
     Diagonalizing with lowered threshold

     Davidson diagonalization with overlap
     ethr =  3.75E-05,  avg # of iterations =  7.5

     total cpu time spent up to now is        3.0 secs

     total energy              =     -45.43254671 Ry
     estimated scf accuracy    <       0.00674305 Ry

     iteration #  2     ecut=    80.00 Ry     beta= 0.70
     Davidson diagonalization with overlap
     ethr =  4.82E-05,  avg # of iterations =  1.0

     total cpu time spent up to now is        3.5 secs

     total energy              =     -45.43281881 Ry
     estimated scf accuracy    <       0.00044290 Ry

     iteration #  3     ecut=    80.00 Ry     beta= 0.70
     Davidson diagonalization with overlap
     ethr =  3.16E-06,  avg # of iterations =  5.6

     total cpu time spent up to now is        4.1 secs

     total energy              =     -45.43285666 Ry
     estimated scf accuracy    <       0.00000846 Ry

     iteration #  4     ecut=    80.00 Ry     beta= 0.70
     Davidson diagonalization with overlap
     ethr =  6.04E-08,  avg # of iterations =  2.5

     total cpu time spent up to now is        4.7 secs

     total energy              =     -45.43285931 Ry
     estimated scf accuracy    <       0.00000010 Ry

     iteration #  5     ecut=    80.00 Ry     beta= 0.70
     Davidson diagonalization with overlap
     c_bands:  1 eigenvalues not converged
     ethr =  7.23E-10,  avg # of iterations =  4.5

     total cpu time spent up to now is        5.4 secs

     total energy              =     -45.43285940 Ry
     estimated scf accuracy    <       0.00000001 Ry

     iteration #  6     ecut=    80.00 Ry     beta= 0.70
     Davidson diagonalization with overlap
     ethr =  8.97E-11,  avg # of iterations =  2.6

     total cpu time spent up to now is        5.9 secs

     End of self-consistent calculation

          k = 0.0000 0.0000 0.0000 (  6957 PWs)   bands (ev):

   -43.0612 -43.0598  -5.7176  -4.0042  -0.3122   3.6223   3.6223   4.8194
     4.8194   5.1836   8.1971

          k = 0.0000 0.0000 0.1280 (  6969 PWs)   bands (ev):

   -43.0611 -43.0599  -5.6105  -4.2797   0.1971   3.7163   3.7163   4.4481
     4.6806   4.6806   8.2209

          k = 0.0000 0.0000 0.2561 (  7036 PWs)   bands (ev):

   -43.0607 -43.0603  -5.2977  -4.8157   1.4152   2.9497   3.9791   3.9791
     4.3447   4.3447   8.4318

          k = 0.0000 0.1443 0.0000 (  6979 PWs)   bands (ev):

   -43.0611 -43.0597  -5.5896  -3.9291  -0.1770   2.9265   3.3087   4.1595
     4.7017   4.9485   7.9372

          k = 0.0000 0.1443 0.1280 (  6981 PWs)   bands (ev):

   -43.0609 -43.0599  -5.4845  -4.1914   0.3046   3.0326   3.4103   3.8247
     4.5215   4.5679   7.9049

          k = 0.0000 0.1443 0.2561 (  6995 PWs)   bands (ev):

   -43.0606 -43.0602  -5.1784  -4.7087   1.4464   2.7942   3.3603   3.6987
     3.8705   4.1142   8.0478

          k = 0.0000 0.2887 0.0000 (  6961 PWs)   bands (ev):

   -43.0607 -43.0596  -5.2230  -3.7584   0.2002   1.6975   2.7663   2.9204
     4.2782   4.3653   7.4677

          k = 0.0000 0.2887 0.1280 (  6967 PWs)   bands (ev):

   -43.0606 -43.0597  -5.1257  -3.9740   0.5287   1.8927   2.5807   2.8759
     4.1393   4.2522   7.4548

          k = 0.0000 0.2887 0.2561 (  6965 PWs)   bands (ev):

   -43.0603 -43.0600  -4.8445  -4.4216   1.2074   1.8822   2.6160   3.1907
     3.6071   3.6574   7.5081

          k = 0.0000 0.4330 0.0000 (  6986 PWs)   bands (ev):

   -43.0603 -43.0596  -4.6933  -3.6781   0.4237   1.1729   1.8214   2.3650
     3.3240   4.0553   7.0671

          k = 0.0000 0.4330 0.1280 (  6973 PWs)   bands (ev):

   -43.0602 -43.0597  -4.6156  -3.8008   0.3168   1.3574   1.7746   2.4782
     3.6481   3.8087   7.1126

          k = 0.0000 0.4330 0.2561 (  6966 PWs)   bands (ev):

   -43.0600 -43.0598  -4.3972  -4.0899   0.4137   0.8088   2.7480   2.8049
     3.2941   3.6268   7.0767

          k = 0.0000-0.5774 0.0000 (  6984 PWs)   bands (ev):

   -43.0601 -43.0596  -4.3099  -3.7922   0.2495   1.3398   1.5891   2.2225
     2.6465   3.9377   6.9229

          k = 0.0000-0.5774 0.1280 (  6972 PWs)   bands (ev):

   -43.0600 -43.0596  -4.2596  -3.8371   0.0910   0.8893   2.0715   2.3368
     3.1686   3.6855   6.9932

          k = 0.0000-0.5774 0.2561 (  6966 PWs)   bands (ev):

   -43.0599 -43.0598  -4.1265  -3.9629   0.0384   0.3239   2.6667   2.9859
     3.1620   3.5735   6.9337

          k = 0.1250 0.2165 0.0000 (  6985 PWs)   bands (ev):

   -43.0608 -43.0597  -5.3417  -3.8041   0.0844   2.2509   2.4155   3.6459
     4.2126   4.5118   8.0890

          k = 0.1250 0.2165 0.1280 (  6974 PWs)   bands (ev):

   -43.0607 -43.0598  -5.2415  -4.0368   0.4867   2.3939   2.4662   3.2994
     3.9932   4.4421   8.0617

          k = 0.1250 0.2165 0.2561 (  6973 PWs)   bands (ev):

   -43.0604 -43.0601  -4.9509  -4.5104   1.3840   2.2314   2.8303   3.0438
     3.5684   3.8024   8.1632

          k = 0.1250 0.3608 0.0000 (  6958 PWs)   bands (ev):

   -43.0604 -43.0596  -4.8868  -3.6659   0.5153   1.2370   1.7960   2.7595
     3.6879   3.7848   7.7715

          k = 0.1250 0.3608 0.1280 (  6974 PWs)   bands (ev):

   -43.0603 -43.0597  -4.8000  -3.8291   0.5902   1.4305   1.9248   2.5064
     3.4363   4.0384   7.8517

          k = 0.1250 0.3608 0.2561 (  6970 PWs)   bands (ev):

   -43.0601 -43.0599  -4.5521  -4.1905   0.8557   1.2619   2.3261   2.6741
     3.1129   3.8375   7.8025

          k = 0.1250 0.5052 0.0000 (  6969 PWs)   bands (ev):

   -43.0601 -43.0596  -4.3660  -3.7186   0.3315   1.3182   1.5432   2.1125
     2.8369   3.5128   7.2748

          k = 0.1250 0.5052 0.1280 (  6972 PWs)   bands (ev):

   -43.0600 -43.0596  -4.3084  -3.7828   0.2250   1.0428   1.6727   2.3748
     3.0423   3.5166   7.5072

          k = 0.1250 0.5052 0.2561 (  6965 PWs)   bands (ev):

   -43.0599 -43.0598  -4.1526  -3.9508   0.2302   0.5333   2.0130   2.5113
     3.2496   3.8053   7.4354

          k = 0.2500 0.4330 0.0000 (  6977 PWs)   bands (ev):

   -43.0601 -43.0596  -4.4115  -3.6555   0.5234   0.9618   1.6480   2.3030
     2.8571   3.1077   6.7567

          k = 0.2500 0.4330 0.1280 (  6973 PWs)   bands (ev):

   -43.0600 -43.0596  -4.3485  -3.7376   0.5984   0.7402   1.8754   2.0773
     2.6879   3.6063   7.3055

          k = 0.2500 0.4330 0.2561 (  6969 PWs)   bands (ev):

   -43.0599 -43.0598  -4.1750  -3.9423   0.6473   0.6980   1.5766   1.8546
     3.3121   3.9081   8.1536

          k = 0.2500 0.5774 0.0000 (  6982 PWs)   bands (ev):

   -43.0599 -43.0597  -4.0530  -3.7908   0.1609   1.4104   1.6290   2.1874
     2.3388   2.7399   6.3612

          k = 0.2500 0.5774 0.1280 (  6978 PWs)   bands (ev):

   -43.0598 -43.0597  -4.0233  -3.8095   0.2387   1.1505   1.1925   2.1091
     2.7522   3.2123   6.9437

          k = 0.2500 0.5774 0.2561 (  6974 PWs)   bands (ev):

   -43.0598 -43.0597  -3.9488  -3.8661   0.4169   0.7005   1.1245   1.5356
     3.5810   3.8184   8.0219

     the Fermi energy is     2.4920 ev

!    total energy              =     -45.43285941 Ry
     estimated scf accuracy    <          3.1E-10 Ry
     smearing contrib. (-TS)   =      -0.00132458 Ry
     internal energy E=F+TS    =     -45.43153483 Ry

     The total energy is F=E-TS. E is the sum of the following terms:
     one-electron contribution =     -16.08023035 Ry
     hartree contribution      =       8.67396331 Ry
     xc contribution           =     -12.54268955 Ry
     ewald contribution        =     -25.48257823 Ry

     convergence has been achieved in   6 iterations

     Forces acting on atoms (cartesian axes, Ry/au):

     atom    1 type  1   force =     0.00000000    0.00000000   -0.00794555
     atom    2 type  1   force =     0.00000000    0.00000000   -0.00794555
     atom    3 type  2   force =     0.00000000   -0.00000000    0.00794555
     atom    4 type  2   force =     0.00000000    0.00000000    0.00794555
     The non-local contrib.  to forces
     atom    1 type  1   force =     0.00000000   -0.00000000   -0.00185733
     atom    2 type  1   force =     0.00000000    0.00000000   -0.00185733
     atom    3 type  2   force =     0.00000000   -0.00000000    0.01449122
     atom    4 type  2   force =     0.00000000   -0.00000000    0.01449122
     The ionic contribution  to forces
     atom    1 type  1   force =     0.00000000   -0.00000002   -0.02721232
     atom    2 type  1   force =     0.00000000    0.00000002   -0.02721232
     atom    3 type  2   force =     0.00000000   -0.00000002    0.02721232
     atom    4 type  2   force =    -0.00000000    0.00000002    0.02721232
     The local contribution  to forces
     atom    1 type  1   force =     0.00000037   -0.00000022    0.02112023
     atom    2 type  1   force =     0.00000037    0.00000065    0.02112022
     atom    3 type  2   force =     0.00000001   -0.00000001   -0.03288643
     atom    4 type  2   force =     0.00000001    0.00000002   -0.03288637
     The core correction contribution to forces
     atom    1 type  1   force =     0.00000000    0.00000000    0.00000000
     atom    2 type  1   force =     0.00000000    0.00000000    0.00000000
     atom    3 type  2   force =    -0.00000000    0.00000000   -0.00087045
     atom    4 type  2   force =    -0.00000000   -0.00000000   -0.00087045
     The Hubbard contrib.    to forces
     atom    1 type  1   force =     0.00000000    0.00000000    0.00000000
     atom    2 type  1   force =     0.00000000    0.00000000    0.00000000
     atom    3 type  2   force =     0.00000000    0.00000000    0.00000000
     atom    4 type  2   force =     0.00000000    0.00000000    0.00000000
     The SCF correction term to forces
     atom    1 type  1   force =     0.00000000   -0.00000000    0.00000600
     atom    2 type  1   force =     0.00000000    0.00000000    0.00000600
     atom    3 type  2   force =    -0.00000000   -0.00000000    0.00000100
     atom    4 type  2   force =    -0.00000000    0.00000000    0.00000100

     Total force =     0.015891     Total SCF correction =     0.000009


     Computing stress (Cartesian axis) and pressure

          total   stress  (Ry/bohr**3)                   (kbar)     P=       17.42
   0.00023703   0.00000000   0.00000000           34.87        0.00        0.00
   0.00000000   0.00023703   0.00000000            0.00       34.87        0.00
   0.00000000   0.00000000  -0.00011880            0.00        0.00      -17.48


     BFGS Geometry Optimization
     Energy error            =      0.0E+00 Ry
     Gradient error          =      7.9E-03 Ry/Bohr
     Cell gradient error     =      5.2E+02 kbar

     number of scf cycles    =   1
     number of bfgs steps    =   0

     enthalpy           new  =     -43.4715456722 Ry

     new trust radius        =       0.4225077864 bohr
ibrav =      4
 celldm(1) =      6.93243058
 celldm(3) =      1.54708381
Input lattice vectors:
     0.92095249     0.00000000     0.00000000
    -0.46047624     0.79756825     0.00000000
     0.00000000     0.00000000     1.42479068
New lattice vectors in INITIAL alat:
     0.92095249     0.00000000     0.00000000
    -0.46047624     0.79756825     0.00000000
     0.00000000     0.00000000     1.42479068
New lattice vectors in NEW alat (for information only):
     1.00000000     0.00000000     0.00000000
    -0.50000000     0.86602540     0.00000000
     0.00000000     0.00000000     1.54708381
Discrepancy in bohr =     0.000000    0.000000    0.000000
     new conv_thr            =       0.0000000100 Ry

     new unit-cell volume =    446.37623 a.u.^3 (    66.14613 Ang^3 )
     density =      1.75862 g/cm^3

CELL_PARAMETERS (alat=  7.52745734)
   0.920952490   0.000000000   0.000000000
  -0.460476245   0.797568252   0.000000000
   0.000000000   0.000000000   1.424790684

ATOMIC_POSITIONS (crystal)
Li            0.3333333300        0.6666666700        0.8049213112
Li            0.6666666600        0.3333333300        0.3049213112
Si            0.3333333300        0.6666666700        0.1958316888
Si            0.6666666600        0.3333333300        0.6958316888



     Writing config-only to output data dir ./output/LiSi.save/
     NEW-OLD atomic charge density approx. for the potential
     extrapolated charge    9.90498, renormalised to   14.00000

     total cpu time spent up to now is        8.2 secs

     Self-consistent Calculation

     iteration #  1     ecut=    80.00 Ry     beta= 0.70
     Davidson diagonalization with overlap
     c_bands:  1 eigenvalues not converged
     c_bands:  1 eigenvalues not converged
     c_bands:  1 eigenvalues not converged
     c_bands:  1 eigenvalues not converged
     c_bands:  1 eigenvalues not converged
     ethr =  1.00E-06,  avg # of iterations = 14.0

     total cpu time spent up to now is       10.0 secs

     total energy              =     -45.16704114 Ry
     estimated scf accuracy    <       0.13058088 Ry

     iteration #  2     ecut=    80.00 Ry     beta= 0.70
     Davidson diagonalization with overlap
     ethr =  9.33E-04,  avg # of iterations =  3.0

     total cpu time spent up to now is       10.7 secs

     total energy              =     -45.38104029 Ry
     estimated scf accuracy    <       0.03681237 Ry

     iteration #  3     ecut=    80.00 Ry     beta= 0.70
     Davidson diagonalization with overlap
     ethr =  2.63E-04,  avg # of iterations =  1.2

     total cpu time spent up to now is       11.2 secs

     total energy              =     -45.37751984 Ry
     estimated scf accuracy    <       0.00834752 Ry

     iteration #  4     ecut=    80.00 Ry     beta= 0.70
     Davidson diagonalization with overlap
     ethr =  5.96E-05,  avg # of iterations =  2.6

     total cpu time spent up to now is       11.7 secs

     total energy              =     -45.37836054 Ry
     estimated scf accuracy    <       0.00002519 Ry

     iteration #  5     ecut=    80.00 Ry     beta= 0.70
     Davidson diagonalization with overlap
     ethr =  1.80E-07,  avg # of iterations =  6.2

     total cpu time spent up to now is       12.5 secs

     total energy              =     -45.37838080 Ry
     estimated scf accuracy    <       0.00000263 Ry

     iteration #  6     ecut=    80.00 Ry     beta= 0.70
     Davidson diagonalization with overlap
     ethr =  1.88E-08,  avg # of iterations =  2.0

     total cpu time spent up to now is       13.1 secs

     total energy              =     -45.37837988 Ry
     estimated scf accuracy    <       0.00000339 Ry

     iteration #  7     ecut=    80.00 Ry     beta= 0.70
     Davidson diagonalization with overlap
     ethr =  1.88E-08,  avg # of iterations =  2.0

     total cpu time spent up to now is       13.6 secs

     total energy              =     -45.37838018 Ry
     estimated scf accuracy    <       0.00000001 Ry

     iteration #  8     ecut=    80.00 Ry     beta= 0.70
     Davidson diagonalization with overlap
     ethr =  9.53E-11,  avg # of iterations =  3.5

     total cpu time spent up to now is       14.2 secs

     End of self-consistent calculation

          k = 0.0000 0.0000 0.0000 (  6957 PWs)   bands (ev):

   -41.2385 -41.2334  -4.7426  -2.2642   0.7732   5.7655   5.7655   7.5287
     7.5287   8.0823  10.2580

          k = 0.0000 0.0000 0.1404 (  6969 PWs)   bands (ev):

   -41.2380 -41.2339  -4.6052  -2.7455   1.5482   5.8954   5.8954   7.1273
     7.3127   7.3127  10.2759

          k = 0.0000 0.0000 0.2807 (  7036 PWs)   bands (ev):

   -41.2367 -41.2352  -4.1977  -3.5440   3.2058   5.1952   6.2654   6.2654
     6.7994   6.7994  10.5586

          k = 0.0000 0.1567 0.0000 (  6979 PWs)   bands (ev):

   -41.2380 -41.2332  -4.5799  -2.1531   0.9171   4.8908   5.3195   6.7217
     7.3679   7.6830  10.1004

          k = 0.0000 0.1567 0.1404 (  6981 PWs)   bands (ev):

   -41.2375 -41.2337  -4.4443  -2.6182   1.6619   5.0286   5.4570   6.2980
     7.0715   7.1660  10.0772

          k = 0.0000 0.1567 0.2807 (  6995 PWs)   bands (ev):

   -41.2363 -41.2349  -4.0423  -3.3991   3.2448   5.0222   5.4501   5.8539
     6.1365   6.4481  10.2676

          k = 0.0000 0.3135 0.0000 (  6961 PWs)   bands (ev):

   -41.2367 -41.2329  -4.1043  -1.8982   1.3078   3.3992   4.5967   5.1738
     6.6356   6.8798   9.6107

          k = 0.0000 0.3135 0.1404 (  6967 PWs)   bands (ev):

   -41.2363 -41.2333  -3.9758  -2.2937   1.8650   3.6373   4.6764   4.7411
     6.5170   6.7017   9.6452

          k = 0.0000 0.3135 0.2807 (  6965 PWs)   bands (ev):

   -41.2354 -41.2342  -3.5967  -2.9978   2.8838   3.7856   4.5189   5.1617
     5.8061   5.8586   9.7580

          k = 0.0000 0.4702 0.0000 (  6986 PWs)   bands (ev):

   -41.2352 -41.2327  -3.3761  -1.8210   1.5941   2.7907   3.7209   4.0825
     5.2664   6.4545   9.1983

          k = 0.0000 0.4702 0.1404 (  6973 PWs)   bands (ev):

   -41.2350 -41.2330  -3.2685  -2.0333   1.5449   3.0826   3.4974   4.2298
     5.8117   6.0674   9.2509

          k = 0.0000 0.4702 0.2807 (  6966 PWs)   bands (ev):

   -41.2344 -41.2336  -2.9587  -2.4999   1.7620   2.3244   4.6601   4.7626
     5.3241   5.9146   9.2750

          k = 0.0000-0.6269 0.0000 (  6984 PWs)   bands (ev):

   -41.2345 -41.2328  -2.7608  -2.1287   1.6256   3.0006   3.2494   3.9026
     4.3253   6.2980   9.0622

          k = 0.0000-0.6269 0.1404 (  6972 PWs)   bands (ev):

   -41.2343 -41.2330  -2.6937  -2.1698   1.3695   2.3533   3.9063   4.0507
     5.1117   5.9045   9.1227

          k = 0.0000-0.6269 0.2807 (  6966 PWs)   bands (ev):

   -41.2339 -41.2334  -2.5171  -2.3092   1.2541   1.6096   4.4837   5.1145
     5.1528   5.8192   9.1851

          k = 0.1357 0.2351 0.0000 (  6985 PWs)   bands (ev):

   -41.2371 -41.2330  -4.2602  -1.9656   1.1934   4.1001   4.1786   6.0819
     6.6502   7.0031  10.2876

          k = 0.1357 0.2351 0.1404 (  6974 PWs)   bands (ev):

   -41.2367 -41.2334  -4.1289  -2.3890   1.8458   4.2662   4.2879   5.5447
     6.2947   6.9879  10.3380

          k = 0.1357 0.2351 0.2807 (  6973 PWs)   bands (ev):

   -41.2357 -41.2344  -3.7409  -3.1243   3.1585   4.2626   4.7690   4.9544
     5.6771   6.0943  10.5532

          k = 0.1357 0.3918 0.0000 (  6958 PWs)   bands (ev):

   -41.2357 -41.2328  -3.6519  -1.7642   1.6417   2.7919   3.5451   4.8635
     5.8372   6.0872   9.8548

          k = 0.1357 0.3918 0.1404 (  6974 PWs)   bands (ev):

   -41.2354 -41.2330  -3.5337  -2.0661   1.8887   3.0352   3.6962   4.4207
     5.5619   6.4096  10.1604

          k = 0.1357 0.3918 0.2807 (  6970 PWs)   bands (ev):

   -41.2347 -41.2338  -3.1884  -2.6563   2.3852   2.9549   4.0258   4.5183
     5.1850   6.1844  10.2138

          k = 0.1357 0.5485 0.0000 (  6969 PWs)   bands (ev):

   -41.2345 -41.2328  -2.8854  -1.9322   1.6204   2.7271   3.2634   3.9575
     4.6523   5.7801   9.2572

          k = 0.1357 0.5485 0.1404 (  6972 PWs)   bands (ev):

   -41.2343 -41.2330  -2.8034  -2.0257   1.4665   2.5650   3.2067   4.2841
     5.0242   5.7023   9.7717

          k = 0.1357 0.5485 0.2807 (  6965 PWs)   bands (ev):

   -41.2339 -41.2334  -2.5772  -2.2769   1.4856   1.9029   3.6535   4.3083
     5.4335   6.1382   9.7946

          k = 0.2715 0.4702 0.0000 (  6977 PWs)   bands (ev):

   -41.2345 -41.2328  -2.9733  -1.7682   1.7285   2.2229   3.4294   4.2579
     4.8828   5.1894   8.5179

          k = 0.2715 0.4702 0.1404 (  6973 PWs)   bands (ev):

   -41.2343 -41.2330  -2.8819  -1.9137   1.8428   2.0861   3.6694   3.7623
     4.6983   5.8658   9.3019

          k = 0.2715 0.4702 0.2807 (  6969 PWs)   bands (ev):

   -41.2339 -41.2334  -2.6237  -2.2582   2.0727   2.0747   3.1558   3.3846
     5.5153   6.2948  10.6722

          k = 0.2715 0.6269 0.0000 (  6982 PWs)   bands (ev):

   -41.2338 -41.2331  -2.3996  -2.0281   1.2177   2.8708   3.3226   4.0318
     4.2263   4.8456   8.0274

          k = 0.2715 0.6269 0.1404 (  6978 PWs)   bands (ev):

   -41.2337 -41.2331  -2.3563  -2.0510   1.3247   2.6279   2.7433   3.7702
     4.8505   5.3746   8.8427

          k = 0.2715 0.6269 0.2807 (  6974 PWs)   bands (ev):

   -41.2335 -41.2333  -2.2472  -2.1275   1.6133   2.0687   2.5847   3.0471
     5.8802   6.1710  10.4291

     the Fermi energy is     4.3543 ev

!    total energy              =     -45.37838019 Ry
     estimated scf accuracy    <          1.9E-09 Ry
     smearing contrib. (-TS)   =      -0.00121757 Ry
     internal energy E=F+TS    =     -45.37716262 Ry

     The total energy is F=E-TS. E is the sum of the following terms:
     one-electron contribution =     -12.89209257 Ry
     hartree contribution      =       8.09541249 Ry
     xc contribution           =     -12.82136149 Ry
     ewald contribution        =     -27.75912104 Ry

     convergence has been achieved in   8 iterations

     Forces acting on atoms (cartesian axes, Ry/au):

     atom    1 type  1   force =     0.00000000    0.00000000   -0.01622110
     atom    2 type  1   force =     0.00000000   -0.00000000   -0.01622110
     atom    3 type  2   force =     0.00000000    0.00000000    0.01622110
     atom    4 type  2   force =     0.00000000    0.00000000    0.01622110
     The non-local contrib.  to forces
     atom    1 type  1   force =     0.00000000   -0.00000000   -0.00484672
     atom    2 type  1   force =     0.00000000    0.00000000   -0.00484672
     atom    3 type  2   force =     0.00000000   -0.00000000    0.03148206
     atom    4 type  2   force =     0.00000000    0.00000000    0.03148206
     The ionic contribution  to forces
     atom    1 type  1   force =     0.00000000   -0.00000003   -0.05180393
     atom    2 type  1   force =     0.00000000    0.00000003   -0.05180393
     atom    3 type  2   force =     0.00000000   -0.00000003    0.05180393
     atom    4 type  2   force =     0.00000000    0.00000003    0.05180393
     The local contribution  to forces
     atom    1 type  1   force =     0.00000034   -0.00000020    0.04043114
     atom    2 type  1   force =     0.00000034    0.00000059    0.04043113
     atom    3 type  2   force =     0.00000001   -0.00000000   -0.06517537
     atom    4 type  2   force =     0.00000001    0.00000001   -0.06517530
     The core correction contribution to forces
     atom    1 type  1   force =     0.00000000    0.00000000    0.00000000
     atom    2 type  1   force =     0.00000000    0.00000000    0.00000000
     atom    3 type  2   force =    -0.00000000    0.00000000   -0.00188967
     atom    4 type  2   force =    -0.00000000   -0.00000000   -0.00188967
     The Hubbard contrib.    to forces
     atom    1 type  1   force =     0.00000000    0.00000000    0.00000000
     atom    2 type  1   force =     0.00000000    0.00000000    0.00000000
     atom    3 type  2   force =     0.00000000    0.00000000    0.00000000
     atom    4 type  2   force =     0.00000000    0.00000000    0.00000000
     The SCF correction term to forces
     atom    1 type  1   force =    -0.00000000    0.00000000   -0.00000119
     atom    2 type  1   force =    -0.00000000   -0.00000000   -0.00000119
     atom    3 type  2   force =    -0.00000000    0.00000000    0.00000052
     atom    4 type  2   force =    -0.00000000   -0.00000000    0.00000052

     Total force =     0.032442     Total SCF correction =     0.000002


     Computing stress (Cartesian axis) and pressure

          total   stress  (Ry/bohr**3)                   (kbar)     P=      129.69
   0.00111381   0.00000000   0.00000000          163.85        0.00        0.00
   0.00000000   0.00111381   0.00000000            0.00      163.85        0.00
   0.00000000   0.00000000   0.00041730            0.00        0.00       61.39

     Energy error            =      3.9E-01 Ry
     Gradient error          =      1.6E-02 Ry/Bohr
     Cell gradient error     =      4.4E+02 kbar

     number of scf cycles    =   2
     number of bfgs steps    =   1

     enthalpy           old  =     -43.4715456722 Ry
     enthalpy           new  =     -43.8611782178 Ry

     CASE: enthalpy          _new < enthalpy          _old

     new trust radius        =       0.6111562592 bohr
ibrav =      4
 celldm(1) =      6.17672089
 celldm(3) =      1.48522807
Input lattice vectors:
     0.82055874     0.00000000     0.00000000
    -0.41027937     0.71062471     0.00000000
     0.00000000     0.00000000     1.21871687
New lattice vectors in INITIAL alat:
     0.82055874     0.00000000     0.00000000
    -0.41027937     0.71062471     0.00000000
     0.00000000     0.00000000     1.21871687
New lattice vectors in NEW alat (for information only):
     1.00000000     0.00000000     0.00000000
    -0.50000000     0.86602540     0.00000000
     0.00000000     0.00000000     1.48522807
Discrepancy in bohr =     0.000000    0.000000    0.000000
     new conv_thr            =       0.0000000016 Ry

     new unit-cell volume =    303.10822 a.u.^3 (    44.91600 Ang^3 )
     density =      2.58985 g/cm^3

CELL_PARAMETERS (alat=  7.52745734)
   0.820558737   0.000000000   0.000000000
  -0.410279369   0.710624712   0.000000000
   0.000000000   0.000000000   1.218716872

ATOMIC_POSITIONS (crystal)
Li            0.3333333300        0.6666666700        0.8023198649
Li            0.6666666600        0.3333333300        0.3023198649
Si            0.3333333300        0.6666666700        0.1984331351
Si            0.6666666600        0.3333333300        0.6984331351



     Writing config-only to output data dir ./output/LiSi.save/
     NEW-OLD atomic charge density approx. for the potential

     negative rho (up, down):  1.296E-03 0.000E+00
     extrapolated charge    7.38761, renormalised to   14.00000

     total cpu time spent up to now is       16.4 secs

     Self-consistent Calculation

     iteration #  1     ecut=    80.00 Ry     beta= 0.70
     Davidson diagonalization with overlap
     c_bands:  1 eigenvalues not converged
     c_bands:  1 eigenvalues not converged
     c_bands:  1 eigenvalues not converged
     ethr =  1.00E-06,  avg # of iterations = 14.3

     total cpu time spent up to now is       18.2 secs

     total energy              =     -44.53284666 Ry
     estimated scf accuracy    <       0.56545764 Ry

     iteration #  2     ecut=    80.00 Ry     beta= 0.70
     Davidson diagonalization with overlap
     ethr =  4.04E-03,  avg # of iterations =  2.5

     total cpu time spent up to now is       18.8 secs

     total energy              =     -45.10838005 Ry
     estimated scf accuracy    <       0.12389523 Ry

     iteration #  3     ecut=    80.00 Ry     beta= 0.70
     Davidson diagonalization with overlap
     ethr =  8.85E-04,  avg # of iterations =  1.4

     total cpu time spent up to now is       19.2 secs

     total energy              =     -45.10125109 Ry
     estimated scf accuracy    <       0.02031290 Ry

     iteration #  4     ecut=    80.00 Ry     beta= 0.70
     Davidson diagonalization with overlap
     ethr =  1.45E-04,  avg # of iterations =  2.4

     total cpu time spent up to now is       19.8 secs

     total energy              =     -45.10400651 Ry
     estimated scf accuracy    <       0.00012120 Ry

     iteration #  5     ecut=    80.00 Ry     beta= 0.70
     Davidson diagonalization with overlap
     ethr =  8.66E-07,  avg # of iterations =  6.0

     total cpu time spent up to now is       20.5 secs

     total energy              =     -45.10403581 Ry
     estimated scf accuracy    <       0.00000814 Ry

     iteration #  6     ecut=    80.00 Ry     beta= 0.70
     Davidson diagonalization with overlap
     ethr =  5.82E-08,  avg # of iterations =  2.1

     total cpu time spent up to now is       21.0 secs

     total energy              =     -45.10403697 Ry
     estimated scf accuracy    <       0.00000148 Ry

     iteration #  7     ecut=    80.00 Ry     beta= 0.70
     Davidson diagonalization with overlap
     ethr =  1.06E-08,  avg # of iterations =  1.8

     total cpu time spent up to now is       21.5 secs

     total energy              =     -45.10403713 Ry
     estimated scf accuracy    <          1.9E-09 Ry

     iteration #  8     ecut=    80.00 Ry     beta= 0.70
     Davidson diagonalization with overlap
     ethr =  1.35E-11,  avg # of iterations =  4.8

     total cpu time spent up to now is       22.2 secs

     End of self-consistent calculation

          k = 0.0000 0.0000 0.0000 (  6957 PWs)   bands (ev):

   -38.2626 -38.2323  -2.6598   1.1853   3.5237   9.7417   9.7417  12.9020
    12.9021  14.1349  14.1699

          k = 0.0000 0.0000 0.1641 (  6969 PWs)   bands (ev):

   -38.2597 -38.2352  -2.4762   0.2341   4.8906   9.9484   9.9484  12.5209
    12.5209  12.8593  14.0637

          k = 0.0000 0.0000 0.3282 (  7036 PWs)   bands (ev):

   -38.2521 -38.2427  -1.9236  -1.0029   7.3440  10.1572  10.5555  10.5555
    11.5008  11.5008  14.5524

          k = 0.0000 0.1759 0.0000 (  6979 PWs)   bands (ev):

   -38.2600 -38.2318  -2.4553   1.3978   3.5914   8.6343   9.0469  11.9239
    12.7949  13.0778  14.1929

          k = 0.0000 0.1759 0.1641 (  6981 PWs)   bands (ev):

   -38.2573 -38.2345  -2.2730   0.4290   4.9586   8.8411   9.2588  11.2218
    12.0813  12.5796  14.1887

          k = 0.0000 0.1759 0.3282 (  6995 PWs)   bands (ev):

   -38.2502 -38.2415  -1.7237  -0.8075   7.3294   9.4332   9.7759   9.8848
    10.7391  10.8807  14.4409

          k = 0.0000 0.3518 0.0000 (  6961 PWs)   bands (ev):

   -38.2534 -38.2309  -1.8437   1.9126   3.7049   6.8896   8.0213   9.9232
    11.1351  11.9774  13.6947

          k = 0.0000 0.3518 0.1641 (  6967 PWs)   bands (ev):

   -38.2512 -38.2330  -1.6673   0.9486   4.8745   7.2538   8.2374   8.9503
    11.1765  11.7086  13.8331

          k = 0.0000 0.3518 0.3282 (  6965 PWs)   bands (ev):

   -38.2455 -38.2386  -1.1359  -0.2496   6.3871   7.5972   8.6761   8.8775
     9.9050  10.7340  14.1478

          k = 0.0000 0.5277 0.0000 (  6986 PWs)   bands (ev):

   -38.2457 -38.2310  -0.8426   1.8037   4.0415   6.3719   7.3256   7.8607
     9.0325  11.3467  13.4654

          k = 0.0000 0.5277 0.1641 (  6973 PWs)   bands (ev):

   -38.2443 -38.2324  -0.6881   1.3464   4.1562   6.6862   7.3471   7.5434
    10.2132  10.5225  13.5007

          k = 0.0000 0.5277 0.3282 (  6966 PWs)   bands (ev):

   -38.2406 -38.2360  -0.2303   0.4977   4.6439   5.5193   8.1892   9.1856
     9.2285  10.8130  13.6045

          k = 0.0000-0.7036 0.0000 (  6984 PWs)   bands (ev):

   -38.2417 -38.2319   0.2968   0.7062   4.8121   6.5574   6.9685   7.0862
     7.6853  11.1251  13.4051

          k = 0.0000-0.7036 0.1641 (  6972 PWs)   bands (ev):

   -38.2408 -38.2328   0.3731   0.7357   4.3085   5.4397   7.3044   7.9828
     9.0806  10.2943  13.4303

          k = 0.0000-0.7036 0.3282 (  6966 PWs)   bands (ev):

   -38.2383 -38.2352   0.5623   0.7245   3.9600   4.3733   7.9517   8.9942
     9.7812  10.5339  13.4228

          k = 0.1523 0.2639 0.0000 (  6985 PWs)   bands (ev):

   -38.2554 -38.2311  -2.0468   1.7746   3.7038   7.4830   7.8036  11.1318
    11.6227  11.8634  14.3128

          k = 0.1523 0.2639 0.1641 (  6974 PWs)   bands (ev):

   -38.2530 -38.2334  -1.8679   0.7921   5.0133   7.6796   8.0343  10.0848
    10.8318  12.2844  14.4960

          k = 0.1523 0.2639 0.3282 (  6973 PWs)   bands (ev):

   -38.2469 -38.2394  -1.3288  -0.4284   7.0186   8.1665   8.6749   8.8053
     9.8320  10.9816  14.9652

          k = 0.1523 0.4398 0.0000 (  6958 PWs)   bands (ev):

   -38.2481 -38.2308  -1.2365   2.1311   3.9330   5.8619   7.1949   9.2561
    10.0708  10.9332  13.8015

          k = 0.1523 0.4398 0.1641 (  6974 PWs)   bands (ev):

   -38.2465 -38.2324  -1.0698   1.3389   4.6619   6.2066   7.3896   8.4036
     9.8482  11.3278  14.4709

          k = 0.1523 0.4398 0.3282 (  6970 PWs)   bands (ev):

   -38.2421 -38.2367  -0.5695   0.2562   5.5799   6.4254   7.3885   8.2133
     9.6347  11.2324  14.7959

          k = 0.1523 0.6157 0.0000 (  6969 PWs)   bands (ev):

   -38.2418 -38.2319  -0.0743   1.3674   4.5584   5.4837   6.9608   7.6811
     8.5548  10.5722  13.1001

          k = 0.1523 0.6157 0.1641 (  6972 PWs)   bands (ev):

   -38.2408 -38.2328   0.0471   1.2453   4.1937   5.7233   6.3098   8.2979
     9.1658  10.2524  14.2816

          k = 0.1523 0.6157 0.3282 (  6965 PWs)   bands (ev):

   -38.2383 -38.2352   0.3902   0.8627   4.1862   4.8140   6.9309   7.8949
    10.1789  11.1077  14.3617

          k = 0.3047 0.5277 0.0000 (  6977 PWs)   bands (ev):

   -38.2418 -38.2318  -0.2492   1.9677   4.1611   4.8038   7.2137   8.0744
     9.3359   9.8174  11.9751

          k = 0.3047 0.5277 0.1641 (  6973 PWs)   bands (ev):

   -38.2408 -38.2328  -0.1112   1.6169   4.3410   4.9039   7.1984   7.3662
     9.1260  10.6945  13.3856

          k = 0.3047 0.5277 0.3282 (  6969 PWs)   bands (ev):

   -38.2383 -38.2352   0.2937   0.9215   4.8162   5.1000   6.4850   6.5309
    10.3180  11.4293  15.7356

          k = 0.3047 0.7036 0.0000 (  6982 PWs)   bands (ev):

   -38.2377 -38.2337   0.8108   1.2321   3.4454   5.8484   6.7814   7.5341
     8.8134   9.5374  11.3341

          k = 0.3047 0.7036 0.1641 (  6978 PWs)   bands (ev):

   -38.2373 -38.2340   0.8644   1.2259   3.5716   5.7034   5.9259   7.1849
     9.5130  10.0564  12.7700

          k = 0.3047 0.7036 0.3282 (  6974 PWs)   bands (ev):

   -38.2363 -38.2350   1.0041   1.1552   4.0093   4.8242   5.7378   6.2753
    10.8809  11.2220  15.3449

     the Fermi energy is     8.1061 ev

!    total energy              =     -45.10403714 Ry
     estimated scf accuracy    <          6.6E-10 Ry
     smearing contrib. (-TS)   =      -0.00050922 Ry
     internal energy E=F+TS    =     -45.10352792 Ry

     The total energy is F=E-TS. E is the sum of the following terms:
     one-electron contribution =      -7.48862426 Ry
     hartree contribution      =       7.32943723 Ry
     xc contribution           =     -13.36994212 Ry
     ewald contribution        =     -31.57439876 Ry

     convergence has been achieved in   8 iterations

     Forces acting on atoms (cartesian axes, Ry/au):

     atom    1 type  1   force =    -0.00000000   -0.00000000   -0.06325358
     atom    2 type  1   force =     0.00000000   -0.00000000   -0.06325358
     atom    3 type  2   force =     0.00000000   -0.00000000    0.06325358
     atom    4 type  2   force =     0.00000000    0.00000000    0.06325358
     The non-local contrib.  to forces
     atom    1 type  1   force =     0.00000000   -0.00000000   -0.01297764
     atom    2 type  1   force =     0.00000000   -0.00000000   -0.01297764
     atom    3 type  2   force =     0.00000000    0.00000000    0.09453580
     atom    4 type  2   force =     0.00000000   -0.00000000    0.09453580
     The ionic contribution  to forces
     atom    1 type  1   force =     0.00000000   -0.00000004   -0.17142342
     atom    2 type  1   force =     0.00000000    0.00000004   -0.17142342
     atom    3 type  2   force =     0.00000000   -0.00000004    0.17142342
     atom    4 type  2   force =     0.00000000    0.00000004    0.17142342
     The local contribution  to forces
     atom    1 type  1   force =     0.00000030   -0.00000018    0.12114839
     atom    2 type  1   force =     0.00000030    0.00000053    0.12114839
     atom    3 type  2   force =    -0.00000000    0.00000000   -0.19712490
     atom    4 type  2   force =    -0.00000000   -0.00000000   -0.19712482
     The core correction contribution to forces
     atom    1 type  1   force =     0.00000000    0.00000000    0.00000000
     atom    2 type  1   force =     0.00000000    0.00000000    0.00000000
     atom    3 type  2   force =    -0.00000000    0.00000000   -0.00558234
     atom    4 type  2   force =    -0.00000000   -0.00000000   -0.00558233
     The Hubbard contrib.    to forces
     atom    1 type  1   force =     0.00000000    0.00000000    0.00000000
     atom    2 type  1   force =     0.00000000    0.00000000    0.00000000
     atom    3 type  2   force =     0.00000000    0.00000000    0.00000000
     atom    4 type  2   force =     0.00000000    0.00000000    0.00000000
     The SCF correction term to forces
     atom    1 type  1   force =    -0.00000000    0.00000000   -0.00000132
     atom    2 type  1   force =    -0.00000000   -0.00000000   -0.00000132
     atom    3 type  2   force =     0.00000000    0.00000000    0.00000114
     atom    4 type  2   force =     0.00000000   -0.00000000    0.00000114

     Total force =     0.126507     Total SCF correction =     0.000002


     Computing stress (Cartesian axis) and pressure

          total   stress  (Ry/bohr**3)                   (kbar)     P=      566.18
   0.00434544   0.00000000   0.00000000          639.24        0.00        0.00
   0.00000000   0.00434544   0.00000000            0.00      639.24        0.00
  -0.00000000  -0.00000000   0.00285552           -0.00       -0.00      420.06

     Energy error            =      2.1E-01 Ry
     Gradient error          =      6.3E-02 Ry/Bohr
     Cell gradient error     =      1.4E+02 kbar

     number of scf cycles    =   3
     number of bfgs steps    =   2

     enthalpy           old  =     -43.8611782178 Ry
     enthalpy           new  =     -44.0737932425 Ry

     CASE: enthalpy          _new < enthalpy          _old

     new trust radius        =       0.0585418907 bohr
ibrav =      4
 celldm(1) =      6.28056835
 celldm(3) =      1.44551341
Input lattice vectors:
     0.83435456     0.00000000    -0.00000000
    -0.41717728     0.72257224    -0.00000000
     0.00000000     0.00000000     1.20607070
New lattice vectors in INITIAL alat:
     0.83435456     0.00000000     0.00000000
    -0.41717728     0.72257224     0.00000000
     0.00000000     0.00000000     1.20607070
New lattice vectors in NEW alat (for information only):
     1.00000000     0.00000000     0.00000000
    -0.50000000     0.86602540     0.00000000
     0.00000000     0.00000000     1.44551341
Discrepancy in bohr =     0.000000    0.000000    0.000000
     new conv_thr            =       0.0000000063 Ry

     new unit-cell volume =    310.13415 a.u.^3 (    45.95714 Ang^3 )
     density =      2.53118 g/cm^3

CELL_PARAMETERS (alat=  7.52745734)
   0.834354559   0.000000000   0.000000000
  -0.417177279   0.722572244   0.000000000
   0.000000000   0.000000000   1.206070702

ATOMIC_POSITIONS (crystal)
Li            0.3333333300        0.6666666700        0.7984993007
Li            0.6666666600        0.3333333300        0.2984993007
Si            0.3333333300        0.6666666700        0.2022536993
Si            0.6666666600        0.3333333300        0.7022536993



     Writing config-only to output data dir ./output/LiSi.save/
     NEW-OLD atomic charge density approx. for the potential
     extrapolated charge   14.31693, renormalised to   14.00000

     total cpu time spent up to now is       24.3 secs

     Self-consistent Calculation

     iteration #  1     ecut=    80.00 Ry     beta= 0.70
     Davidson diagonalization with overlap
     ethr =  1.00E-06,  avg # of iterations =  8.0

     total cpu time spent up to now is       25.4 secs

     total energy              =     -45.14664213 Ry
     estimated scf accuracy    <       0.00029489 Ry

     iteration #  2     ecut=    80.00 Ry     beta= 0.70
     Davidson diagonalization with overlap
     ethr =  2.11E-06,  avg # of iterations =  3.7

     total cpu time spent up to now is       26.1 secs

     total energy              =     -45.14779279 Ry
     estimated scf accuracy    <       0.00033177 Ry

     iteration #  3     ecut=    80.00 Ry     beta= 0.70
     Davidson diagonalization with overlap
     ethr =  2.11E-06,  avg # of iterations =  1.0

     total cpu time spent up to now is       26.5 secs

     total energy              =     -45.14772980 Ry
     estimated scf accuracy    <       0.00011729 Ry

     iteration #  4     ecut=    80.00 Ry     beta= 0.70
     Davidson diagonalization with overlap
     ethr =  8.38E-07,  avg # of iterations =  2.0

     total cpu time spent up to now is       26.9 secs

     total energy              =     -45.14774182 Ry
     estimated scf accuracy    <       0.00000032 Ry

     iteration #  5     ecut=    80.00 Ry     beta= 0.70
     Davidson diagonalization with overlap
     ethr =  2.32E-09,  avg # of iterations =  4.0

     total cpu time spent up to now is       27.5 secs

     total energy              =     -45.14774216 Ry
     estimated scf accuracy    <       0.00000003 Ry

     iteration #  6     ecut=    80.00 Ry     beta= 0.70
     Davidson diagonalization with overlap
     ethr =  2.05E-10,  avg # of iterations =  2.1

     total cpu time spent up to now is       28.0 secs

     total energy              =     -45.14774216 Ry
     estimated scf accuracy    <       0.00000001 Ry

     iteration #  7     ecut=    80.00 Ry     beta= 0.70
     Davidson diagonalization with overlap
     ethr =  1.01E-10,  avg # of iterations =  1.5

     total cpu time spent up to now is       28.5 secs

     End of self-consistent calculation

          k = 0.0000 0.0000 0.0000 (  6957 PWs)   bands (ev):

   -38.3915 -38.3614  -2.8295   1.2286   3.3461   9.1800   9.1800  12.3731
    12.3731  13.7977  13.7977

          k = 0.0000 0.0000 0.1658 (  6969 PWs)   bands (ev):

   -38.3886 -38.3643  -2.6403   0.1813   4.8190   9.3927   9.3927  12.0179
    12.0180  12.8603  13.6205

          k = 0.0000 0.0000 0.3317 (  7036 PWs)   bands (ev):

   -38.3810 -38.3717  -2.0697  -1.1158   7.3587  10.0173  10.0173  10.2274
    10.9886  10.9886  14.0807

          k = 0.0000 0.1730 0.0000 (  6979 PWs)   bands (ev):

   -38.3891 -38.3611  -2.6314   1.4240   3.4029   8.1629   8.5304  11.5004
    12.3633  12.7899  13.7676

          k = 0.0000 0.1730 0.1658 (  6981 PWs)   bands (ev):

   -38.3864 -38.3638  -2.4437   0.3623   4.8649   8.3839   8.7482  10.8003
    11.6451  12.4436  13.8078

          k = 0.0000 0.1730 0.3317 (  6995 PWs)   bands (ev):

   -38.3794 -38.3707  -1.8776  -0.9301   7.2678   9.0632   9.3915   9.4511
    10.4150  10.6551  13.9795

          k = 0.0000 0.3460 0.0000 (  6961 PWs)   bands (ev):

   -38.3831 -38.3608  -2.0397   1.8569   3.5031   6.5755   7.5539   9.6509
    10.8143  11.6399  13.2821

          k = 0.0000 0.3460 0.1658 (  6967 PWs)   bands (ev):

   -38.3810 -38.3629  -1.8588   0.8338   4.6795   7.0079   7.7759   8.6279
    10.8048  11.4907  13.4658

          k = 0.0000 0.3460 0.3317 (  6965 PWs)   bands (ev):

   -38.3754 -38.3685  -1.3135  -0.4030   6.0858   7.2724   8.4338   8.5921
     9.4913  10.7227  13.7639

          k = 0.0000 0.5190 0.0000 (  6986 PWs)   bands (ev):

   -38.3761 -38.3615  -1.0735   1.5598   3.9348   6.1511   6.8865   7.7152
     8.7596  11.0468  13.0692

          k = 0.0000 0.5190 0.1658 (  6973 PWs)   bands (ev):

   -38.3747 -38.3629  -0.9159   1.1294   3.9569   6.4885   7.1102   7.1753
    10.0300  10.1830  13.1493

          k = 0.0000 0.5190 0.3317 (  6966 PWs)   bands (ev):

   -38.3710 -38.3665  -0.4492   0.2882   4.3881   5.2682   7.7740   8.8441
     9.1094  10.7214  13.3567

          k = 0.0000-0.6920 0.0000 (  6984 PWs)   bands (ev):

   -38.3724 -38.3626  -0.0081   0.4871   4.6826   6.5178   6.6562   6.6779
     7.5004  10.8363  13.0121

          k = 0.0000-0.6920 0.1658 (  6972 PWs)   bands (ev):

   -38.3715 -38.3636   0.0766   0.5137   4.1179   5.3041   6.8804   7.7664
     8.9901   9.9649  13.0730

          k = 0.0000-0.6920 0.3317 (  6966 PWs)   bands (ev):

   -38.3690 -38.3660   0.2902   0.4848   3.7475   4.1873   7.5459   8.6194
     9.6335  10.4536  13.1851

          k = 0.1498 0.2595 0.0000 (  6985 PWs)   bands (ev):

   -38.3850 -38.3609  -2.2362   1.7545   3.4998   7.0623   7.4162  10.7941
    11.3010  11.5384  13.8234

          k = 0.1498 0.2595 0.1658 (  6974 PWs)   bands (ev):

   -38.3826 -38.3631  -2.0525   0.6949   4.8619   7.2662   7.6891   9.7049
    10.4819  12.1184  14.0253

          k = 0.1498 0.2595 0.3317 (  6973 PWs)   bands (ev):

   -38.3766 -38.3691  -1.4985  -0.5713   6.7693   7.7707   8.4453   8.4643
     9.4984  10.9749  14.4660

          k = 0.1498 0.4325 0.0000 (  6958 PWs)   bands (ev):

   -38.3784 -38.3612  -1.4535   1.9534   3.7744   5.5396   6.9189   9.0162
     9.7718  10.6600  13.5601

          k = 0.1498 0.4325 0.1658 (  6974 PWs)   bands (ev):

   -38.3767 -38.3628  -1.2832   1.1657   4.4279   5.8890   7.2074   8.0869
     9.5430  11.1457  14.0246

          k = 0.1498 0.4325 0.3317 (  6970 PWs)   bands (ev):

   -38.3724 -38.3670  -0.7724   0.0691   5.2800   6.1144   7.0821   7.9123
     9.5129  11.2259  14.3837

          k = 0.1498 0.6055 0.0000 (  6969 PWs)   bands (ev):

   -38.3725 -38.3626  -0.3383   1.0972   4.4069   5.1977   6.8707   7.4411
     8.2736  10.3236  12.8836

          k = 0.1498 0.6055 0.1658 (  6972 PWs)   bands (ev):

   -38.3715 -38.3635  -0.2142   0.9846   4.0004   5.4811   6.0728   8.1009
     8.9098  10.0735  13.9418

          k = 0.1498 0.6055 0.3317 (  6965 PWs)   bands (ev):

   -38.3690 -38.3659   0.1358   0.6122   3.9665   4.6034   6.5871   7.5735
    10.0921  11.0702  14.0265

          k = 0.2996 0.5190 0.0000 (  6977 PWs)   bands (ev):

   -38.3725 -38.3626  -0.5048   1.6722   3.8962   4.6710   7.0636   7.8422
     9.1186   9.5565  11.8211

          k = 0.2996 0.5190 0.1658 (  6973 PWs)   bands (ev):

   -38.3715 -38.3635  -0.3647   1.3478   4.0847   4.6886   7.0733   7.0768
     8.9155  10.5365  13.2841

          k = 0.2996 0.5190 0.3317 (  6969 PWs)   bands (ev):

   -38.3690 -38.3659   0.0448   0.6728   4.5798   4.8386   6.2054   6.2433
    10.2761  11.4409  15.3792

          k = 0.2996 0.6920 0.0000 (  6982 PWs)   bands (ev):

   -38.3687 -38.3646   0.4914   0.9448   3.2181   5.6714   6.6410   7.4255
     8.5432   9.3081  11.2105

          k = 0.2996 0.6920 0.1658 (  6978 PWs)   bands (ev):

   -38.3682 -38.3650   0.5506   0.9384   3.3616   5.4580   5.7620   6.9978
     9.3305   9.9100  12.7056

          k = 0.2996 0.6920 0.3317 (  6974 PWs)   bands (ev):

   -38.3672 -38.3659   0.7032   0.8648   3.8274   4.6534   5.4300   5.9903
    10.8506  11.2222  15.3183

     the Fermi energy is     7.7633 ev

!    total energy              =     -45.14774216 Ry
     estimated scf accuracy    <          5.0E-11 Ry
     smearing contrib. (-TS)   =       0.00006103 Ry
     internal energy E=F+TS    =     -45.14780319 Ry

     The total energy is F=E-TS. E is the sum of the following terms:
     one-electron contribution =      -7.86281664 Ry
     hartree contribution      =       7.38876426 Ry
     xc contribution           =     -13.33395504 Ry
     ewald contribution        =     -31.33979578 Ry

     convergence has been achieved in   7 iterations

     Forces acting on atoms (cartesian axes, Ry/au):

     atom    1 type  1   force =     0.00000000    0.00000000   -0.07053525
     atom    2 type  1   force =     0.00000000   -0.00000000   -0.07053525
     atom    3 type  2   force =     0.00000000    0.00000000    0.07053525
     atom    4 type  2   force =     0.00000000    0.00000000    0.07053525
     The non-local contrib.  to forces
     atom    1 type  1   force =     0.00000000   -0.00000000   -0.01363074
     atom    2 type  1   force =     0.00000000    0.00000000   -0.01363074
     atom    3 type  2   force =     0.00000000   -0.00000000    0.09856457
     atom    4 type  2   force =     0.00000000    0.00000000    0.09856457
     The ionic contribution  to forces
     atom    1 type  1   force =    -0.00000000   -0.00000004   -0.20807267
     atom    2 type  1   force =     0.00000000    0.00000004   -0.20807267
     atom    3 type  2   force =     0.00000000   -0.00000004    0.20807267
     atom    4 type  2   force =     0.00000000    0.00000004    0.20807267
     The local contribution  to forces
     atom    1 type  1   force =     0.00000031   -0.00000018    0.15117065
     atom    2 type  1   force =     0.00000031    0.00000053    0.15117065
     atom    3 type  2   force =     0.00000000   -0.00000000   -0.23020397
     atom    4 type  2   force =     0.00000000    0.00000000   -0.23020389
     The core correction contribution to forces
     atom    1 type  1   force =     0.00000000    0.00000000    0.00000000
     atom    2 type  1   force =     0.00000000    0.00000000    0.00000000
     atom    3 type  2   force =    -0.00000000    0.00000000   -0.00589887
     atom    4 type  2   force =    -0.00000000   -0.00000000   -0.00589887
     The Hubbard contrib.    to forces
     atom    1 type  1   force =     0.00000000    0.00000000    0.00000000
     atom    2 type  1   force =     0.00000000    0.00000000    0.00000000
     atom    3 type  2   force =     0.00000000    0.00000000    0.00000000
     atom    4 type  2   force =     0.00000000    0.00000000    0.00000000
     The SCF correction term to forces
     atom    1 type  1   force =    -0.00000000    0.00000000   -0.00000256
     atom    2 type  1   force =    -0.00000000   -0.00000000   -0.00000256
     atom    3 type  2   force =     0.00000000    0.00000000    0.00000072
     atom    4 type  2   force =     0.00000000   -0.00000000    0.00000072

     Total force =     0.141070     Total SCF correction =     0.000004


     Computing stress (Cartesian axis) and pressure

          total   stress  (Ry/bohr**3)                   (kbar)     P=      515.22
   0.00402701   0.00000000   0.00000000          592.39        0.00        0.00
   0.00000000   0.00402701   0.00000000            0.00      592.39        0.00
   0.00000000   0.00000000   0.00245307            0.00        0.00      360.86

     Energy error            =      2.0E-02 Ry
     Gradient error          =      7.1E-02 Ry/Bohr
     Cell gradient error     =      1.4E+02 kbar

     number of scf cycles    =   4
     number of bfgs steps    =   3

     enthalpy           old  =     -44.0737932425 Ry
     enthalpy           new  =     -44.0936175972 Ry

     CASE: enthalpy          _new < enthalpy          _old


     WARNING: bfgs curvature condition failed, Theta= 0.838
     new trust radius        =       0.0873560474 bohr
ibrav =      4
 celldm(1) =      6.43633954
 celldm(3) =      1.37800720
Input lattice vectors:
     0.85504829    -0.00000000     0.00000000
    -0.42752415     0.74049354     0.00000000
     0.00000000     0.00000000     1.17826271
New lattice vectors in INITIAL alat:
     0.85504829     0.00000000     0.00000000
    -0.42752415     0.74049354     0.00000000
     0.00000000     0.00000000     1.17826271
New lattice vectors in NEW alat (for information only):
     1.00000000     0.00000000     0.00000000
    -0.50000000     0.86602540     0.00000000
     0.00000000     0.00000000     1.37800720
Discrepancy in bohr =     0.000000    0.000000    0.000000
     new conv_thr            =       0.0000000071 Ry

     new unit-cell volume =    318.19911 a.u.^3 (    47.15224 Ang^3 )
     density =      2.46702 g/cm^3

CELL_PARAMETERS (alat=  7.52745734)
   0.855048291   0.000000000   0.000000000
  -0.427524146   0.740493542   0.000000000
   0.000000000   0.000000000   1.178262705

ATOMIC_POSITIONS (crystal)
Li            0.3333333300        0.6666666700        0.7918159881
Li            0.6666666600        0.3333333300        0.2918159881
Si            0.3333333300        0.6666666700        0.2089370119
Si            0.6666666600        0.3333333300        0.7089370119



     Writing config-only to output data dir ./output/LiSi.save/
     NEW-OLD atomic charge density approx. for the potential
     extrapolated charge   14.35458, renormalised to   14.00000

     total cpu time spent up to now is       30.5 secs

     Self-consistent Calculation

     iteration #  1     ecut=    80.00 Ry     beta= 0.70
     Davidson diagonalization with overlap
     ethr =  1.00E-06,  avg # of iterations =  9.2

     total cpu time spent up to now is       31.7 secs

     total energy              =     -45.20784784 Ry
     estimated scf accuracy    <       0.00059154 Ry

     iteration #  2     ecut=    80.00 Ry     beta= 0.70
     Davidson diagonalization with overlap
     ethr =  4.23E-06,  avg # of iterations =  3.5

     total cpu time spent up to now is       32.3 secs

     total energy              =     -45.20919825 Ry
     estimated scf accuracy    <       0.00044849 Ry

     iteration #  3     ecut=    80.00 Ry     beta= 0.70
     Davidson diagonalization with overlap
     ethr =  3.20E-06,  avg # of iterations =  1.0

     total cpu time spent up to now is       32.7 secs

     total energy              =     -45.20913893 Ry
     estimated scf accuracy    <       0.00012476 Ry

     iteration #  4     ecut=    80.00 Ry     beta= 0.70
     Davidson diagonalization with overlap
     ethr =  8.91E-07,  avg # of iterations =  2.0

     total cpu time spent up to now is       33.1 secs

     total energy              =     -45.20915204 Ry
     estimated scf accuracy    <       0.00000030 Ry

     iteration #  5     ecut=    80.00 Ry     beta= 0.70
     Davidson diagonalization with overlap
     ethr =  2.12E-09,  avg # of iterations =  4.4

     total cpu time spent up to now is       33.8 secs

     total energy              =     -45.20915243 Ry
     estimated scf accuracy    <       0.00000006 Ry

     iteration #  6     ecut=    80.00 Ry     beta= 0.70
     Davidson diagonalization with overlap
     ethr =  4.59E-10,  avg # of iterations =  2.0

     total cpu time spent up to now is       34.3 secs

     total energy              =     -45.20915244 Ry
     estimated scf accuracy    <       0.00000002 Ry

     iteration #  7     ecut=    80.00 Ry     beta= 0.70
     Davidson diagonalization with overlap
     ethr =  1.19E-10,  avg # of iterations =  1.1

     total cpu time spent up to now is       34.7 secs

     End of self-consistent calculation

          k = 0.0000 0.0000 0.0000 (  6957 PWs)   bands (ev):

   -38.4946 -38.4634  -3.0301   1.4208   3.1932   8.4245   8.4245  11.7168
    11.7168  13.3957  13.3957

          k = 0.0000 0.0000 0.1697 (  6969 PWs)   bands (ev):

   -38.4916 -38.4664  -2.8305   0.1904   4.8703   8.6509   8.6509  11.4138
    11.4138  12.9445  13.0586

          k = 0.0000 0.0000 0.3395 (  7036 PWs)   bands (ev):

   -38.4837 -38.4741  -2.2274  -1.2130   7.5708   9.3165   9.3165  10.3516
    10.3516  10.5344  13.4669

          k = 0.0000 0.1688 0.0000 (  6979 PWs)   bands (ev):

   -38.4926 -38.4635  -2.8412   1.5923   3.2195   7.5503   7.8359  11.0001
    11.8787  12.4446  13.2486

          k = 0.0000 0.1688 0.1697 (  6981 PWs)   bands (ev):

   -38.4897 -38.4662  -2.6436   0.3509   4.8596   7.8076   8.0671  10.3035
    11.1454  12.2304  13.4191

          k = 0.0000 0.1688 0.3395 (  6995 PWs)   bands (ev):

   -38.4824 -38.4734  -2.0463  -1.0415   7.2419   8.7039   8.7507   8.9969
     9.8400  10.8321  13.3964

          k = 0.0000 0.3376 0.0000 (  6961 PWs)   bands (ev):

   -38.4872 -38.4640  -2.2774   1.8833   3.2817   6.2284   6.9283   9.3952
    10.4233  11.3237  12.7898

          k = 0.0000 0.3376 0.1697 (  6967 PWs)   bands (ev):

   -38.4849 -38.4662  -2.0879   0.7495   4.4531   6.8086   7.1637   8.2687
    10.4023  11.2353  13.0519

          k = 0.0000 0.3376 0.3395 (  6965 PWs)   bands (ev):

   -38.4791 -38.4719  -1.5161  -0.5592   5.7027   6.8779   7.8623   8.6734
     8.9889  10.8448  13.3318

          k = 0.0000 0.5064 0.0000 (  6986 PWs)   bands (ev):

   -38.4808 -38.4656  -1.3596   1.2800   3.8618   5.9473   6.3008   7.6481
     8.4622  10.7904  12.5968

          k = 0.0000 0.5064 0.1697 (  6973 PWs)   bands (ev):

   -38.4793 -38.4670  -1.1953   0.8871   3.7334   6.2926   6.5380   7.0767
     9.8276   9.8891  12.7488

          k = 0.0000 0.5064 0.3395 (  6966 PWs)   bands (ev):

   -38.4755 -38.4708  -0.7100   0.0505   4.0839   4.9835   7.2428   8.3833
     9.1474  10.6914  13.1350

          k = 0.0000-0.6752 0.0000 (  6984 PWs)   bands (ev):

   -38.4773 -38.4671  -0.3885   0.2263   4.5907   6.0836   6.3653   6.5682
     7.3675  10.5970  12.5453

          k = 0.0000-0.6752 0.1697 (  6972 PWs)   bands (ev):

   -38.4763 -38.4680  -0.2913   0.2518   3.9156   5.1963   6.3213   7.5821
     9.0084   9.6241  12.6682

          k = 0.0000-0.6752 0.3395 (  6966 PWs)   bands (ev):

   -38.4737 -38.4705  -0.0406   0.2014   3.5056   3.9911   7.0277   8.1719
     9.5410  10.4524  13.0114

          k = 0.1462 0.2532 0.0000 (  6985 PWs)   bands (ev):

   -38.4888 -38.4638  -2.4645   1.8478   3.2743   6.5037   6.9565  10.4288
    10.9949  11.1423  13.2170

          k = 0.1462 0.2532 0.1697 (  6974 PWs)   bands (ev):

   -38.4864 -38.4661  -2.2718   0.6377   4.7214   6.7230   7.3312   9.2589
    10.1040  11.9205  13.4692

          k = 0.1462 0.2532 0.3395 (  6973 PWs)   bands (ev):

   -38.4801 -38.4723  -1.6897  -0.7122   6.4264   7.2742   7.9826   8.2969
     9.2177  11.1722  13.8368

          k = 0.1462 0.4220 0.0000 (  6958 PWs)   bands (ev):

   -38.4829 -38.4650  -1.7203   1.7722   3.6282   5.1250   6.6483   8.7823
     9.4568  10.4282  13.2973

          k = 0.1462 0.4220 0.1697 (  6974 PWs)   bands (ev):

   -38.4811 -38.4666  -1.5428   0.9910   4.1477   5.4808   7.0964   7.7385
     9.2284  10.9961  13.4666

          k = 0.1462 0.4220 0.3395 (  6970 PWs)   bands (ev):

   -38.4766 -38.4710  -1.0105  -0.1361   4.9127   5.7434   6.6877   7.5620
     9.5474  11.3753  13.9048

          k = 0.1462 0.5908 0.0000 (  6969 PWs)   bands (ev):

   -38.4774 -38.4671  -0.6691   0.7755   4.2400   4.8654   6.8635   7.1909
     8.0141  10.1341  12.6817

          k = 0.1462 0.5908 0.1697 (  6972 PWs)   bands (ev):

   -38.4763 -38.4680  -0.5389   0.6772   3.7844   5.1701   5.8333   7.9557
     8.6655   9.9766  13.4104

          k = 0.1462 0.5908 0.3395 (  6965 PWs)   bands (ev):

   -38.4737 -38.4705  -0.1732   0.3164   3.7136   4.3738   6.1556   7.1982
    10.1271  11.1623  13.6738

          k = 0.2924 0.5064 0.0000 (  6977 PWs)   bands (ev):

   -38.4774 -38.4671  -0.8235   1.3211   3.5634   4.5509   6.9916   7.5851
     8.9737   9.3356  11.7111

          k = 0.2924 0.5064 0.1697 (  6973 PWs)   bands (ev):

   -38.4763 -38.4680  -0.6785   1.0310   3.7691   4.4439   6.7312   7.0327
     8.7692  10.4608  13.2979

          k = 0.2924 0.5064 0.3395 (  6969 PWs)   bands (ev):

   -38.4737 -38.4705  -0.2566   0.3793   4.3069   4.5269   5.8071   5.9809
    10.4147  11.6518  14.9683

          k = 0.2924 0.6752 0.0000 (  6982 PWs)   bands (ev):

   -38.4736 -38.4694   0.0947   0.5902   2.9408   5.4897   6.4935   7.4527
     8.3020   9.1403  11.1451

          k = 0.2924 0.6752 0.1697 (  6978 PWs)   bands (ev):

   -38.4732 -38.4698   0.1628   0.5867   3.1111   5.1695   5.5909   6.8594
     9.2320   9.8648  12.7766

          k = 0.2924 0.6752 0.3395 (  6974 PWs)   bands (ev):

   -38.4721 -38.4707   0.3362   0.5133   3.6258   4.4711   5.0514   5.6685
    11.0036  11.4226  15.3769

     the Fermi energy is     7.3890 ev

!    total energy              =     -45.20915244 Ry
     estimated scf accuracy    <          1.5E-10 Ry
     smearing contrib. (-TS)   =       0.00090383 Ry
     internal energy E=F+TS    =     -45.21005627 Ry

     The total energy is F=E-TS. E is the sum of the following terms:
     one-electron contribution =      -8.30452786 Ry
     hartree contribution      =       7.47217477 Ry
     xc contribution           =     -13.29583155 Ry
     ewald contribution        =     -31.08187163 Ry

     convergence has been achieved in   7 iterations

     Forces acting on atoms (cartesian axes, Ry/au):

     atom    1 type  1   force =     0.00000000   -0.00000000   -0.08105029
     atom    2 type  1   force =     0.00000000    0.00000000   -0.08105029
     atom    3 type  2   force =     0.00000000    0.00000000    0.08105029
     atom    4 type  2   force =     0.00000000    0.00000000    0.08105029
     The non-local contrib.  to forces
     atom    1 type  1   force =     0.00000000    0.00000000   -0.01070981
     atom    2 type  1   force =     0.00000000   -0.00000000   -0.01070981
     atom    3 type  2   force =    -0.00000000   -0.00000000    0.10638094
     atom    4 type  2   force =    -0.00000000   -0.00000000    0.10638094
     The ionic contribution  to forces
     atom    1 type  1   force =     0.00000000   -0.00000004   -0.26101205
     atom    2 type  1   force =     0.00000000    0.00000004   -0.26101205
     atom    3 type  2   force =     0.00000000   -0.00000004    0.26101205
     atom    4 type  2   force =     0.00000000    0.00000004    0.26101205
     The local contribution  to forces
     atom    1 type  1   force =     0.00000032   -0.00000018    0.19067581
     atom    2 type  1   force =     0.00000032    0.00000055    0.19067581
     atom    3 type  2   force =     0.00000000   -0.00000000   -0.27986363
     atom    4 type  2   force =     0.00000000    0.00000000   -0.27986356
     The core correction contribution to forces
     atom    1 type  1   force =     0.00000000    0.00000000    0.00000000
     atom    2 type  1   force =     0.00000000    0.00000000    0.00000000
     atom    3 type  2   force =    -0.00000000    0.00000000   -0.00648045
     atom    4 type  2   force =    -0.00000000   -0.00000000   -0.00648044
     The Hubbard contrib.    to forces
     atom    1 type  1   force =     0.00000000    0.00000000    0.00000000
     atom    2 type  1   force =     0.00000000    0.00000000    0.00000000
     atom    3 type  2   force =     0.00000000    0.00000000    0.00000000
     atom    4 type  2   force =     0.00000000    0.00000000    0.00000000
     The SCF correction term to forces
     atom    1 type  1   force =    -0.00000000    0.00000000   -0.00000408
     atom    2 type  1   force =    -0.00000000   -0.00000000   -0.00000408
     atom    3 type  2   force =     0.00000000    0.00000000    0.00000151
     atom    4 type  2   force =     0.00000000    0.00000000    0.00000151

     Total force =     0.162101     Total SCF correction =     0.000006


     Computing stress (Cartesian axis) and pressure

          total   stress  (Ry/bohr**3)                   (kbar)     P=      453.47
   0.00366425   0.00000000   0.00000000          539.03        0.00        0.00
   0.00000000   0.00366425   0.00000000            0.00      539.03        0.00
   0.00000000   0.00000000   0.00191939            0.00        0.00      282.35

     Energy error            =      3.4E-02 Ry
     Gradient error          =      8.1E-02 Ry/Bohr
     Cell gradient error     =      2.2E+02 kbar

     number of scf cycles    =   5
     number of bfgs steps    =   4

     enthalpy           old  =     -44.0936175972 Ry
     enthalpy           new  =     -44.1276156460 Ry

     CASE: enthalpy          _new < enthalpy          _old


     WARNING: bfgs curvature condition failed, Theta= 0.281
     new trust radius        =       0.1295146560 bohr
ibrav =      4
 celldm(1) =      6.66999632
 celldm(3) =      1.28672042
Input lattice vectors:
     0.88608889    -0.00000000     0.00000000
    -0.44304444     0.76737549     0.00000000
     0.00000000     0.00000000     1.14014867
New lattice vectors in INITIAL alat:
     0.88608889     0.00000000     0.00000000
    -0.44304444     0.76737549     0.00000000
     0.00000000     0.00000000     1.14014867
New lattice vectors in NEW alat (for information only):
     1.00000000     0.00000000     0.00000000
    -0.50000000     0.86602540     0.00000000
     0.00000000     0.00000000     1.28672042
Discrepancy in bohr =     0.000000    0.000000    0.000000
     new conv_thr            =       0.0000000081 Ry

     new unit-cell volume =    330.66757 a.u.^3 (    48.99988 Ang^3 )
     density =      2.37400 g/cm^3

CELL_PARAMETERS (alat=  7.52745734)
   0.886088890   0.000000000   0.000000000
  -0.443044445   0.767375488   0.000000000
   0.000000000   0.000000000   1.140148665

ATOMIC_POSITIONS (crystal)
Li            0.3333333300        0.6666666700        0.7821019967
Li            0.6666666600        0.3333333300        0.2821019967
Si            0.3333333300        0.6666666700        0.2186510033
Si            0.6666666600        0.3333333300        0.7186510033



     Writing config-only to output data dir ./output/LiSi.save/
     NEW-OLD atomic charge density approx. for the potential
     extrapolated charge   14.52751, renormalised to   14.00000

     total cpu time spent up to now is       36.7 secs

     Self-consistent Calculation

     iteration #  1     ecut=    80.00 Ry     beta= 0.70
     Davidson diagonalization with overlap
     ethr =  1.00E-06,  avg # of iterations = 10.5

     total cpu time spent up to now is       38.0 secs

     total energy              =     -45.29538131 Ry
     estimated scf accuracy    <       0.00146615 Ry

     iteration #  2     ecut=    80.00 Ry     beta= 0.70
     Davidson diagonalization with overlap
     ethr =  1.05E-05,  avg # of iterations =  2.9

     total cpu time spent up to now is       38.6 secs

     total energy              =     -45.29832639 Ry
     estimated scf accuracy    <       0.00112632 Ry

     iteration #  3     ecut=    80.00 Ry     beta= 0.70
     Davidson diagonalization with overlap
     ethr =  8.05E-06,  avg # of iterations =  1.0

     total cpu time spent up to now is       39.0 secs

     total energy              =     -45.29819468 Ry
     estimated scf accuracy    <       0.00029618 Ry

     iteration #  4     ecut=    80.00 Ry     beta= 0.70
     Davidson diagonalization with overlap
     ethr =  2.12E-06,  avg # of iterations =  2.3

     total cpu time spent up to now is       39.4 secs

     total energy              =     -45.29822407 Ry
     estimated scf accuracy    <       0.00000129 Ry

     iteration #  5     ecut=    80.00 Ry     beta= 0.70
     Davidson diagonalization with overlap
     ethr =  9.21E-09,  avg # of iterations =  4.0

     total cpu time spent up to now is       40.0 secs

     total energy              =     -45.29822524 Ry
     estimated scf accuracy    <       0.00000018 Ry

     iteration #  6     ecut=    80.00 Ry     beta= 0.70
     Davidson diagonalization with overlap
     ethr =  1.31E-09,  avg # of iterations =  2.0

     total cpu time spent up to now is       40.5 secs

     total energy              =     -45.29822527 Ry
     estimated scf accuracy    <       0.00000001 Ry

     iteration #  7     ecut=    80.00 Ry     beta= 0.70
     Davidson diagonalization with overlap
     ethr =  8.47E-11,  avg # of iterations =  1.8

     total cpu time spent up to now is       40.9 secs

     End of self-consistent calculation

          k = 0.0000 0.0000 0.0000 (  6957 PWs)   bands (ev):

   -38.6580 -38.6258  -3.3164   1.6587   2.9978   7.4157   7.4157  10.8185
    10.8185  12.9408  12.9408

          k = 0.0000 0.0000 0.1754 (  6969 PWs)   bands (ev):

   -38.6548 -38.6288  -3.1038   0.1656   4.9628   7.6626   7.6626  10.6053
    10.6053  12.3247  12.3247

          k = 0.0000 0.0000 0.3508 (  7036 PWs)   bands (ev):

   -38.6467 -38.6367  -2.4594  -1.3691   7.8491   8.3893   8.3893   9.5188
     9.5188  10.8204  12.6269

          k = 0.0000 0.1629 0.0000 (  6979 PWs)   bands (ev):

   -38.6562 -38.6262  -3.1395   1.7959   2.9642   6.7472   6.9037  10.2817
    11.1841  11.7905  12.6443

          k = 0.0000 0.1629 0.1754 (  6981 PWs)   bands (ev):

   -38.6533 -38.6290  -2.9294   0.2976   4.8181   7.0931   7.1550   9.6239
    10.4882  11.6130  12.8801

          k = 0.0000 0.1629 0.3508 (  6995 PWs)   bands (ev):

   -38.6457 -38.6364  -2.2929  -1.2164   6.8806   7.8986   8.2754   8.5729
     9.0855  11.0175  12.6173

          k = 0.0000 0.3258 0.0000 (  6961 PWs)   bands (ev):

   -38.6516 -38.6277  -2.6125   1.8157   3.0222   5.8050   6.0877   9.0272
     9.8198  10.9407  12.1853

          k = 0.0000 0.3258 0.1754 (  6967 PWs)   bands (ev):

   -38.6492 -38.6299  -2.4122   0.5925   4.0760   6.3432   6.6286   7.7763
     9.8925  10.7218  12.5163

          k = 0.0000 0.3258 0.3508 (  6965 PWs)   bands (ev):

   -38.6431 -38.6358  -1.8074  -0.7939   5.1471   6.3272   7.1022   8.3318
     8.7967  10.7857  12.7581

          k = 0.0000 0.4887 0.0000 (  6986 PWs)   bands (ev):

   -38.6459 -38.6302  -1.7596   0.8646   3.7556   5.5147   5.6708   7.5188
     8.0951  10.5079  11.9742

          k = 0.0000 0.4887 0.1754 (  6973 PWs)   bands (ev):

   -38.6443 -38.6316  -1.5869   0.5272   3.4210   5.7720   5.9912   6.9561
     9.3860   9.6573  12.2230

          k = 0.0000 0.4887 0.3508 (  6966 PWs)   bands (ev):

   -38.6403 -38.6354  -1.0778  -0.2905   3.6652   4.5905   6.5377   7.7831
     9.1002  10.4666  12.8356

          k = 0.0000-0.6516 0.0000 (  6984 PWs)   bands (ev):

   -38.6427 -38.6321  -0.9073  -0.1385   4.4409   5.3153   5.9405   6.5076
     7.3159  10.3413  11.9182

          k = 0.0000-0.6516 0.1754 (  6972 PWs)   bands (ev):

   -38.6416 -38.6330  -0.7944  -0.1136   3.6157   5.0242   5.5731   7.3091
     9.0308   9.2032  12.1387

          k = 0.0000-0.6516 0.3508 (  6966 PWs)   bands (ev):

   -38.6388 -38.6356  -0.4969  -0.1924   3.1636   3.7132   6.3406   7.5903
     9.2916  10.2875  12.8731

          k = 0.1411 0.2443 0.0000 (  6985 PWs)   bands (ev):

   -38.6530 -38.6272  -2.7873   1.9096   2.9739   5.7453   6.3878   9.8854
    10.4955  10.5993  12.5046

          k = 0.1411 0.2443 0.1754 (  6974 PWs)   bands (ev):

   -38.6505 -38.6296  -2.5832   0.5196   4.4401   5.9869   6.9729   8.6424
     9.6141  11.3634  12.8228

          k = 0.1411 0.2443 0.3508 (  6973 PWs)   bands (ev):

   -38.6439 -38.6359  -1.9660  -0.9264   5.8479   6.6078   7.3242   7.9345
     9.1031  11.3000  13.0175

          k = 0.1411 0.4072 0.0000 (  6958 PWs)   bands (ev):

   -38.6478 -38.6293  -2.0938   1.4338   3.4692   4.5421   6.3305   8.4002
     9.0545  10.1454  12.5415

          k = 0.1411 0.4072 0.1754 (  6974 PWs)   bands (ev):

   -38.6459 -38.6310  -1.9073   0.7091   3.7520   4.9040   6.9344   7.3319
     8.8225  10.6717  12.7549

          k = 0.1411 0.4072 0.3508 (  6970 PWs)   bands (ev):

   -38.6412 -38.6355  -1.3486  -0.4361   4.4071   5.2379   6.1213   7.0826
     9.6146  11.3572  13.2912

          k = 0.1411 0.5701 0.0000 (  6969 PWs)   bands (ev):

   -38.6427 -38.6321  -1.1290   0.3308   3.8818   4.5099   6.7659   6.8436
     7.7724   9.9172  12.4153

          k = 0.1411 0.5701 0.1754 (  6972 PWs)   bands (ev):

   -38.6416 -38.6330  -0.9907   0.2506   3.4649   4.6906   5.5261   7.7761
     8.3337   9.8453  12.7081

          k = 0.1411 0.5701 0.3508 (  6965 PWs)   bands (ev):

   -38.6388 -38.6356  -0.6032  -0.0949   3.3605   4.0514   5.5720   6.7056
    10.0643  11.1078  13.2720

          k = 0.2821 0.4887 0.0000 (  6977 PWs)   bands (ev):

   -38.6427 -38.6321  -1.2650   0.8201   3.1109   4.3716   6.9080   7.1884
     8.8324   9.0482  11.5721

          k = 0.2821 0.4887 0.1754 (  6973 PWs)   bands (ev):

   -38.6416 -38.6330  -1.1135   0.5775   3.3415   4.0983   6.2500   6.9949
     8.5833  10.3047  13.3386

          k = 0.2821 0.4887 0.3508 (  6969 PWs)   bands (ev):

   -38.6389 -38.6356  -0.6759  -0.0333   3.9415   4.0861   5.2606   5.6433
    10.5721  11.8053  14.3254

          k = 0.2821 0.6516 0.0000 (  6982 PWs)   bands (ev):

   -38.6391 -38.6347  -0.4422   0.0990   2.5603   5.2204   6.2088   7.5767
     7.9797   8.9355  11.0659

          k = 0.2821 0.6516 0.1754 (  6978 PWs)   bands (ev):

   -38.6386 -38.6351  -0.3623   0.1019   2.7663   4.7594   5.2928   6.7354
     9.0856   9.7875  12.9056

          k = 0.2821 0.6516 0.3508 (  6974 PWs)   bands (ev):

   -38.6374 -38.6361  -0.1615   0.0340   3.3469   4.1825   4.5323   5.2706
    11.1436  11.6130  14.5997

     the Fermi energy is     7.0162 ev

!    total energy              =     -45.29822527 Ry
     estimated scf accuracy    <          9.0E-10 Ry
     smearing contrib. (-TS)   =      -0.00096115 Ry
     internal energy E=F+TS    =     -45.29726412 Ry

     The total energy is F=E-TS. E is the sum of the following terms:
     one-electron contribution =      -8.99776191 Ry
     hartree contribution      =       7.62107940 Ry
     xc contribution           =     -13.24337064 Ry
     ewald contribution        =     -30.67721097 Ry

     convergence has been achieved in   7 iterations

     Forces acting on atoms (cartesian axes, Ry/au):

     atom    1 type  1   force =     0.00000000    0.00000000   -0.08597405
     atom    2 type  1   force =     0.00000000   -0.00000000   -0.08597405
[...]
Si            0.3333333300        0.6666666700        0.2503741156
Si            0.6666666600        0.3333333300        0.7503741156
End final coordinates



     Writing config-only to output data dir ./output/LiSi.save/

     Final scf calculation at the relaxed structure.
     The G-vectors are recalculated for the final unit cell
     Results may differ from those at the preceding step.

     Parallelization info
     --------------------
     sticks:   dense  smooth     PW     G-vecs:    dense   smooth      PW
     Min         125     125     36                 3579     3579     561
     Max         126     126     38                 3582     3582     562
     Sum        1003    1003    295                28645    28645    4493

     Using Slab Decomposition



     bravais-lattice index     =            4
     lattice parameter (alat)  =       7.5275  a.u.
     unit-cell volume          =     296.5290 (a.u.)^3
     number of atoms/cell      =            4
     number of atomic types    =            2
     number of electrons       =        14.00
     number of Kohn-Sham states=           11
     kinetic-energy cutoff     =      80.0000  Ry
     charge density cutoff     =     320.0000  Ry
     scf convergence threshold =      1.0E-10
     mixing beta               =       0.7000
     number of iterations used =            8  plain     mixing
     press convergence thresh. =      1.0E+00
     Exchange-correlation= PBE
                           (   1   4   3   4   0   0   0)

     celldm(1)=   7.527457  celldm(2)=   0.000000  celldm(3)=   1.562173
     celldm(4)=   0.000000  celldm(5)=   0.000000  celldm(6)=   0.000000

     crystal axes: (cart. coord. in units of alat)
               a(1) = (   0.893611   0.000000   0.000000 )  
               a(2) = (  -0.446805   0.773890   0.000000 )  
               a(3) = (   0.000000   0.000000   1.005298 )  

     reciprocal axes: (cart. coord. in units 2 pi/alat)
               b(1) = (  1.119055  0.646087 -0.000000 )  
               b(2) = (  0.000000  1.292174  0.000000 )  
               b(3) = (  0.000000 -0.000000  0.994730 )  


     PseudoPot. # 1 for Li read from file:
     ../pseudo/Li_ONCV_PBE_sr.upf
     MD5 check sum: 50ff420e78310ffa21704f3361e624a4
     Pseudo is Norm-conserving, Zval =  3.0
     Generated using ONCVPSP code by D. R. Hamann
     Using radial grid of 1944 points,  4 beta functions with: 
                l(1) =   0
                l(2) =   0
                l(3) =   1
                l(4) =   1

     PseudoPot. # 2 for Si read from file:
     ../pseudo/Si_ONCV_PBE_sr.upf
     MD5 check sum: e543d271109d17c80368dfa7c482276d
     Pseudo is Norm-conserving + core correction, Zval =  4.0
     Generated using ONCVPSP code by D. R. Hamann
     Using radial grid of 1510 points,  6 beta functions with: 
                l(1) =   0
                l(2) =   0
                l(3) =   1
                l(4) =   1
                l(5) =   2
                l(6) =   2

     atomic species   valence    mass     pseudopotential
        Li             3.00     6.94100     Li( 1.00)
        Si             4.00    28.08550     Si( 1.00)

     12 Sym. Ops. (no inversion) found ( 6 have fractional translation)



   Cartesian axes

     site n.     atom                  positions (alat units)
         1           Li  tau(   1) = (  -0.0000000   0.5159264   0.7543546  )
         2           Li  tau(   2) = (   0.4468054   0.2579632   0.2517054  )
         3           Si  tau(   3) = (  -0.0000000   0.5159264   0.2517007  )
         4           Si  tau(   4) = (   0.4468054   0.2579632   0.7543498  )

     number of k points=    30  Marzari-Vanderbilt smearing, width (Ry)=  0.0200
                       cart. coord. in units 2pi/alat
        k(    1) = (   0.0000000   0.0000000   0.0000000), wk =   0.0062500
        k(    2) = (   0.0000000   0.0000000   0.1989459), wk =   0.0125000
        k(    3) = (   0.0000000   0.0000000   0.3978919), wk =   0.0125000
        k(    4) = (   0.0000000   0.1615217   0.0000000), wk =   0.0375000
        k(    5) = (   0.0000000   0.1615217   0.1989459), wk =   0.0750000
        k(    6) = (   0.0000000   0.1615217   0.3978919), wk =   0.0750000
        k(    7) = (   0.0000000   0.3230435   0.0000000), wk =   0.0375000
        k(    8) = (   0.0000000   0.3230435   0.1989459), wk =   0.0750000
        k(    9) = (   0.0000000   0.3230435   0.3978919), wk =   0.0750000
        k(   10) = (   0.0000000   0.4845652   0.0000000), wk =   0.0375000
        k(   11) = (   0.0000000   0.4845652   0.1989459), wk =   0.0750000
        k(   12) = (   0.0000000   0.4845652   0.3978919), wk =   0.0750000
        k(   13) = (   0.0000000  -0.6460870   0.0000000), wk =   0.0187500
        k(   14) = (   0.0000000  -0.6460870   0.1989459), wk =   0.0375000
        k(   15) = (   0.0000000  -0.6460870   0.3978919), wk =   0.0375000
        k(   16) = (   0.1398819   0.2422826   0.0000000), wk =   0.0375000
        k(   17) = (   0.1398819   0.2422826   0.1989459), wk =   0.0750000
        k(   18) = (   0.1398819   0.2422826   0.3978919), wk =   0.0750000
        k(   19) = (   0.1398819   0.4038044   0.0000000), wk =   0.0750000
        k(   20) = (   0.1398819   0.4038044   0.1989459), wk =   0.1500000
        k(   21) = (   0.1398819   0.4038044   0.3978919), wk =   0.1500000
        k(   22) = (   0.1398819   0.5653261   0.0000000), wk =   0.0750000
        k(   23) = (   0.1398819   0.5653261   0.1989459), wk =   0.1500000
        k(   24) = (   0.1398819   0.5653261   0.3978919), wk =   0.1500000
        k(   25) = (   0.2797639   0.4845652   0.0000000), wk =   0.0375000
        k(   26) = (   0.2797639   0.4845652   0.1989459), wk =   0.0750000
        k(   27) = (   0.2797639   0.4845652   0.3978919), wk =   0.0750000
        k(   28) = (   0.2797639   0.6460870   0.0000000), wk =   0.0375000
        k(   29) = (   0.2797639   0.6460870   0.1989459), wk =   0.0750000
        k(   30) = (   0.2797639   0.6460870   0.3978919), wk =   0.0750000

     Dense  grid:    28645 G-vectors     FFT dimensions: (  40,  40,  48)

     Estimated max dynamical RAM per process >      16.87 MB

     Estimated total dynamical RAM >     134.92 MB

     Initial potential from superposition of free atoms

     starting charge      13.9897, renormalised to      14.0000
     Starting wfcs are   12 randomized atomic wfcs

     total cpu time spent up to now is       86.8 secs

     Self-consistent Calculation

     iteration #  1     ecut=    80.00 Ry     beta= 0.70
     Davidson diagonalization with overlap
     c_bands:  1 eigenvalues not converged
     c_bands:  1 eigenvalues not converged
     c_bands:  1 eigenvalues not converged
     c_bands:  2 eigenvalues not converged
     c_bands:  1 eigenvalues not converged
     c_bands:  1 eigenvalues not converged
     c_bands:  1 eigenvalues not converged
     c_bands:  1 eigenvalues not converged
     c_bands:  1 eigenvalues not converged
     c_bands:  1 eigenvalues not converged
     c_bands:  1 eigenvalues not converged
     c_bands:  1 eigenvalues not converged
     c_bands:  1 eigenvalues not converged
     ethr =  1.00E-06,  avg # of iterations = 18.2

     total cpu time spent up to now is       87.7 secs

     total energy              =     -45.29623331 Ry
     estimated scf accuracy    <       0.05894194 Ry

     iteration #  2     ecut=    80.00 Ry     beta= 0.70
     Davidson diagonalization with overlap
     ethr =  4.21E-04,  avg # of iterations =  1.0

     total cpu time spent up to now is       87.9 secs

     total energy              =     -45.30007331 Ry
     estimated scf accuracy    <       0.00121935 Ry

     iteration #  3     ecut=    80.00 Ry     beta= 0.70
     Davidson diagonalization with overlap
     ethr =  8.71E-06,  avg # of iterations =  2.7

     total cpu time spent up to now is       88.2 secs

     total energy              =     -45.30026117 Ry
     estimated scf accuracy    <       0.00006546 Ry

     iteration #  4     ecut=    80.00 Ry     beta= 0.70
     Davidson diagonalization with overlap
     ethr =  4.68E-07,  avg # of iterations =  2.5

     total cpu time spent up to now is       88.5 secs

     total energy              =     -45.30026921 Ry
     estimated scf accuracy    <       0.00000051 Ry

     iteration #  5     ecut=    80.00 Ry     beta= 0.70
     Davidson diagonalization with overlap
     ethr =  3.63E-09,  avg # of iterations =  4.0

     total cpu time spent up to now is       88.8 secs

     total energy              =     -45.30026983 Ry
     estimated scf accuracy    <       0.00000006 Ry

     iteration #  6     ecut=    80.00 Ry     beta= 0.70
     Davidson diagonalization with overlap
     ethr =  3.94E-10,  avg # of iterations =  2.0

     total cpu time spent up to now is       89.1 secs

     total energy              =     -45.30026984 Ry
     estimated scf accuracy    <          2.6E-09 Ry

     iteration #  7     ecut=    80.00 Ry     beta= 0.70
     Davidson diagonalization with overlap
     ethr =  1.88E-11,  avg # of iterations =  2.0

     total cpu time spent up to now is       89.3 secs

     End of self-consistent calculation

          k = 0.0000 0.0000 0.0000 (  3597 PWs)   bands (ev):

   -37.4326 -37.3670  -2.6909   3.2734   5.2073   7.4928   7.4928  11.3998
    11.3998  13.9086  15.0499

          k = 0.0000 0.0000 0.1989 (  3591 PWs)   bands (ev):

   -37.4258 -37.3727  -2.4412   1.5079   7.5611   7.8260   7.8260  11.5745
    11.5745  13.1672  13.1672

          k = 0.0000 0.0000 0.3979 (  3604 PWs)   bands (ev):

   -37.4085 -37.3883  -1.6765  -0.3625   8.8183   8.8183  10.4111  10.4111
    11.0157  13.0914  13.4819

          k = 0.0000 0.1615 0.0000 (  3625 PWs)   bands (ev):

   -37.4297 -37.3686  -2.5171   3.4752   4.6603   7.0115   7.3821  11.1869
    12.2038  12.7268  14.5803

          k = 0.0000 0.1615 0.1989 (  3589 PWs)   bands (ev):

   -37.4234 -37.3739  -2.2708   1.6218   6.3483   7.3474   8.4391  10.8059
    11.8987  12.3055  13.3117

          k = 0.0000 0.1615 0.3979 (  3585 PWs)   bands (ev):

   -37.4072 -37.3883  -1.5167  -0.2220   7.6911   8.3501   9.2212   9.9865
    11.3653  12.8954  13.7685

          k = 0.0000 0.3230 0.0000 (  3585 PWs)   bands (ev):

   -37.4220 -37.3732  -1.9969   3.2819   4.0675   6.2270   7.3093  10.7147
    10.7563  13.1507  13.8347

          k = 0.0000 0.3230 0.1989 (  3585 PWs)   bands (ev):

   -37.4168 -37.3773  -1.7630   1.8177   4.8862   6.5658   8.6680   9.0853
    11.4748  11.8982  14.0522

          k = 0.0000 0.3230 0.3979 (  3583 PWs)   bands (ev):

   -37.4038 -37.3887  -1.0502   0.1591   5.8868   7.2783   7.5787   9.2478
    11.2026  12.5115  14.3269

          k = 0.0000 0.4846 0.0000 (  3572 PWs)   bands (ev):

   -37.4121 -37.3801  -1.1443   1.6763   4.9761   5.6705   7.4047   8.8270
    10.1951  12.9597  13.4586

          k = 0.0000 0.4846 0.1989 (  3574 PWs)   bands (ev):

   -37.4085 -37.3826  -0.9427   1.4257   4.3350   6.0106   7.2639   8.9324
    10.9877  11.5531  13.8675

          k = 0.0000 0.4846 0.3979 (  3570 PWs)   bands (ev):

   -37.3996 -37.3897  -0.3452   0.5733   4.4643   5.5762   7.0281   8.7095
    10.9758  12.1036  15.1750

          k = 0.0000-0.6461 0.0000 (  3558 PWs)   bands (ev):

   -37.4063 -37.3846  -0.2639   0.5125   5.4763   5.6738   7.4961   7.7876
     9.9000  12.8242  13.3727

          k = 0.0000-0.6461 0.1989 (  3572 PWs)   bands (ev):

   -37.4037 -37.3861  -0.1307   0.5911   4.6281   5.8167   6.3415   9.0200
    10.8090  11.3524  13.8496

          k = 0.0000-0.6461 0.3979 (  3584 PWs)   bands (ev):

   -37.3974 -37.3907   0.2281   0.5815   4.0247   4.7347   6.8355   8.5201
    10.9040  11.9531  15.5376

          k = 0.1399 0.2423 0.0000 (  3591 PWs)   bands (ev):

   -37.4244 -37.3717  -2.1699   3.7931   3.8732   5.9580   7.6952  11.2517
    11.3043  12.5279  14.1332

          k = 0.1399 0.2423 0.1989 (  3583 PWs)   bands (ev):

   -37.4189 -37.3762  -1.9314   1.7907   5.4342   6.2847   8.9746   9.7964
    11.1639  12.1631  14.1264

          k = 0.1399 0.2423 0.3979 (  3591 PWs)   bands (ev):

   -37.4048 -37.3885  -1.2028   0.0415   6.6122   7.2100   8.1781   8.9689
    11.9033  13.0049  14.3078

          k = 0.1399 0.4038 0.0000 (  3598 PWs)   bands (ev):

   -37.4154 -37.3777  -1.4809   2.4698   4.6375   4.8949   8.1414   9.5452
    10.8957  12.4564  13.7671

          k = 0.1399 0.4038 0.1989 (  3587 PWs)   bands (ev):

   -37.4113 -37.3807  -1.2636   1.7755   4.5353   5.3674   8.2093   9.4066
    10.4093  12.2706  14.1460

          k = 0.1399 0.4038 0.3979 (  3585 PWs)   bands (ev):

   -37.4010 -37.3893  -0.6082   0.4685   5.1663   6.0508   6.8650   8.0794
    12.0718  13.2172  14.6891

          k = 0.1399 0.5653 0.0000 (  3571 PWs)   bands (ev):

   -37.4063 -37.3846  -0.5021   1.0374   4.3915   5.5960   8.0184   8.5937
    10.1336  12.4110  13.6750

          k = 0.1399 0.5653 0.1989 (  3575 PWs)   bands (ev):

   -37.4037 -37.3861  -0.3393   1.0116   4.2547   5.3548   6.7349   9.6173
    10.0549  12.1430  14.0730

          k = 0.1399 0.5653 0.3979 (  3583 PWs)   bands (ev):

   -37.3974 -37.3907   0.1182   0.7014   4.1850   5.0420   6.2079   7.6850
    11.9957  13.0289  15.4576

          k = 0.2798 0.4846 0.0000 (  3582 PWs)   bands (ev):

   -37.4064 -37.3846  -0.6451   1.6333   3.4746   5.5274   8.2622   9.1757
    11.2774  11.3030  13.2838

          k = 0.2798 0.4846 0.1989 (  3586 PWs)   bands (ev):

   -37.4037 -37.3861  -0.4682   1.4237   3.7872   5.0702   7.2994   8.8070
    10.9198  12.5617  14.5573

          k = 0.2798 0.4846 0.3979 (  3581 PWs)   bands (ev):

   -37.3974 -37.3907   0.0435   0.7840   4.6541   4.9446   6.1145   6.6874
    13.4864  14.2605  15.2751

          k = 0.2798 0.6461 0.0000 (  3576 PWs)   bands (ev):

   -37.3995 -37.3905   0.2152   0.7819   2.9598   6.3281   7.3250  10.1325
    10.2143  11.4168  12.8145

          k = 0.2798 0.6461 0.1989 (  3571 PWs)   bands (ev):

   -37.3981 -37.3908   0.3113   0.8144   3.2483   5.7264   6.4189   8.4394
    11.4766  12.3640  14.9672

          k = 0.2798 0.6461 0.3979 (  3586 PWs)   bands (ev):

   -37.3950 -37.3922   0.5547   0.7787   4.0870   5.1746   5.3356   6.2889
    13.8923  14.4090  15.8663

     the Fermi energy is     8.2990 ev

!    total energy              =     -45.30026984 Ry
     estimated scf accuracy    <          3.7E-11 Ry
     smearing contrib. (-TS)   =      -0.00067681 Ry
     internal energy E=F+TS    =     -45.29959303 Ry

     The total energy is F=E-TS. E is the sum of the following terms:
     one-electron contribution =      -7.96763453 Ry
     hartree contribution      =       7.74020215 Ry
     xc contribution           =     -13.45674813 Ry
     ewald contribution        =     -31.61541251 Ry

     convergence has been achieved in   7 iterations

     Forces acting on atoms (cartesian axes, Ry/au):

     atom    1 type  1   force =     0.00000000   -0.00000000   -0.00001414
     atom    2 type  1   force =     0.00000000    0.00000000   -0.00001414
     atom    3 type  2   force =     0.00000000    0.00000000    0.00001414
     atom    4 type  2   force =     0.00000000    0.00000000    0.00001414
     The non-local contrib.  to forces
     atom    1 type  1   force =     0.00000000   -0.00000000    0.00000119
     atom    2 type  1   force =     0.00000000    0.00000000    0.00000119
     atom    3 type  2   force =     0.00000000    0.00000000    0.00001406
     atom    4 type  2   force =    -0.00000000   -0.00000000    0.00001406
     The ionic contribution  to forces
     atom    1 type  1   force =     0.00000000   -0.00000004   -0.00004155
     atom    2 type  1   force =    -0.00000000    0.00000004   -0.00004155
     atom    3 type  2   force =     0.00000000   -0.00000004    0.00004155
     atom    4 type  2   force =    -0.00000000    0.00000004    0.00004155
     The local contribution  to forces
     atom    1 type  1   force =     0.00000033   -0.00000019    0.00002607
     atom    2 type  1   force =     0.00000033    0.00000058    0.00002607
     atom    3 type  2   force =     0.00000000   -0.00000000   -0.00004074
     atom    4 type  2   force =     0.00000000    0.00000001   -0.00004074
     The core correction contribution to forces
     atom    1 type  1   force =     0.00000000    0.00000000    0.00000000
     atom    2 type  1   force =     0.00000000    0.00000000    0.00000000
     atom    3 type  2   force =    -0.00000000    0.00000000   -0.00000086
     atom    4 type  2   force =    -0.00000000   -0.00000000   -0.00000086
     The Hubbard contrib.    to forces
     atom    1 type  1   force =     0.00000000    0.00000000    0.00000000
     atom    2 type  1   force =     0.00000000    0.00000000    0.00000000
     atom    3 type  2   force =     0.00000000    0.00000000    0.00000000
     atom    4 type  2   force =     0.00000000    0.00000000    0.00000000
     The SCF correction term to forces
     atom    1 type  1   force =     0.00000000   -0.00000000    0.00000002
     atom    2 type  1   force =     0.00000000    0.00000000    0.00000002
     atom    3 type  2   force =     0.00000000   -0.00000000   -0.00000000
     atom    4 type  2   force =     0.00000000    0.00000000   -0.00000000

     Total force =     0.000028     Total SCF correction =     0.000000


     Computing stress (Cartesian axis) and pressure

          total   stress  (Ry/bohr**3)                   (kbar)     P=      499.95
   0.00339845   0.00000000   0.00000000          499.93        0.00        0.00
   0.00000000   0.00339845   0.00000000            0.00      499.93        0.00
   0.00000000   0.00000000   0.00339888            0.00        0.00      499.99


     Writing all to output data dir ./output/LiSi.save/

     init_run     :      1.32s CPU      1.52s WALL (       2 calls)
     electrons    :     56.78s CPU     59.86s WALL (      15 calls)
     update_pot   :      7.03s CPU      7.11s WALL (      13 calls)
     forces       :      4.59s CPU      4.72s WALL (      15 calls)
     stress       :     15.36s CPU     16.35s WALL (      15 calls)

     Called by init_run:
     wfcinit      :      0.28s CPU      0.29s WALL (       2 calls)
     potinit      :      0.39s CPU      0.48s WALL (       2 calls)
     hinit0       :      0.60s CPU      0.67s WALL (       2 calls)

     Called by electrons:
     c_bands      :     48.96s CPU     51.27s WALL (     101 calls)
     sum_band     :      6.63s CPU      6.91s WALL (     101 calls)
     v_of_rho     :      1.19s CPU      1.67s WALL (     113 calls)
     mix_rho      :      0.09s CPU      0.11s WALL (     101 calls)

     Called by c_bands:
     init_us_2    :      1.42s CPU      1.56s WALL (    7020 calls)
     init_us_2:cp :      1.41s CPU      1.53s WALL (    7020 calls)
     cegterg      :     45.84s CPU     47.03s WALL (    3030 calls)

     Called by *egterg:
     cdiaghg      :      1.85s CPU      1.93s WALL (   13188 calls)
     h_psi        :     40.07s CPU     41.04s WALL (   13728 calls)
     g_psi        :      0.21s CPU      0.21s WALL (   10638 calls)

     Called by h_psi:
     h_psi:calbec :      2.35s CPU      2.40s WALL (   13728 calls)
     vloc_psi     :     35.72s CPU     36.58s WALL (   13728 calls)
     add_vuspsi   :      1.86s CPU      1.90s WALL (   13728 calls)

     General routines
     calbec       :      2.91s CPU      2.99s WALL (   15978 calls)
     fft          :      1.16s CPU      1.81s WALL (    1506 calls)
     ffts         :      0.06s CPU      0.08s WALL (     101 calls)
     fftw         :     36.86s CPU     37.71s WALL (  245036 calls)

     Parallel routines

     PWSCF        :   1m25.36s CPU   1m30.17s WALL


   This run was terminated on:  22:13: 7  11Feb2025            

=------------------------------------------------------------------------------=
   JOB DONE.
=------------------------------------------------------------------------------=
