
     Program PWSCF v.7.2 starts on 11Feb2025 at 22:41:51 

     This program is part of the open-source Quantum ESPRESSO suite
     for quantum simulation of materials; please cite
         "P. Giannozzi et al., J. Phys.:Condens. Matter 21 395502 (2009);
         "P. Giannozzi et al., J. Phys.:Condens. Matter 29 465901 (2017);
         "P. Giannozzi et al., J. Chem. Phys. 152 154105 (2020);
          URL http://www.quantum-espresso.org", 
     in publications or presentations arising from this work. More details at
     http://www.quantum-espresso.org/quote

     Parallel version (MPI & OpenMP), running on       8 processor cores
     Number of MPI processes:                 8
     Threads/MPI process:                     1

     MPI processes distributed on     1 nodes
     481466 MiB available memory on the printing compute node when the environment starts

     Waiting for input...
     Reading input from standard input

     Current dimensions of program PWSCF are:
     Max number of different atomic species (ntypx) = 10
     Max number of k-points (npk) =  40000
     Max angular momentum in pseudopotentials (lmaxx) =  4

     R & G space division:  proc/nbgrp/npool/nimage =       8
     Subspace diagonalization in iterative solution of the eigenvalue problem:
     a serial algorithm will be used


     Parallelization info
     --------------------
     sticks:   dense  smooth     PW     G-vecs:    dense   smooth      PW
     Min         134     134     39                 2935     2935     479
     Max         136     136     40                 2936     2936     484
     Sum        1077    1077    313                23481    23481    3839

     Using Slab Decomposition



     bravais-lattice index     =            5
     lattice parameter (alat)  =       7.0317  a.u.
     unit-cell volume          =     242.9729 (a.u.)^3
     number of atoms/cell      =            4
     number of atomic types    =            2
     number of electrons       =        14.00
     number of Kohn-Sham states=           11
     kinetic-energy cutoff     =      80.0000  Ry
     charge density cutoff     =     320.0000  Ry
     scf convergence threshold =      1.0E-08
     mixing beta               =       0.7000
     number of iterations used =            8  plain     mixing
     energy convergence thresh.=      1.0E-04
     force convergence thresh. =      1.0E-03
     press convergence thresh. =      1.0E+00
     Exchange-correlation= PBE
                           (   1   4   3   4   0   0   0)
     nstep                     =           50


     celldm(1)=   7.031712  celldm(2)=   0.000000  celldm(3)=   0.000000
     celldm(4)=   0.507754  celldm(5)=   0.000000  celldm(6)=   0.000000

     crystal axes: (cart. coord. in units of alat)
               a(1) = (   0.496108  -0.286428   0.819656 )  
               a(2) = (   0.000000   0.572856   0.819656 )  
               a(3) = (  -0.496108  -0.286428   0.819656 )  

     reciprocal axes: (cart. coord. in units 2 pi/alat)
               b(1) = (  1.007845 -0.581880  0.406675 )  
               b(2) = ( -0.000000  1.163759  0.406675 )  
               b(3) = ( -1.007845 -0.581880  0.406675 )  


     PseudoPot. # 1 for Li read from file:
     ../pseudo/Li_ONCV_PBE_sr.upf
     MD5 check sum: 50ff420e78310ffa21704f3361e624a4
     Pseudo is Norm-conserving, Zval =  3.0
     Generated using ONCVPSP code by D. R. Hamann
     Using radial grid of 1944 points,  4 beta functions with: 
                l(1) =   0
                l(2) =   0
                l(3) =   1
                l(4) =   1

     PseudoPot. # 2 for Si read from file:
     ../pseudo/Si_ONCV_PBE_sr.upf
     MD5 check sum: e543d271109d17c80368dfa7c482276d
     Pseudo is Norm-conserving + core correction, Zval =  4.0
     Generated using ONCVPSP code by D. R. Hamann
     Using radial grid of 1510 points,  6 beta functions with: 
                l(1) =   0
                l(2) =   0
                l(3) =   1
                l(4) =   1
                l(5) =   2
                l(6) =   2

     atomic species   valence    mass     pseudopotential
        Li             3.00     6.94100     Li( 1.00)
        Si             4.00    28.08550     Si( 1.00)

      6 Sym. Ops. (no inversion) found



   Cartesian axes

     site n.     atom                  positions (alat units)
         1           Li  tau(   1) = (  -0.0000000  -0.0000000   0.1745228  )
         2           Li  tau(   2) = (  -0.0000000  -0.0000000   1.5140487  )
         3           Si  tau(   3) = (  -0.0000000  -0.0000000   1.2167906  )
         4           Si  tau(   4) = (  -0.0000000  -0.0000000   2.0890725  )

     number of k points=    19  Marzari-Vanderbilt smearing, width (Ry)=  0.0200
                       cart. coord. in units 2pi/alat
        k(    1) = (   0.0000000   0.0000000   0.0000000), wk =   0.0160000
        k(    2) = (  -0.2015690  -0.1163759   0.0813349), wk =   0.0960000
        k(    3) = (  -0.4031380  -0.2327518   0.1626699), wk =   0.0960000
        k(    4) = (  -0.2015690   0.1163759   0.1626699), wk =   0.0960000
        k(    5) = (  -0.4031380  -0.0000000   0.2440048), wk =   0.1920000
        k(    6) = (   0.4031380   0.4655037  -0.0813349), wk =   0.1920000
        k(    7) = (   0.2015690   0.3491277   0.0000000), wk =   0.0960000
        k(    8) = (  -0.4031380   0.2327518   0.3253398), wk =   0.0960000
        k(    9) = (   0.4031380   0.6982555   0.0000000), wk =   0.0960000
        k(   10) = (   0.0000000  -0.0000000   0.2440048), wk =   0.0320000
        k(   11) = (  -0.2015690  -0.1163759   0.3253398), wk =   0.0960000
        k(   12) = (   0.6047070   0.3491277   0.0000000), wk =   0.0960000
        k(   13) = (   0.4031380   0.2327518   0.0813349), wk =   0.0960000
        k(   14) = (  -0.2015690   0.1163759   0.4066747), wk =   0.0960000
        k(   15) = (   0.6047070   0.5818796   0.0813349), wk =   0.1920000
        k(   16) = (   0.4031380   0.4655037   0.1626699), wk =   0.1920000
        k(   17) = (   0.6047070  -0.3491277  -0.2440048), wk =   0.0960000
        k(   18) = (   0.0000000  -0.0000000   0.4880097), wk =   0.0320000
        k(   19) = (   0.8062760   0.4655037   0.1626699), wk =   0.0960000

     Dense  grid:    23481 G-vectors     FFT dimensions: (  45,  45,  45)

     Estimated max dynamical RAM per process >      15.43 MB

     Estimated total dynamical RAM >     123.47 MB

     Initial potential from superposition of free atoms

     starting charge      13.9897, renormalised to      14.0000
     Starting wfcs are   12 randomized atomic wfcs

     total cpu time spent up to now is        0.9 secs

     Self-consistent Calculation

     iteration #  1     ecut=    80.00 Ry     beta= 0.70
     Davidson diagonalization with overlap
     ethr =  1.00E-02,  avg # of iterations =  6.7

     Threshold (ethr) on eigenvalues was too large:
     Diagonalizing with lowered threshold

     Davidson diagonalization with overlap
     ethr =  6.35E-04,  avg # of iterations =  2.1

     total cpu time spent up to now is        1.7 secs

     total energy              =     -44.44288716 Ry
     estimated scf accuracy    <       0.09287921 Ry

     iteration #  2     ecut=    80.00 Ry     beta= 0.70
     Davidson diagonalization with overlap
     ethr =  6.63E-04,  avg # of iterations =  2.5

     total cpu time spent up to now is        2.0 secs

     total energy              =     -44.45531183 Ry
     estimated scf accuracy    <       0.00435730 Ry

     iteration #  3     ecut=    80.00 Ry     beta= 0.70
     Davidson diagonalization with overlap
     ethr =  3.11E-05,  avg # of iterations =  4.0

     total cpu time spent up to now is        2.3 secs

     total energy              =     -44.45595026 Ry
     estimated scf accuracy    <       0.00023991 Ry

     iteration #  4     ecut=    80.00 Ry     beta= 0.70
     Davidson diagonalization with overlap
     ethr =  1.71E-06,  avg # of iterations =  3.8

     total cpu time spent up to now is        2.6 secs

     total energy              =     -44.45597303 Ry
     estimated scf accuracy    <       0.00000353 Ry

     iteration #  5     ecut=    80.00 Ry     beta= 0.70
     Davidson diagonalization with overlap
     ethr =  2.52E-08,  avg # of iterations =  3.3

     total cpu time spent up to now is        2.9 secs

     total energy              =     -44.45597443 Ry
     estimated scf accuracy    <       0.00000025 Ry

     iteration #  6     ecut=    80.00 Ry     beta= 0.70
     Davidson diagonalization with overlap
     ethr =  1.81E-09,  avg # of iterations =  2.1

     total cpu time spent up to now is        3.2 secs

     End of self-consistent calculation

          k = 0.0000 0.0000 0.0000 (  2909 PWs)   bands (ev):

   -43.1598 -34.9310  -2.1759   7.6805   7.6805  10.1544  11.1219  11.1219
    11.4579  14.1144  15.8463

          k =-0.2016-0.1164 0.0813 (  2927 PWs)   bands (ev):

   -43.1590 -34.9299  -1.7238   5.3016   7.1249   9.4408  11.2659  12.1132
    13.1720  14.2778  14.3332

          k =-0.4031-0.2328 0.1627 (  2930 PWs)   bands (ev):

   -43.1578 -34.9280  -0.3948   2.2241   6.5850   8.8922  10.9911  11.5782
    13.5659  15.6260  16.8619

          k =-0.2016 0.1164 0.1627 (  2911 PWs)   bands (ev):

   -43.1587 -34.9295  -1.6385   5.9334   6.2171   8.6624  10.7027  11.7689
    13.3699  14.3781  16.6115

          k =-0.4031-0.0000 0.2440 (  2947 PWs)   bands (ev):

   -43.1577 -34.9278  -0.6728   3.4258   5.4319   8.1724  10.6215  12.3489
    13.8940  15.5387  17.2998

          k = 0.4031 0.4655-0.0813 (  2938 PWs)   bands (ev):

   -43.1573 -34.9272   0.5080   1.6077   4.9442   8.3546  10.8897  12.9205
    14.4420  16.4623  16.9388

          k = 0.2016 0.3491 0.0000 (  2926 PWs)   bands (ev):

   -43.1582 -34.9285  -0.9329   3.7342   5.4389   9.3106  11.7146  12.2175
    13.5152  14.2021  15.4514

          k =-0.4031 0.2328 0.3253 (  2941 PWs)   bands (ev):

   -43.1571 -34.9269  -0.2309   3.3371   4.9360   7.4162   8.8304  11.6826
    16.7528  17.8100  18.6308

          k = 0.4031 0.6983 0.0000 (  2932 PWs)   bands (ev):

   -43.1568 -34.9265   0.5959   2.3378   3.9653   7.5170   9.7044  12.8819
    16.3953  16.9829  17.8399

          k = 0.0000-0.0000 0.2440 (  2909 PWs)   bands (ev):

   -43.1588 -34.9299  -1.9039   7.2963   7.2979   7.2979  11.3573  11.3573
    12.8705  15.0594  15.0594

          k =-0.2016-0.1164 0.3253 (  2929 PWs)   bands (ev):

   -43.1579 -34.9285  -1.2893   4.6091   6.8581   7.0196  11.6054  12.0777
    13.7589  13.9564  16.1560

          k = 0.6047 0.3491 0.0000 (  2946 PWs)   bands (ev):

   -43.1572 -34.9272   0.0819   1.9789   6.0021   7.1452  11.0758  12.8628
    13.8170  16.4381  17.4296

          k = 0.4031 0.2328 0.0813 (  2941 PWs)   bands (ev):

   -43.1577 -34.9278  -0.5394   3.0167   5.6593   8.3366  10.3883  12.2349
    13.8165  16.1172  17.9464

          k =-0.2016 0.1164 0.4067 (  2946 PWs)   bands (ev):

   -43.1574 -34.9278  -1.1014   5.1952   5.7602   6.3010  10.7109  12.4608
    13.1542  15.8921  18.5009

          k = 0.6047 0.5819 0.0813 (  2940 PWs)   bands (ev):

   -43.1569 -34.9268  -0.1259   3.1968   4.7237   6.4046  11.7743  12.6933
    13.5804  16.4025  18.3125

          k = 0.4031 0.4655 0.1627 (  2939 PWs)   bands (ev):

   -43.1570 -34.9268   0.5179   2.1413   4.2758   7.3923  11.2063  12.8395
    14.6386  16.3983  17.9528

          k = 0.6047-0.3491-0.2440 (  2933 PWs)   bands (ev):

   -43.1568 -34.9265   0.1836   2.6436   5.0795   6.2431  10.0927  12.4839
    15.8229  17.4938  18.3076

          k = 0.0000-0.0000 0.4880 (  2947 PWs)   bands (ev):

   -43.1574 -34.9281  -1.3262   4.8580   6.9077   6.9077  10.7191  10.7191
    13.9094  16.9121  17.2325

          k = 0.8063 0.4655 0.1627 (  2942 PWs)   bands (ev):

   -43.1569 -34.9272  -0.7933   4.2534   5.6424   6.1248  11.0249  12.3112
    14.3080  16.6331  16.7599

     the Fermi energy is    11.6855 ev

!    total energy              =     -44.45597447 Ry
     estimated scf accuracy    <          4.4E-09 Ry
     smearing contrib. (-TS)   =      -0.00061270 Ry
     internal energy E=F+TS    =     -44.45536177 Ry

     The total energy is F=E-TS. E is the sum of the following terms:
     one-electron contribution =      -5.11761838 Ry
     hartree contribution      =       7.01274937 Ry
     xc contribution           =     -13.92178244 Ry
     ewald contribution        =     -32.42871033 Ry

     convergence has been achieved in   6 iterations

     Forces acting on atoms (cartesian axes, Ry/au):

     atom    1 type  1   force =     0.00000000   -0.00000000    0.05354391
     atom    2 type  1   force =    -0.00000000    0.00000000    1.49619482
     atom    3 type  2   force =    -0.00000000    0.00000000   -1.56126712
     atom    4 type  2   force =     0.00000000   -0.00000000    0.01152839
     The non-local contrib.  to forces
     atom    1 type  1   force =    -0.00000000   -0.00000000    0.03920049
     atom    2 type  1   force =    -0.00000000   -0.00000000   -1.24838633
     atom    3 type  2   force =    -0.00000000   -0.00000000   -0.26672407
     atom    4 type  2   force =     0.00000000    0.00000000   -0.01984651
     The ionic contribution  to forces
     atom    1 type  1   force =    -0.00000000   -0.00000000    0.09587776
     atom    2 type  1   force =     0.00000000    0.00000000    4.27992048
     atom    3 type  2   force =     0.00000000    0.00000000   -4.49759377
     atom    4 type  2   force =     0.00000000   -0.00000000    0.12179553
     The local contribution  to forces
     atom    1 type  1   force =     0.00000000    0.00000000   -0.08152195
     atom    2 type  1   force =     0.00000000   -0.00000000   -1.53532076
     atom    3 type  2   force =     0.00000000   -0.00000000    3.16990896
     atom    4 type  2   force =    -0.00000000    0.00000000   -0.09052289
     The core correction contribution to forces
     atom    1 type  1   force =     0.00000000    0.00000000    0.00000000
     atom    2 type  1   force =     0.00000000    0.00000000    0.00000000
     atom    3 type  2   force =     0.00000000   -0.00000000    0.03313156
     atom    4 type  2   force =    -0.00000000    0.00000000    0.00009656
     The Hubbard contrib.    to forces
     atom    1 type  1   force =     0.00000000    0.00000000    0.00000000
     atom    2 type  1   force =     0.00000000    0.00000000    0.00000000
     atom    3 type  2   force =     0.00000000    0.00000000    0.00000000
     atom    4 type  2   force =     0.00000000    0.00000000    0.00000000
     The SCF correction term to forces
     atom    1 type  1   force =     0.00000000    0.00000000   -0.00000772
     atom    2 type  1   force =     0.00000000    0.00000000   -0.00001391
     atom    3 type  2   force =     0.00000000    0.00000000    0.00001487
     atom    4 type  2   force =    -0.00000000   -0.00000000    0.00001037

     Total force =     2.163135     Total SCF correction =     0.000024


     Computing stress (Cartesian axis) and pressure

          total   stress  (Ry/bohr**3)                   (kbar)     P=     1214.46
   0.00382294  -0.00000000   0.00000000          562.37       -0.00        0.00
  -0.00000000   0.00382294   0.00000000           -0.00      562.37        0.00
  -0.00000000   0.00000000   0.01712133           -0.00        0.00     2518.63


     BFGS Geometry Optimization
     Energy error            =      0.0E+00 Ry
     Gradient error          =      1.6E+00 Ry/Bohr
     Cell gradient error     =      2.0E+03 kbar

     number of scf cycles    =   1
     number of bfgs steps    =   0

     enthalpy           new  =     -43.6301262709 Ry

     new trust radius        =       0.5000000000 bohr
ibrav =      5
 celldm(1) =      7.56673918
 celldm(4) =      0.57201283
Input lattice vectors:
     0.49779219    -0.28740046     0.90970810
     0.00000000     0.57480091     0.90970810
    -0.49779219    -0.28740046     0.90970810
New lattice vectors in INITIAL alat:
     0.49779219    -0.28740046     0.90970810
     0.00000000     0.57480091     0.90970810
    -0.49779219    -0.28740046     0.90970810
New lattice vectors in NEW alat (for information only):
     0.46259441    -0.26707901     0.84538466
     0.00000000     0.53415801     0.84538466
    -0.46259441    -0.26707901     0.84538466
Discrepancy in bohr =     0.000000    0.000000    0.000000
     new conv_thr            =       0.0000000100 Ry

     new unit-cell volume =    271.50138 a.u.^3 (    40.23235 Ang^3 )
     density =      2.89135 g/cm^3

CELL_PARAMETERS (alat=  7.03171180)
   0.497792192  -0.287400456   0.909708104
   0.000000000   0.574800912   0.909708104
  -0.497792192  -0.287400456   0.909708104

ATOMIC_POSITIONS (crystal)
Li            0.0719657198        0.0719657198        0.0719657198
Li            0.6434372785        0.6434372785        0.6434372785
Si            0.4659208073        0.4659208073        0.4659208073
Si            0.8497865245        0.8497865245        0.8497865245



     Writing config-only to output data dir ./output/LiSi.save/
     NEW-OLD atomic charge density approx. for the potential
     extrapolated charge   15.46999, renormalised to   14.00000

     total cpu time spent up to now is        4.2 secs

     Self-consistent Calculation

     iteration #  1     ecut=    80.00 Ry     beta= 0.70
     Davidson diagonalization with overlap
     ethr =  1.00E-06,  avg # of iterations = 13.9

     total cpu time spent up to now is        5.0 secs

     total energy              =     -45.40318756 Ry
     estimated scf accuracy    <       0.10740122 Ry

     iteration #  2     ecut=    80.00 Ry     beta= 0.70
     Davidson diagonalization with overlap
     ethr =  7.67E-04,  avg # of iterations =  2.3

     total cpu time spent up to now is        5.3 secs

     total energy              =     -45.45161699 Ry
     estimated scf accuracy    <       0.03997666 Ry

     iteration #  3     ecut=    80.00 Ry     beta= 0.70
     Davidson diagonalization with overlap
     ethr =  2.86E-04,  avg # of iterations =  1.1

     total cpu time spent up to now is        5.5 secs

     total energy              =     -45.45477667 Ry
     estimated scf accuracy    <       0.00258302 Ry

     iteration #  4     ecut=    80.00 Ry     beta= 0.70
     Davidson diagonalization with overlap
     ethr =  1.85E-05,  avg # of iterations =  2.8

     total cpu time spent up to now is        5.7 secs

     total energy              =     -45.45536602 Ry
     estimated scf accuracy    <       0.00025269 Ry

     iteration #  5     ecut=    80.00 Ry     beta= 0.70
     Davidson diagonalization with overlap
     ethr =  1.80E-06,  avg # of iterations =  2.2

     total cpu time spent up to now is        6.0 secs

     total energy              =     -45.45537939 Ry
     estimated scf accuracy    <       0.00002983 Ry

     iteration #  6     ecut=    80.00 Ry     beta= 0.70
     Davidson diagonalization with overlap
     ethr =  2.13E-07,  avg # of iterations =  2.1

     total cpu time spent up to now is        6.2 secs

     total energy              =     -45.45538626 Ry
     estimated scf accuracy    <       0.00000047 Ry

     iteration #  7     ecut=    80.00 Ry     beta= 0.70
     Davidson diagonalization with overlap
     ethr =  3.37E-09,  avg # of iterations =  3.9

     total cpu time spent up to now is        6.5 secs

     total energy              =     -45.45538648 Ry
     estimated scf accuracy    <       0.00000005 Ry

     iteration #  8     ecut=    80.00 Ry     beta= 0.70
     Davidson diagonalization with overlap
     ethr =  3.35E-10,  avg # of iterations =  2.1

     total cpu time spent up to now is        6.7 secs

     End of self-consistent calculation

          k = 0.0000 0.0000 0.0000 (  2909 PWs)   bands (ev):

   -36.5100 -36.0616  -3.2736   7.1127   7.5079   7.5079   9.5497  10.3384
    10.3384  11.1855  14.5956

          k =-0.2009-0.1160 0.0733 (  2927 PWs)   bands (ev):

   -36.5044 -36.0653  -2.8071   4.5819   6.6870   6.9212  10.0263  10.5120
    11.7583  13.0711  13.3909

          k =-0.4018-0.2320 0.1466 (  2930 PWs)   bands (ev):

   -36.4953 -36.0716  -1.4561   1.3464   5.9628   6.6760   9.8553  10.9922
    11.0146  12.9051  16.1984

          k =-0.2009 0.1160 0.1466 (  2911 PWs)   bands (ev):

   -36.5040 -36.0654  -2.7581   4.9908   6.0190   6.3534   9.6977  10.1301
    12.6567  12.7928  14.6298

          k =-0.4018-0.0000 0.2199 (  2947 PWs)   bands (ev):

   -36.4967 -36.0702  -1.7999   2.5515   4.7320   6.4052   8.7943  11.8677
    12.5452  13.8542  14.8993

          k = 0.4018 0.4639-0.0733 (  2938 PWs)   bands (ev):

   -36.4927 -36.0732  -0.4934   0.5410   4.2488   6.8903   8.5437  11.8988
    12.8315  14.2979  15.8655

          k = 0.2009 0.3479 0.0000 (  2926 PWs)   bands (ev):

   -36.4975 -36.0701  -1.9521   2.6576   4.9068   7.5348   8.9278  11.7724
    12.1003  12.9262  13.1092

          k =-0.4018 0.2320 0.2931 (  2941 PWs)   bands (ev):

   -36.4949 -36.0710  -1.4009   2.1259   4.7840   6.0234   7.2133   9.8763
    15.8974  16.3538  16.8935

          k = 0.4018 0.6959 0.0000 (  2932 PWs)   bands (ev):

   -36.4924 -36.0728  -0.5375   1.1075   3.5758   6.5402   7.2471  11.7360
    14.6438  16.1312  16.2288

          k =-0.0000-0.0000 0.2199 (  2909 PWs)   bands (ev):

   -36.5080 -36.0623  -3.1147   5.1833   7.2618   7.2618  10.3124  10.3124
    10.7078  12.6901  14.3555

          k =-0.2009-0.1160 0.2931 (  2929 PWs)   bands (ev):

   -36.5023 -36.0661  -2.5559   4.0270   5.0780   6.6535  10.1899  11.4136
    12.5972  12.9946  13.8318

          k = 0.6027 0.3479 0.0000 (  2946 PWs)   bands (ev):

   -36.4946 -36.0717  -1.1933   1.2106   5.5148   5.5738   9.7001  11.0290
    11.9566  15.0668  15.9655

          k = 0.4018 0.2320 0.0733 (  2941 PWs)   bands (ev):

   -36.4956 -36.0712  -1.5595   1.8514   5.3198   6.9394   8.5436   9.7239
    12.8399  14.0130  16.7807

          k =-0.2009 0.1160 0.3664 (  2946 PWs)   bands (ev):

   -36.5015 -36.0662  -2.4573   4.0961   5.0504   5.6859   9.5802  11.3251
    12.3278  13.6769  16.5681

          k = 0.6027 0.5799 0.0733 (  2940 PWs)   bands (ev):

   -36.4955 -36.0704  -1.5021   2.3943   4.2103   5.1050   9.8265  11.9628
    12.2735  14.2936  17.4479

          k = 0.4018 0.4639 0.1466 (  2939 PWs)   bands (ev):

   -36.4925 -36.0730  -0.5328   0.9020   3.8178   6.2412   8.4530  11.6616
    13.0978  15.9288  16.1499

          k = 0.6027-0.3479-0.2199 (  2933 PWs)   bands (ev):

   -36.4942 -36.0713  -1.1607   1.6767   4.8960   4.9895   8.5673  10.1501
    14.6514  16.7029  17.1656

          k =-0.0000-0.0000 0.4397 (  2947 PWs)   bands (ev):

   -36.5050 -36.0637  -2.8053   3.4408   7.0004   7.0004   9.8024   9.8024
    11.5673  14.5661  16.3034

          k = 0.8035 0.4639 0.1466 (  2942 PWs)   bands (ev):

   -36.5005 -36.0667  -2.2997   3.3540   4.7210   5.9846   9.8493  11.6480
    12.7519  14.2259  15.4169

     the Fermi energy is    10.0041 ev

!    total energy              =     -45.45538649 Ry
     estimated scf accuracy    <          1.5E-09 Ry
     smearing contrib. (-TS)   =      -0.00029380 Ry
     internal energy E=F+TS    =     -45.45509269 Ry

     The total energy is F=E-TS. E is the sum of the following terms:
     one-electron contribution =      -4.94534229 Ry
     hartree contribution      =       6.72559435 Ry
     xc contribution           =     -13.64735139 Ry
     ewald contribution        =     -33.58799336 Ry

     convergence has been achieved in   8 iterations

     Forces acting on atoms (cartesian axes, Ry/au):

     atom    1 type  1   force =    -0.00000000    0.00000000   -0.00810928
     atom    2 type  1   force =    -0.00000000   -0.00000000    0.14649970
     atom    3 type  2   force =     0.00000000   -0.00000000   -0.26540985
     atom    4 type  2   force =    -0.00000000    0.00000000    0.12701943
     The non-local contrib.  to forces
     atom    1 type  1   force =     0.00000000    0.00000000    0.05087769
     atom    2 type  1   force =    -0.00000000    0.00000000   -0.00659104
     atom    3 type  2   force =     0.00000000   -0.00000000   -0.18429528
     atom    4 type  2   force =     0.00000000   -0.00000000   -0.00273169
     The ionic contribution  to forces
     atom    1 type  1   force =    -0.00000000   -0.00000000   -0.16154289
     atom    2 type  1   force =    -0.00000000    0.00000000    0.29226449
     atom    3 type  2   force =    -0.00000000    0.00000000   -0.97666932
     atom    4 type  2   force =     0.00000000   -0.00000000    0.84594772
     The local contribution  to forces
     atom    1 type  1   force =     0.00000000    0.00000000    0.10257467
     atom    2 type  1   force =     0.00000000   -0.00000000   -0.13916670
     atom    3 type  2   force =     0.00000000   -0.00000000    0.88205092
     atom    4 type  2   force =    -0.00000000    0.00000000   -0.71339259
     The core correction contribution to forces
     atom    1 type  1   force =     0.00000000    0.00000000    0.00000000
     atom    2 type  1   force =     0.00000000    0.00000000    0.00000000
     atom    3 type  2   force =    -0.00000000   -0.00000000    0.01348822
     atom    4 type  2   force =    -0.00000000    0.00000000   -0.00282092
     The Hubbard contrib.    to forces
     atom    1 type  1   force =     0.00000000    0.00000000    0.00000000
     atom    2 type  1   force =     0.00000000    0.00000000    0.00000000
     atom    3 type  2   force =     0.00000000    0.00000000    0.00000000
     atom    4 type  2   force =     0.00000000    0.00000000    0.00000000
     The SCF correction term to forces
     atom    1 type  1   force =     0.00000000   -0.00000000   -0.00002097
     atom    2 type  1   force =     0.00000000    0.00000000   -0.00000928
     atom    3 type  2   force =    -0.00000000   -0.00000000    0.00001338
     atom    4 type  2   force =     0.00000000    0.00000000    0.00001470

     Total force =     0.328792     Total SCF correction =     0.000030


     Computing stress (Cartesian axis) and pressure

          total   stress  (Ry/bohr**3)                   (kbar)     P=      595.94
   0.00308419  -0.00000000   0.00000000          453.70       -0.00        0.00
   0.00000000   0.00308419   0.00000000            0.00      453.70        0.00
  -0.00000000   0.00000000   0.00598502           -0.00        0.00      880.43

     Energy error            =      9.0E-01 Ry
     Gradient error          =      2.7E-01 Ry/Bohr
     Cell gradient error     =      3.8E+02 kbar

     number of scf cycles    =   2
     number of bfgs steps    =   1

     enthalpy           old  =     -43.6301262709 Ry
     enthalpy           new  =     -44.5325720699 Ry

     CASE: enthalpy          _new < enthalpy          _old

     new trust radius        =       0.1842559723 bohr
ibrav =      5
 celldm(1) =      7.71912963
 celldm(4) =      0.59826093
Input lattice vectors:
     0.49199910    -0.28405581     0.93932182
    -0.00000000     0.56811163     0.93932182
    -0.49199910    -0.28405581     0.93932182
New lattice vectors in INITIAL alat:
     0.49199910    -0.28405581     0.93932182
     0.00000000     0.56811163     0.93932182
    -0.49199910    -0.28405581     0.93932182
New lattice vectors in NEW alat (for information only):
     0.44818471    -0.25875956     0.85567164
     0.00000000     0.51751913     0.85567164
    -0.44818471    -0.25875956     0.85567164
Discrepancy in bohr =     0.000000    0.000000    0.000000
     new conv_thr            =       0.0000000100 Ry

     new unit-cell volume =    273.85258 a.u.^3 (    40.58077 Ang^3 )
     density =      2.86652 g/cm^3

CELL_PARAMETERS (alat=  7.03171180)
   0.491999100  -0.284055813   0.939321816
   0.000000000   0.568111626   0.939321816
  -0.491999100  -0.284055813   0.939321816

ATOMIC_POSITIONS (crystal)
Li            0.0709760564        0.0709760564        0.0709760564
Li            0.6442205904        0.6442205904        0.6442205904
Si            0.4565257005        0.4565257005        0.4565257005
Si            0.8593879826        0.8593879826        0.8593879826



     Writing config-only to output data dir ./output/LiSi.save/
     NEW-OLD atomic charge density approx. for the potential
     extrapolated charge   14.12011, renormalised to   14.00000

     total cpu time spent up to now is        7.7 secs

     Self-consistent Calculation

     iteration #  1     ecut=    80.00 Ry     beta= 0.70
     Davidson diagonalization with overlap
     ethr =  1.00E-06,  avg # of iterations = 10.7

     total cpu time spent up to now is        8.3 secs

     total energy              =     -45.54209515 Ry
     estimated scf accuracy    <       0.00348975 Ry

     iteration #  2     ecut=    80.00 Ry     beta= 0.70
     Davidson diagonalization with overlap
     ethr =  2.49E-05,  avg # of iterations =  2.0

     total cpu time spent up to now is        8.5 secs

     total energy              =     -45.54313339 Ry
     estimated scf accuracy    <       0.00040567 Ry

     iteration #  3     ecut=    80.00 Ry     beta= 0.70
     Davidson diagonalization with overlap
     ethr =  2.90E-06,  avg # of iterations =  2.0

     total cpu time spent up to now is        8.7 secs

     total energy              =     -45.54318827 Ry
     estimated scf accuracy    <       0.00001260 Ry

     iteration #  4     ecut=    80.00 Ry     beta= 0.70
     Davidson diagonalization with overlap
     ethr =  9.00E-08,  avg # of iterations =  2.3

     total cpu time spent up to now is        9.0 secs

     total energy              =     -45.54319159 Ry
     estimated scf accuracy    <       0.00000119 Ry

     iteration #  5     ecut=    80.00 Ry     beta= 0.70
     Davidson diagonalization with overlap
     ethr =  8.51E-09,  avg # of iterations =  2.1

     total cpu time spent up to now is        9.3 secs

     total energy              =     -45.54319170 Ry
     estimated scf accuracy    <       0.00000016 Ry

     iteration #  6     ecut=    80.00 Ry     beta= 0.70
     Davidson diagonalization with overlap
     ethr =  1.14E-09,  avg # of iterations =  2.1

     total cpu time spent up to now is        9.5 secs

     End of self-consistent calculation

          k = 0.0000 0.0000 0.0000 (  2909 PWs)   bands (ev):

   -36.3238 -36.1505  -3.2883   6.9496   7.8653   7.8653   8.5831  10.6536
    10.6536  11.3662  14.4557

          k =-0.2033-0.1173 0.0710 (  2927 PWs)   bands (ev):

   -36.3084 -36.1640  -2.8074   4.8097   6.6610   6.9798   9.3361  10.6220
    11.8739  13.0398  13.1476

          k =-0.4065-0.2347 0.1419 (  2930 PWs)   bands (ev):

   -36.2733 -36.1958  -1.4139   1.4646   6.2135   6.4043   9.9041  10.6807
    10.7930  12.2420  15.7037

          k =-0.2033 0.1173 0.1419 (  2911 PWs)   bands (ev):

   -36.3076 -36.1644  -2.7569   5.2141   5.9969   6.3352   9.2191  10.3243
    12.6113  13.0001  14.6410

          k =-0.4065-0.0000 0.2129 (  2947 PWs)   bands (ev):

   -36.2815 -36.1879  -1.7674   2.7153   4.8662   6.1253   8.4585  12.1107
    12.8165  13.5780  14.3441

          k = 0.4065 0.4694-0.0710 (  2938 PWs)   bands (ev):

   -36.2556 -36.2125  -0.4181   0.6463   4.3938   6.5895   8.2196  11.8832
    12.8117  13.5150  16.1529

          k = 0.2033 0.3520 0.0000 (  2926 PWs)   bands (ev):

   -36.2832 -36.1867  -1.9251   2.8414   5.0831   7.3427   8.3704  11.5308
    12.1901  12.6133  13.2296

          k =-0.4065 0.2347 0.2839 (  2941 PWs)   bands (ev):

   -36.2738 -36.1946  -1.3472   2.2357   5.0813   5.6705   6.8775  10.0423
    15.6464  16.2175  16.9358

          k = 0.4065 0.7041 0.0000 (  2932 PWs)   bands (ev):

   -36.2563 -36.2113  -0.4457   1.2083   3.6940   6.2368   6.9272  11.9810
    14.4920  15.5513  16.5623

          k =-0.0000-0.0000 0.2129 (  2909 PWs)   bands (ev):

   -36.3206 -36.1527  -3.1259   4.7660   7.6649   7.6649  10.5299  10.5299
    10.7495  12.1738  14.2796

          k =-0.2033-0.1173 0.2839 (  2929 PWs)   bands (ev):

   -36.3043 -36.1669  -2.5497   3.9531   5.0178   6.9721  10.3118  11.4430
    12.2851  13.1585  14.0521

          k = 0.6098 0.3520 0.0000 (  2946 PWs)   bands (ev):

   -36.2714 -36.1974  -1.1378   1.3019   5.2011   5.8405   9.7293  10.8850
    11.6912  14.3331  16.5116

          k = 0.4065 0.2347 0.0710 (  2941 PWs)   bands (ev):

   -36.2748 -36.1943  -1.5173   1.9813   5.5908   6.6476   8.1086   9.8751
    12.5659  13.2923  17.1999

          k =-0.2033 0.1173 0.3549 (  2946 PWs)   bands (ev):

   -36.3031 -36.1678  -2.4472   3.7303   5.2705   6.0279   9.5418  11.2855
    12.5952  13.9944  16.0599

          k = 0.6098 0.5867 0.0710 (  2940 PWs)   bands (ev):

   -36.2787 -36.1900  -1.4563   2.4891   4.2096   5.0162   9.5527  12.1207
    12.6068  14.1160  16.9985

          k = 0.4065 0.4694 0.1419 (  2939 PWs)   bands (ev):

   -36.2560 -36.2118  -0.4476   1.0051   3.9508   5.9302   8.1281  11.7478
    12.8953  15.4242  16.5071

          k = 0.6098-0.3520-0.2129 (  2933 PWs)   bands (ev):

   -36.2717 -36.1965  -1.0954   1.7530   4.6666   5.1903   8.2875  10.2769
    14.3207  17.1471  17.2797

          k =-0.0000-0.0000 0.4258 (  2947 PWs)   bands (ev):

   -36.3153 -36.1569  -2.8080   3.0291   7.4563   7.4563   9.9516   9.9516
    11.7628  14.2123  16.1737

          k = 0.8130 0.4694 0.1419 (  2942 PWs)   bands (ev):

   -36.3010 -36.1695  -2.2841   3.0215   4.9202   6.3253   9.9265  11.8511
    12.6918  14.5615  15.2806

     the Fermi energy is    10.0545 ev

!    total energy              =     -45.54319172 Ry
     estimated scf accuracy    <          5.0E-09 Ry
     smearing contrib. (-TS)   =      -0.00003481 Ry
     internal energy E=F+TS    =     -45.54315690 Ry

     The total energy is F=E-TS. E is the sum of the following terms:
     one-electron contribution =      -4.73826230 Ry
     hartree contribution      =       6.59131304 Ry
     xc contribution           =     -13.60326821 Ry
     ewald contribution        =     -33.79293944 Ry

     convergence has been achieved in   6 iterations

     Forces acting on atoms (cartesian axes, Ry/au):

     atom    1 type  1   force =    -0.00000000    0.00000000    0.00455484
     atom    2 type  1   force =    -0.00000000    0.00000000    0.08472583
     atom    3 type  2   force =     0.00000000   -0.00000000   -0.16401594
     atom    4 type  2   force =    -0.00000000    0.00000000    0.07473526
     The non-local contrib.  to forces
     atom    1 type  1   force =    -0.00000000    0.00000000    0.06474095
     atom    2 type  1   force =    -0.00000000   -0.00000000    0.01579581
     atom    3 type  2   force =     0.00000000   -0.00000000   -0.10038945
     atom    4 type  2   force =     0.00000000    0.00000000   -0.07523361
     The ionic contribution  to forces
     atom    1 type  1   force =     0.00000000   -0.00000000   -0.10186050
     atom    2 type  1   force =     0.00000000    0.00000000    0.10136258
     atom    3 type  2   force =     0.00000000    0.00000000   -0.72589846
     atom    4 type  2   force =    -0.00000000   -0.00000000    0.72639637
     The local contribution  to forces
     atom    1 type  1   force =    -0.00000000    0.00000000    0.04165764
     atom    2 type  1   force =     0.00000000   -0.00000000   -0.03240705
     atom    3 type  2   force =     0.00000000   -0.00000000    0.65324088
     atom    4 type  2   force =    -0.00000000    0.00000000   -0.57751670
     The core correction contribution to forces
     atom    1 type  1   force =     0.00000000    0.00000000    0.00000000
     atom    2 type  1   force =     0.00000000    0.00000000    0.00000000
     atom    3 type  2   force =     0.00000000   -0.00000000    0.00900416
     atom    4 type  2   force =     0.00000000    0.00000000    0.00110988
     The Hubbard contrib.    to forces
     atom    1 type  1   force =     0.00000000    0.00000000    0.00000000
     atom    2 type  1   force =     0.00000000    0.00000000    0.00000000
     atom    3 type  2   force =     0.00000000    0.00000000    0.00000000
     atom    4 type  2   force =     0.00000000    0.00000000    0.00000000
     The SCF correction term to forces
     atom    1 type  1   force =    -0.00000000   -0.00000000    0.00001745
     atom    2 type  1   force =    -0.00000000    0.00000000   -0.00002481
     atom    3 type  2   force =     0.00000000   -0.00000000    0.00002763
     atom    4 type  2   force =    -0.00000000   -0.00000000   -0.00001998

     Total force =     0.199213     Total SCF correction =     0.000046


     Computing stress (Cartesian axis) and pressure

          total   stress  (Ry/bohr**3)                   (kbar)     P=      522.50
   0.00303180  -0.00000000  -0.00000000          445.99       -0.00       -0.00
  -0.00000000   0.00303180   0.00000000           -0.00      445.99        0.00
  -0.00000000   0.00000000   0.00459203           -0.00        0.00      675.51

     Energy error            =      8.0E-02 Ry
     Gradient error          =      1.6E-01 Ry/Bohr
     Cell gradient error     =      1.8E+02 kbar

     number of scf cycles    =   3
     number of bfgs steps    =   2

     enthalpy           old  =     -44.5325720699 Ry
     enthalpy           new  =     -44.6123857157 Ry

     CASE: enthalpy          _new < enthalpy          _old

     new trust radius        =       0.2092794592 bohr
ibrav =      5
 celldm(1) =      7.78664458
 celldm(4) =      0.62057399
Input lattice vectors:
     0.48232285    -0.27846923     0.95711457
    -0.00000000     0.55693846     0.95711457
    -0.48232285    -0.27846923     0.95711457
New lattice vectors in INITIAL alat:
     0.48232285    -0.27846923     0.95711457
     0.00000000     0.55693846     0.95711457
    -0.48232285    -0.27846923     0.95711457
New lattice vectors in NEW alat (for information only):
     0.43556056    -0.25147101     0.86432015
     0.00000000     0.50294202     0.86432015
    -0.43556056    -0.25147101     0.86432015
Discrepancy in bohr =     0.000000    0.000000    0.000000
     new conv_thr            =       0.0000000100 Ry

     new unit-cell volume =    268.17199 a.u.^3 (    39.73899 Ang^3 )
     density =      2.92724 g/cm^3

CELL_PARAMETERS (alat=  7.03171180)
   0.482322853  -0.278469229   0.957114573
   0.000000000   0.556938458   0.957114573
  -0.482322853  -0.278469229   0.957114573

ATOMIC_POSITIONS (crystal)
Li            0.0709580671        0.0709580671        0.0709580671
Li            0.6452190457        0.6452190457        0.6452190457
Si            0.4459640966        0.4459640966        0.4459640966
Si            0.8689691206        0.8689691206        0.8689691206



     Writing config-only to output data dir ./output/LiSi.save/
     NEW-OLD atomic charge density approx. for the potential
     extrapolated charge   13.70366, renormalised to   14.00000

     total cpu time spent up to now is       10.4 secs

     Self-consistent Calculation

     iteration #  1     ecut=    80.00 Ry     beta= 0.70
     Davidson diagonalization with overlap
     ethr =  1.00E-06,  avg # of iterations = 10.9

     total cpu time spent up to now is       10.9 secs

     total energy              =     -45.56133402 Ry
     estimated scf accuracy    <       0.00327206 Ry

     iteration #  2     ecut=    80.00 Ry     beta= 0.70
     Davidson diagonalization with overlap
     ethr =  2.34E-05,  avg # of iterations =  2.3

     total cpu time spent up to now is       11.2 secs

     total energy              =     -45.56310985 Ry
     estimated scf accuracy    <       0.00137622 Ry

     iteration #  3     ecut=    80.00 Ry     beta= 0.70
     Davidson diagonalization with overlap
     ethr =  9.83E-06,  avg # of iterations =  1.4

     total cpu time spent up to now is       11.4 secs

     total energy              =     -45.56327115 Ry
     estimated scf accuracy    <       0.00006161 Ry

     iteration #  4     ecut=    80.00 Ry     beta= 0.70
     Davidson diagonalization with overlap
     ethr =  4.40E-07,  avg # of iterations =  2.3

     total cpu time spent up to now is       11.6 secs

     total energy              =     -45.56328022 Ry
     estimated scf accuracy    <       0.00000143 Ry

     iteration #  5     ecut=    80.00 Ry     beta= 0.70
     Davidson diagonalization with overlap
     ethr =  1.02E-08,  avg # of iterations =  2.9

     total cpu time spent up to now is       11.9 secs

     total energy              =     -45.56328059 Ry
     estimated scf accuracy    <       0.00000026 Ry

     iteration #  6     ecut=    80.00 Ry     beta= 0.70
     Davidson diagonalization with overlap
     ethr =  1.83E-09,  avg # of iterations =  2.0

     total cpu time spent up to now is       12.1 secs

     End of self-consistent calculation

          k = 0.0000 0.0000 0.0000 (  2909 PWs)   bands (ev):

   -36.0689 -35.8245  -2.9818   7.1362   7.9120   8.7366   8.7366  11.3539
    11.3539  12.2581  14.5785

          k =-0.2073-0.1197 0.0697 (  2927 PWs)   bands (ev):

   -36.0545 -35.8363  -2.4829   5.4036   6.7196   7.7587   8.9750  11.3560
    12.0481  12.9428  13.8312

          k =-0.4147-0.2394 0.1393 (  2930 PWs)   bands (ev):

   -36.0271 -35.8596  -1.0270   1.9170   6.4122   6.9506  10.2697  10.7363
    10.8590  12.0853  15.5593

          k =-0.2073 0.1197 0.1393 (  2911 PWs)   bands (ev):

   -36.0539 -35.8365  -2.4265   5.6416   6.1808   7.0465   9.0188  10.9878
    12.5851  13.7824  14.8776

          k =-0.4147-0.0000 0.2090 (  2947 PWs)   bands (ev):

   -36.0326 -35.8546  -1.3921   3.2411   5.2893   6.2712   8.3762  12.6191
    13.2965  13.9461  14.4598

          k = 0.4147 0.4788-0.0697 (  2938 PWs)   bands (ev):

   -36.0177 -35.8678   0.0235   1.0835   4.9446   6.5721   8.1821  11.9955
    12.9368  13.7417  16.5337

          k = 0.2073 0.3591 0.0000 (  2926 PWs)   bands (ev):

   -36.0336 -35.8540  -1.5708   3.4311   5.6451   7.4993   8.1157  11.4620
    11.9410  13.3853  14.1426

          k =-0.4147 0.2394 0.2786 (  2941 PWs)   bands (ev):

   -36.0272 -35.8589  -0.9483   2.8008   5.5435   5.7188   6.7460  10.7514
    15.6751  16.1385  17.4591

          k = 0.4147 0.7182 0.0000 (  2932 PWs)   bands (ev):

   -36.0178 -35.8672  -0.0024   1.7318   4.1072   6.1178   6.9648  12.6661
    14.7271  15.2006  17.5550

          k =-0.0000-0.0000 0.2090 (  2909 PWs)   bands (ev):

   -36.0663 -35.8260  -2.8004   4.5691   8.5479   8.5479  10.9193  11.1481
    11.1481  12.6593  14.4391

          k =-0.2073-0.1197 0.2786 (  2929 PWs)   bands (ev):

   -36.0516 -35.8382  -2.1916   3.9088   5.5264   7.7748  10.8421  11.6411
    12.4729  13.7741  14.7241

          k = 0.6220 0.3591 0.0000 (  2946 PWs)   bands (ev):

   -36.0262 -35.8604  -0.7005   1.6847   5.1537   6.5286  10.0750  11.3394
    11.6641  14.0353  16.0348

          k = 0.4147 0.2394 0.0697 (  2941 PWs)   bands (ev):

   -36.0279 -35.8590  -1.1444   2.5223   6.2524   6.5979   7.9689  10.5267
    12.5544  13.0157  17.0532

          k =-0.2073 0.1197 0.3483 (  2946 PWs)   bands (ev):

   -36.0507 -35.8388  -2.0730   3.5231   5.9866   6.7329   9.7424  11.7697
    13.3184  14.7247  16.1991

          k = 0.6220 0.5985 0.0697 (  2940 PWs)   bands (ev):

   -36.0310 -35.8556  -1.0264   2.8163   4.4348   5.4006   9.6236  12.5821
    13.4385  14.5126  16.7918

          k = 0.4147 0.4788 0.1393 (  2939 PWs)   bands (ev):

   -36.0177 -35.8675  -0.0083   1.4972   4.4199   5.8428   8.1653  11.9251
    13.3771  15.1878  17.4756

          k = 0.6220-0.3591-0.2090 (  2933 PWs)   bands (ev):

   -36.0262 -35.8598  -0.6486   2.1744   4.5783   5.8337   8.2708  10.9739
    14.3470  17.2221  18.1003

          k =-0.0000-0.0000 0.4179 (  2947 PWs)   bands (ev):

   -36.0625 -35.8290  -2.4345   2.7712   8.3767   8.3767  10.4352  10.4352
    12.6473  14.3061  16.4027

          k = 0.8293 0.4788 0.1393 (  2942 PWs)   bands (ev):

   -36.0493 -35.8398  -1.8794   2.7986   5.5648   7.0567  10.3907  12.4043
    13.1488  15.5463  15.5699

     the Fermi energy is    10.6107 ev

!    total energy              =     -45.56328064 Ry
     estimated scf accuracy    <          6.2E-09 Ry
     smearing contrib. (-TS)   =      -0.00039778 Ry
     internal energy E=F+TS    =     -45.56288285 Ry

     The total energy is F=E-TS. E is the sum of the following terms:
     one-electron contribution =      -4.14961197 Ry
     hartree contribution      =       6.45729315 Ry
     xc contribution           =     -13.60578474 Ry
     ewald contribution        =     -34.26477929 Ry

     convergence has been achieved in   6 iterations

     Forces acting on atoms (cartesian axes, Ry/au):

     atom    1 type  1   force =    -0.00000000    0.00000000    0.02573937
     atom    2 type  1   force =     0.00000000   -0.00000000    0.04282526
     atom    3 type  2   force =     0.00000000    0.00000000   -0.07696856
     atom    4 type  2   force =     0.00000000   -0.00000000    0.00840393
     The non-local contrib.  to forces
     atom    1 type  1   force =    -0.00000000    0.00000000    0.07163142
     atom    2 type  1   force =    -0.00000000   -0.00000000    0.01945085
     atom    3 type  2   force =     0.00000000   -0.00000000   -0.03181045
     atom    4 type  2   force =    -0.00000000    0.00000000   -0.13648319
     The ionic contribution  to forces
     atom    1 type  1   force =    -0.00000000    0.00000000    0.03146071
     atom    2 type  1   force =    -0.00000000    0.00000000   -0.09198131
     atom    3 type  2   force =    -0.00000000    0.00000000   -0.47785477
     atom    4 type  2   force =    -0.00000000   -0.00000000    0.53837537
     The local contribution  to forces
     atom    1 type  1   force =     0.00000000    0.00000000   -0.07742336
     atom    2 type  1   force =     0.00000000   -0.00000000    0.11535573
     atom    3 type  2   force =    -0.00000000   -0.00000000    0.42748596
     atom    4 type  2   force =     0.00000000    0.00000000   -0.39805553
     The core correction contribution to forces
     atom    1 type  1   force =     0.00000000    0.00000000    0.00000000
     atom    2 type  1   force =     0.00000000    0.00000000    0.00000000
     atom    3 type  2   force =     0.00000000   -0.00000000    0.00517402
     atom    4 type  2   force =     0.00000000    0.00000000    0.00460743
     The Hubbard contrib.    to forces
     atom    1 type  1   force =     0.00000000    0.00000000    0.00000000
     atom    2 type  1   force =     0.00000000    0.00000000    0.00000000
     atom    3 type  2   force =     0.00000000    0.00000000    0.00000000
     atom    4 type  2   force =     0.00000000    0.00000000    0.00000000
     The SCF correction term to forces
     atom    1 type  1   force =    -0.00000000    0.00000000    0.00007178
     atom    2 type  1   force =     0.00000000   -0.00000000    0.00000117
     atom    3 type  2   force =    -0.00000000    0.00000000    0.00003786
     atom    4 type  2   force =    -0.00000000    0.00000000   -0.00003896

     Total force =     0.092148     Total SCF correction =     0.000090


     Computing stress (Cartesian axis) and pressure

          total   stress  (Ry/bohr**3)                   (kbar)     P=      519.75
   0.00347572  -0.00000000  -0.00000000          511.30       -0.00       -0.00
   0.00000000   0.00347572   0.00000000            0.00      511.30        0.00
  -0.00000000   0.00000000   0.00364814           -0.00        0.00      536.66

     Energy error            =      3.9E-02 Ry
     Gradient error          =      7.7E-02 Ry/Bohr
     Cell gradient error     =      3.7E+01 kbar

     number of scf cycles    =   4
     number of bfgs steps    =   3

     enthalpy           old  =     -44.6123857157 Ry
     enthalpy           new  =     -44.6517825568 Ry

     CASE: enthalpy          _new < enthalpy          _old

     new trust radius        =       0.1501679934 bohr
ibrav =      5
 celldm(1) =      7.79838323
 celldm(4) =      0.62402959
Input lattice vectors:
     0.48084527    -0.27761615     0.96003431
    -0.00000000     0.55523229     0.96003431
    -0.48084527    -0.27761615     0.96003431
New lattice vectors in INITIAL alat:
     0.48084527    -0.27761615     0.96003431
     0.00000000     0.55523229     0.96003431
    -0.48084527    -0.27761615     0.96003431
New lattice vectors in NEW alat (for information only):
     0.43357261    -0.25032326     0.86565181
     0.00000000     0.50064652     0.86565181
    -0.43357261    -0.25032326     0.86565181
Discrepancy in bohr =     0.000000    0.000000    0.000000
     new conv_thr            =       0.0000000077 Ry

     new unit-cell volume =    267.34450 a.u.^3 (    39.61637 Ang^3 )
     density =      2.93631 g/cm^3

CELL_PARAMETERS (alat=  7.03171180)
   0.480845270  -0.277616146   0.960034307
   0.000000000   0.555232292   0.960034307
  -0.480845270  -0.277616146   0.960034307

ATOMIC_POSITIONS (crystal)
Li            0.0732886907        0.0732886907        0.0732886907
Li            0.6463100145        0.6463100145        0.6463100145
Si            0.4385265255        0.4385265255        0.4385265255
Si            0.8729850993        0.8729850993        0.8729850993



     Writing config-only to output data dir ./output/LiSi.save/
     NEW-OLD atomic charge density approx. for the potential
     extrapolated charge   13.95670, renormalised to   14.00000

     total cpu time spent up to now is       13.0 secs

     Self-consistent Calculation

     iteration #  1     ecut=    80.00 Ry     beta= 0.70
     Davidson diagonalization with overlap
     ethr =  1.00E-06,  avg # of iterations =  8.9

     total cpu time spent up to now is       13.5 secs

     total energy              =     -45.57008824 Ry
     estimated scf accuracy    <       0.00205382 Ry

     iteration #  2     ecut=    80.00 Ry     beta= 0.70
     Davidson diagonalization with overlap
     ethr =  1.47E-05,  avg # of iterations =  2.2

     total cpu time spent up to now is       13.7 secs

     total energy              =     -45.57070203 Ry
     estimated scf accuracy    <       0.00060597 Ry

     iteration #  3     ecut=    80.00 Ry     beta= 0.70
     Davidson diagonalization with overlap
     ethr =  4.33E-06,  avg # of iterations =  2.0

     total cpu time spent up to now is       13.9 secs

     total energy              =     -45.57081268 Ry
     estimated scf accuracy    <       0.00000552 Ry

     iteration #  4     ecut=    80.00 Ry     beta= 0.70
     Davidson diagonalization with overlap
     ethr =  3.95E-08,  avg # of iterations =  2.6

     total cpu time spent up to now is       14.2 secs

     total energy              =     -45.57081433 Ry
     estimated scf accuracy    <       0.00000058 Ry

     iteration #  5     ecut=    80.00 Ry     beta= 0.70
     Davidson diagonalization with overlap
     ethr =  4.15E-09,  avg # of iterations =  2.0

     total cpu time spent up to now is       14.4 secs

     total energy              =     -45.57081443 Ry
     estimated scf accuracy    <       0.00000005 Ry

     iteration #  6     ecut=    80.00 Ry     beta= 0.70
     Davidson diagonalization with overlap
     ethr =  3.75E-10,  avg # of iterations =  2.5

     total cpu time spent up to now is       14.6 secs

     End of self-consistent calculation

          k = 0.0000 0.0000 0.0000 (  2909 PWs)   bands (ev):

   -36.0310 -35.7212  -2.8234   7.2842   7.6118   9.0607   9.0607  11.5436
    11.5436  12.4609  14.4656

          k =-0.2080-0.1201 0.0694 (  2927 PWs)   bands (ev):

   -36.0192 -35.7302  -2.3243   5.5446   6.7904   8.0544   8.8823  11.6173
    11.9646  12.7637  14.0214

          k =-0.4159-0.2401 0.1389 (  2930 PWs)   bands (ev):

   -35.9985 -35.7465  -0.8604   2.0617   6.4406   7.2474  10.2699  10.5855
    10.9634  12.0475  15.3943

          k =-0.2080 0.1201 0.1389 (  2911 PWs)   bands (ev):

   -36.0187 -35.7302  -2.2606   5.6043   6.4229   7.2759   8.9200  11.1675
    12.5205  13.9800  14.8990

          k =-0.4159-0.0000 0.2083 (  2947 PWs)   bands (ev):

   -36.0024 -35.7431  -1.2176   3.3918   5.4025   6.4020   8.2607  12.6162
    13.3061  14.1926  14.5797

          k = 0.4159 0.4803-0.0694 (  2938 PWs)   bands (ev):

   -35.9920 -35.7517   0.2002   1.2348   5.1806   6.5593   8.1218  11.8738
    12.7719  14.0814  16.4299

          k = 0.2080 0.3602 0.0000 (  2926 PWs)   bands (ev):

   -36.0032 -35.7428  -1.4188   3.6402   5.8362   7.6170   8.0261  11.3008
    11.6839  13.6454  14.5408

          k =-0.4159 0.2401 0.2778 (  2941 PWs)   bands (ev):

   -35.9985 -35.7459  -0.7701   3.0872   5.4044   5.9129   6.5724  11.0573
    15.6324  16.1056  17.5491

          k = 0.4159 0.7204 0.0000 (  2932 PWs)   bands (ev):

   -35.9920 -35.7512   0.1750   1.9651   4.2473   5.9482   6.9859  12.8322
    14.8097  15.0273  17.8765

          k =-0.0000 0.0000 0.2083 (  2909 PWs)   bands (ev):

   -36.0288 -35.7222  -2.6176   4.4311   8.8668   8.8668  10.9761  11.2973
    11.2973  12.8009  14.3508

          k =-0.2080-0.1201 0.2778 (  2929 PWs)   bands (ev):

   -36.0169 -35.7315  -1.9919   3.7625   5.7404   8.0846  11.0084  11.5582
    12.5541  13.9214  14.8357

          k = 0.6239 0.3602 0.0000 (  2946 PWs)   bands (ev):

   -35.9979 -35.7470  -0.4820   1.7745   5.1121   6.7740  10.0860  11.5622
    11.6425  13.8725  15.8611

          k = 0.4159 0.2401 0.0694 (  2941 PWs)   bands (ev):

   -35.9990 -35.7461  -0.9917   2.7559   6.4740   6.5258   7.8735  10.7722
    12.4758  12.9178  16.8766

          k =-0.2080 0.1201 0.3472 (  2946 PWs)   bands (ev):

   -36.0163 -35.7319  -1.8527   3.3322   6.2818   6.9493   9.6527  11.9957
    13.4989  14.9136  16.2575

          k = 0.6239 0.6003 0.0694 (  2940 PWs)   bands (ev):

   -36.0012 -35.7437  -0.7906   2.8023   4.5279   5.5385   9.6133  12.5679
    13.7176  14.7414  16.6796

          k = 0.4159 0.4803 0.1389 (  2939 PWs)   bands (ev):

   -35.9920 -35.7514   0.1645   1.7029   4.6031   5.7100   8.2106  11.7850
    13.5828  15.1418  17.7062

          k = 0.6239-0.3602-0.2083 (  2933 PWs)   bands (ev):

   -35.9978 -35.7465  -0.4218   2.3161   4.4773   6.0333   8.1558  11.3132
    14.2990  17.0648  17.9079

          k =-0.0000 0.0000 0.4167 (  2947 PWs)   bands (ev):

   -36.0258 -35.7245  -2.1867   2.5412   8.7183   8.7183  10.4825  10.4825
    12.9429  14.3065  16.3969

          k = 0.8319 0.4803 0.1389 (  2942 PWs)   bands (ev):

   -36.0152 -35.7326  -1.6188   2.5624   5.8015   7.2953  10.4543  12.4885
    13.3806  15.6236  15.8552

     the Fermi energy is    10.6899 ev

!    total energy              =     -45.57081444 Ry
     estimated scf accuracy    <          2.1E-09 Ry
     smearing contrib. (-TS)   =      -0.00008029 Ry
     internal energy E=F+TS    =     -45.57073415 Ry

     The total energy is F=E-TS. E is the sum of the following terms:
     one-electron contribution =      -4.00711780 Ry
     hartree contribution      =       6.42142490 Ry
     xc contribution           =     -13.58686237 Ry
     ewald contribution        =     -34.39817888 Ry

     convergence has been achieved in   6 iterations

     Forces acting on atoms (cartesian axes, Ry/au):

     atom    1 type  1   force =     0.00000000    0.00000000    0.03339101
     atom    2 type  1   force =    -0.00000000    0.00000000    0.02169526
     atom    3 type  2   force =     0.00000000   -0.00000000   -0.04038752
     atom    4 type  2   force =     0.00000000   -0.00000000   -0.01469875
     The non-local contrib.  to forces
     atom    1 type  1   force =    -0.00000000    0.00000000    0.07542144
     atom    2 type  1   force =    -0.00000000   -0.00000000    0.01440864
     atom    3 type  2   force =     0.00000000    0.00000000    0.01424105
     atom    4 type  2   force =     0.00000000    0.00000000   -0.15453941
     The ionic contribution  to forces
     atom    1 type  1   force =    -0.00000000    0.00000000    0.14032870
     atom    2 type  1   force =    -0.00000000    0.00000000   -0.22347736
     atom    3 type  2   force =    -0.00000000    0.00000000   -0.34515908
     atom    4 type  2   force =    -0.00000000   -0.00000000    0.42830773
     The local contribution  to forces
     atom    1 type  1   force =     0.00000000    0.00000000   -0.18236582
     atom    2 type  1   force =     0.00000000   -0.00000000    0.23080006
     atom    3 type  2   force =    -0.00000000    0.00000000    0.28826694
     atom    4 type  2   force =     0.00000000    0.00000000   -0.29447326
     The core correction contribution to forces
     atom    1 type  1   force =     0.00000000    0.00000000    0.00000000
     atom    2 type  1   force =     0.00000000    0.00000000    0.00000000
     atom    3 type  2   force =    -0.00000000   -0.00000000    0.00224218
     atom    4 type  2   force =     0.00000000    0.00000000    0.00600650
     The Hubbard contrib.    to forces
     atom    1 type  1   force =     0.00000000    0.00000000    0.00000000
     atom    2 type  1   force =     0.00000000    0.00000000    0.00000000
     atom    3 type  2   force =     0.00000000    0.00000000    0.00000000
     atom    4 type  2   force =     0.00000000    0.00000000    0.00000000
     The SCF correction term to forces
     atom    1 type  1   force =     0.00000000    0.00000000    0.00000871
     atom    2 type  1   force =     0.00000000    0.00000000   -0.00003406
     atom    3 type  2   force =    -0.00000000   -0.00000000    0.00002342
     atom    4 type  2   force =     0.00000000    0.00000000    0.00000170

     Total force =     0.058591     Total SCF correction =     0.000042


     Computing stress (Cartesian axis) and pressure

          total   stress  (Ry/bohr**3)                   (kbar)     P=      494.38
   0.00353604  -0.00000000  -0.00000000          520.17       -0.00       -0.00
  -0.00000000   0.00353604   0.00000000           -0.00      520.17        0.00
   0.00000000   0.00000000   0.00301007            0.00        0.00      442.80

     Energy error            =      1.0E-02 Ry
     Gradient error          =      4.0E-02 Ry/Bohr
     Cell gradient error     =      5.7E+01 kbar

     number of scf cycles    =   5
     number of bfgs steps    =   4

     enthalpy           old  =     -44.6517825568 Ry
     enthalpy           new  =     -44.6621289360 Ry

     CASE: enthalpy          _new < enthalpy          _old

     new trust radius        =       0.2034953291 bohr
ibrav =      5
 celldm(1) =      7.72758643
 celldm(4) =      0.61580441
Input lattice vectors:
     0.48166379    -0.27808872     0.94783167
     0.00000000     0.55617743     0.94783167
    -0.48166379    -0.27808872     0.94783167
New lattice vectors in INITIAL alat:
     0.48166379    -0.27808872     0.94783167
     0.00000000     0.55617743     0.94783167
    -0.48166379    -0.27808872     0.94783167
New lattice vectors in NEW alat (for information only):
     0.43828962    -0.25304663     0.86247876
     0.00000000     0.50609326     0.86247876
    -0.43828962    -0.25304663     0.86247876
Discrepancy in bohr =     0.000000    0.000000    0.000000
     new conv_thr            =       0.0000000040 Ry

     new unit-cell volume =    264.84576 a.u.^3 (    39.24609 Ang^3 )
     density =      2.96401 g/cm^3

CELL_PARAMETERS (alat=  7.03171180)
   0.481663788  -0.278088717   0.947831672
   0.000000000   0.556177435   0.947831672
  -0.481663788  -0.278088717   0.947831672

ATOMIC_POSITIONS (crystal)
Li            0.0787122777        0.0787122777        0.0787122777
Li            0.6481757116        0.6481757116        0.6481757116
Si            0.4284783925        0.4284783925        0.4284783925
Si            0.8757439482        0.8757439482        0.8757439482



     Writing config-only to output data dir ./output/LiSi.save/
     NEW-OLD atomic charge density approx. for the potential
     extrapolated charge   13.86801, renormalised to   14.00000

     total cpu time spent up to now is       15.5 secs

     Self-consistent Calculation

     iteration #  1     ecut=    80.00 Ry     beta= 0.70
     Davidson diagonalization with overlap
     ethr =  1.00E-06,  avg # of iterations = 10.1
     Minimization algorithm failed to find Fermi energy: reverting to bisection
     Possible cause: smearing is larger than the electronic band-gap.

     total cpu time spent up to now is       16.1 secs

     total energy              =     -45.57269887 Ry
     estimated scf accuracy    <       0.00212150 Ry

     iteration #  2     ecut=    80.00 Ry     beta= 0.70
     Davidson diagonalization with overlap
     ethr =  1.52E-05,  avg # of iterations =  2.2

     total cpu time spent up to now is       16.4 secs

     total energy              =     -45.57346553 Ry
     estimated scf accuracy    <       0.00073854 Ry

     iteration #  3     ecut=    80.00 Ry     beta= 0.70
     Davidson diagonalization with overlap
     ethr =  5.28E-06,  avg # of iterations =  1.9

     total cpu time spent up to now is       16.6 secs

     total energy              =     -45.57358387 Ry
     estimated scf accuracy    <       0.00001771 Ry

     iteration #  4     ecut=    80.00 Ry     beta= 0.70
     Davidson diagonalization with overlap
     ethr =  1.26E-07,  avg # of iterations =  2.2

     total cpu time spent up to now is       16.8 secs

     total energy              =     -45.57358704 Ry
     estimated scf accuracy    <       0.00000065 Ry

     iteration #  5     ecut=    80.00 Ry     beta= 0.70
     Davidson diagonalization with overlap
     ethr =  4.61E-09,  avg # of iterations =  2.4

     total cpu time spent up to now is       17.0 secs

     total energy              =     -45.57358714 Ry
     estimated scf accuracy    <       0.00000010 Ry

     iteration #  6     ecut=    80.00 Ry     beta= 0.70
     Davidson diagonalization with overlap
     ethr =  7.21E-10,  avg # of iterations =  2.1

     total cpu time spent up to now is       17.2 secs

     total energy              =     -45.57358715 Ry
     estimated scf accuracy    <          8.2E-09 Ry

     iteration #  7     ecut=    80.00 Ry     beta= 0.70
     Davidson diagonalization with overlap
     ethr =  5.83E-11,  avg # of iterations =  2.4

     total cpu time spent up to now is       17.4 secs

     End of self-consistent calculation

          k = 0.0000 0.0000 0.0000 (  2909 PWs)   bands (ev):

   -35.8941 -35.5601  -2.5811   7.4326   7.8716   9.3693   9.3693  11.6931
    11.6931  12.5912  14.3749

          k =-0.2076-0.1199 0.0703 (  2927 PWs)   bands (ev):

   -35.8834 -35.5679  -2.0892   5.6689   7.0569   8.3592   9.1398  11.9149
    11.9344  12.6336  14.1241

          k =-0.4152-0.2397 0.1407 (  2930 PWs)   bands (ev):

   -35.8649 -35.5818  -0.6326   2.2094   6.6945   7.5841  10.2604  10.4586
    11.2657  12.2820  15.4615

          k =-0.2076 0.1199 0.1407 (  2911 PWs)   bands (ev):

   -35.8829 -35.5680  -2.0118   5.6886   6.7363   7.4604   9.0231  11.3546
    12.6421  14.2047  15.0177

          k =-0.4152-0.0000 0.2110 (  2947 PWs)   bands (ev):

   -35.8684 -35.5789  -0.9682   3.5356   5.5896   6.6766   8.2288  12.6383
    13.5031  14.4521  14.8856

          k = 0.4152 0.4795-0.0703 (  2938 PWs)   bands (ev):

   -35.8594 -35.5860   0.4296   1.4036   5.4615   6.7008   8.2194  11.8059
    12.8469  14.5750  16.4787

          k = 0.2076 0.3596 0.0000 (  2926 PWs)   bands (ev):

   -35.8692 -35.5786  -1.2106   3.8707   6.0067   7.9472   8.2446  11.2167
    11.5240  13.8636  15.0513

          k =-0.4152 0.2397 0.2813 (  2941 PWs)   bands (ev):

   -35.8649 -35.5812  -0.5216   3.5259   5.3192   6.0545   6.4143  11.4768
    15.8170  16.4682  17.7727

          k = 0.4152 0.7192 0.0000 (  2932 PWs)   bands (ev):

   -35.8593 -35.5856   0.4048   2.2802   4.4117   5.7926   7.1688  13.0471
    14.9942  15.1472  18.1839

          k =-0.0000 0.0000 0.2110 (  2909 PWs)   bands (ev):

   -35.8919 -35.5611  -2.3276   4.4216   9.1423   9.1423  11.4071  11.4366
    11.4366  12.9224  14.2328

          k =-0.2076-0.1199 0.2813 (  2929 PWs)   bands (ev):

   -35.8811 -35.5691  -1.6766   3.6727   5.9689   8.4051  11.2838  11.4882
    12.8145  13.9656  15.0020

          k = 0.6228 0.3596 0.0000 (  2946 PWs)   bands (ev):

   -35.8643 -35.5822  -0.1531   1.8359   5.1994   7.0118  10.1351  11.5487
    12.1981  13.9628  15.9307

          k = 0.4152 0.2397 0.0703 (  2941 PWs)   bands (ev):

   -35.8655 -35.5814  -0.7886   3.0571   6.5624   6.6704   7.9409  11.1137
    12.5208  13.1243  16.7099

          k =-0.2076 0.1199 0.3517 (  2946 PWs)   bands (ev):

   -35.8804 -35.5695  -1.4945   3.1885   6.6208   7.1034   9.5454  12.3332
    13.6544  15.2911  16.4054

          k = 0.6228 0.5993 0.0703 (  2940 PWs)   bands (ev):

   -35.8672 -35.5795  -0.4176   2.7335   4.7112   5.6786   9.7384  12.5698
    13.9807  15.1552  16.8296

          k = 0.4152 0.4795 0.1407 (  2939 PWs)   bands (ev):

   -35.8593 -35.5858   0.3843   1.9725   4.8330   5.5979   8.4966  11.6988
    13.8436  15.4421  17.8321

          k = 0.6228-0.3596-0.2110 (  2933 PWs)   bands (ev):

   -35.8642 -35.5817  -0.0805   2.4807   4.4447   6.1854   8.1007  11.8170
    14.4323  17.1624  18.0649

          k =-0.0000 0.0000 0.4220 (  2947 PWs)   bands (ev):

   -35.8887 -35.5633  -1.7568   2.3165   9.0159   9.0159  10.4611  10.4611
    13.2862  14.5211  16.4375

          k = 0.8305 0.4795 0.1407 (  2942 PWs)   bands (ev):

   -35.8792 -35.5703  -1.1679   2.3002   6.0365   7.4863  10.5038  12.5547
    13.8122  15.7144  16.1211

     the Fermi energy is    10.7007 ev

!    total energy              =     -45.57358715 Ry
     estimated scf accuracy    <          2.1E-10 Ry
     smearing contrib. (-TS)   =       0.00068392 Ry
     internal energy E=F+TS    =     -45.57427108 Ry

     The total energy is F=E-TS. E is the sum of the following terms:
     one-electron contribution =      -3.75913093 Ry
     hartree contribution      =       6.37383986 Ry
     xc contribution           =     -13.57644558 Ry
     ewald contribution        =     -34.61253442 Ry

     convergence has been achieved in   7 iterations

     Forces acting on atoms (cartesian axes, Ry/au):

     atom    1 type  1   force =    -0.00000000    0.00000000    0.04254816
     atom    2 type  1   force =     0.00000000   -0.00000000   -0.00164829
     atom    3 type  2   force =     0.00000000   -0.00000000   -0.01466472
     atom    4 type  2   force =     0.00000000    0.00000000   -0.02623515
     The non-local contrib.  to forces
     atom    1 type  1   force =    -0.00000000   -0.00000000    0.06796278
     atom    2 type  1   force =    -0.00000000   -0.00000000    0.00612752
     atom    3 type  2   force =    -0.00000000   -0.00000000    0.04262164
     atom    4 type  2   force =     0.00000000    0.00000000   -0.14442355
     The ionic contribution  to forces
     atom    1 type  1   force =    -0.00000000    0.00000000    0.29090784
     atom    2 type  1   force =    -0.00000000    0.00000000   -0.37243243
     atom    3 type  2   force =    -0.00000000    0.00000000   -0.25596422
     atom    4 type  2   force =    -0.00000000   -0.00000000    0.33748881
     The local contribution  to forces
     atom    1 type  1   force =     0.00000000   -0.00000000   -0.31631646
     atom    2 type  1   force =     0.00000000   -0.00000000    0.36464752
     atom    3 type  2   force =    -0.00000000    0.00000000    0.19851575
     atom    4 type  2   force =     0.00000000    0.00000000   -0.22519057
     The core correction contribution to forces
     atom    1 type  1   force =     0.00000000    0.00000000    0.00000000
     atom    2 type  1   force =     0.00000000    0.00000000    0.00000000
     atom    3 type  2   force =    -0.00000000   -0.00000000    0.00016631
     atom    4 type  2   force =     0.00000000    0.00000000    0.00589089
     The Hubbard contrib.    to forces
     atom    1 type  1   force =     0.00000000    0.00000000    0.00000000
     atom    2 type  1   force =     0.00000000    0.00000000    0.00000000
     atom    3 type  2   force =     0.00000000    0.00000000    0.00000000
     atom    4 type  2   force =     0.00000000    0.00000000    0.00000000
     The SCF correction term to forces
     atom    1 type  1   force =     0.00000000   -0.00000000   -0.00000605
     atom    2 type  1   force =     0.00000000    0.00000000    0.00000904
     atom    3 type  2   force =    -0.00000000    0.00000000   -0.00000425
     atom    4 type  2   force =    -0.00000000   -0.00000000   -0.00000079

     Total force =     0.052119     Total SCF correction =     0.000012


     Computing stress (Cartesian axis) and pressure

          total   stress  (Ry/bohr**3)                   (kbar)     P=      476.70
   0.00361252  -0.00000000  -0.00000000          531.42       -0.00       -0.00
   0.00000000   0.00361252   0.00000000            0.00      531.42        0.00
   0.00000000   0.00000000   0.00249659            0.00        0.00      367.26

     Energy error            =      1.1E-02 Ry
     Gradient error          =      4.3E-02 Ry/Bohr
     Cell gradient error     =      1.3E+02 kbar

     number of scf cycles    =   6
     number of bfgs steps    =   5

     enthalpy           old  =     -44.6621289360 Ry
     enthalpy           new  =     -44.6733947184 Ry

     CASE: enthalpy          _new < enthalpy          _old

     new trust radius        =       0.3013631648 bohr
ibrav =      5
 celldm(1) =      7.56676160
 celldm(4) =      0.59328696
Input lattice vectors:
     0.48526396    -0.28016728     0.91869308
    -0.00000000     0.56033455     0.91869308
    -0.48526396    -0.28016728     0.91869308
New lattice vectors in INITIAL alat:
     0.48526396    -0.28016728     0.91869308
     0.00000000     0.56033455     0.91869308
    -0.48526396    -0.28016728     0.91869308
New lattice vectors in NEW alat (for information only):
     0.45095068    -0.26035650     0.85373179
     0.00000000     0.52071300     0.85373179
    -0.45095068    -0.26035650     0.85373179
Discrepancy in bohr =     0.000000    0.000000    0.000000
     new conv_thr            =       0.0000000043 Ry

     new unit-cell volume =    260.55555 a.u.^3 (    38.61035 Ang^3 )
     density =      3.01281 g/cm^3

CELL_PARAMETERS (alat=  7.03171180)
   0.485263958  -0.280167277   0.918693078
   0.000000000   0.560334554   0.918693078
  -0.485263958  -0.280167277   0.918693078

ATOMIC_POSITIONS (crystal)
Li            0.0884574724        0.0884574724        0.0884574724
Li            0.6507292139        0.6507292139        0.6507292139
Si            0.4134061930        0.4134061930        0.4134061930
Si            0.8785174507        0.8785174507        0.8785174507



     Writing config-only to output data dir ./output/LiSi.save/
     NEW-OLD atomic charge density approx. for the potential
     extrapolated charge   13.76965, renormalised to   14.00000

     total cpu time spent up to now is       18.3 secs

     Self-consistent Calculation

     iteration #  1     ecut=    80.00 Ry     beta= 0.70
     Davidson diagonalization with overlap
     ethr =  1.00E-06,  avg # of iterations = 10.9
     Minimization algorithm failed to find Fermi energy: reverting to bisection
     Possible cause: smearing is larger than the electronic band-gap.

     total cpu time spent up to now is       18.9 secs

     total energy              =     -45.57640333 Ry
     estimated scf accuracy    <       0.00253020 Ry

     iteration #  2     ecut=    80.00 Ry     beta= 0.70
     Davidson diagonalization with overlap
     ethr =  1.81E-05,  avg # of iterations =  2.2
     Minimization algorithm failed to find Fermi energy: reverting to bisection
     Possible cause: smearing is larger than the electronic band-gap.

     total cpu time spent up to now is       19.1 secs

     total energy              =     -45.57744172 Ry
     estimated scf accuracy    <       0.00076621 Ry

     iteration #  3     ecut=    80.00 Ry     beta= 0.70
     Davidson diagonalization with overlap
     ethr =  5.47E-06,  avg # of iterations =  1.6
     Minimization algorithm failed to find Fermi energy: reverting to bisection
     Possible cause: smearing is larger than the electronic band-gap.

     total cpu time spent up to now is       19.3 secs

     total energy              =     -45.57754301 Ry
     estimated scf accuracy    <       0.00003907 Ry

     iteration #  4     ecut=    80.00 Ry     beta= 0.70
     Davidson diagonalization with overlap
     ethr =  2.79E-07,  avg # of iterations =  2.0
     Minimization algorithm failed to find Fermi energy: reverting to bisection
     Possible cause: smearing is larger than the electronic band-gap.

     total cpu time spent up to now is       19.5 secs

     total energy              =     -45.57754843 Ry
     estimated scf accuracy    <       0.00000144 Ry

     iteration #  5     ecut=    80.00 Ry     beta= 0.70
     Davidson diagonalization with overlap
     ethr =  1.03E-08,  avg # of iterations =  2.4
     Minimization algorithm failed to find Fermi energy: reverting to bisection
     Possible cause: smearing is larger than the electronic band-gap.

     total cpu time spent up to now is       19.8 secs

     total energy              =     -45.57754866 Ry
     estimated scf accuracy    <       0.00000022 Ry

     iteration #  6     ecut=    80.00 Ry     beta= 0.70
     Davidson diagonalization with overlap
     ethr =  1.60E-09,  avg # of iterations =  1.9
     Minimization algorithm failed to find Fermi energy: reverting to bisection
     Possible cause: smearing is larger than the electronic band-gap.

     total cpu time spent up to now is       20.0 secs

     total energy              =     -45.57754870 Ry
     estimated scf accuracy    <          5.0E-09 Ry

     iteration #  7     ecut=    80.00 Ry     beta= 0.70
     Davidson diagonalization with overlap
     ethr =  3.57E-11,  avg # of iterations =  3.7
     Minimization algorithm failed to find Fermi energy: reverting to bisection
     Possible cause: smearing is larger than the electronic band-gap.

     total cpu time spent up to now is       20.2 secs

     End of self-consistent calculation

          k = 0.0000 0.0000 0.0000 (  2909 PWs)   bands (ev):

   -35.6159 -35.3383  -2.2693   7.6761   8.8349   9.6806   9.6806  11.8540
    11.8540  12.6453  14.3388

          k =-0.2061-0.1190 0.0726 (  2927 PWs)   bands (ev):

   -35.6045 -35.3469  -1.7882   5.8210   7.5541   8.7227   9.9021  11.8991
    12.3111  12.5635  14.1424

          k =-0.4121-0.2380 0.1451 (  2930 PWs)   bands (ev):

   -35.5843 -35.3626  -0.3374   2.3490   7.2908   8.0514  10.1226  10.3006
    11.8777  12.8543  15.8211

          k =-0.2061 0.1190 0.1451 (  2911 PWs)   bands (ev):

   -35.6038 -35.3472  -1.6886   5.9748   7.1377   7.6118   9.2804  11.6701
    13.0288  14.5700  15.2488

          k =-0.4121-0.0000 0.2177 (  2947 PWs)   bands (ev):

   -35.5881 -35.3593  -0.6414   3.6889   5.9272   7.0509   8.3051  12.7569
    13.9664  14.7033  15.2876

          k = 0.4121 0.4759-0.0726 (  2938 PWs)   bands (ev):

   -35.5782 -35.3672   0.7388   1.5780   5.7810   6.9443   8.6478  11.7442
    13.2616  15.2667  16.7196

          k = 0.2061 0.3569 0.0000 (  2926 PWs)   bands (ev):

   -35.5892 -35.3587  -0.9504   4.1464   6.1444   8.4848   8.9648  11.1736
    11.5276  14.0490  15.7246

          k =-0.4121 0.2380 0.2903 (  2941 PWs)   bands (ev):

   -35.5843 -35.3616  -0.1887   4.2224   5.2881   6.1528   6.1974  12.0752
    16.2841  17.2584  18.1866

          k = 0.4121 0.7139 0.0000 (  2932 PWs)   bands (ev):

   -35.5783 -35.3665   0.7146   2.6998   4.5664   5.6708   7.5400  13.4467
    15.0701  15.6862  18.4982

          k =-0.0000 0.0000 0.2177 (  2909 PWs)   bands (ev):

   -35.6129 -35.3402  -1.9371   4.5988   9.3691   9.3691  11.6621  11.6621
    12.4191  13.0060  14.0377

          k =-0.2061-0.1190 0.2903 (  2929 PWs)   bands (ev):

   -35.6011 -35.3490  -1.2399   3.6753   6.2195   8.7935  11.4174  11.6414
    13.2461  13.8974  15.3002

          k = 0.6182 0.3569 0.0000 (  2946 PWs)   bands (ev):

   -35.5832 -35.3631   0.3424   1.8193   5.4521   7.2761  10.1831  11.6282
    13.1604  14.3545  16.2273

          k = 0.4121 0.2380 0.0726 (  2941 PWs)   bands (ev):

   -35.5851 -35.3618  -0.5323   3.4273   6.7448   6.8636   8.1556  11.7059
    12.7125  13.6962  16.4457

          k =-0.2061 0.1190 0.3628 (  2946 PWs)   bands (ev):

   -35.6000 -35.3496  -0.9750   3.1086   7.0529   7.2007   9.3698  12.8181
    13.8162  15.8796  16.6117

          k = 0.6182 0.5949 0.0726 (  2940 PWs)   bands (ev):

   -35.5862 -35.3602   0.1515   2.6024   5.0063   5.7797  10.0197  12.6225
    14.2521  15.8467  17.2150

          k = 0.4121 0.4759 0.1451 (  2939 PWs)   bands (ev):

   -35.5783 -35.3668   0.6709   2.3261   5.0978   5.4926   9.1329  11.6821
    14.2114  16.0767  17.9537

          k = 0.6182-0.3569-0.2177 (  2933 PWs)   bands (ev):

   -35.5832 -35.3625   0.4275   2.6278   4.5110   6.3015   8.0948  12.5894
    14.7835  17.3026  18.5228

          k =-0.0000 0.0000 0.4354 (  2947 PWs)   bands (ev):

   -35.6080 -35.3435  -1.0814   2.0724   9.2757   9.2757  10.3883  10.3883
    13.6511  14.8741  16.5410

          k = 0.8243 0.4759 0.1451 (  2942 PWs)   bands (ev):

   -35.5983 -35.3507  -0.4175   1.9399   6.2746   7.6430  10.5204  12.6108
    14.5108  15.8674  16.1336

     the Fermi energy is    10.6521 ev

!    total energy              =     -45.57754870 Ry
     estimated scf accuracy    <          1.5E-10 Ry
     smearing contrib. (-TS)   =       0.00096525 Ry
     internal energy E=F+TS    =     -45.57851395 Ry

     The total energy is F=E-TS. E is the sum of the following terms:
     one-electron contribution =      -3.28549683 Ry
     hartree contribution      =       6.26494482 Ry
     xc contribution           =     -13.57409580 Ry
     ewald contribution        =     -34.98386614 Ry

     convergence has been achieved in   7 iterations

     Forces acting on atoms (cartesian axes, Ry/au):

     atom    1 type  1   force =    -0.00000000   -0.00000000    0.05716794
     atom    2 type  1   force =     0.00000000    0.00000000   -0.02775809
     atom    3 type  2   force =     0.00000000    0.00000000    0.00146322
     atom    4 type  2   force =     0.00000000    0.00000000   -0.03087308
     The non-local contrib.  to forces
     atom    1 type  1   force =    -0.00000000    0.00000000    0.04998621
     atom    2 type  1   force =     0.00000000    0.00000000   -0.00474323
     atom    3 type  2   force =    -0.00000000   -0.00000000    0.05300238
     atom    4 type  2   force =    -0.00000000   -0.00000000   -0.10860769
     The ionic contribution  to forces
     atom    1 type  1   force =    -0.00000000    0.00000000    0.49857886
     atom    2 type  1   force =    -0.00000000    0.00000000   -0.49951252
     atom    3 type  2   force =    -0.00000000    0.00000000   -0.20818084
     atom    4 type  2   force =    -0.00000000   -0.00000000    0.20911450
     The local contribution  to forces
     atom    1 type  1   force =     0.00000000   -0.00000000   -0.49138904
     atom    2 type  1   force =     0.00000000   -0.00000000    0.47649149
     atom    3 type  2   force =    -0.00000000    0.00000000    0.15775653
     atom    4 type  2   force =     0.00000000    0.00000000   -0.13593606
     The core correction contribution to forces
     atom    1 type  1   force =     0.00000000    0.00000000    0.00000000
     atom    2 type  1   force =     0.00000000    0.00000000    0.00000000
     atom    3 type  2   force =     0.00000000   -0.00000000   -0.00111186
     atom    4 type  2   force =     0.00000000    0.00000000    0.00455482
     The Hubbard contrib.    to forces
     atom    1 type  1   force =     0.00000000    0.00000000    0.00000000
     atom    2 type  1   force =     0.00000000    0.00000000    0.00000000
     atom    3 type  2   force =     0.00000000    0.00000000    0.00000000
[...]
     The core correction contribution to forces
     atom    1 type  1   force =     0.00000000    0.00000000    0.00000000
     atom    2 type  1   force =     0.00000000    0.00000000    0.00000000
     atom    3 type  2   force =    -0.00000000   -0.00000000    0.00000702
     atom    4 type  2   force =     0.00000000    0.00000000    0.00000468
     The Hubbard contrib.    to forces
     atom    1 type  1   force =     0.00000000    0.00000000    0.00000000
     atom    2 type  1   force =     0.00000000    0.00000000    0.00000000
     atom    3 type  2   force =     0.00000000    0.00000000    0.00000000
     atom    4 type  2   force =     0.00000000    0.00000000    0.00000000
     The SCF correction term to forces
     atom    1 type  1   force =    -0.00000000   -0.00000000   -0.00000700
     atom    2 type  1   force =     0.00000000    0.00000000    0.00000171
     atom    3 type  2   force =     0.00000000    0.00000000   -0.00000270
     atom    4 type  2   force =     0.00000000   -0.00000000    0.00000437

     Total force =     0.000179     Total SCF correction =     0.000009


     Computing stress (Cartesian axis) and pressure

          total   stress  (Ry/bohr**3)                   (kbar)     P=      499.89
   0.00339844   0.00000000  -0.00000000          499.93        0.00       -0.00
   0.00000000   0.00339844   0.00000000            0.00      499.93        0.00
   0.00000000   0.00000000   0.00339764            0.00        0.00      499.81

     Energy error            =      4.0E-06 Ry
     Gradient error          =      1.3E-04 Ry/Bohr
     Cell gradient error     =      1.9E-01 kbar
ibrav =      5
 celldm(1) =      7.03596280
 celldm(4) =      0.50002117
Input lattice vectors:
     0.50029168    -0.28884354     0.81699884
     0.00000000     0.57768708     0.81699884
    -0.50029168    -0.28884354     0.81699884
New lattice vectors in INITIAL alat:
     0.50029168    -0.28884354     0.81699884
     0.00000000     0.57768708     0.81699884
    -0.50029168    -0.28884354     0.81699884
New lattice vectors in NEW alat (for information only):
     0.49998942    -0.28866902     0.81650522
     0.00000000     0.57733805     0.81650522
    -0.49998942    -0.28866902     0.81650522
Discrepancy in bohr =     0.000000    0.000000    0.000000

     bfgs converged in  23 scf cycles and  21 bfgs steps
     (criteria: energy <  1.0E-04 Ry, force <  1.0E-03 Ry/Bohr, cell <  1.0E+00 kbar)

     End of BFGS Geometry Optimization

     Final enthalpy           =     -44.7617565010 Ry

     File ./output/LiSi.bfgs deleted, as requested
Begin final coordinates
     new unit-cell volume =    246.28719 a.u.^3 (    36.49600 Ang^3 )
     density =      3.18736 g/cm^3

CELL_PARAMETERS (alat=  7.03171180)
   0.500291683  -0.288843538   0.816998838
   0.000000000   0.577687076   0.816998838
  -0.500291683  -0.288843538   0.816998838

ATOMIC_POSITIONS (crystal)
Li            0.1327472923        0.1327472923        0.1327472923
Li            0.6327812703        0.6327812703        0.6327812703
Si            0.3827965254        0.3827965254        0.3827965254
Si            0.8827852421        0.8827852421        0.8827852421
End final coordinates



     Writing config-only to output data dir ./output/LiSi.save/

     Final scf calculation at the relaxed structure.
     The G-vectors are recalculated for the final unit cell
     Results may differ from those at the preceding step.

     Parallelization info
     --------------------
     sticks:   dense  smooth     PW     G-vecs:    dense   smooth      PW
     Min         134     134     39                 2947     2947     479
     Max         135     135     40                 2950     2950     484
     Sum        1075    1075    313                23589    23589    3839

     Using Slab Decomposition



     bravais-lattice index     =            5
     lattice parameter (alat)  =       7.0317  a.u.
     unit-cell volume          =     246.2872 (a.u.)^3
     number of atoms/cell      =            4
     number of atomic types    =            2
     number of electrons       =        14.00
     number of Kohn-Sham states=           11
     kinetic-energy cutoff     =      80.0000  Ry
     charge density cutoff     =     320.0000  Ry
     scf convergence threshold =      1.0E-10
     mixing beta               =       0.7000
     number of iterations used =            8  plain     mixing
     press convergence thresh. =      1.0E+00
     Exchange-correlation= PBE
                           (   1   4   3   4   0   0   0)

     celldm(1)=   7.031712  celldm(2)=   0.000000  celldm(3)=   0.000000
     celldm(4)=   0.507754  celldm(5)=   0.000000  celldm(6)=   0.000000

     crystal axes: (cart. coord. in units of alat)
               a(1) = (   0.500292  -0.288844   0.816999 )  
               a(2) = (   0.000000   0.577687   0.816999 )  
               a(3) = (  -0.500292  -0.288844   0.816999 )  

     reciprocal axes: (cart. coord. in units 2 pi/alat)
               b(1) = (  0.999417 -0.577014  0.407997 )  
               b(2) = (  0.000000  1.154027  0.407997 )  
               b(3) = ( -0.999417 -0.577014  0.407997 )  


     PseudoPot. # 1 for Li read from file:
     ../pseudo/Li_ONCV_PBE_sr.upf
     MD5 check sum: 50ff420e78310ffa21704f3361e624a4
     Pseudo is Norm-conserving, Zval =  3.0
     Generated using ONCVPSP code by D. R. Hamann
     Using radial grid of 1944 points,  4 beta functions with: 
                l(1) =   0
                l(2) =   0
                l(3) =   1
                l(4) =   1

     PseudoPot. # 2 for Si read from file:
     ../pseudo/Si_ONCV_PBE_sr.upf
     MD5 check sum: e543d271109d17c80368dfa7c482276d
     Pseudo is Norm-conserving + core correction, Zval =  4.0
     Generated using ONCVPSP code by D. R. Hamann
     Using radial grid of 1510 points,  6 beta functions with: 
                l(1) =   0
                l(2) =   0
                l(3) =   1
                l(4) =   1
                l(5) =   2
                l(6) =   2

     atomic species   valence    mass     pseudopotential
        Li             3.00     6.94100     Li( 1.00)
        Si             4.00    28.08550     Si( 1.00)

      6 Sym. Ops. (no inversion) found



   Cartesian axes

     site n.     atom                  positions (alat units)
         1           Li  tau(   1) = (  -0.0000000  -0.0000000   0.3253632  )
         2           Li  tau(   2) = (   0.0000000  -0.0000000   1.5509447  )
         3           Si  tau(   3) = (  -0.0000000  -0.0000000   0.9382329  )
         4           Si  tau(   4) = (  -0.0000000  -0.0000000   2.1637036  )

     number of k points=    19  Marzari-Vanderbilt smearing, width (Ry)=  0.0200
                       cart. coord. in units 2pi/alat
        k(    1) = (   0.0000000   0.0000000   0.0000000), wk =   0.0160000
        k(    2) = (  -0.1998834  -0.1154027   0.0815995), wk =   0.0960000
        k(    3) = (  -0.3997668  -0.2308055   0.1631989), wk =   0.0960000
        k(    4) = (  -0.1998834   0.1154027   0.1631989), wk =   0.0960000
        k(    5) = (  -0.3997668  -0.0000000   0.2447984), wk =   0.1920000
        k(    6) = (   0.3997668   0.4616109  -0.0815995), wk =   0.1920000
        k(    7) = (   0.1998834   0.3462082   0.0000000), wk =   0.0960000
        k(    8) = (  -0.3997668   0.2308055   0.3263979), wk =   0.0960000
        k(    9) = (   0.3997668   0.6924164   0.0000000), wk =   0.0960000
        k(   10) = (  -0.0000000  -0.0000000   0.2447984), wk =   0.0320000
        k(   11) = (  -0.1998834  -0.1154027   0.3263979), wk =   0.0960000
        k(   12) = (   0.5996502   0.3462082   0.0000000), wk =   0.0960000
        k(   13) = (   0.3997668   0.2308055   0.0815995), wk =   0.0960000
        k(   14) = (  -0.1998834   0.1154027   0.4079973), wk =   0.0960000
        k(   15) = (   0.5996502   0.5770137   0.0815995), wk =   0.1920000
        k(   16) = (   0.3997668   0.4616109   0.1631989), wk =   0.1920000
        k(   17) = (   0.5996502  -0.3462082  -0.2447984), wk =   0.0960000
        k(   18) = (  -0.0000000  -0.0000000   0.4895968), wk =   0.0320000
        k(   19) = (   0.7995336   0.4616109   0.1631989), wk =   0.0960000

     Dense  grid:    23589 G-vectors     FFT dimensions: (  45,  45,  45)

     Estimated max dynamical RAM per process >      15.51 MB

     Estimated total dynamical RAM >     124.08 MB

     Initial potential from superposition of free atoms

     starting charge      13.9897, renormalised to      14.0000
     Starting wfcs are   12 randomized atomic wfcs

     total cpu time spent up to now is       55.5 secs

     Self-consistent Calculation

     iteration #  1     ecut=    80.00 Ry     beta= 0.70
     Davidson diagonalization with overlap
     c_bands:  1 eigenvalues not converged
     c_bands:  1 eigenvalues not converged
     c_bands:  1 eigenvalues not converged
     c_bands:  1 eigenvalues not converged
     c_bands:  2 eigenvalues not converged
     c_bands:  1 eigenvalues not converged
     ethr =  1.00E-06,  avg # of iterations = 16.8

     total cpu time spent up to now is       56.2 secs

     total energy              =     -45.59892779 Ry
     estimated scf accuracy    <       0.01708537 Ry

     iteration #  2     ecut=    80.00 Ry     beta= 0.70
     Davidson diagonalization with overlap
     ethr =  1.22E-04,  avg # of iterations =  1.0

     total cpu time spent up to now is       56.3 secs

     total energy              =     -45.59882947 Ry
     estimated scf accuracy    <       0.00121052 Ry

     iteration #  3     ecut=    80.00 Ry     beta= 0.70
     Davidson diagonalization with overlap
     ethr =  8.65E-06,  avg # of iterations =  1.1

     total cpu time spent up to now is       56.5 secs

     total energy              =     -45.59886906 Ry
     estimated scf accuracy    <       0.00000427 Ry

     iteration #  4     ecut=    80.00 Ry     beta= 0.70
     Davidson diagonalization with overlap
     ethr =  3.05E-08,  avg # of iterations =  3.2

     total cpu time spent up to now is       56.8 secs

     total energy              =     -45.59887136 Ry
     estimated scf accuracy    <       0.00000009 Ry

     iteration #  5     ecut=    80.00 Ry     beta= 0.70
     Davidson diagonalization with overlap
     ethr =  6.51E-10,  avg # of iterations =  2.6

     total cpu time spent up to now is       57.0 secs

     total energy              =     -45.59887138 Ry
     estimated scf accuracy    <          4.8E-09 Ry

     iteration #  6     ecut=    80.00 Ry     beta= 0.70
     Davidson diagonalization with overlap
     ethr =  3.43E-11,  avg # of iterations =  3.2

     total cpu time spent up to now is       57.2 secs

     total energy              =     -45.59887138 Ry
     estimated scf accuracy    <          4.7E-10 Ry

     iteration #  7     ecut=    80.00 Ry     beta= 0.70
     Davidson diagonalization with overlap
     ethr =  3.37E-12,  avg # of iterations =  2.2

     total cpu time spent up to now is       57.4 secs

     End of self-consistent calculation

          k = 0.0000 0.0000 0.0000 (  2975 PWs)   bands (ev):

   -34.8327 -34.7037  -1.7768  10.0227  10.0232  10.0232  12.0478  12.0482
    12.0482  12.3254  15.2366

          k =-0.1999-0.1154 0.0816 (  2956 PWs)   bands (ev):

   -34.8189 -34.7148  -1.3089   6.2438   9.3696   9.3700  12.4647  12.4647
    12.6701  13.9038  13.9043

          k =-0.3998-0.2308 0.1632 (  2974 PWs)   bands (ev):

   -34.7845 -34.7449   0.1370   2.6447   9.2617   9.2619  10.2816  10.2817
    13.7961  14.8299  17.6041

          k =-0.1999 0.1154 0.1632 (  2946 PWs)   bands (ev):

   -34.8158 -34.7169  -1.1692   7.6774   7.6777   7.8410   9.9055  12.4758
    15.8295  15.9902  15.9905

          k =-0.3998-0.0000 0.2448 (  2976 PWs)   bands (ev):

   -34.7923 -34.7366  -0.1052   4.0451   7.1038   7.6809   9.2546  13.8934
    13.9781  16.2738  16.4737

          k = 0.3998 0.4616-0.0816 (  2976 PWs)   bands (ev):

   -34.7679 -34.7596   1.2367   1.9155   6.4624   7.7101  10.5453  12.4957
    15.3802  16.7330  17.1338

          k = 0.1999 0.3462 0.0000 (  2966 PWs)   bands (ev):

   -34.7998 -34.7306  -0.5282   4.5796   6.6566   9.5039  11.5446  12.0268
    13.7261  13.7669  16.7410

          k =-0.3998 0.2308 0.3264 (  2970 PWs)   bands (ev):

   -34.7885 -34.7383   0.3941   5.6069   6.1160   6.1164   6.2804  13.2261
    18.2115  18.2117  19.1228

          k = 0.3998 0.6924 0.0000 (  2978 PWs)   bands (ev):

   -34.7758 -34.7500   1.2930   3.2745   4.9583   6.3175   8.6914  14.3765
    16.1097  17.9308  18.5184

          k =-0.0000-0.0000 0.2448 (  2956 PWs)   bands (ev):

   -34.8189 -34.7148  -1.3089   6.2434   9.3701   9.3701  12.4648  12.4648
    12.6706  13.9041  13.9041

          k =-0.1999-0.1154 0.3264 (  2966 PWs)   bands (ev):

   -34.7998 -34.7306  -0.5282   4.5795   6.6566   9.5041  11.5448  12.0271
    13.7263  13.7673  16.7409

          k = 0.5997 0.3462 0.0000 (  2976 PWs)   bands (ev):

   -34.7679 -34.7596   1.2366   1.9155   6.4623   7.7103  10.5455  12.4957
    15.3805  16.7324  17.1342

          k = 0.3998 0.2308 0.0816 (  2976 PWs)   bands (ev):

   -34.7923 -34.7366  -0.1052   4.0450   7.1041   7.6808   9.2545  13.8929
    13.9779  16.2740  16.4734

          k =-0.1999 0.1154 0.4080 (  2976 PWs)   bands (ev):

   -34.7923 -34.7366  -0.1052   4.0448   7.1041   7.6810   9.2547  13.8932
    13.9783  16.2742  16.4740

          k = 0.5997 0.5770 0.0816 (  2992 PWs)   bands (ev):

   -34.7738 -34.7527   1.1554   2.9478   5.5941   5.9674  10.8970  12.9857
    14.9420  17.9542  18.7359

          k = 0.3998 0.4616 0.1632 (  2992 PWs)   bands (ev):

   -34.7738 -34.7527   1.1555   2.9478   5.5941   5.9672  10.8969  12.9854
    14.9420  17.9548  18.7356

          k = 0.5997-0.3462-0.2448 (  2978 PWs)   bands (ev):

   -34.7758 -34.7500   1.2930   3.2743   4.9583   6.3178   8.6914  14.3763
    16.1098  17.9311  18.5183

          k =-0.0000-0.0000 0.4896 (  2974 PWs)   bands (ev):

   -34.7845 -34.7449   0.1369   2.6445   9.2620   9.2620  10.2819  10.2819
    13.7964  14.8302  17.6040

          k = 0.7995 0.4616 0.1632 (  2976 PWs)   bands (ev):

   -34.7679 -34.7596   1.2365   1.9154   6.4626   7.7103  10.5456  12.4960
    15.3807  16.7330  17.1336

     the Fermi energy is    11.8071 ev

!    total energy              =     -45.59887138 Ry
     estimated scf accuracy    <          2.3E-11 Ry
     smearing contrib. (-TS)   =       0.00009352 Ry
     internal energy E=F+TS    =     -45.59896490 Ry

     The total energy is F=E-TS. E is the sum of the following terms:
     one-electron contribution =      -1.45863198 Ry
     hartree contribution      =       5.74981678 Ry
     xc contribution           =     -13.63823192 Ry
     ewald contribution        =     -36.25191778 Ry

     convergence has been achieved in   7 iterations

     Forces acting on atoms (cartesian axes, Ry/au):

     atom    1 type  1   force =     0.00000000    0.00000000    0.00013427
     atom    2 type  1   force =     0.00000000    0.00000000    0.00002489
     atom    3 type  2   force =    -0.00000000    0.00000000   -0.00010040
     atom    4 type  2   force =     0.00000000   -0.00000000   -0.00005876
     The non-local contrib.  to forces
     atom    1 type  1   force =    -0.00000000   -0.00000000    0.00005414
     atom    2 type  1   force =    -0.00000000    0.00000000    0.00000446
     atom    3 type  2   force =     0.00000000   -0.00000000   -0.00009418
     atom    4 type  2   force =    -0.00000000    0.00000000   -0.00008611
     The ionic contribution  to forces
     atom    1 type  1   force =    -0.00000000   -0.00000000    0.00079243
     atom    2 type  1   force =    -0.00000000   -0.00000000   -0.00004401
     atom    3 type  2   force =     0.00000000    0.00000000   -0.00055919
     atom    4 type  2   force =     0.00000000   -0.00000000   -0.00018922
     The local contribution  to forces
     atom    1 type  1   force =     0.00000000   -0.00000000   -0.00071219
     atom    2 type  1   force =    -0.00000000   -0.00000000    0.00006442
     atom    3 type  2   force =    -0.00000000   -0.00000000    0.00054582
     atom    4 type  2   force =    -0.00000000    0.00000000    0.00021170
     The core correction contribution to forces
     atom    1 type  1   force =     0.00000000    0.00000000    0.00000000
     atom    2 type  1   force =     0.00000000    0.00000000    0.00000000
     atom    3 type  2   force =    -0.00000000   -0.00000000    0.00000702
     atom    4 type  2   force =    -0.00000000    0.00000000    0.00000496
     The Hubbard contrib.    to forces
     atom    1 type  1   force =     0.00000000    0.00000000    0.00000000
     atom    2 type  1   force =     0.00000000    0.00000000    0.00000000
     atom    3 type  2   force =     0.00000000    0.00000000    0.00000000
     atom    4 type  2   force =     0.00000000    0.00000000    0.00000000
     The SCF correction term to forces
     atom    1 type  1   force =    -0.00000000   -0.00000000   -0.00000012
     atom    2 type  1   force =     0.00000000    0.00000000    0.00000003
     atom    3 type  2   force =     0.00000000   -0.00000000    0.00000012
     atom    4 type  2   force =    -0.00000000   -0.00000000   -0.00000009

     Total force =     0.000179     Total SCF correction =     0.000000


     Computing stress (Cartesian axis) and pressure

          total   stress  (Ry/bohr**3)                   (kbar)     P=      499.90
   0.00339857   0.00000000   0.00000000          499.95        0.00        0.00
   0.00000000   0.00339857   0.00000000            0.00      499.95        0.00
  -0.00000000   0.00000000   0.00339767           -0.00        0.00      499.81


     Writing all to output data dir ./output/LiSi.save/

     init_run     :      0.66s CPU      0.95s WALL (       2 calls)
     electrons    :     34.53s CPU     37.61s WALL (      24 calls)
     update_pot   :      5.22s CPU      5.34s WALL (      22 calls)
     forces       :      3.23s CPU      3.30s WALL (      24 calls)
     stress       :      9.47s CPU     10.15s WALL (      24 calls)

     Called by init_run:
     wfcinit      :      0.16s CPU      0.16s WALL (       2 calls)
     potinit      :      0.25s CPU      0.45s WALL (       2 calls)
     hinit0       :      0.22s CPU      0.29s WALL (       2 calls)

     Called by electrons:
     c_bands      :     29.03s CPU     31.06s WALL (     145 calls)
     sum_band     :      4.15s CPU      4.34s WALL (     145 calls)
     v_of_rho     :      1.43s CPU      2.25s WALL (     164 calls)
     mix_rho      :      0.09s CPU      0.16s WALL (     145 calls)

     Called by c_bands:
     init_us_2    :      0.62s CPU      0.67s WALL (    6460 calls)
     init_us_2:cp :      0.61s CPU      0.66s WALL (    6460 calls)
     cegterg      :     27.69s CPU     28.60s WALL (    2755 calls)

     Called by *egterg:
     cdiaghg      :      1.61s CPU      1.67s WALL (   11500 calls)
     h_psi        :     24.27s CPU     25.06s WALL (   12051 calls)
     g_psi        :      0.08s CPU      0.08s WALL (    9258 calls)

     Called by h_psi:
     h_psi:calbec :      1.08s CPU      1.11s WALL (   12051 calls)
     vloc_psi     :     22.35s CPU     23.08s WALL (   12051 calls)
     add_vuspsi   :      0.77s CPU      0.79s WALL (   12051 calls)

     General routines
     calbec       :      1.42s CPU      1.46s WALL (   14331 calls)
     fft          :      1.20s CPU      2.21s WALL (    2243 calls)
     ffts         :      0.09s CPU      0.13s WALL (     145 calls)
     fftw         :     23.22s CPU     23.95s WALL (  216119 calls)

     Parallel routines

     PWSCF        :     53.45s CPU     58.09s WALL


   This run was terminated on:  22:42:49  11Feb2025            

=------------------------------------------------------------------------------=
   JOB DONE.
=------------------------------------------------------------------------------=
