
     Program PWSCF v.7.2 starts on 11Feb2025 at 22:47:52 

     This program is part of the open-source Quantum ESPRESSO suite
     for quantum simulation of materials; please cite
         "P. Giannozzi et al., J. Phys.:Condens. Matter 21 395502 (2009);
         "P. Giannozzi et al., J. Phys.:Condens. Matter 29 465901 (2017);
         "P. Giannozzi et al., J. Chem. Phys. 152 154105 (2020);
          URL http://www.quantum-espresso.org", 
     in publications or presentations arising from this work. More details at
     http://www.quantum-espresso.org/quote

     Parallel version (MPI & OpenMP), running on       8 processor cores
     Number of MPI processes:                 8
     Threads/MPI process:                     1

     MPI processes distributed on     1 nodes
     483346 MiB available memory on the printing compute node when the environment starts

     Waiting for input...
     Reading input from standard input

     Current dimensions of program PWSCF are:
     Max number of different atomic species (ntypx) = 10
     Max number of k-points (npk) =  40000
     Max angular momentum in pseudopotentials (lmaxx) =  4

     R & G space division:  proc/nbgrp/npool/nimage =       8
     Subspace diagonalization in iterative solution of the eigenvalue problem:
     a serial algorithm will be used


     Parallelization info
     --------------------
     sticks:   dense  smooth     PW     G-vecs:    dense   smooth      PW
     Min         100     100     31                 1881     1881     320
     Max         101     101     32                 1884     1884     321
     Sum         805     805    253                15065    15065    2565

     Using Slab Decomposition



     bravais-lattice index     =            2
     lattice parameter (alat)  =       8.5256  a.u.
     unit-cell volume          =     154.9236 (a.u.)^3
     number of atoms/cell      =            2
     number of atomic types    =            2
     number of electrons       =         7.00
     number of Kohn-Sham states=            8
     kinetic-energy cutoff     =      80.0000  Ry
     charge density cutoff     =     320.0000  Ry
     scf convergence threshold =      1.0E-08
     mixing beta               =       0.7000
     number of iterations used =            8  plain     mixing
     energy convergence thresh.=      1.0E-04
     force convergence thresh. =      1.0E-03
     press convergence thresh. =      1.0E+00
     Exchange-correlation= PBE
                           (   1   4   3   4   0   0   0)
     nstep                     =           50


     celldm(1)=   8.525617  celldm(2)=   0.000000  celldm(3)=   0.000000
     celldm(4)=   0.000000  celldm(5)=   0.000000  celldm(6)=   0.000000

     crystal axes: (cart. coord. in units of alat)
               a(1) = (  -0.500000   0.000000   0.500000 )  
               a(2) = (   0.000000   0.500000   0.500000 )  
               a(3) = (  -0.500000   0.500000   0.000000 )  

     reciprocal axes: (cart. coord. in units 2 pi/alat)
               b(1) = ( -1.000000 -1.000000  1.000000 )  
               b(2) = (  1.000000  1.000000  1.000000 )  
               b(3) = ( -1.000000  1.000000 -1.000000 )  


     PseudoPot. # 1 for Li read from file:
     ../pseudo/Li_ONCV_PBE_sr.upf
     MD5 check sum: 50ff420e78310ffa21704f3361e624a4
     Pseudo is Norm-conserving, Zval =  3.0
     Generated using ONCVPSP code by D. R. Hamann
     Using radial grid of 1944 points,  4 beta functions with: 
                l(1) =   0
                l(2) =   0
                l(3) =   1
                l(4) =   1

     PseudoPot. # 2 for Si read from file:
     ../pseudo/Si_ONCV_PBE_sr.upf
     MD5 check sum: e543d271109d17c80368dfa7c482276d
     Pseudo is Norm-conserving + core correction, Zval =  4.0
     Generated using ONCVPSP code by D. R. Hamann
     Using radial grid of 1510 points,  6 beta functions with: 
                l(1) =   0
                l(2) =   0
                l(3) =   1
                l(4) =   1
                l(5) =   2
                l(6) =   2

     atomic species   valence    mass     pseudopotential
        Li             3.00     6.94100     Li( 1.00)
        Si             4.00    28.08550     Si( 1.00)

     48 Sym. Ops., with inversion, found



   Cartesian axes

     site n.     atom                  positions (alat units)
         1           Li  tau(   1) = (   0.0000000   0.0000000   0.5000000  )
         2           Si  tau(   2) = (   0.0000000   0.0000000   0.0000000  )

     number of k points=    16  Marzari-Vanderbilt smearing, width (Ry)=  0.0200
                       cart. coord. in units 2pi/alat
        k(    1) = (   0.0000000   0.0000000   0.0000000), wk =   0.0092593
        k(    2) = (  -0.1666667   0.1666667  -0.1666667), wk =   0.0740741
        k(    3) = (  -0.3333333   0.3333333  -0.3333333), wk =   0.0740741
        k(    4) = (   0.5000000  -0.5000000   0.5000000), wk =   0.0370370
        k(    5) = (   0.0000000   0.3333333   0.0000000), wk =   0.0555556
        k(    6) = (  -0.1666667   0.5000000  -0.1666667), wk =   0.2222222
        k(    7) = (   0.6666667  -0.3333333   0.6666667), wk =   0.2222222
        k(    8) = (   0.5000000  -0.1666667   0.5000000), wk =   0.2222222
        k(    9) = (   0.3333333   0.0000000   0.3333333), wk =   0.1111111
        k(   10) = (   0.0000000   0.6666667   0.0000000), wk =   0.0555556
        k(   11) = (   0.8333333  -0.1666667   0.8333333), wk =   0.2222222
        k(   12) = (   0.6666667  -0.0000000   0.6666667), wk =   0.1111111
        k(   13) = (   0.0000000  -1.0000000   0.0000000), wk =   0.0277778
        k(   14) = (   0.6666667  -0.3333333   1.0000000), wk =   0.2222222
        k(   15) = (   0.5000000  -0.1666667   0.8333333), wk =   0.2222222
        k(   16) = (  -0.3333333  -1.0000000   0.0000000), wk =   0.1111111

     Dense  grid:    15065 G-vectors     FFT dimensions: (  36,  36,  36)

     Estimated max dynamical RAM per process >      13.48 MB

     Estimated total dynamical RAM >     107.85 MB

     Initial potential from superposition of free atoms

     starting charge       6.9948, renormalised to       7.0000
     Starting wfcs are    6 randomized atomic wfcs +    2 random wfcs

     total cpu time spent up to now is        0.7 secs

     Self-consistent Calculation

     iteration #  1     ecut=    80.00 Ry     beta= 0.70
     Davidson diagonalization with overlap
     ethr =  1.00E-02,  avg # of iterations =  6.0

     Threshold (ethr) on eigenvalues was too large:
     Diagonalizing with lowered threshold

     Davidson diagonalization with overlap
     ethr =  4.66E-05,  avg # of iterations =  3.8

     total cpu time spent up to now is        0.8 secs

     total energy              =     -22.74157220 Ry
     estimated scf accuracy    <       0.00322715 Ry

     iteration #  2     ecut=    80.00 Ry     beta= 0.70
     Davidson diagonalization with overlap
     ethr =  4.61E-05,  avg # of iterations =  1.0

     total cpu time spent up to now is        0.9 secs

     total energy              =     -22.74173523 Ry
     estimated scf accuracy    <       0.00011351 Ry

     iteration #  3     ecut=    80.00 Ry     beta= 0.70
     Davidson diagonalization with overlap
     ethr =  1.62E-06,  avg # of iterations =  3.4

     total cpu time spent up to now is        1.0 secs

     total energy              =     -22.74175325 Ry
     estimated scf accuracy    <       0.00000338 Ry

     iteration #  4     ecut=    80.00 Ry     beta= 0.70
     Davidson diagonalization with overlap
     ethr =  4.83E-08,  avg # of iterations =  1.8

     total cpu time spent up to now is        1.0 secs

     total energy              =     -22.74175356 Ry
     estimated scf accuracy    <       0.00000006 Ry

     iteration #  5     ecut=    80.00 Ry     beta= 0.70
     Davidson diagonalization with overlap
     ethr =  9.07E-10,  avg # of iterations =  2.9

     total cpu time spent up to now is        1.1 secs

     End of self-consistent calculation

          k = 0.0000 0.0000 0.0000 (  1893 PWs)   bands (ev):

   -37.4301  -2.9846  13.0816  13.0816  13.0816  16.9939  16.9939  16.9940

          k =-0.1667 0.1667-0.1667 (  1877 PWs)   bands (ev):

   -37.4253  -2.5250   9.9524  12.5844  12.5844  17.1869  17.6953  17.6953

          k =-0.3333 0.3333-0.3333 (  1886 PWs)   bands (ev):

   -37.4155  -1.2128   5.8249  12.2072  12.2072  15.2764  15.2764  16.5997

          k = 0.5000-0.5000 0.5000 (  1892 PWs)   bands (ev):

   -37.4106   0.0519   3.5568  12.2846  12.2846  14.1482  14.1482  16.2467

          k = 0.0000 0.3333 0.0000 (  1876 PWs)   bands (ev):

   -37.4237  -2.3631  10.9494  10.9494  12.0995  14.7128  15.9714  20.1442

          k =-0.1667 0.5000-0.1667 (  1882 PWs)   bands (ev):

   -37.4157  -1.2936   7.3606  10.1304  10.7350  14.4652  16.3949  19.1443

          k = 0.6667-0.3333 0.6667 (  1857 PWs)   bands (ev):

   -37.4093   0.3248   4.1289   9.2835  10.3358  14.3479  17.1155  18.9927

          k = 0.5000-0.1667 0.5000 (  1878 PWs)   bands (ev):

   -37.4108  -0.2127   5.0022   8.6183  11.5558  15.1405  16.0365  19.2219

          k = 0.3333 0.0000 0.3333 (  1895 PWs)   bands (ev):

   -37.4188  -1.7617   8.6348   9.0189  13.3078  15.8005  16.7314  18.2462

          k = 0.0000 0.6667 0.0000 (  1876 PWs)   bands (ev):

   -37.4112  -0.4507   7.4294   8.8993   8.8993  12.4963  14.8468  24.0113

          k = 0.8333-0.1667 0.8333 (  1862 PWs)   bands (ev):

   -37.4065   1.2136   4.8142   6.9741   8.7318  13.5221  16.1172  21.6118

          k = 0.6667-0.0000 0.6667 (  1866 PWs)   bands (ev):

   -37.4063   1.5217   4.3158   5.9889   9.6443  14.3186  19.2559  20.2742

          k = 0.0000-1.0000 0.0000 (  1868 PWs)   bands (ev):

   -37.4051   2.8199   2.8456   8.1872   8.1872  11.7261  14.9358  25.3488

          k = 0.6667-0.3333 1.0000 (  1880 PWs)   bands (ev):

   -37.4094   0.0717   6.4922   6.6988   9.5986  16.1634  16.3680  18.1131

          k = 0.5000-0.1667 0.8333 (  1866 PWs)   bands (ev):

   -37.4063   1.5262   4.1852   6.4141   8.9296  16.3144  17.3347  20.3295

          k =-0.3333-1.0000 0.0000 (  1864 PWs)   bands (ev):

   -37.4049   2.7642   3.5688   5.7536   8.1559  15.6446  16.4677  20.8006

     the Fermi energy is     8.6253 ev

!    total energy              =     -22.74175359 Ry
     estimated scf accuracy    <          1.7E-09 Ry
     smearing contrib. (-TS)   =      -0.00143947 Ry
     internal energy E=F+TS    =     -22.74031411 Ry

     The total energy is F=E-TS. E is the sum of the following terms:
     one-electron contribution =      -2.83217079 Ry
     hartree contribution      =       3.21567684 Ry
     xc contribution           =      -6.61180217 Ry
     ewald contribution        =     -16.51201800 Ry

     convergence has been achieved in   5 iterations

     Forces acting on atoms (cartesian axes, Ry/au):

     atom    1 type  1   force =     0.00000000    0.00000000   -0.00000000
     atom    2 type  2   force =    -0.00000000    0.00000000    0.00000000
     The non-local contrib.  to forces
     atom    1 type  1   force =    -0.00000000   -0.00000000    0.00000000
     atom    2 type  2   force =     0.00000000    0.00000000    0.00000000
     The ionic contribution  to forces
     atom    1 type  1   force =    -0.00000000   -0.00000000    0.00000000
     atom    2 type  2   force =    -0.00000000   -0.00000000   -0.00000000
     The local contribution  to forces
     atom    1 type  1   force =    -0.00000000    0.00000000    0.00000000
     atom    2 type  2   force =     0.00000000   -0.00000000   -0.00000000
     The core correction contribution to forces
     atom    1 type  1   force =     0.00000000    0.00000000    0.00000000
     atom    2 type  2   force =     0.00000000   -0.00000000    0.00000000
     The Hubbard contrib.    to forces
     atom    1 type  1   force =     0.00000000    0.00000000    0.00000000
     atom    2 type  2   force =     0.00000000    0.00000000    0.00000000
     The SCF correction term to forces
     atom    1 type  1   force =     0.00000000   -0.00000000    0.00000000
     atom    2 type  2   force =    -0.00000000    0.00000000   -0.00000000

     Total force =     0.000000     Total SCF correction =     0.000000


     Computing stress (Cartesian axis) and pressure

          total   stress  (Ry/bohr**3)                   (kbar)     P=      293.75
   0.00199685   0.00000000   0.00000000          293.75        0.00        0.00
   0.00000000   0.00199685   0.00000000            0.00      293.75        0.00
  -0.00000000   0.00000000   0.00199685           -0.00        0.00      293.75


     BFGS Geometry Optimization
     Energy error            =      0.0E+00 Ry
     Gradient error          =      2.0E-32 Ry/Bohr
     Cell gradient error     =      2.1E+02 kbar

     number of scf cycles    =   1
     number of bfgs steps    =   0

     enthalpy           new  =     -22.2151791135 Ry

     new trust radius        =       0.0872574029 bohr
ibrav =      2
 celldm(1) =      8.22677654
Input lattice vectors:
    -0.48247397    -0.00000000     0.48247397
     0.00000000     0.48247397     0.48247397
    -0.48247397     0.48247397     0.00000000
New lattice vectors in INITIAL alat:
    -0.48247397     0.00000000     0.48247397
     0.00000000     0.48247397     0.48247397
    -0.48247397     0.48247397     0.00000000
New lattice vectors in NEW alat (for information only):
    -0.50000000     0.00000000     0.50000000
     0.00000000     0.50000000     0.50000000
    -0.50000000     0.50000000     0.00000000
Discrepancy in bohr =     0.000000    0.000000    0.000000
     new conv_thr            =       0.0000000100 Ry

     new unit-cell volume =    139.19676 a.u.^3 (    20.62683 Ang^3 )
     density =      2.81977 g/cm^3

CELL_PARAMETERS (alat=  8.52561699)
  -0.482473970   0.000000000   0.482473970
   0.000000000   0.482473970   0.482473970
  -0.482473970   0.482473970   0.000000000

ATOMIC_POSITIONS (crystal)
Li            0.5000000000        0.5000000000       -0.5000000000
Si            0.0000000000        0.0000000000       -0.0000000000



     Writing config-only to output data dir ./output/LiSi.save/
     NEW-OLD atomic charge density approx. for the potential
     extrapolated charge    6.20971, renormalised to    7.00000

     total cpu time spent up to now is        1.6 secs

     Self-consistent Calculation

     iteration #  1     ecut=    80.00 Ry     beta= 0.70
     Davidson diagonalization with overlap
     ethr =  1.00E-06,  avg # of iterations =  6.7

     total cpu time spent up to now is        1.8 secs

     total energy              =     -22.69235346 Ry
     estimated scf accuracy    <       0.00293637 Ry

     iteration #  2     ecut=    80.00 Ry     beta= 0.70
     Davidson diagonalization with overlap
     ethr =  4.19E-05,  avg # of iterations =  2.7

     total cpu time spent up to now is        1.9 secs

     total energy              =     -22.70232502 Ry
     estimated scf accuracy    <       0.00170459 Ry

     iteration #  3     ecut=    80.00 Ry     beta= 0.70
     Davidson diagonalization with overlap
     ethr =  2.44E-05,  avg # of iterations =  1.0

     total cpu time spent up to now is        2.0 secs

     total energy              =     -22.70204648 Ry
     estimated scf accuracy    <       0.00047001 Ry

     iteration #  4     ecut=    80.00 Ry     beta= 0.70
     Davidson diagonalization with overlap
     ethr =  6.71E-06,  avg # of iterations =  1.9

     total cpu time spent up to now is        2.0 secs

     total energy              =     -22.70209336 Ry
     estimated scf accuracy    <       0.00000325 Ry

     iteration #  5     ecut=    80.00 Ry     beta= 0.70
     Davidson diagonalization with overlap
     ethr =  4.64E-08,  avg # of iterations =  2.0

     total cpu time spent up to now is        2.1 secs

     total energy              =     -22.70209356 Ry
     estimated scf accuracy    <       0.00000052 Ry

     iteration #  6     ecut=    80.00 Ry     beta= 0.70
     Davidson diagonalization with overlap
     ethr =  7.49E-09,  avg # of iterations =  2.0

     total cpu time spent up to now is        2.2 secs

     total energy              =     -22.70209365 Ry
     estimated scf accuracy    <       0.00000002 Ry

     iteration #  7     ecut=    80.00 Ry     beta= 0.70
     Davidson diagonalization with overlap
     ethr =  2.90E-10,  avg # of iterations =  2.0

     total cpu time spent up to now is        2.3 secs

     End of self-consistent calculation

          k = 0.0000 0.0000 0.0000 (  1893 PWs)   bands (ev):

   -36.3505  -2.3136  14.9206  14.9206  14.9206  18.4773  18.4773  18.4773

          k =-0.1727 0.1727-0.1727 (  1877 PWs)   bands (ev):

   -36.3428  -1.8316  11.3710  14.2946  14.2946  18.9840  19.4389  19.4390

          k =-0.3454 0.3454-0.3454 (  1886 PWs)   bands (ev):

   -36.3275  -0.4444   6.9103  13.8780  13.8780  16.7901  16.7901  18.5773

          k = 0.5182-0.5182 0.5182 (  1892 PWs)   bands (ev):

   -36.3198   0.9253   4.4550  14.0563  14.0563  15.4720  15.4720  18.2523

          k = 0.0000 0.3454 0.0000 (  1876 PWs)   bands (ev):

   -36.3404  -1.6617  12.4363  12.4363  14.0383  16.0003  17.4866  22.1240

          k =-0.1727 0.5182-0.1727 (  1882 PWs)   bands (ev):

   -36.3278  -0.5325   8.5639  11.5311  12.3603  15.9030  18.0614  21.0472

          k = 0.6909-0.3454 0.6909 (  1857 PWs)   bands (ev):

   -36.3176   1.2166   5.0553  10.7259  11.7519  15.8771  18.8731  21.1023

          k = 0.5182-0.1727 0.5182 (  1878 PWs)   bands (ev):

   -36.3201   0.6297   5.9883   9.9958  13.0994  16.7771  17.7185  21.3009

          k = 0.3454 0.0000 0.3454 (  1895 PWs)   bands (ev):

   -36.3327  -1.0270   9.8030  10.5087  15.1968  17.3221  18.5099  20.1034

          k = 0.0000 0.6909 0.0000 (  1876 PWs)   bands (ev):

   -36.3207   0.3547   8.8631  10.1910  10.1910  13.6106  16.6270  26.4170

          k = 0.8636-0.1727 0.8636 (  1862 PWs)   bands (ev):

   -36.3134   2.1415   5.9378   8.1138  10.0073  14.9095  17.9503  23.7241

          k = 0.6909-0.0000 0.6909 (  1866 PWs)   bands (ev):

   -36.3131   2.5623   5.1092   7.2409  10.9929  15.9141  21.2683  22.2629

          k = 0.0000-1.0363 0.0000 (  1868 PWs)   bands (ev):

   -36.3112   3.4962   4.2626   9.4197   9.4197  12.7813  16.8515  27.5714

          k = 0.6909-0.3454 1.0363 (  1880 PWs)   bands (ev):

   -36.3180   0.9266   7.4709   8.0403  10.9920  17.9133  17.9414  20.0505

          k = 0.5182-0.1727 0.8636 (  1866 PWs)   bands (ev):

   -36.3131   2.5617   5.0332   7.5964  10.2807  17.9849  19.2182  22.3156

          k =-0.3454-1.0363 0.0000 (  1864 PWs)   bands (ev):

   -36.3109   4.1368   4.3036   6.6728   9.4783  17.1288  18.3804  22.9778

     the Fermi energy is     9.9194 ev

!    total energy              =     -22.70209365 Ry
     estimated scf accuracy    <          8.4E-11 Ry
     smearing contrib. (-TS)   =      -0.00117073 Ry
     internal energy E=F+TS    =     -22.70092292 Ry

     The total energy is F=E-TS. E is the sum of the following terms:
     one-electron contribution =      -2.02188209 Ry
     hartree contribution      =       3.13555643 Ry
     xc contribution           =      -6.70277462 Ry
     ewald contribution        =     -17.11182264 Ry

     convergence has been achieved in   7 iterations

     Forces acting on atoms (cartesian axes, Ry/au):

     atom    1 type  1   force =    -0.00000000    0.00000000   -0.00000000
     atom    2 type  2   force =    -0.00000000   -0.00000000   -0.00000000
     The non-local contrib.  to forces
     atom    1 type  1   force =     0.00000000    0.00000000   -0.00000000
     atom    2 type  2   force =     0.00000000    0.00000000   -0.00000000
     The ionic contribution  to forces
     atom    1 type  1   force =     0.00000000   -0.00000000   -0.00000000
     atom    2 type  2   force =    -0.00000000   -0.00000000   -0.00000000
     The local contribution  to forces
     atom    1 type  1   force =    -0.00000000    0.00000000    0.00000000
     atom    2 type  2   force =     0.00000000   -0.00000000   -0.00000000
     The core correction contribution to forces
     atom    1 type  1   force =     0.00000000    0.00000000    0.00000000
     atom    2 type  2   force =    -0.00000000   -0.00000000   -0.00000000
     The Hubbard contrib.    to forces
     atom    1 type  1   force =     0.00000000    0.00000000    0.00000000
     atom    2 type  2   force =     0.00000000    0.00000000    0.00000000
     The SCF correction term to forces
     atom    1 type  1   force =     0.00000000   -0.00000000    0.00000000
     atom    2 type  2   force =     0.00000000    0.00000000    0.00000000

     Total force =     0.000000     Total SCF correction =     0.000000


     Computing stress (Cartesian axis) and pressure

          total   stress  (Ry/bohr**3)                   (kbar)     P=      459.56
   0.00312402   0.00000000  -0.00000000          459.56        0.00       -0.00
   0.00000000   0.00312402   0.00000000            0.00      459.56        0.00
  -0.00000000   0.00000000   0.00312402           -0.00        0.00      459.56

     Energy error            =      1.4E-02 Ry
     Gradient error          =      2.7E-33 Ry/Bohr
     Cell gradient error     =      4.0E+01 kbar

     number of scf cycles    =   2
     number of bfgs steps    =   1

     enthalpy           old  =     -22.2151791135 Ry
     enthalpy           new  =     -22.2289734932 Ry

     CASE: enthalpy          _new < enthalpy          _old

     new trust radius        =       0.0191435308 bohr
ibrav =      2
 celldm(1) =      8.16003332
Input lattice vectors:
    -0.47855969     0.00000000     0.47855969
    -0.00000000     0.47855969     0.47855969
    -0.47855969     0.47855969     0.00000000
New lattice vectors in INITIAL alat:
    -0.47855969     0.00000000     0.47855969
     0.00000000     0.47855969     0.47855969
    -0.47855969     0.47855969     0.00000000
New lattice vectors in NEW alat (for information only):
    -0.50000000     0.00000000     0.50000000
     0.00000000     0.50000000     0.50000000
    -0.50000000     0.50000000     0.00000000
Discrepancy in bohr =     0.000000    0.000000    0.000000
     new conv_thr            =            1.0E-10 Ry

     new unit-cell volume =    135.83629 a.u.^3 (    20.12886 Ang^3 )
     density =      2.88953 g/cm^3

CELL_PARAMETERS (alat=  8.52561699)
  -0.478559694   0.000000000   0.478559694
   0.000000000   0.478559694   0.478559694
  -0.478559694   0.478559694   0.000000000

ATOMIC_POSITIONS (crystal)
Li            0.5000000000        0.5000000000       -0.5000000000
Si            0.0000000000        0.0000000000       -0.0000000000



     Writing config-only to output data dir ./output/LiSi.save/
     NEW-OLD atomic charge density approx. for the potential
     extrapolated charge    6.82695, renormalised to    7.00000

     total cpu time spent up to now is        2.8 secs

     Self-consistent Calculation

     iteration #  1     ecut=    80.00 Ry     beta= 0.70
     Davidson diagonalization with overlap
     ethr =  1.00E-06,  avg # of iterations =  4.2

     total cpu time spent up to now is        2.9 secs

     total energy              =     -22.69062071 Ry
     estimated scf accuracy    <       0.00010735 Ry

     iteration #  2     ecut=    80.00 Ry     beta= 0.70
     Davidson diagonalization with overlap
     ethr =  1.53E-06,  avg # of iterations =  2.9

     total cpu time spent up to now is        3.0 secs

     total energy              =     -22.69109776 Ry
     estimated scf accuracy    <       0.00008637 Ry

     iteration #  3     ecut=    80.00 Ry     beta= 0.70
     Davidson diagonalization with overlap
     ethr =  1.23E-06,  avg # of iterations =  1.1

     total cpu time spent up to now is        3.1 secs

     total energy              =     -22.69108164 Ry
     estimated scf accuracy    <       0.00002739 Ry

     iteration #  4     ecut=    80.00 Ry     beta= 0.70
     Davidson diagonalization with overlap
     ethr =  3.91E-07,  avg # of iterations =  1.8

     total cpu time spent up to now is        3.2 secs

     total energy              =     -22.69108354 Ry
     estimated scf accuracy    <       0.00000072 Ry

     iteration #  5     ecut=    80.00 Ry     beta= 0.70
     Davidson diagonalization with overlap
     ethr =  1.02E-08,  avg # of iterations =  1.5

     total cpu time spent up to now is        3.3 secs

     total energy              =     -22.69108355 Ry
     estimated scf accuracy    <       0.00000008 Ry

     iteration #  6     ecut=    80.00 Ry     beta= 0.70
     Davidson diagonalization with overlap
     ethr =  1.15E-09,  avg # of iterations =  2.0

     total cpu time spent up to now is        3.4 secs

     total energy              =     -22.69108356 Ry
     estimated scf accuracy    <          8.4E-09 Ry

     iteration #  7     ecut=    80.00 Ry     beta= 0.70
     Davidson diagonalization with overlap
     ethr =  1.20E-10,  avg # of iterations =  2.0

     total cpu time spent up to now is        3.4 secs

     End of self-consistent calculation

          k = 0.0000 0.0000 0.0000 (  1893 PWs)   bands (ev):

   -36.1005  -2.1471  15.3633  15.3633  15.3633  18.8326  18.8326  18.8326

          k =-0.1741 0.1741-0.1741 (  1877 PWs)   bands (ev):

   -36.0920  -1.6605  11.7094  14.7030  14.7030  19.4172  19.8621  19.8621

          k =-0.3483 0.3483-0.3483 (  1886 PWs)   bands (ev):

   -36.0750  -0.2578   7.1720  14.2760  14.2760  17.1579  17.1579  19.0546

          k = 0.5224-0.5224 0.5224 (  1892 PWs)   bands (ev):

   -36.0665   1.1336   4.6754  14.4847  14.4847  15.7886  15.7886  18.7372

          k = 0.0000 0.3483 0.0000 (  1876 PWs)   bands (ev):

   -36.0893  -1.4890  12.7924  12.7924  14.5086  16.3086  17.8496  22.6003

          k =-0.1741 0.5224-0.1741 (  1882 PWs)   bands (ev):

   -36.0754  -0.3475   8.8515  11.8672  12.7530  16.2488  18.4645  21.5049

          k = 0.6965-0.3483 0.6965 (  1857 PWs)   bands (ev):

   -36.0641   1.4293   5.2808  11.0748  12.0910  16.2467  19.2974  21.6078

          k = 0.5224-0.1741 0.5224 (  1878 PWs)   bands (ev):

   -36.0669   0.8322   6.2260  10.3298  13.4671  17.1725  18.1269  21.7999

          k = 0.3483 0.0000 0.3483 (  1895 PWs)   bands (ev):

   -36.0808  -0.8474  10.0824  10.8671  15.6492  17.6916  18.9392  20.5497

          k = 0.0000 0.6965 0.0000 (  1876 PWs)   bands (ev):

   -36.0676   0.5486   9.2112  10.5019  10.5019  13.8774  17.0596  26.9937

          k = 0.8707-0.1741 0.8707 (  1862 PWs)   bands (ev):

   -36.0595   2.3591   6.2131   8.3922  10.3144  15.2420  18.3958  24.2307

          k = 0.6965 0.0000 0.6965 (  1866 PWs)   bands (ev):

   -36.0591   2.8086   5.3008   7.5495  11.3166  16.2993  21.7538  22.7408

          k = 0.0000-1.0448 0.0000 (  1868 PWs)   bands (ev):

   -36.0571   3.6604   4.6063   9.7169   9.7169  13.0340  17.3165  28.1042

          k = 0.6965-0.3483 1.0448 (  1880 PWs)   bands (ev):

   -36.0645   1.1314   7.7061   8.3661  11.3287  18.2838  18.3701  20.5182

          k = 0.5224-0.1741 0.8707 (  1866 PWs)   bands (ev):

   -36.0591   2.8060   5.2388   7.8862  10.6084  18.3864  19.6697  22.7921

          k =-0.3483-1.0448 0.0000 (  1864 PWs)   bands (ev):

   -36.0568   4.4680   4.4814   6.8940   9.7998  17.4850  18.8422  23.5014

     the Fermi energy is    10.2293 ev

!    total energy              =     -22.69108356 Ry
     estimated scf accuracy    <          2.3E-11 Ry
     smearing contrib. (-TS)   =      -0.00101720 Ry
     internal energy E=F+TS    =     -22.69006636 Ry

     The total energy is F=E-TS. E is the sum of the following terms:
     one-electron contribution =      -1.83169493 Ry
     hartree contribution      =       3.11801148 Ry
     xc contribution           =      -6.72459782 Ry
     ewald contribution        =     -17.25178509 Ry

     convergence has been achieved in   7 iterations

     Forces acting on atoms (cartesian axes, Ry/au):

     atom    1 type  1   force =    -0.00000000   -0.00000000   -0.00000000
     atom    2 type  2   force =     0.00000000    0.00000000    0.00000000
     The non-local contrib.  to forces
     atom    1 type  1   force =     0.00000000    0.00000000    0.00000000
     atom    2 type  2   force =     0.00000000    0.00000000   -0.00000000
     The ionic contribution  to forces
     atom    1 type  1   force =     0.00000000   -0.00000000   -0.00000000
     atom    2 type  2   force =     0.00000000    0.00000000   -0.00000000
     The local contribution  to forces
     atom    1 type  1   force =    -0.00000000   -0.00000000    0.00000000
     atom    2 type  2   force =     0.00000000   -0.00000000   -0.00000000
     The core correction contribution to forces
     atom    1 type  1   force =     0.00000000    0.00000000    0.00000000
     atom    2 type  2   force =    -0.00000000    0.00000000   -0.00000000
     The Hubbard contrib.    to forces
     atom    1 type  1   force =     0.00000000    0.00000000    0.00000000
     atom    2 type  2   force =     0.00000000    0.00000000    0.00000000
     The SCF correction term to forces
     atom    1 type  1   force =    -0.00000000    0.00000000   -0.00000000
     atom    2 type  2   force =    -0.00000000    0.00000000   -0.00000000

     Total force =     0.000000     Total SCF correction =     0.000000


     Computing stress (Cartesian axis) and pressure

          total   stress  (Ry/bohr**3)                   (kbar)     P=      505.09
   0.00343355  -0.00000000   0.00000000          505.09       -0.00        0.00
   0.00000000   0.00343355   0.00000000            0.00      505.09        0.00
   0.00000000   0.00000000   0.00343355            0.00        0.00      505.09

     Energy error            =      4.1E-04 Ry
     Gradient error          =      1.9E-32 Ry/Bohr
     Cell gradient error     =      5.1E+00 kbar

     number of scf cycles    =   3
     number of bfgs steps    =   2

     enthalpy           old  =     -22.2289734932 Ry
     enthalpy           new  =     -22.2293854038 Ry

     CASE: enthalpy          _new < enthalpy          _old

     new trust radius        =       0.0021018967 bohr
ibrav =      2
 celldm(1) =      8.16739141
Input lattice vectors:
    -0.47899122     0.00000000     0.47899122
     0.00000000     0.47899122     0.47899122
    -0.47899122     0.47899122    -0.00000000
New lattice vectors in INITIAL alat:
    -0.47899122     0.00000000     0.47899122
     0.00000000     0.47899122     0.47899122
    -0.47899122     0.47899122     0.00000000
New lattice vectors in NEW alat (for information only):
    -0.50000000     0.00000000     0.50000000
     0.00000000     0.50000000     0.50000000
    -0.50000000     0.50000000     0.00000000
Discrepancy in bohr =     0.000000    0.000000    0.000000
     new conv_thr            =            1.0E-10 Ry

     new unit-cell volume =    136.20408 a.u.^3 (    20.18336 Ang^3 )
     density =      2.88172 g/cm^3

CELL_PARAMETERS (alat=  8.52561699)
  -0.478991223   0.000000000   0.478991223
   0.000000000   0.478991223   0.478991223
  -0.478991223   0.478991223   0.000000000

ATOMIC_POSITIONS (crystal)
Li            0.5000000000        0.5000000000       -0.5000000000
Si            0.0000000000        0.0000000000       -0.0000000000



     Writing config-only to output data dir ./output/LiSi.save/
     NEW-OLD atomic charge density approx. for the potential
     extrapolated charge    7.01889, renormalised to    7.00000

     total cpu time spent up to now is        3.9 secs

     Self-consistent Calculation

     iteration #  1     ecut=    80.00 Ry     beta= 0.70
     Davidson diagonalization with overlap
     ethr =  1.00E-06,  avg # of iterations =  2.0

     Threshold (ethr) on eigenvalues was too large:
     Diagonalizing with lowered threshold

     Davidson diagonalization with overlap
     ethr =  1.64E-08,  avg # of iterations =  2.0

     total cpu time spent up to now is        4.1 secs

     total energy              =     -22.69233443 Ry
     estimated scf accuracy    <       0.00000118 Ry

     iteration #  2     ecut=    80.00 Ry     beta= 0.70
     Davidson diagonalization with overlap
     ethr =  1.68E-08,  avg # of iterations =  2.6

     total cpu time spent up to now is        4.2 secs

     total energy              =     -22.69234007 Ry
     estimated scf accuracy    <       0.00000103 Ry

     iteration #  3     ecut=    80.00 Ry     beta= 0.70
     Davidson diagonalization with overlap
     ethr =  1.47E-08,  avg # of iterations =  1.0

     total cpu time spent up to now is        4.2 secs

     total energy              =     -22.69233988 Ry
     estimated scf accuracy    <       0.00000034 Ry

     iteration #  4     ecut=    80.00 Ry     beta= 0.70
     Davidson diagonalization with overlap
     ethr =  4.83E-09,  avg # of iterations =  1.6

     total cpu time spent up to now is        4.3 secs

     total energy              =     -22.69233989 Ry
     estimated scf accuracy    <       0.00000002 Ry

     iteration #  5     ecut=    80.00 Ry     beta= 0.70
     Davidson diagonalization with overlap
     ethr =  2.21E-10,  avg # of iterations =  1.6

     total cpu time spent up to now is        4.4 secs

     total energy              =     -22.69233989 Ry
     estimated scf accuracy    <          2.2E-09 Ry

     iteration #  6     ecut=    80.00 Ry     beta= 0.70
     Davidson diagonalization with overlap
     ethr =  3.14E-11,  avg # of iterations =  2.0

     total cpu time spent up to now is        4.5 secs

     total energy              =     -22.69233989 Ry
     estimated scf accuracy    <          1.8E-10 Ry

     iteration #  7     ecut=    80.00 Ry     beta= 0.70
     Davidson diagonalization with overlap
     ethr =  2.55E-12,  avg # of iterations =  1.9

     total cpu time spent up to now is        4.5 secs

     End of self-consistent calculation

          k = 0.0000 0.0000 0.0000 (  1893 PWs)   bands (ev):

   -36.1283  -2.1657  15.3139  15.3139  15.3139  18.7929  18.7929  18.7929

          k =-0.1740 0.1740-0.1740 (  1877 PWs)   bands (ev):

   -36.1199  -1.6797  11.6717  14.6575  14.6575  19.3688  19.8148  19.8148

          k =-0.3480 0.3480-0.3480 (  1886 PWs)   bands (ev):

   -36.1031  -0.2787   7.1428  14.2317  14.2317  17.1168  17.1168  19.0013

          k = 0.5219-0.5219 0.5219 (  1892 PWs)   bands (ev):

   -36.0946   1.1104   4.6507  14.4368  14.4368  15.7533  15.7533  18.6830

          k =-0.0000 0.3480-0.0000 (  1876 PWs)   bands (ev):

   -36.1172  -1.5083  12.7527  12.7527  14.4560  16.2742  17.8091  22.5471

          k =-0.1740 0.5219-0.1740 (  1882 PWs)   bands (ev):

   -36.1034  -0.3682   8.8194  11.8297  12.7091  16.2102  18.4194  21.4538

          k = 0.6959-0.3480 0.6959 (  1857 PWs)   bands (ev):

   -36.0923   1.4056   5.2555  11.0358  12.0531  16.2054  19.2500  21.5514

          k = 0.5219-0.1740 0.5219 (  1878 PWs)   bands (ev):

   -36.0950   0.8096   6.1994  10.2925  13.4261  17.1284  18.0813  21.7442

          k = 0.3480-0.0000 0.3480 (  1895 PWs)   bands (ev):

   -36.1088  -0.8675  10.0513  10.8271  15.5988  17.6502  18.8913  20.4999

          k =-0.0000 0.6959-0.0000 (  1876 PWs)   bands (ev):

   -36.0957   0.5269   9.1723  10.4672  10.4672  13.8477  17.0112  26.4062

          k = 0.8699-0.1740 0.8699 (  1862 PWs)   bands (ev):

   -36.0877   2.3349   6.1823   8.3611  10.2801  15.2049  18.3460  24.1742

          k = 0.6959-0.0000 0.6959 (  1866 PWs)   bands (ev):

   -36.0873   2.7812   5.2794   7.5149  11.2805  16.2562  21.6996  22.6874

          k = 0.0000-1.0439 0.0000 (  1868 PWs)   bands (ev):

   -36.0854   3.6420   4.5679   9.6837   9.6837  13.0058  17.2645  28.0448

          k = 0.6959-0.3480 1.0439 (  1880 PWs)   bands (ev):

   -36.0927   1.1085   7.6798   8.3297  11.2911  18.2425  18.3222  20.4660

          k = 0.5219-0.1740 0.8699 (  1866 PWs)   bands (ev):

   -36.0873   2.7788   5.2159   7.8538  10.5718  18.3416  19.6194  22.7389

          k =-0.3480-1.0439 0.0000 (  1864 PWs)   bands (ev):

   -36.0850   4.4310   4.4616   6.8693   9.7638  17.4453  18.7906  23.4430

     the Fermi energy is    10.1947 ev

!    total energy              =     -22.69233989 Ry
     estimated scf accuracy    <          6.3E-13 Ry
     smearing contrib. (-TS)   =      -0.00103559 Ry
     internal energy E=F+TS    =     -22.69130431 Ry

     The total energy is F=E-TS. E is the sum of the following terms:
     one-electron contribution =      -1.85283797 Ry
     hartree contribution      =       3.11994005 Ry
     xc contribution           =      -6.72216362 Ry
     ewald contribution        =     -17.23624276 Ry

     convergence has been achieved in   7 iterations

     Forces acting on atoms (cartesian axes, Ry/au):

     atom    1 type  1   force =     0.00000000   -0.00000000    0.00000000
     atom    2 type  2   force =     0.00000000    0.00000000   -0.00000000
     The non-local contrib.  to forces
     atom    1 type  1   force =     0.00000000    0.00000000    0.00000000
     atom    2 type  2   force =     0.00000000   -0.00000000    0.00000000
     The ionic contribution  to forces
     atom    1 type  1   force =     0.00000000   -0.00000000   -0.00000000
     atom    2 type  2   force =    -0.00000000   -0.00000000   -0.00000000
     The local contribution  to forces
     atom    1 type  1   force =    -0.00000000    0.00000000    0.00000000
     atom    2 type  2   force =     0.00000000   -0.00000000   -0.00000000
     The core correction contribution to forces
     atom    1 type  1   force =     0.00000000    0.00000000    0.00000000
     atom    2 type  2   force =    -0.00000000    0.00000000   -0.00000000
     The Hubbard contrib.    to forces
     atom    1 type  1   force =     0.00000000    0.00000000    0.00000000
     atom    2 type  2   force =     0.00000000    0.00000000    0.00000000
     The SCF correction term to forces
     atom    1 type  1   force =    -0.00000000   -0.00000000   -0.00000000
     atom    2 type  2   force =    -0.00000000    0.00000000    0.00000000

     Total force =     0.000000     Total SCF correction =     0.000000


     Computing stress (Cartesian axis) and pressure

          total   stress  (Ry/bohr**3)                   (kbar)     P=      499.90
   0.00339824   0.00000000   0.00000000          499.90        0.00        0.00
   0.00000000   0.00339824   0.00000000            0.00      499.90        0.00
   0.00000000   0.00000000   0.00339824            0.00        0.00      499.90

     Energy error            =      6.2E-06 Ry
     Gradient error          =      4.3E-32 Ry/Bohr
     Cell gradient error     =      1.0E-01 kbar
ibrav =      2
 celldm(1) =      8.16739141
Input lattice vectors:
    -0.47899122     0.00000000     0.47899122
     0.00000000     0.47899122     0.47899122
    -0.47899122     0.47899122     0.00000000
New lattice vectors in INITIAL alat:
    -0.47899122     0.00000000     0.47899122
     0.00000000     0.47899122     0.47899122
    -0.47899122     0.47899122     0.00000000
New lattice vectors in NEW alat (for information only):
    -0.50000000     0.00000000     0.50000000
     0.00000000     0.50000000     0.50000000
    -0.50000000     0.50000000     0.00000000
Discrepancy in bohr =     0.000000    0.000000    0.000000

     bfgs converged in   4 scf cycles and   3 bfgs steps
     (criteria: energy <  1.0E-04 Ry, force <  1.0E-03 Ry/Bohr, cell <  1.0E+00 kbar)

     End of BFGS Geometry Optimization

     Final enthalpy           =     -22.2293916361 Ry

     File ./output/LiSi.bfgs deleted, as requested
Begin final coordinates
     new unit-cell volume =    136.20408 a.u.^3 (    20.18336 Ang^3 )
     density =      2.88172 g/cm^3

CELL_PARAMETERS (alat=  8.52561699)
  -0.478991223   0.000000000   0.478991223
   0.000000000   0.478991223   0.478991223
  -0.478991223   0.478991223   0.000000000

ATOMIC_POSITIONS (crystal)
Li            0.5000000000        0.5000000000       -0.5000000000
Si            0.0000000000        0.0000000000       -0.0000000000
End final coordinates



     Writing config-only to output data dir ./output/LiSi.save/

     Final scf calculation at the relaxed structure.
     The G-vectors are recalculated for the final unit cell
     Results may differ from those at the preceding step.

     Parallelization info
     --------------------
     sticks:   dense  smooth     PW     G-vecs:    dense   smooth      PW
     Min          93      93     27                 1665     1665     278
     Max          94      94     28                 1668     1668     280
     Sum         745     745    223                13323    13323    2229

     Using Slab Decomposition



     bravais-lattice index     =            2
     lattice parameter (alat)  =       8.5256  a.u.
     unit-cell volume          =     136.2041 (a.u.)^3
     number of atoms/cell      =            2
     number of atomic types    =            2
     number of electrons       =         7.00
     number of Kohn-Sham states=            8
     kinetic-energy cutoff     =      80.0000  Ry
     charge density cutoff     =     320.0000  Ry
     scf convergence threshold =      1.0E-10
     mixing beta               =       0.7000
     number of iterations used =            8  plain     mixing
     press convergence thresh. =      1.0E+00
     Exchange-correlation= PBE
                           (   1   4   3   4   0   0   0)

     celldm(1)=   8.525617  celldm(2)=   0.000000  celldm(3)=   0.000000
     celldm(4)=   0.000000  celldm(5)=   0.000000  celldm(6)=   0.000000

     crystal axes: (cart. coord. in units of alat)
               a(1) = (  -0.478991   0.000000   0.478991 )  
               a(2) = (   0.000000   0.478991   0.478991 )  
               a(3) = (  -0.478991   0.478991   0.000000 )  

     reciprocal axes: (cart. coord. in units 2 pi/alat)
               b(1) = ( -1.043860 -1.043860  1.043860 )  
               b(2) = (  1.043860  1.043860  1.043860 )  
               b(3) = ( -1.043860  1.043860 -1.043860 )  


     PseudoPot. # 1 for Li read from file:
     ../pseudo/Li_ONCV_PBE_sr.upf
     MD5 check sum: 50ff420e78310ffa21704f3361e624a4
     Pseudo is Norm-conserving, Zval =  3.0
     Generated using ONCVPSP code by D. R. Hamann
     Using radial grid of 1944 points,  4 beta functions with: 
                l(1) =   0
                l(2) =   0
                l(3) =   1
                l(4) =   1

     PseudoPot. # 2 for Si read from file:
     ../pseudo/Si_ONCV_PBE_sr.upf
     MD5 check sum: e543d271109d17c80368dfa7c482276d
     Pseudo is Norm-conserving + core correction, Zval =  4.0
     Generated using ONCVPSP code by D. R. Hamann
     Using radial grid of 1510 points,  6 beta functions with: 
                l(1) =   0
                l(2) =   0
                l(3) =   1
                l(4) =   1
                l(5) =   2
                l(6) =   2

     atomic species   valence    mass     pseudopotential
        Li             3.00     6.94100     Li( 1.00)
        Si             4.00    28.08550     Si( 1.00)

     48 Sym. Ops., with inversion, found



   Cartesian axes

     site n.     atom                  positions (alat units)
         1           Li  tau(   1) = (   0.0000000  -0.0000000   0.4789912  )
         2           Si  tau(   2) = (  -0.0000000   0.0000000   0.0000000  )

     number of k points=    16  Marzari-Vanderbilt smearing, width (Ry)=  0.0200
                       cart. coord. in units 2pi/alat
        k(    1) = (   0.0000000   0.0000000   0.0000000), wk =   0.0092593
        k(    2) = (  -0.1739767   0.1739767  -0.1739767), wk =   0.0740741
        k(    3) = (  -0.3479535   0.3479535  -0.3479535), wk =   0.0740741
        k(    4) = (   0.5219302  -0.5219302   0.5219302), wk =   0.0370370
        k(    5) = (  -0.0000000   0.3479535  -0.0000000), wk =   0.0555556
        k(    6) = (  -0.1739767   0.5219302  -0.1739767), wk =   0.2222222
        k(    7) = (   0.6959070  -0.3479535   0.6959070), wk =   0.2222222
        k(    8) = (   0.5219302  -0.1739767   0.5219302), wk =   0.2222222
        k(    9) = (   0.3479535  -0.0000000   0.3479535), wk =   0.1111111
        k(   10) = (  -0.0000000   0.6959070  -0.0000000), wk =   0.0555556
        k(   11) = (   0.8698837  -0.1739767   0.8698837), wk =   0.2222222
        k(   12) = (   0.6959070  -0.0000000   0.6959070), wk =   0.1111111
        k(   13) = (   0.0000000  -1.0438605   0.0000000), wk =   0.0277778
        k(   14) = (   0.6959070  -0.3479535   1.0438605), wk =   0.2222222
        k(   15) = (   0.5219302  -0.1739767   0.8698837), wk =   0.2222222
        k(   16) = (  -0.3479535  -1.0438605   0.0000000), wk =   0.1111111

     Dense  grid:    13323 G-vectors     FFT dimensions: (  36,  36,  36)

     Estimated max dynamical RAM per process >      13.33 MB

     Estimated total dynamical RAM >     106.63 MB

     Initial potential from superposition of free atoms

     starting charge       6.9948, renormalised to       7.0000
     Starting wfcs are    6 randomized atomic wfcs +    2 random wfcs

     total cpu time spent up to now is        5.0 secs

     Self-consistent Calculation

     iteration #  1     ecut=    80.00 Ry     beta= 0.70
     Davidson diagonalization with overlap
     c_bands:  1 eigenvalues not converged
     c_bands:  1 eigenvalues not converged
     ethr =  1.00E-06,  avg # of iterations = 15.4

     total cpu time spent up to now is        5.3 secs

     total energy              =     -22.69220235 Ry
     estimated scf accuracy    <       0.00355975 Ry

     iteration #  2     ecut=    80.00 Ry     beta= 0.70
     Davidson diagonalization with overlap
     ethr =  5.09E-05,  avg # of iterations =  1.5

     total cpu time spent up to now is        5.4 secs

     total energy              =     -22.69231597 Ry
     estimated scf accuracy    <       0.00015931 Ry

     iteration #  3     ecut=    80.00 Ry     beta= 0.70
     Davidson diagonalization with overlap
     ethr =  2.28E-06,  avg # of iterations =  2.0

     total cpu time spent up to now is        5.5 secs

     total energy              =     -22.69233465 Ry
     estimated scf accuracy    <       0.00000355 Ry

     iteration #  4     ecut=    80.00 Ry     beta= 0.70
     Davidson diagonalization with overlap
     ethr =  5.07E-08,  avg # of iterations =  1.4

     total cpu time spent up to now is        5.5 secs

     total energy              =     -22.69233481 Ry
     estimated scf accuracy    <       0.00000010 Ry

     iteration #  5     ecut=    80.00 Ry     beta= 0.70
     Davidson diagonalization with overlap
     ethr =  1.48E-09,  avg # of iterations =  2.1

     total cpu time spent up to now is        5.6 secs

     total energy              =     -22.69233483 Ry
     estimated scf accuracy    <          1.2E-09 Ry

     iteration #  6     ecut=    80.00 Ry     beta= 0.70
     Davidson diagonalization with overlap
     ethr =  1.69E-11,  avg # of iterations =  3.0

     total cpu time spent up to now is        5.7 secs

     End of self-consistent calculation

          k = 0.0000 0.0000 0.0000 (  1639 PWs)   bands (ev):

   -36.1283  -2.1657  15.3139  15.3139  15.3139  18.7929  18.7929  18.7929

          k =-0.1740 0.1740-0.1740 (  1642 PWs)   bands (ev):

   -36.1199  -1.6797  11.6717  14.6575  14.6575  19.3688  19.8148  19.8148

          k =-0.3480 0.3480-0.3480 (  1634 PWs)   bands (ev):

   -36.1030  -0.2787   7.1428  14.2317  14.2317  17.1168  17.1168  19.0013

          k = 0.5219-0.5219 0.5219 (  1676 PWs)   bands (ev):

   -36.0946   1.1104   4.6507  14.4368  14.4368  15.7533  15.7533  18.6830

          k =-0.0000 0.3480-0.0000 (  1647 PWs)   bands (ev):

   -36.1172  -1.5083  12.7527  12.7527  14.4560  16.2742  17.8091  22.5471

          k =-0.1740 0.5219-0.1740 (  1651 PWs)   bands (ev):

   -36.1034  -0.3682   8.8194  11.8297  12.7091  16.2102  18.4194  21.4538

          k = 0.6959-0.3480 0.6959 (  1641 PWs)   bands (ev):

   -36.0923   1.4056   5.2555  11.0358  12.0531  16.2054  19.2500  21.5514

          k = 0.5219-0.1740 0.5219 (  1636 PWs)   bands (ev):

   -36.0950   0.8096   6.1994  10.2925  13.4261  17.1284  18.0813  21.7442

          k = 0.3480-0.0000 0.3480 (  1636 PWs)   bands (ev):

   -36.1088  -0.8675  10.0513  10.8271  15.5988  17.6503  18.8913  20.4998

          k =-0.0000 0.6959-0.0000 (  1644 PWs)   bands (ev):

   -36.0957   0.5269   9.1723  10.4672  10.4672  13.8477  17.0112  26.4062

          k = 0.8699-0.1740 0.8699 (  1646 PWs)   bands (ev):

   -36.0877   2.3349   6.1823   8.3611  10.2801  15.2049  18.3460  24.1742

          k = 0.6959-0.0000 0.6959 (  1652 PWs)   bands (ev):

   -36.0873   2.7812   5.2794   7.5149  11.2805  16.2562  21.6996  22.6874

          k = 0.0000-1.0439 0.0000 (  1660 PWs)   bands (ev):

   -36.0854   3.6420   4.5679   9.6837   9.6837  13.0058  17.2645  28.0448

          k = 0.6959-0.3480 1.0439 (  1646 PWs)   bands (ev):

   -36.0927   1.1085   7.6798   8.3297  11.2911  18.2425  18.3222  20.4660

          k = 0.5219-0.1740 0.8699 (  1652 PWs)   bands (ev):

   -36.0873   2.7788   5.2159   7.8538  10.5718  18.3416  19.6194  22.7389

          k =-0.3480-1.0439 0.0000 (  1646 PWs)   bands (ev):

   -36.0850   4.4310   4.4616   6.8693   9.7638  17.4453  18.7906  23.4430

     the Fermi energy is    10.1947 ev

!    total energy              =     -22.69233483 Ry
     estimated scf accuracy    <          6.9E-12 Ry
     smearing contrib. (-TS)   =      -0.00103560 Ry
     internal energy E=F+TS    =     -22.69129923 Ry

     The total energy is F=E-TS. E is the sum of the following terms:
     one-electron contribution =      -1.85283475 Ry
     hartree contribution      =       3.11993861 Ry
     xc contribution           =      -6.72216033 Ry
     ewald contribution        =     -17.23624276 Ry

     convergence has been achieved in   6 iterations

     Forces acting on atoms (cartesian axes, Ry/au):

     atom    1 type  1   force =     0.00000000    0.00000000    0.00000000
     atom    2 type  2   force =    -0.00000000   -0.00000000   -0.00000000
     The non-local contrib.  to forces
     atom    1 type  1   force =    -0.00000000   -0.00000000   -0.00000000
     atom    2 type  2   force =    -0.00000000    0.00000000   -0.00000000
     The ionic contribution  to forces
     atom    1 type  1   force =     0.00000000   -0.00000000    0.00000000
     atom    2 type  2   force =     0.00000000    0.00000000   -0.00000000
     The local contribution  to forces
     atom    1 type  1   force =     0.00000000   -0.00000000    0.00000000
     atom    2 type  2   force =     0.00000000   -0.00000000   -0.00000000
     The core correction contribution to forces
     atom    1 type  1   force =     0.00000000    0.00000000    0.00000000
     atom    2 type  2   force =     0.00000000   -0.00000000    0.00000000
     The Hubbard contrib.    to forces
     atom    1 type  1   force =     0.00000000    0.00000000    0.00000000
     atom    2 type  2   force =     0.00000000    0.00000000    0.00000000
     The SCF correction term to forces
     atom    1 type  1   force =    -0.00000000    0.00000000   -0.00000000
     atom    2 type  2   force =    -0.00000000   -0.00000000    0.00000000

     Total force =     0.000000     Total SCF correction =     0.000000


     Computing stress (Cartesian axis) and pressure

          total   stress  (Ry/bohr**3)                   (kbar)     P=      499.87
   0.00339803  -0.00000000   0.00000000          499.87       -0.00        0.00
  -0.00000000   0.00339803  -0.00000000           -0.00      499.87       -0.00
   0.00000000  -0.00000000   0.00339803            0.00       -0.00      499.87


     Writing all to output data dir ./output/LiSi.save/

     init_run     :      0.50s CPU      0.53s WALL (       2 calls)
     electrons    :      2.57s CPU      3.11s WALL (       5 calls)
     update_pot   :      0.48s CPU      0.48s WALL (       3 calls)
     forces       :      0.41s CPU      0.41s WALL (       5 calls)
     stress       :      1.07s CPU      1.10s WALL (       5 calls)

     Called by init_run:
     wfcinit      :      0.05s CPU      0.05s WALL (       2 calls)
     potinit      :      0.13s CPU      0.14s WALL (       2 calls)
     hinit0       :      0.31s CPU      0.33s WALL (       2 calls)

     Called by electrons:
     c_bands      :      2.11s CPU      2.58s WALL (      34 calls)
     sum_band     :      0.33s CPU      0.35s WALL (      34 calls)
     v_of_rho     :      0.12s CPU      0.13s WALL (      37 calls)
     mix_rho      :      0.01s CPU      0.01s WALL (      34 calls)

     Called by c_bands:
     init_us_2    :      0.07s CPU      0.08s WALL (    1280 calls)
     init_us_2:cp :      0.07s CPU      0.08s WALL (    1280 calls)
     cegterg      :      1.96s CPU      2.13s WALL (     544 calls)

     Called by *egterg:
     cdiaghg      :      0.16s CPU      0.17s WALL (    1944 calls)
     h_psi        :      1.66s CPU      1.80s WALL (    2056 calls)
     g_psi        :      0.01s CPU      0.01s WALL (    1480 calls)

     Called by h_psi:
     h_psi:calbec :      0.08s CPU      0.09s WALL (    2056 calls)
     vloc_psi     :      1.53s CPU      1.65s WALL (    2056 calls)
     add_vuspsi   :      0.04s CPU      0.05s WALL (    2056 calls)

     General routines
     calbec       :      0.10s CPU      0.11s WALL (    2456 calls)
     fft          :      0.26s CPU      0.28s WALL (     495 calls)
     ffts         :      0.00s CPU      0.00s WALL (      34 calls)
     fftw         :      1.58s CPU      1.70s WALL (   28482 calls)

     Parallel routines

     PWSCF        :      5.25s CPU      6.05s WALL


   This run was terminated on:  22:47:58  11Feb2025            

=------------------------------------------------------------------------------=
   JOB DONE.
=------------------------------------------------------------------------------=
