
     Program PWSCF v.7.2 starts on 11Feb2025 at 22:41:50 

     This program is part of the open-source Quantum ESPRESSO suite
     for quantum simulation of materials; please cite
         "P. Giannozzi et al., J. Phys.:Condens. Matter 21 395502 (2009);
         "P. Giannozzi et al., J. Phys.:Condens. Matter 29 465901 (2017);
         "P. Giannozzi et al., J. Chem. Phys. 152 154105 (2020);
          URL http://www.quantum-espresso.org", 
     in publications or presentations arising from this work. More details at
     http://www.quantum-espresso.org/quote

     Parallel version (MPI & OpenMP), running on       8 processor cores
     Number of MPI processes:                 8
     Threads/MPI process:                     1

     MPI processes distributed on     1 nodes
     481555 MiB available memory on the printing compute node when the environment starts

     Waiting for input...
     Reading input from standard input

     Current dimensions of program PWSCF are:
     Max number of different atomic species (ntypx) = 10
     Max number of k-points (npk) =  40000
     Max angular momentum in pseudopotentials (lmaxx) =  4

     R & G space division:  proc/nbgrp/npool/nimage =       8
     Subspace diagonalization in iterative solution of the eigenvalue problem:
     a serial algorithm will be used


     Parallelization info
     --------------------
     sticks:   dense  smooth     PW     G-vecs:    dense   smooth      PW
     Min         403     403    117                 9820     9820    1555
     Max         404     404    118                 9822     9822    1557
     Sum        3225    3225    941                78563    78563   12447

     Using Slab Decomposition



     bravais-lattice index     =            5
     lattice parameter (alat)  =      17.2947  a.u.
     unit-cell volume          =     811.3603 (a.u.)^3
     number of atoms/cell      =            4
     number of atomic types    =            2
     number of electrons       =        14.00
     number of Kohn-Sham states=           11
     kinetic-energy cutoff     =      80.0000  Ry
     charge density cutoff     =     320.0000  Ry
     scf convergence threshold =      1.0E-08
     mixing beta               =       0.7000
     number of iterations used =            8  plain     mixing
     energy convergence thresh.=      1.0E-04
     force convergence thresh. =      1.0E-03
     press convergence thresh. =      1.0E+00
     Exchange-correlation= PBE
                           (   1   4   3   4   0   0   0)
     nstep                     =           50


     celldm(1)=  17.294709  celldm(2)=   0.000000  celldm(3)=   0.000000
     celldm(4)=   0.906483  celldm(5)=   0.000000  celldm(6)=   0.000000

     crystal axes: (cart. coord. in units of alat)
               a(1) = (   0.216237  -0.124845   0.968326 )  
               a(2) = (   0.000000   0.249689   0.968326 )  
               a(3) = (  -0.216237  -0.124845   0.968326 )  

     reciprocal axes: (cart. coord. in units 2 pi/alat)
               b(1) = (  2.312273 -1.334992  0.344237 )  
               b(2) = (  0.000000  2.669983  0.344237 )  
               b(3) = ( -2.312273 -1.334992  0.344237 )  


     PseudoPot. # 1 for Li read from file:
     ../pseudo/Li_ONCV_PBE_sr.upf
     MD5 check sum: 50ff420e78310ffa21704f3361e624a4
     Pseudo is Norm-conserving, Zval =  3.0
     Generated using ONCVPSP code by D. R. Hamann
     Using radial grid of 1944 points,  4 beta functions with: 
                l(1) =   0
                l(2) =   0
                l(3) =   1
                l(4) =   1

     PseudoPot. # 2 for Si read from file:
     ../pseudo/Si_ONCV_PBE_sr.upf
     MD5 check sum: e543d271109d17c80368dfa7c482276d
     Pseudo is Norm-conserving + core correction, Zval =  4.0
     Generated using ONCVPSP code by D. R. Hamann
     Using radial grid of 1510 points,  6 beta functions with: 
                l(1) =   0
                l(2) =   0
                l(3) =   1
                l(4) =   1
                l(5) =   2
                l(6) =   2

     atomic species   valence    mass     pseudopotential
        Li             3.00     6.94100     Li( 1.00)
        Si             4.00    28.08550     Si( 1.00)

      6 Sym. Ops. (no inversion) found



   Cartesian axes

     site n.     atom                  positions (alat units)
         1           Li  tau(   1) = (  -0.0000000  -0.0000000   1.7500206  )
         2           Li  tau(   2) = (  -0.0000000  -0.0000000   2.2546937  )
         3           Si  tau(   3) = (  -0.0000000  -0.0000000   0.9283293  )
         4           Si  tau(   4) = (  -0.0000000  -0.0000000   2.5467021  )

     number of k points=    13  Marzari-Vanderbilt smearing, width (Ry)=  0.0200
                       cart. coord. in units 2pi/alat
        k(    1) = (   0.0000000   0.0000000   0.0000000), wk =   0.0312500
        k(    2) = (  -0.5780683  -0.3337479   0.0860592), wk =   0.1875000
        k(    3) = (   1.1561366   0.6674958  -0.1721184), wk =   0.0937500
        k(    4) = (  -0.5780683   0.3337479   0.1721184), wk =   0.1875000
        k(    5) = (   1.1561366   1.3349915  -0.0860592), wk =   0.3750000
        k(    6) = (   0.5780683   1.0012436   0.0000000), wk =   0.1875000
        k(    7) = (   1.1561366  -0.6674958  -0.3442367), wk =   0.0937500
        k(    8) = (   0.0000000   0.0000000   0.2581775), wk =   0.0625000
        k(    9) = (   1.7342048   1.0012436   0.0000000), wk =   0.1875000
        k(   10) = (   1.1561366   0.6674958   0.0860592), wk =   0.1875000
        k(   11) = (   1.7342048  -1.0012436  -0.2581775), wk =   0.1875000
        k(   12) = (   1.1561366  -1.3349915  -0.1721184), wk =   0.1875000
        k(   13) = (   0.0000000   0.0000000  -0.5163551), wk =   0.0312500

     Dense  grid:    78563 G-vectors     FFT dimensions: ( 100, 100, 100)

     Estimated max dynamical RAM per process >      29.50 MB

     Estimated total dynamical RAM >     236.02 MB

     Initial potential from superposition of free atoms

     starting charge      13.9897, renormalised to      14.0000
     Starting wfcs are   12 randomized atomic wfcs

     total cpu time spent up to now is        1.9 secs

     Self-consistent Calculation

     iteration #  1     ecut=    80.00 Ry     beta= 0.70
     Davidson diagonalization with overlap
     ethr =  1.00E-02,  avg # of iterations =  3.8

     total cpu time spent up to now is        3.2 secs

     total energy              =     -45.33937110 Ry
     estimated scf accuracy    <       0.20958455 Ry

     iteration #  2     ecut=    80.00 Ry     beta= 0.70
     Davidson diagonalization with overlap
     ethr =  1.50E-03,  avg # of iterations =  4.5

     total cpu time spent up to now is        4.5 secs

     total energy              =     -45.19644049 Ry
     estimated scf accuracy    <       2.00409066 Ry

     iteration #  3     ecut=    80.00 Ry     beta= 0.70
     Davidson diagonalization with overlap
     ethr =  1.50E-03,  avg # of iterations =  3.0

     total cpu time spent up to now is        5.7 secs

     total energy              =     -45.42251802 Ry
     estimated scf accuracy    <       0.42569599 Ry

     iteration #  4     ecut=    80.00 Ry     beta= 0.70
     Davidson diagonalization with overlap
     ethr =  1.50E-03,  avg # of iterations =  1.2

     total cpu time spent up to now is        6.6 secs

     total energy              =     -45.45953263 Ry
     estimated scf accuracy    <       0.01116470 Ry

     iteration #  5     ecut=    80.00 Ry     beta= 0.70
     Davidson diagonalization with overlap
     ethr =  7.97E-05,  avg # of iterations =  2.2

     total cpu time spent up to now is        7.6 secs

     total energy              =     -45.46092599 Ry
     estimated scf accuracy    <       0.00060548 Ry

     iteration #  6     ecut=    80.00 Ry     beta= 0.70
     Davidson diagonalization with overlap
     ethr =  4.32E-06,  avg # of iterations =  3.6

     total cpu time spent up to now is        8.7 secs

     total energy              =     -45.46108444 Ry
     estimated scf accuracy    <       0.00003477 Ry

     iteration #  7     ecut=    80.00 Ry     beta= 0.70
     Davidson diagonalization with overlap
     ethr =  2.48E-07,  avg # of iterations =  2.4

     total cpu time spent up to now is        9.7 secs

     total energy              =     -45.46109024 Ry
     estimated scf accuracy    <       0.00000113 Ry

     iteration #  8     ecut=    80.00 Ry     beta= 0.70
     Davidson diagonalization with overlap
     ethr =  8.10E-09,  avg # of iterations =  3.8

     total cpu time spent up to now is       10.8 secs

     total energy              =     -45.46109068 Ry
     estimated scf accuracy    <       0.00000010 Ry

     iteration #  9     ecut=    80.00 Ry     beta= 0.70
     Davidson diagonalization with overlap
     ethr =  6.91E-10,  avg # of iterations =  2.3

     total cpu time spent up to now is       11.8 secs

     total energy              =     -45.46109070 Ry
     estimated scf accuracy    <       0.00000003 Ry

     iteration # 10     ecut=    80.00 Ry     beta= 0.70
     Davidson diagonalization with overlap
     ethr =  2.05E-10,  avg # of iterations =  1.4

     total cpu time spent up to now is       12.6 secs

     End of self-consistent calculation

          k = 0.0000 0.0000 0.0000 (  9887 PWs)   bands (ev):

   -46.4887 -44.3363  -6.8359  -5.6452  -1.2143   1.6233   2.5816   3.2725
     3.2725   3.5868   3.5868

          k =-0.5781-0.3337 0.0861 (  9817 PWs)   bands (ev):

   -46.4885 -44.3360  -6.3053  -5.1994  -0.6310   0.4279   1.3622   2.0826
     2.1934   3.3362   3.4329

          k = 1.1561 0.6675-0.1721 (  9800 PWs)   bands (ev):

   -46.4883 -44.3357  -5.3904  -4.7833  -0.9842  -0.7550   0.8519   1.5694
     1.6212   3.0630   3.6836

          k =-0.5781 0.3337 0.1721 (  9820 PWs)   bands (ev):

   -46.4885 -44.3360  -6.3036  -5.2037  -0.6033   0.4260   1.4375   1.9104
     2.1825   3.3037   3.4645

          k = 1.1561 1.3350-0.0861 (  9816 PWs)   bands (ev):

   -46.4883 -44.3357  -5.4417  -4.7613  -0.5578  -0.2166   0.1876   1.2056
     1.4764   2.3263   3.6047

          k = 0.5781 1.0012 0.0000 (  9817 PWs)   bands (ev):

   -46.4883 -44.3357  -5.4448  -4.7563  -0.5111  -0.1926   0.1135   1.1678
     1.3116   2.4679   3.9849

          k = 1.1561-0.6675-0.3442 (  9800 PWs)   bands (ev):

   -46.4883 -44.3357  -5.3922  -4.7774  -1.0406  -0.8193   1.0520   1.6043
     2.0687   2.9094   3.1238

          k = 0.0000 0.0000 0.2582 (  9813 PWs)   bands (ev):

   -46.4887 -44.3363  -6.8297  -5.6629  -1.0131   0.8346   3.2770   3.2770
     3.4789   3.5796   3.5796

          k = 1.7342 1.0012 0.0000 (  9808 PWs)   bands (ev):

   -46.4885 -44.3360  -6.2978  -5.2187  -0.3615   0.2699   1.1762   1.7907
     2.1908   3.4405   3.8206

          k = 1.1561 0.6675 0.0861 (  9790 PWs)   bands (ev):

   -46.4883 -44.3357  -5.3913  -4.7803  -1.0130  -0.7882   0.9473   1.6127
     1.7758   3.0931   3.3133

          k = 1.7342-1.0012-0.2582 (  9805 PWs)   bands (ev):

   -46.4885 -44.3360  -6.2961  -5.2230  -0.3134   0.2470   1.2430   1.6488
     2.1800   3.4722   3.7559

          k = 1.1561-1.3350-0.1721 (  9790 PWs)   bands (ev):

   -46.4883 -44.3357  -5.4385  -4.7662  -0.5989  -0.2325   0.2484   1.2399
     1.7417   2.1291   3.2378

          k = 0.0000 0.0000-0.5164 (  9876 PWs)   bands (ev):

   -46.4887 -44.3363  -6.8233  -5.6805  -0.6820   0.2036   3.2818   3.2818
     3.5723   3.5723   4.2242

     the Fermi energy is     1.2907 ev

!    total energy              =     -45.46109071 Ry
     estimated scf accuracy    <          3.7E-09 Ry
     smearing contrib. (-TS)   =      -0.00422756 Ry
     internal energy E=F+TS    =     -45.45686314 Ry

     The total energy is F=E-TS. E is the sum of the following terms:
     one-electron contribution =     -24.00240171 Ry
     hartree contribution      =      11.67358531 Ry
     xc contribution           =     -12.26525255 Ry
     ewald contribution        =     -20.86279419 Ry

     convergence has been achieved in  10 iterations

     Forces acting on atoms (cartesian axes, Ry/au):

     atom    1 type  1   force =    -0.00000000    0.00000000   -0.01020281
     atom    2 type  1   force =    -0.00000000   -0.00000000   -0.00808000
     atom    3 type  2   force =     0.00000000   -0.00000000   -0.00162759
     atom    4 type  2   force =     0.00000000   -0.00000000    0.01991040
     The non-local contrib.  to forces
     atom    1 type  1   force =    -0.00000000   -0.00000000   -0.00624915
     atom    2 type  1   force =    -0.00000000    0.00000000   -0.07800506
     atom    3 type  2   force =     0.00000000   -0.00000000   -0.02764480
     atom    4 type  2   force =     0.00000000   -0.00000000    0.07785317
     The ionic contribution  to forces
     atom    1 type  1   force =    -0.00000000   -0.00000000    0.11811495
     atom    2 type  1   force =    -0.00000000   -0.00000000   -0.68400802
     atom    3 type  2   force =     0.00000000    0.00000000    2.12763839
     atom    4 type  2   force =    -0.00000000   -0.00000000   -1.56174531
     The local contribution  to forces
     atom    1 type  1   force =     0.00000000    0.00000000   -0.12204380
     atom    2 type  1   force =     0.00000000    0.00000000    0.75391254
     atom    3 type  2   force =     0.00000000   -0.00000000   -2.10289142
     atom    4 type  2   force =     0.00000000    0.00000000    1.50845866
     The core correction contribution to forces
     atom    1 type  1   force =     0.00000000    0.00000000    0.00000000
     atom    2 type  1   force =     0.00000000    0.00000000    0.00000000
     atom    3 type  2   force =     0.00000000   -0.00000000    0.00132982
     atom    4 type  2   force =    -0.00000000    0.00000000   -0.00469099
     The Hubbard contrib.    to forces
     atom    1 type  1   force =     0.00000000    0.00000000    0.00000000
     atom    2 type  1   force =     0.00000000    0.00000000    0.00000000
     atom    3 type  2   force =     0.00000000    0.00000000    0.00000000
     atom    4 type  2   force =     0.00000000    0.00000000    0.00000000
     The SCF correction term to forces
     atom    1 type  1   force =     0.00000000    0.00000000   -0.00002420
     atom    2 type  1   force =    -0.00000000   -0.00000000    0.00002114
     atom    3 type  2   force =     0.00000000   -0.00000000   -0.00005897
     atom    4 type  2   force =     0.00000000    0.00000000    0.00003547

     Total force =     0.023842     Total SCF correction =     0.000076


     Computing stress (Cartesian axis) and pressure

          total   stress  (Ry/bohr**3)                   (kbar)     P=      -51.45
  -0.00032714  -0.00000000   0.00000000          -48.12       -0.00        0.00
   0.00000000  -0.00032714  -0.00000000            0.00      -48.12       -0.00
   0.00000000  -0.00000000  -0.00039491            0.00       -0.00      -58.09


     BFGS Geometry Optimization
     Energy error            =      0.0E+00 Ry
     Gradient error          =      2.0E-02 Ry/Bohr
     Cell gradient error     =      5.6E+02 kbar

     number of scf cycles    =   1
     number of bfgs steps    =   0

     enthalpy           new  =     -42.7033332501 Ry

     new trust radius        =       0.5000000000 bohr
ibrav =      5
 celldm(1) =     15.77848936
 celldm(4) =      0.90618118
Input lattice vectors:
     0.19759782    -0.11408315     0.88333853
     0.00000000     0.22816631     0.88333853
    -0.19759782    -0.11408315     0.88333853
New lattice vectors in INITIAL alat:
     0.19759782    -0.11408315     0.88333853
     0.00000000     0.22816631     0.88333853
    -0.19759782    -0.11408315     0.88333853
New lattice vectors in NEW alat (for information only):
     0.21658580    -0.12504587     0.96822214
     0.00000000     0.25009174     0.96822214
    -0.21658580    -0.12504587     0.96822214
Discrepancy in bohr =     0.000000    0.000000    0.000000
     new conv_thr            =       0.0000000100 Ry

     new unit-cell volume =    618.04751 a.u.^3 (    91.58519 Ang^3 )
     density =      1.27014 g/cm^3

CELL_PARAMETERS (alat= 17.29470907)
   0.197597817  -0.114083153   0.883338525
   0.000000000   0.228166305   0.883338525
  -0.197597817  -0.114083153   0.883338525

ATOMIC_POSITIONS (crystal)
Li            0.6022334079        0.6022334079        0.6022334079
Li            0.7759995071        0.7759995071        0.7759995071
Si            0.3195350220        0.3195350220        0.3195350220
Si            0.8770350530        0.8770350530        0.8770350530



     Writing config-only to output data dir ./output/LiSi.save/
     NEW-OLD atomic charge density approx. for the potential
     extrapolated charge    9.62432, renormalised to   14.00000

     total cpu time spent up to now is       15.5 secs

     Self-consistent Calculation

     iteration #  1     ecut=    80.00 Ry     beta= 0.70
     Davidson diagonalization with overlap
     c_bands:  1 eigenvalues not converged
     c_bands:  1 eigenvalues not converged
     c_bands:  1 eigenvalues not converged
     c_bands:  1 eigenvalues not converged
     c_bands:  1 eigenvalues not converged
     ethr =  1.00E-06,  avg # of iterations = 18.8

     total cpu time spent up to now is       19.0 secs

     total energy              =     -42.59868166 Ry
     estimated scf accuracy    <       2.64390092 Ry

     iteration #  2     ecut=    80.00 Ry     beta= 0.70
     Davidson diagonalization with overlap
     ethr =  1.00E-02,  avg # of iterations =  6.8

     total cpu time spent up to now is       20.8 secs

     total energy              =     -43.91479954 Ry
     estimated scf accuracy    <      28.90732139 Ry

     iteration #  3     ecut=    80.00 Ry     beta= 0.70
     Davidson diagonalization with overlap
     ethr =  1.00E-02,  avg # of iterations =  3.4

     total cpu time spent up to now is       21.9 secs

     total energy              =     -45.50295108 Ry
     estimated scf accuracy    <       2.83542355 Ry

     iteration #  4     ecut=    80.00 Ry     beta= 0.70
     Davidson diagonalization with overlap
     ethr =  1.00E-02,  avg # of iterations =  1.8

     total cpu time spent up to now is       22.7 secs

     total energy              =     -45.54272045 Ry
     estimated scf accuracy    <       1.86820727 Ry

     iteration #  5     ecut=    80.00 Ry     beta= 0.70
     Davidson diagonalization with overlap
     ethr =  1.00E-02,  avg # of iterations =  1.0

     total cpu time spent up to now is       23.5 secs

     total energy              =     -45.48481570 Ry
     estimated scf accuracy    <       0.66375445 Ry

     iteration #  6     ecut=    80.00 Ry     beta= 0.70
     Davidson diagonalization with overlap
     ethr =  4.74E-03,  avg # of iterations =  1.5

     total cpu time spent up to now is       24.3 secs

     total energy              =     -45.50273050 Ry
     estimated scf accuracy    <       0.10965385 Ry

     iteration #  7     ecut=    80.00 Ry     beta= 0.70
     Davidson diagonalization with overlap
     ethr =  7.83E-04,  avg # of iterations =  2.5

     total cpu time spent up to now is       25.2 secs

     total energy              =     -45.51649355 Ry
     estimated scf accuracy    <       0.00692583 Ry

     iteration #  8     ecut=    80.00 Ry     beta= 0.70
     Davidson diagonalization with overlap
     ethr =  4.95E-05,  avg # of iterations =  4.8

     total cpu time spent up to now is       26.5 secs

     total energy              =     -45.51876392 Ry
     estimated scf accuracy    <       0.00004760 Ry

     iteration #  9     ecut=    80.00 Ry     beta= 0.70
     Davidson diagonalization with overlap
     ethr =  3.40E-07,  avg # of iterations =  3.7

     total cpu time spent up to now is       27.5 secs

     total energy              =     -45.51876707 Ry
     estimated scf accuracy    <       0.00006165 Ry

     iteration # 10     ecut=    80.00 Ry     beta= 0.70
     Davidson diagonalization with overlap
     ethr =  3.40E-07,  avg # of iterations =  2.0

     total cpu time spent up to now is       28.4 secs

     total energy              =     -45.51877550 Ry
     estimated scf accuracy    <       0.00000121 Ry

     iteration # 11     ecut=    80.00 Ry     beta= 0.70
     Davidson diagonalization with overlap
     ethr =  8.64E-09,  avg # of iterations =  3.1

     total cpu time spent up to now is       29.3 secs

     total energy              =     -45.51877583 Ry
     estimated scf accuracy    <       0.00000014 Ry

     iteration # 12     ecut=    80.00 Ry     beta= 0.70
     Davidson diagonalization with overlap
     ethr =  1.03E-09,  avg # of iterations =  2.0

     total cpu time spent up to now is       30.2 secs

     total energy              =     -45.51877586 Ry
     estimated scf accuracy    <       0.00000001 Ry

     iteration # 13     ecut=    80.00 Ry     beta= 0.70
     Davidson diagonalization with overlap
     ethr =  9.57E-11,  avg # of iterations =  2.2

     total cpu time spent up to now is       31.0 secs

     End of self-consistent calculation

          k = 0.0000 0.0000 0.0000 (  9887 PWs)   bands (ev):

   -44.5984 -42.6522  -6.3492  -4.6820  -0.3859   3.2447   4.6199   5.5004
     5.5004   5.8674   5.8674

          k =-0.6326-0.3652 0.0943 (  9817 PWs)   bands (ev):

   -44.5977 -42.6509  -5.6453  -3.9896   0.3165   1.6942   3.1760   3.8095
     3.8721   5.3583   5.7197

          k = 1.2652 0.7305-0.1887 (  9800 PWs)   bands (ev):

   -44.5970 -42.6497  -4.3018  -3.2363  -0.1150   0.0881   2.1182   3.1116
     3.1352   5.1795   5.5304

          k =-0.6326 0.3652 0.1887 (  9820 PWs)   bands (ev):

   -44.5977 -42.6509  -5.6425  -3.9992   0.3579   1.7450   3.1069   3.6464
     3.8579   5.3860   5.7768

          k = 1.2652 1.4609-0.0943 (  9816 PWs)   bands (ev):

   -44.5970 -42.6497  -4.4004  -3.1865   0.2070   1.0721   1.2875   2.5428
     2.9248   4.1570   5.4591

          k = 0.6326 1.0957 0.0000 (  9817 PWs)   bands (ev):

   -44.5970 -42.6497  -4.4058  -3.1752   0.2628   1.0914   1.2010   2.4927
     2.7010   4.3656   6.0916

          k = 1.2652-0.7305-0.3774 (  9800 PWs)   bands (ev):

   -44.5970 -42.6497  -4.3023  -3.2237  -0.2026   0.0098   2.4404   3.0904
     3.7499   4.4689   5.2857

          k =-0.0000-0.0000 0.2830 (  9813 PWs)   bands (ev):

   -44.5984 -42.6522  -6.3403  -4.7151  -0.1328   2.3168   5.5070   5.5070
     5.7151   5.8557   5.8557

          k = 1.8978 1.0957 0.0000 (  9808 PWs)   bands (ev):

   -44.5977 -42.6509  -5.6341  -4.0299   0.6742   1.5464   2.7838   3.4913
     3.8685   5.7341   5.9704

          k = 1.2652 0.7305 0.0943 (  9790 PWs)   bands (ev):

   -44.5970 -42.6497  -4.3020  -3.2300  -0.1585   0.0457   2.2739   3.1009
     3.3686   5.0363   5.2316

          k = 1.8978-1.0957-0.2830 (  9805 PWs)   bands (ev):

   -44.5977 -42.6509  -5.6313  -4.0393   0.7315   1.6073   2.6404   3.4279
     3.8544   5.7918   5.9401

          k = 1.2652-1.4609-0.1887 (  9790 PWs)   bands (ev):

   -44.5970 -42.6497  -4.3950  -3.1978   0.1587   1.0630   1.3547   2.5907
     3.3196   3.8469   4.9049

          k = 0.0000 0.0000-0.5660 (  9876 PWs)   bands (ev):

   -44.5984 -42.6522  -6.3312  -4.7477   0.2540   1.5741   5.5141   5.5141
     5.8436   5.8436   6.6973

     the Fermi energy is     2.7079 ev

!    total energy              =     -45.51877586 Ry
     estimated scf accuracy    <          1.1E-09 Ry
     smearing contrib. (-TS)   =      -0.00175195 Ry
     internal energy E=F+TS    =     -45.51702391 Ry

     The total energy is F=E-TS. E is the sum of the following terms:
     one-electron contribution =     -21.38729211 Ry
     hartree contribution      =      11.20747380 Ry
     xc contribution           =     -12.51648571 Ry
     ewald contribution        =     -22.82071989 Ry

     convergence has been achieved in  13 iterations

     Forces acting on atoms (cartesian axes, Ry/au):

     atom    1 type  1   force =    -0.00000000   -0.00000000   -0.01597869
     atom    2 type  1   force =    -0.00000000    0.00000000   -0.03211980
     atom    3 type  2   force =    -0.00000000   -0.00000000    0.02712176
     atom    4 type  2   force =    -0.00000000   -0.00000000    0.02097673
     The non-local contrib.  to forces
     atom    1 type  1   force =    -0.00000000    0.00000000   -0.00707418
     atom    2 type  1   force =     0.00000000    0.00000000   -0.08432888
     atom    3 type  2   force =    -0.00000000    0.00000000   -0.01362380
     atom    4 type  2   force =     0.00000000    0.00000000    0.09902184
     The ionic contribution  to forces
     atom    1 type  1   force =    -0.00000000   -0.00000000    0.14124141
     atom    2 type  1   force =    -0.00000000    0.00000000   -0.80300618
     atom    3 type  2   force =     0.00000000    0.00000000    2.55423015
     atom    4 type  2   force =     0.00000000   -0.00000000   -1.89246539
     The local contribution  to forces
     atom    1 type  1   force =     0.00000000    0.00000000   -0.15014885
     atom    2 type  1   force =     0.00000000    0.00000000    0.85521443
     atom    3 type  2   force =    -0.00000000   -0.00000000   -2.51362428
     atom    4 type  2   force =     0.00000000    0.00000000    1.82014773
     The core correction contribution to forces
     atom    1 type  1   force =     0.00000000    0.00000000    0.00000000
     atom    2 type  1   force =     0.00000000    0.00000000    0.00000000
     atom    3 type  2   force =    -0.00000000   -0.00000000    0.00017084
     atom    4 type  2   force =    -0.00000000    0.00000000   -0.00576574
     The Hubbard contrib.    to forces
     atom    1 type  1   force =     0.00000000    0.00000000    0.00000000
     atom    2 type  1   force =     0.00000000    0.00000000    0.00000000
     atom    3 type  2   force =     0.00000000    0.00000000    0.00000000
     atom    4 type  2   force =     0.00000000    0.00000000    0.00000000
     The SCF correction term to forces
     atom    1 type  1   force =     0.00000000    0.00000000    0.00000257
     atom    2 type  1   force =     0.00000000   -0.00000000    0.00000047
     atom    3 type  2   force =     0.00000000    0.00000000   -0.00003151
     atom    4 type  2   force =    -0.00000000   -0.00000000    0.00003792

     Total force =     0.049625     Total SCF correction =     0.000049


     Computing stress (Cartesian axis) and pressure

          total   stress  (Ry/bohr**3)                   (kbar)     P=      -27.12
  -0.00018811  -0.00000000   0.00000000          -27.67       -0.00        0.00
   0.00000000  -0.00018811  -0.00000000            0.00      -27.67       -0.00
   0.00000000  -0.00000000  -0.00017679            0.00       -0.00      -26.01

     Energy error            =      7.1E-01 Ry
     Gradient error          =      3.2E-02 Ry/Bohr
     Cell gradient error     =      5.3E+02 kbar

     number of scf cycles    =   2
     number of bfgs steps    =   1

     enthalpy           old  =     -42.7033332501 Ry
     enthalpy           new  =     -43.4180750736 Ry

     CASE: enthalpy          _new < enthalpy          _old

     new trust radius        =       0.7175624962 bohr
ibrav =      5
 celldm(1) =     13.50370208
 celldm(4) =      0.90621347
Input lattice vectors:
     0.16908101    -0.09761896     0.75599615
    -0.00000000     0.19523793     0.75599615
    -0.16908101    -0.09761896     0.75599615
New lattice vectors in INITIAL alat:
     0.16908101    -0.09761896     0.75599615
     0.00000000     0.19523793     0.75599615
    -0.16908101    -0.09761896     0.75599615
New lattice vectors in NEW alat (for information only):
     0.21654853    -0.12502435     0.96823326
     0.00000000     0.25004870     0.96823326
    -0.21654853    -0.12502435     0.96823326
Discrepancy in bohr =     0.000000    0.000000    0.000000
     new conv_thr            =       0.0000000032 Ry

     new unit-cell volume =    387.29299 a.u.^3 (    57.39090 Ang^3 )
     density =      2.02690 g/cm^3

CELL_PARAMETERS (alat= 17.29470907)
   0.169081006  -0.097618964   0.755996151
   0.000000000   0.195237929   0.755996151
  -0.169081006  -0.097618964   0.755996151

ATOMIC_POSITIONS (crystal)
Li            0.6017060237        0.6017060237        0.6017060237
Li            0.7749150979        0.7749150979        0.7749150979
Si            0.3204671984        0.3204671984        0.3204671984
Si            0.8777146701        0.8777146701        0.8777146701



     Writing config-only to output data dir ./output/LiSi.save/
     NEW-OLD atomic charge density approx. for the potential

     negative rho (up, down):  8.993E-02 0.000E+00
     extrapolated charge    5.66477, renormalised to   14.00000

     total cpu time spent up to now is       33.7 secs

     Self-consistent Calculation

     iteration #  1     ecut=    80.00 Ry     beta= 0.70
     Davidson diagonalization with overlap
     c_bands:  1 eigenvalues not converged
     c_bands:  1 eigenvalues not converged
     c_bands:  1 eigenvalues not converged
     c_bands:  2 eigenvalues not converged
     c_bands:  1 eigenvalues not converged
     c_bands:  1 eigenvalues not converged
     c_bands:  1 eigenvalues not converged
     c_bands:  1 eigenvalues not converged
     c_bands:  1 eigenvalues not converged
     ethr =  1.00E-06,  avg # of iterations = 19.0
     Minimization algorithm failed to find Fermi energy: reverting to bisection
     Possible cause: smearing is larger than the electronic band-gap.

     negative rho (up, down):  3.330E-03 0.000E+00

     total cpu time spent up to now is       37.7 secs

     total energy              =     -36.22867947 Ry
     estimated scf accuracy    <       9.07570881 Ry

     iteration #  2     ecut=    80.00 Ry     beta= 0.70
     Davidson diagonalization with overlap
     ethr =  1.00E-02,  avg # of iterations =  7.2

     negative rho (up, down):  3.379E-07 0.000E+00

     total cpu time spent up to now is       39.5 secs

     total energy              =     -43.79246219 Ry
     estimated scf accuracy    <      44.51725611 Ry

     iteration #  3     ecut=    80.00 Ry     beta= 0.70
     Davidson diagonalization with overlap
     ethr =  1.00E-02,  avg # of iterations =  3.8

     total cpu time spent up to now is       40.8 secs

     total energy              =     -45.68159782 Ry
     estimated scf accuracy    <       6.00665150 Ry

     iteration #  4     ecut=    80.00 Ry     beta= 0.70
     Davidson diagonalization with overlap
     ethr =  1.00E-02,  avg # of iterations =  2.1

     total cpu time spent up to now is       41.6 secs

     total energy              =     -45.36568949 Ry
     estimated scf accuracy    <       2.12505594 Ry

     iteration #  5     ecut=    80.00 Ry     beta= 0.70
     Davidson diagonalization with overlap
     ethr =  1.00E-02,  avg # of iterations =  1.9

     total cpu time spent up to now is       42.5 secs

     total energy              =     -45.22901867 Ry
     estimated scf accuracy    <       1.78195030 Ry

     iteration #  6     ecut=    80.00 Ry     beta= 0.70
     Davidson diagonalization with overlap
     ethr =  1.00E-02,  avg # of iterations =  1.8

     total cpu time spent up to now is       43.3 secs

     total energy              =     -45.43496701 Ry
     estimated scf accuracy    <       0.03995640 Ry

     iteration #  7     ecut=    80.00 Ry     beta= 0.70
     Davidson diagonalization with overlap
     ethr =  2.85E-04,  avg # of iterations =  3.6

     total cpu time spent up to now is       44.3 secs

     total energy              =     -45.44617754 Ry
     estimated scf accuracy    <       0.00223563 Ry

     iteration #  8     ecut=    80.00 Ry     beta= 0.70
     Davidson diagonalization with overlap
     ethr =  1.60E-05,  avg # of iterations =  3.9

     total cpu time spent up to now is       45.3 secs

     total energy              =     -45.44650695 Ry
     estimated scf accuracy    <       0.00032256 Ry

     iteration #  9     ecut=    80.00 Ry     beta= 0.70
     Davidson diagonalization with overlap
     ethr =  2.30E-06,  avg # of iterations =  3.0

     total cpu time spent up to now is       46.2 secs

     total energy              =     -45.44654318 Ry
     estimated scf accuracy    <       0.00000960 Ry

     iteration # 10     ecut=    80.00 Ry     beta= 0.70
     Davidson diagonalization with overlap
     ethr =  6.86E-08,  avg # of iterations =  3.2

     total cpu time spent up to now is       47.1 secs

     total energy              =     -45.44654645 Ry
     estimated scf accuracy    <       0.00000287 Ry

     iteration # 11     ecut=    80.00 Ry     beta= 0.70
     Davidson diagonalization with overlap
     ethr =  2.05E-08,  avg # of iterations =  1.6

     total cpu time spent up to now is       47.9 secs

     total energy              =     -45.44654698 Ry
     estimated scf accuracy    <       0.00000017 Ry

     iteration # 12     ecut=    80.00 Ry     beta= 0.70
     Davidson diagonalization with overlap
     ethr =  1.23E-09,  avg # of iterations =  2.0

     total cpu time spent up to now is       48.7 secs

     End of self-consistent calculation

          k = 0.0000 0.0000 0.0000 (  9887 PWs)   bands (ev):

   -40.4147 -39.6728  -5.0695  -2.7080   1.8050   6.9358   9.2986  10.8947
    10.8947  10.9998  10.9998

          k =-0.7393-0.4268 0.1102 (  9817 PWs)   bands (ev):

   -40.4095 -39.6624  -4.1090  -1.5208   2.6695   4.9975   7.3421   7.7869
     8.2006   9.9937  11.2186

          k = 1.4786 0.8537-0.2205 (  9800 PWs)   bands (ev):

   -40.4042 -39.6520  -2.1319   0.2360   2.3025   2.4425   5.1343   6.6469
     6.9217   9.7405  10.2517

          k =-0.7393 0.4268 0.2205 (  9820 PWs)   bands (ev):

   -40.4095 -39.6624  -4.1043  -1.5452   2.7570   5.0791   6.9297   7.7681
     8.1531  10.3342  11.3722

          k = 1.4786 1.7073-0.1102 (  9816 PWs)   bands (ev):

   -40.4042 -39.6520  -2.2766   0.4204   2.0842   3.8408   4.8872   5.7453
     6.3977   8.4330   9.7427

          k = 0.7393 1.2805 0.0000 (  9817 PWs)   bands (ev):

   -40.4042 -39.6520  -2.2863   0.4646   2.1396   3.7225   4.8847   5.6938
     6.0589   8.8127  10.9572

          k = 1.4786-0.8537-0.4409 (  9800 PWs)   bands (ev):

   -40.4042 -39.6520  -2.1234   0.2760   2.1165   2.3312   5.7977   6.6196
     7.3891   8.5214  10.5174

          k =-0.0000-0.0000 0.3307 (  9813 PWs)   bands (ev):

   -40.4147 -39.6728  -5.0565  -2.7711   2.1404   5.7995  10.7902  10.8993
    10.8993  10.9866  10.9866

          k = 2.2179 1.2805 0.0000 (  9808 PWs)   bands (ev):

   -40.4095 -39.6624  -4.0919  -1.6146   3.1462   4.9497   6.3568   7.7818
     7.9950  10.7908  11.2585

          k = 1.4786 0.8537 0.1102 (  9790 PWs)   bands (ev):

   -40.4042 -39.6520  -2.1277   0.2552   2.2327   2.3559   5.4548   6.6331
     7.1076   9.1455  10.3767

          k = 2.2179-1.2805-0.3307 (  9805 PWs)   bands (ev):

   -40.4095 -39.6624  -4.0871  -1.6376   3.2612   5.1199   5.9146   7.7632
     7.9912  11.0399  11.4179

          k = 1.4786-1.7073-0.2205 (  9790 PWs)   bands (ev):

   -40.4042 -39.6520  -2.2667   0.3767   2.0370   3.9517   4.8692   5.8358
     7.0089   7.8783   8.8236

          k = 0.0000 0.0000-0.6614 (  9876 PWs)   bands (ev):

   -40.4147 -39.6728  -5.0431  -2.8320   2.6031   4.8869  10.9073  10.9073
    10.9700  10.9700  12.5019

     the Fermi energy is     6.0033 ev

!    total energy              =     -45.44654701 Ry
     estimated scf accuracy    <          2.0E-09 Ry
     smearing contrib. (-TS)   =       0.00030011 Ry
     internal energy E=F+TS    =     -45.44684712 Ry

     The total energy is F=E-TS. E is the sum of the following terms:
     one-electron contribution =     -15.97848688 Ry
     hartree contribution      =      10.40744007 Ry
     xc contribution           =     -13.11209374 Ry
     ewald contribution        =     -26.76370658 Ry

     convergence has been achieved in  12 iterations

     Forces acting on atoms (cartesian axes, Ry/au):

     atom    1 type  1   force =     0.00000000   -0.00000000   -0.02075621
     atom    2 type  1   force =    -0.00000000    0.00000000   -0.10315655
     atom    3 type  2   force =     0.00000000   -0.00000000    0.13127010
     atom    4 type  2   force =    -0.00000000    0.00000000   -0.00735734
     The non-local contrib.  to forces
     atom    1 type  1   force =     0.00000000    0.00000000   -0.00884334
     atom    2 type  1   force =     0.00000000   -0.00000000   -0.08068209
     atom    3 type  2   force =    -0.00000000   -0.00000000    0.03361156
     atom    4 type  2   force =     0.00000000    0.00000000    0.12367144
     The ionic contribution  to forces
     atom    1 type  1   force =     0.00000000   -0.00000000    0.16550957
     atom    2 type  1   force =    -0.00000000   -0.00000000   -0.95253852
     atom    3 type  2   force =    -0.00000000    0.00000000    3.43556682
     atom    4 type  2   force =     0.00000000   -0.00000000   -2.64853788
     The local contribution  to forces
     atom    1 type  1   force =    -0.00000000   -0.00000000   -0.17740563
     atom    2 type  1   force =    -0.00000000    0.00000000    0.93005490
     atom    3 type  2   force =     0.00000000   -0.00000000   -3.33386761
     atom    4 type  2   force =     0.00000000    0.00000000    2.52340720
     The core correction contribution to forces
     atom    1 type  1   force =     0.00000000    0.00000000    0.00000000
     atom    2 type  1   force =     0.00000000    0.00000000    0.00000000
     atom    3 type  2   force =     0.00000000   -0.00000000   -0.00397849
     atom    4 type  2   force =    -0.00000000    0.00000000   -0.00594566
     The Hubbard contrib.    to forces
     atom    1 type  1   force =     0.00000000    0.00000000    0.00000000
     atom    2 type  1   force =     0.00000000    0.00000000    0.00000000
     atom    3 type  2   force =     0.00000000    0.00000000    0.00000000
     atom    4 type  2   force =     0.00000000    0.00000000    0.00000000
     The SCF correction term to forces
     atom    1 type  1   force =     0.00000000    0.00000000   -0.00001497
     atom    2 type  1   force =     0.00000000    0.00000000    0.00001100
     atom    3 type  2   force =     0.00000000    0.00000000   -0.00006034
     atom    4 type  2   force =    -0.00000000    0.00000000    0.00004941

     Total force =     0.168399     Total SCF correction =     0.000080


     Computing stress (Cartesian axis) and pressure

          total   stress  (Ry/bohr**3)                   (kbar)     P=      205.45
   0.00134344  -0.00000000  -0.00000000          197.63       -0.00       -0.00
  -0.00000000   0.00134344   0.00000000           -0.00      197.63        0.00
   0.00000000   0.00000000   0.00150303            0.00        0.00      221.10

     Energy error            =      7.1E-01 Ry
     Gradient error          =      1.3E-01 Ry/Bohr
     Cell gradient error     =      3.0E+02 kbar

     number of scf cycles    =   3
     number of bfgs steps    =   2

     enthalpy           old  =     -43.4180750736 Ry
     enthalpy           new  =     -44.1301648886 Ry

     CASE: enthalpy          _new < enthalpy          _old

     new trust radius        =       0.5046598119 bohr
ibrav =      5
 celldm(1) =     11.83834576
 celldm(4) =      0.90725725
Input lattice vectors:
     0.14740178    -0.08510246     0.66300817
     0.00000000     0.17020492     0.66300817
    -0.14740178    -0.08510246     0.66300817
New lattice vectors in INITIAL alat:
     0.14740178    -0.08510246     0.66300817
     0.00000000     0.17020492     0.66300817
    -0.14740178    -0.08510246     0.66300817
New lattice vectors in NEW alat (for information only):
     0.21534013    -0.12432668     0.96859254
     0.00000000     0.24865337     0.96859254
    -0.21534013    -0.12432668     0.96859254
Discrepancy in bohr =     0.000000    0.000000    0.000000
     new conv_thr            =       0.0000000100 Ry

     new unit-cell volume =    258.13967 a.u.^3 (    38.25235 Ang^3 )
     density =      3.04101 g/cm^3

CELL_PARAMETERS (alat= 17.29470907)
   0.147401782  -0.085102459   0.663008167
   0.000000000   0.170204917   0.663008167
  -0.147401782  -0.085102459   0.663008167

ATOMIC_POSITIONS (crystal)
Li            0.6009674382        0.6009674382        0.6009674382
Li            0.7717843215        0.7717843215        0.7717843215
Si            0.3242939196        0.3242939196        0.3242939196
Si            0.8777573107        0.8777573107        0.8777573107



     Writing config-only to output data dir ./output/LiSi.save/
     NEW-OLD atomic charge density approx. for the potential

     negative rho (up, down):  6.005E-03 0.000E+00
     extrapolated charge    7.00065, renormalised to   14.00000

     total cpu time spent up to now is       51.3 secs

     Self-consistent Calculation

     iteration #  1     ecut=    80.00 Ry     beta= 0.70
     Davidson diagonalization with overlap
     c_bands:  1 eigenvalues not converged
     ethr =  1.00E-06,  avg # of iterations = 16.4
     Minimization algorithm failed to find Fermi energy: reverting to bisection
     Possible cause: smearing is larger than the electronic band-gap.

     negative rho (up, down):  2.163E-04 0.000E+00

     total cpu time spent up to now is       54.8 secs

     total energy              =     -36.70026921 Ry
     estimated scf accuracy    <       8.51000279 Ry

     iteration #  2     ecut=    80.00 Ry     beta= 0.70
     Davidson diagonalization with overlap
     ethr =  1.00E-02,  avg # of iterations =  6.9

     negative rho (up, down):  4.672E-07 0.000E+00

     total cpu time spent up to now is       56.6 secs

     total energy              =     -42.64081802 Ry
     estimated scf accuracy    <      45.88676348 Ry

     iteration #  3     ecut=    80.00 Ry     beta= 0.70
     Davidson diagonalization with overlap
     ethr =  1.00E-02,  avg # of iterations =  3.5

     total cpu time spent up to now is       57.7 secs

     total energy              =     -45.30749115 Ry
     estimated scf accuracy    <       4.66746800 Ry

     iteration #  4     ecut=    80.00 Ry     beta= 0.70
     Davidson diagonalization with overlap
     ethr =  1.00E-02,  avg # of iterations =  1.9

     total cpu time spent up to now is       58.6 secs

     total energy              =     -44.82621794 Ry
     estimated scf accuracy    <       1.70605402 Ry

     iteration #  5     ecut=    80.00 Ry     beta= 0.70
     Davidson diagonalization with overlap
     ethr =  1.00E-02,  avg # of iterations =  2.2

     total cpu time spent up to now is       59.5 secs

     total energy              =     -45.05778041 Ry
     estimated scf accuracy    <       0.10993606 Ry

     iteration #  6     ecut=    80.00 Ry     beta= 0.70
     Davidson diagonalization with overlap
     ethr =  7.85E-04,  avg # of iterations =  3.3

     total cpu time spent up to now is       60.5 secs

     total energy              =     -45.07733357 Ry
     estimated scf accuracy    <       0.03869763 Ry

     iteration #  7     ecut=    80.00 Ry     beta= 0.70
     Davidson diagonalization with overlap
     ethr =  2.76E-04,  avg # of iterations =  1.9

     total cpu time spent up to now is       61.3 secs

     total energy              =     -45.08558679 Ry
     estimated scf accuracy    <       0.00424294 Ry

     iteration #  8     ecut=    80.00 Ry     beta= 0.70
     Davidson diagonalization with overlap
     ethr =  3.03E-05,  avg # of iterations =  2.3

     total cpu time spent up to now is       62.1 secs

     total energy              =     -45.08582121 Ry
     estimated scf accuracy    <       0.00034056 Ry

     iteration #  9     ecut=    80.00 Ry     beta= 0.70
     Davidson diagonalization with overlap
     ethr =  2.43E-06,  avg # of iterations =  4.5

     total cpu time spent up to now is       63.2 secs

     total energy              =     -45.08592657 Ry
     estimated scf accuracy    <       0.00004423 Ry

     iteration # 10     ecut=    80.00 Ry     beta= 0.70
     Davidson diagonalization with overlap
     ethr =  3.16E-07,  avg # of iterations =  1.9

     total cpu time spent up to now is       64.0 secs

     total energy              =     -45.08593649 Ry
     estimated scf accuracy    <       0.00000061 Ry

     iteration # 11     ecut=    80.00 Ry     beta= 0.70
     Davidson diagonalization with overlap
     ethr =  4.38E-09,  avg # of iterations =  3.0

     total cpu time spent up to now is       64.9 secs

     total energy              =     -45.08593656 Ry
     estimated scf accuracy    <       0.00000036 Ry

     iteration # 12     ecut=    80.00 Ry     beta= 0.70
     Davidson diagonalization with overlap
     ethr =  2.57E-09,  avg # of iterations =  1.5

     total cpu time spent up to now is       65.7 secs

     End of self-consistent calculation

          k = 0.0000 0.0000 0.0000 (  9887 PWs)   bands (ev):

   -37.0074 -35.4743  -2.9418  -0.6400   4.8247  10.9828  14.7465  16.7432
    16.7432  17.8328  17.8328

          k =-0.8480-0.4896 0.1257 (  9817 PWs)   bands (ev):

   -36.9609 -35.4486  -1.8413   0.9820   5.6989   9.5140  11.8224  12.7928
    13.7253  15.3774  17.8845

          k = 1.6960 0.9792-0.2514 (  9800 PWs)   bands (ev):

   -36.9141 -35.4229   0.3390   4.0577   5.2674   6.1949   8.8768  11.2964
    11.6024  14.6213  16.3521

          k =-0.8480 0.4896 0.2514 (  9820 PWs)   bands (ev):

   -36.9608 -35.4486  -1.8347   0.9478   5.8321   9.4789  11.4293  12.7692
    13.6891  15.9688  18.2206

          k = 1.6960 1.9584-0.1257 (  9816 PWs)   bands (ev):

   -36.9142 -35.4229   0.3052   4.0348   5.1337   7.2615   9.6708   9.9526
    10.8725  13.3891  14.9527

          k = 0.8480 1.4688 0.0000 (  9817 PWs)   bands (ev):

   -36.9142 -35.4229   0.2901   4.1721   5.1369   7.0579   9.5420  10.0197
    10.5059  13.9191  16.5336

          k = 1.6960-0.9792-0.5028 (  9800 PWs)   bands (ev):

   -36.9141 -35.4229   0.3625   4.0457   5.2103   5.8857   9.9152  11.2622
    11.5963  13.6745  17.0259

          k =-0.0000-0.0000 0.3771 (  9813 PWs)   bands (ev):

   -37.0074 -35.4743  -2.9280  -0.7032   5.1818   9.7996  16.4708  16.7294
    16.7294  17.8362  17.8362

          k = 2.5441 1.4688 0.0000 (  9808 PWs)   bands (ev):

   -36.9608 -35.4486  -1.8196   0.8623   6.2228   9.5685  10.4455  12.7864
    13.6896  16.2503  17.9642

          k = 1.6960 0.9792 0.1257 (  9790 PWs)   bands (ev):

   -36.9141 -35.4229   0.3507   4.0500   5.2557   6.0027   9.3856  11.2791
    11.6012  14.1305  16.7076

          k = 2.5441-1.4688-0.3771 (  9805 PWs)   bands (ev):

   -36.9608 -35.4486  -1.8127   0.8303   6.4014   9.4911  10.1815  12.7631
    13.6488  16.7912  17.8854

          k = 1.6960-1.9584-0.2514 (  9790 PWs)   bands (ev):

   -36.9142 -35.4229   0.3206   3.9126   5.1264   7.4545   9.7812   9.9371
    11.4717  12.8711  13.6494

          k = 0.0000 0.0000-0.7541 (  9876 PWs)   bands (ev):

   -37.0074 -35.4743  -2.9136  -0.7646   5.6495   8.8146  16.7161  16.7161
    17.8387  17.8387  18.7656

     the Fermi energy is    10.2206 ev

!    total energy              =     -45.08593661 Ry
     estimated scf accuracy    <          3.7E-09 Ry
     smearing contrib. (-TS)   =       0.00253463 Ry
     internal energy E=F+TS    =     -45.08847123 Ry

     The total energy is F=E-TS. E is the sum of the following terms:
     one-electron contribution =      -9.38536829 Ry
     hartree contribution      =       9.35521087 Ry
     xc contribution           =     -13.78669957 Ry
     ewald contribution        =     -31.27161424 Ry

     convergence has been achieved in  12 iterations

     Forces acting on atoms (cartesian axes, Ry/au):

     atom    1 type  1   force =    -0.00000000   -0.00000000   -0.00002099
     atom    2 type  1   force =    -0.00000000    0.00000000   -0.17373130
     atom    3 type  2   force =     0.00000000    0.00000000    0.29417450
     atom    4 type  2   force =     0.00000000   -0.00000000   -0.12042221
     The non-local contrib.  to forces
     atom    1 type  1   force =    -0.00000000    0.00000000   -0.01028692
     atom    2 type  1   force =    -0.00000000   -0.00000000   -0.03546851
     atom    3 type  2   force =     0.00000000   -0.00000000    0.11565354
     atom    4 type  2   force =    -0.00000000   -0.00000000    0.05469819
     The ionic contribution  to forces
     atom    1 type  1   force =    -0.00000000   -0.00000000    0.11243892
     atom    2 type  1   force =    -0.00000000   -0.00000000   -0.74543892
     atom    3 type  2   force =     0.00000000    0.00000000    4.12752165
     atom    4 type  2   force =    -0.00000000   -0.00000000   -3.49452165
     The local contribution  to forces
     atom    1 type  1   force =     0.00000000    0.00000000   -0.10221635
     atom    2 type  1   force =    -0.00000000    0.00000000    0.60721742
     atom    3 type  2   force =     0.00000000   -0.00000000   -3.93800574
     atom    4 type  2   force =     0.00000000    0.00000000    3.31855865
     The core correction contribution to forces
     atom    1 type  1   force =     0.00000000    0.00000000    0.00000000
     atom    2 type  1   force =     0.00000000    0.00000000    0.00000000
     atom    3 type  2   force =    -0.00000000   -0.00000000   -0.01094195
     atom    4 type  2   force =     0.00000000    0.00000000    0.00075116
     The Hubbard contrib.    to forces
     atom    1 type  1   force =     0.00000000    0.00000000    0.00000000
     atom    2 type  1   force =     0.00000000    0.00000000    0.00000000
     atom    3 type  2   force =     0.00000000    0.00000000    0.00000000
     atom    4 type  2   force =     0.00000000    0.00000000    0.00000000
     The SCF correction term to forces
     atom    1 type  1   force =    -0.00000000   -0.00000000    0.00004367
     atom    2 type  1   force =     0.00000000    0.00000000   -0.00004097
     atom    3 type  2   force =    -0.00000000   -0.00000000   -0.00005267
     atom    4 type  2   force =     0.00000000   -0.00000000    0.00009177

     Total force =     0.362247     Total SCF correction =     0.000122


     Computing stress (Cartesian axis) and pressure

          total   stress  (Ry/bohr**3)                   (kbar)     P=      874.16
   0.00561182  -0.00000000  -0.00000000          825.53       -0.00       -0.00
  -0.00000000   0.00561182   0.00000000           -0.00      825.53        0.00
  -0.00000000   0.00000000   0.00660356           -0.00        0.00      971.42

     Energy error            =      7.8E-02 Ry
     Gradient error          =      2.9E-01 Ry/Bohr
     Cell gradient error     =      4.7E+02 kbar

     number of scf cycles    =   4
     number of bfgs steps    =   3

     enthalpy           old  =     -44.1301648886 Ry
     enthalpy           new  =     -44.2085376932 Ry

     CASE: enthalpy          _new < enthalpy          _old

     new trust radius        =       0.1877492994 bohr
ibrav =      5
 celldm(1) =     12.52357555
 celldm(4) =      0.90870965
Input lattice vectors:
     0.15470791    -0.08932065     0.70174640
    -0.00000000     0.17864131     0.70174640
    -0.15470791    -0.08932065     0.70174640
New lattice vectors in INITIAL alat:
     0.15470791    -0.08932065     0.70174640
     0.00000000     0.17864131     0.70174640
    -0.15470791    -0.08932065     0.70174640
New lattice vectors in NEW alat (for information only):
     0.21364731    -0.12334933     0.96909224
     0.00000000     0.24669867     0.96909224
    -0.21364731    -0.12334933     0.96909224
Discrepancy in bohr =     0.000000    0.000000    0.000000
     new conv_thr            =       0.0000000100 Ry

     new unit-cell volume =    300.97861 a.u.^3 (    44.60043 Ang^3 )
     density =      2.60818 g/cm^3

CELL_PARAMETERS (alat= 17.29470907)
   0.154707909  -0.089320653   0.701746402
   0.000000000   0.178641305   0.701746402
  -0.154707909  -0.089320653   0.701746402

ATOMIC_POSITIONS (crystal)
Li            0.6010816057        0.6010816057        0.6010816057
Li            0.7707896531        0.7707896531        0.7707896531
Si            0.3261964376        0.3261964376        0.3261964376
Si            0.8767352936        0.8767352936        0.8767352936



     Writing config-only to output data dir ./output/LiSi.save/
     NEW-OLD atomic charge density approx. for the potential
     extrapolated charge   15.99118, renormalised to   14.00000

     total cpu time spent up to now is       68.3 secs

     Self-consistent Calculation

     iteration #  1     ecut=    80.00 Ry     beta= 0.70
     Davidson diagonalization with overlap
     c_bands:  1 eigenvalues not converged
     ethr =  1.00E-06,  avg # of iterations = 12.4

     total cpu time spent up to now is       71.0 secs

     total energy              =     -44.09477032 Ry
     estimated scf accuracy    <       1.14196929 Ry

     iteration #  2     ecut=    80.00 Ry     beta= 0.70
     Davidson diagonalization with overlap
     ethr =  8.16E-03,  avg # of iterations =  4.1

     total cpu time spent up to now is       72.2 secs

     total energy              =     -44.98289281 Ry
     estimated scf accuracy    <       8.54187579 Ry

     iteration #  3     ecut=    80.00 Ry     beta= 0.70
     Davidson diagonalization with overlap
     ethr =  8.16E-03,  avg # of iterations =  1.9

     total cpu time spent up to now is       73.1 secs

     total energy              =     -45.33805619 Ry
     estimated scf accuracy    <       1.21394242 Ry

     iteration #  4     ecut=    80.00 Ry     beta= 0.70
     Davidson diagonalization with overlap
     ethr =  8.16E-03,  avg # of iterations =  1.0

     total cpu time spent up to now is       73.8 secs

     total energy              =     -45.34716055 Ry
     estimated scf accuracy    <       0.39771611 Ry

     iteration #  5     ecut=    80.00 Ry     beta= 0.70
     Davidson diagonalization with overlap
     ethr =  2.84E-03,  avg # of iterations =  1.0

     total cpu time spent up to now is       74.6 secs

     total energy              =     -45.34616631 Ry
     estimated scf accuracy    <       0.26896430 Ry

     iteration #  6     ecut=    80.00 Ry     beta= 0.70
     Davidson diagonalization with overlap
     ethr =  1.92E-03,  avg # of iterations =  1.0

     total cpu time spent up to now is       75.3 secs

     total energy              =     -45.33569197 Ry
     estimated scf accuracy    <       0.21932950 Ry

     iteration #  7     ecut=    80.00 Ry     beta= 0.70
     Davidson diagonalization with overlap
     ethr =  1.57E-03,  avg # of iterations =  1.0

     total cpu time spent up to now is       76.1 secs

     total energy              =     -45.32060565 Ry
     estimated scf accuracy    <       0.16315780 Ry

     iteration #  8     ecut=    80.00 Ry     beta= 0.70
     Davidson diagonalization with overlap
     ethr =  1.17E-03,  avg # of iterations =  1.1

     total cpu time spent up to now is       76.8 secs

     total energy              =     -45.30565747 Ry
     estimated scf accuracy    <       0.09393963 Ry

     iteration #  9     ecut=    80.00 Ry     beta= 0.70
     Davidson diagonalization with overlap
     ethr =  6.71E-04,  avg # of iterations =  1.6
     Minimization algorithm failed to find Fermi energy: reverting to bisection
     Possible cause: smearing is larger than the electronic band-gap.

     total cpu time spent up to now is       77.6 secs

     total energy              =     -45.30899927 Ry
     estimated scf accuracy    <       0.02613903 Ry

     iteration # 10     ecut=    80.00 Ry     beta= 0.70
     Davidson diagonalization with overlap
     ethr =  1.87E-04,  avg # of iterations =  2.1

     total cpu time spent up to now is       78.4 secs

     total energy              =     -45.30141800 Ry
     estimated scf accuracy    <       0.02219577 Ry

     iteration # 11     ecut=    80.00 Ry     beta= 0.70
     Davidson diagonalization with overlap
     ethr =  1.59E-04,  avg # of iterations =  2.2
     Minimization algorithm failed to find Fermi energy: reverting to bisection
     Possible cause: smearing is larger than the electronic band-gap.

     total cpu time spent up to now is       79.3 secs

     total energy              =     -45.30577563 Ry
     estimated scf accuracy    <       0.00108366 Ry

     iteration # 12     ecut=    80.00 Ry     beta= 0.70
     Davidson diagonalization with overlap
     ethr =  7.74E-06,  avg # of iterations =  4.4

     total cpu time spent up to now is       80.2 secs

     total energy              =     -45.30588183 Ry
     estimated scf accuracy    <       0.00012140 Ry

     iteration # 13     ecut=    80.00 Ry     beta= 0.70
     Davidson diagonalization with overlap
     ethr =  8.67E-07,  avg # of iterations =  1.9

     total cpu time spent up to now is       81.0 secs

     total energy              =     -45.30589269 Ry
     estimated scf accuracy    <       0.00004944 Ry

     iteration # 14     ecut=    80.00 Ry     beta= 0.70
     Davidson diagonalization with overlap
     ethr =  3.53E-07,  avg # of iterations =  1.5

     total cpu time spent up to now is       81.8 secs

     total energy              =     -45.30589028 Ry
     estimated scf accuracy    <       0.00002807 Ry

     iteration # 15     ecut=    80.00 Ry     beta= 0.70
     Davidson diagonalization with overlap
     ethr =  2.01E-07,  avg # of iterations =  1.5
     Minimization algorithm failed to find Fermi energy: reverting to bisection
     Possible cause: smearing is larger than the electronic band-gap.

     total cpu time spent up to now is       82.6 secs

     total energy              =     -45.30589230 Ry
     estimated scf accuracy    <       0.00001696 Ry

     iteration # 16     ecut=    80.00 Ry     beta= 0.70
     Davidson diagonalization with overlap
     ethr =  1.21E-07,  avg # of iterations =  1.0
     Minimization algorithm failed to find Fermi energy: reverting to bisection
     Possible cause: smearing is larger than the electronic band-gap.

     total cpu time spent up to now is       83.4 secs

     total energy              =     -45.30589232 Ry
     estimated scf accuracy    <       0.00000382 Ry

     iteration # 17     ecut=    80.00 Ry     beta= 0.70
     Davidson diagonalization with overlap
     ethr =  2.73E-08,  avg # of iterations =  2.0
     Minimization algorithm failed to find Fermi energy: reverting to bisection
     Possible cause: smearing is larger than the electronic band-gap.

     total cpu time spent up to now is       84.2 secs

     total energy              =     -45.30589197 Ry
     estimated scf accuracy    <       0.00000326 Ry

     iteration # 18     ecut=    80.00 Ry     beta= 0.70
     Davidson diagonalization with overlap
     ethr =  2.33E-08,  avg # of iterations =  1.4
     Minimization algorithm failed to find Fermi energy: reverting to bisection
     Possible cause: smearing is larger than the electronic band-gap.

     total cpu time spent up to now is       85.0 secs

     total energy              =     -45.30589252 Ry
     estimated scf accuracy    <       0.00000009 Ry

     iteration # 19     ecut=    80.00 Ry     beta= 0.70
     Davidson diagonalization with overlap
     ethr =  6.68E-10,  avg # of iterations =  1.9

     total cpu time spent up to now is       85.8 secs

     End of self-consistent calculation

          k = 0.0000 0.0000 0.0000 (  9887 PWs)   bands (ev):

   -37.8069 -37.3822  -3.7600  -1.6672   3.4518   8.9809  12.4609  14.8920
    14.8920  15.3915  15.3915

          k =-0.8080-0.4665 0.1188 (  9817 PWs)   bands (ev):

   -37.7795 -37.3671  -2.6499  -0.1963   4.3627   7.9070   9.7484  11.1724
    11.3612  13.0982  15.0969

          k = 1.6159 0.9330-0.2375 (  9800 PWs)   bands (ev):

   -37.7520 -37.3520  -0.3451   2.6426   3.9122   4.4359   7.1927   9.6123
     9.8053  12.5431  13.8262

          k =-0.8080 0.4665 0.2375 (  9820 PWs)   bands (ev):

   -37.7795 -37.3671  -2.6428  -0.2283   4.4828   7.9283   9.3661  11.1445
    11.2249  13.7499  15.3584

          k = 1.6159 1.8659-0.1188 (  9816 PWs)   bands (ev):

   -37.7520 -37.3520  -0.4982   2.5774   4.0704   5.8627   7.7623   7.9756
     8.8577  11.1033  12.7113

          k = 0.8080 1.3995 0.0000 (  9817 PWs)   bands (ev):

   -37.7520 -37.3520  -0.5145   2.6869   4.0882   5.6788   7.6691   8.0626
     8.4735  11.5586  14.2065

          k = 1.6159-0.9330-0.4750 (  9800 PWs)   bands (ev):

   -37.7520 -37.3520  -0.3245   2.6893   3.8110   4.1551   8.0321   9.7647
     9.9568  11.3132  14.1006

          k =-0.0000-0.0000 0.3563 (  9813 PWs)   bands (ev):

   -37.8069 -37.3822  -3.7423  -1.7359   3.8079   7.8759  14.0454  14.8691
    14.8691  15.4049  15.4049

          k = 2.4239 1.3995 0.0000 (  9808 PWs)   bands (ev):

   -37.7795 -37.3671  -2.6245  -0.3128   4.8887   7.8586   8.5681  11.1648
    11.2964  14.0031  15.1623

          k = 1.6159 0.9330 0.1188 (  9790 PWs)   bands (ev):

   -37.7520 -37.3520  -0.3349   2.6630   3.8870   4.2573   7.6078   9.7434
     9.7847  11.9290  14.0236

          k = 2.4239-1.3995-0.3563 (  9805 PWs)   bands (ev):

   -37.7795 -37.3671  -2.6169  -0.3430   5.0562   7.8989   8.2177  11.1371
    11.2177  14.5832  15.5691

          k = 1.6159-1.8659-0.2375 (  9790 PWs)   bands (ev):

   -37.7520 -37.3520  -0.4815   2.4762   4.0530   6.0413   7.7559   8.0407
     9.4446  10.5667  11.6174

          k = 0.0000 0.0000-0.7125 (  9876 PWs)   bands (ev):

   -37.8069 -37.3822  -3.7237  -1.8029   4.2909   6.9253  14.8482  14.8482
    15.4157  15.4157  16.3020

     the Fermi energy is     8.2374 ev

!    total energy              =     -45.30589253 Ry
     estimated scf accuracy    <          6.0E-09 Ry
     smearing contrib. (-TS)   =       0.00440646 Ry
     internal energy E=F+TS    =     -45.31029900 Ry

     The total energy is F=E-TS. E is the sum of the following terms:
     one-electron contribution =     -11.05342773 Ry
     hartree contribution      =       9.28379667 Ry
     xc contribution           =     -13.47726663 Ry
     ewald contribution        =     -30.06340131 Ry

     convergence has been achieved in  19 iterations

     Forces acting on atoms (cartesian axes, Ry/au):

     atom    1 type  1   force =     0.00000000   -0.00000000    0.00368094
     atom    2 type  1   force =     0.00000000    0.00000000   -0.12863811
     atom    3 type  2   force =     0.00000000   -0.00000000    0.18720457
     atom    4 type  2   force =    -0.00000000    0.00000000   -0.06224741
     The non-local contrib.  to forces
     atom    1 type  1   force =    -0.00000000    0.00000000   -0.01754504
     atom    2 type  1   force =    -0.00000000   -0.00000000   -0.04312255
     atom    3 type  2   force =    -0.00000000    0.00000000    0.05156966
     atom    4 type  2   force =    -0.00000000   -0.00000000    0.08530817
     The ionic contribution  to forces
     atom    1 type  1   force =    -0.00000000   -0.00000000    0.07253777
     atom    2 type  1   force =    -0.00000000   -0.00000000   -0.53997070
     atom    3 type  2   force =    -0.00000000    0.00000000    3.54149513
     atom    4 type  2   force =     0.00000000   -0.00000000   -3.07406220
     The local contribution  to forces
     atom    1 type  1   force =     0.00000000   -0.00000000   -0.05130001
     atom    2 type  1   force =    -0.00000000    0.00000000    0.45445590
     atom    3 type  2   force =     0.00000000   -0.00000000   -3.40017162
     atom    4 type  2   force =    -0.00000000    0.00000000    2.92917272
     The core correction contribution to forces
     atom    1 type  1   force =     0.00000000    0.00000000    0.00000000
     atom    2 type  1   force =     0.00000000    0.00000000    0.00000000
     atom    3 type  2   force =     0.00000000   -0.00000000   -0.00579701
     atom    4 type  2   force =     0.00000000    0.00000000   -0.00256288
     The Hubbard contrib.    to forces
     atom    1 type  1   force =     0.00000000    0.00000000    0.00000000
     atom    2 type  1   force =     0.00000000    0.00000000    0.00000000
     atom    3 type  2   force =     0.00000000    0.00000000    0.00000000
     atom    4 type  2   force =     0.00000000    0.00000000    0.00000000
     The SCF correction term to forces
     atom    1 type  1   force =     0.00000000   -0.00000000   -0.00001264
     atom    2 type  1   force =     0.00000000    0.00000000   -0.00000162
     atom    3 type  2   force =    -0.00000000    0.00000000    0.00010754
     atom    4 type  2   force =     0.00000000   -0.00000000   -0.00010408

     Total force =     0.235545     Total SCF correction =     0.000150


     Computing stress (Cartesian axis) and pressure

          total   stress  (Ry/bohr**3)                   (kbar)     P=      499.95
   0.00322794  -0.00000000  -0.00000000          474.85       -0.00       -0.00
  -0.00000000   0.00322794   0.00000000           -0.00      474.85        0.00
   0.00000000   0.00000000   0.00373979            0.00        0.00      550.14

     Energy error            =      7.4E-02 Ry
     Gradient error          =      1.9E-01 Ry/Bohr
     Cell gradient error     =      5.0E+01 kbar

     number of scf cycles    =   5
     number of bfgs steps    =   4

     enthalpy           old  =     -44.2085376932 Ry
     enthalpy           new  =     -44.2828870348 Ry

     CASE: enthalpy          _new < enthalpy          _old

     new trust radius        =       0.1699686556 bohr
ibrav =      5
 celldm(1) =     12.62632557
 celldm(4) =      0.91138352
Input lattice vectors:
     0.15367597    -0.08872486     0.70817504
    -0.00000000     0.17744973     0.70817504
    -0.15367597    -0.08872486     0.70817504
New lattice vectors in INITIAL alat:
     0.15367597    -0.08872486     0.70817504
     0.00000000     0.17744973     0.70817504
    -0.15367597    -0.08872486     0.70817504
New lattice vectors in NEW alat (for information only):
     0.21049522    -0.12152947     0.97001152
     0.00000000     0.24305894     0.97001152
    -0.21049522    -0.12152947     0.97001152
Discrepancy in bohr =     0.000000    0.000000    0.000000
     new conv_thr            =       0.0000000100 Ry

     new unit-cell volume =    299.69738 a.u.^3 (    44.41057 Ang^3 )
     density =      2.61933 g/cm^3

CELL_PARAMETERS (alat= 17.29470907)
   0.153675970  -0.088724863   0.708175039
   0.000000000   0.177449725   0.708175039
  -0.153675970  -0.088724863   0.708175039

ATOMIC_POSITIONS (crystal)
Li            0.6010880357        0.6010880357        0.6010880357
Li            0.7676589717        0.7676589717        0.7676589717
Si            0.3308646878        0.3308646878        0.3308646878
Si            0.8751912948        0.8751912948        0.8751912948



     Writing config-only to output data dir ./output/LiSi.save/
     NEW-OLD atomic charge density approx. for the potential
     extrapolated charge   13.94019, renormalised to   14.00000

     total cpu time spent up to now is       88.3 secs

     Self-consistent Calculation

     iteration #  1     ecut=    80.00 Ry     beta= 0.70
     Davidson diagonalization with overlap
     ethr =  1.00E-06,  avg # of iterations =  9.1

     total cpu time spent up to now is       90.5 secs

     total energy              =     -45.34377126 Ry
     estimated scf accuracy    <       0.01723335 Ry

     iteration #  2     ecut=    80.00 Ry     beta= 0.70
     Davidson diagonalization with overlap
     ethr =  1.23E-04,  avg # of iterations =  3.2

     total cpu time spent up to now is       91.5 secs

     total energy              =     -45.32484009 Ry
     estimated scf accuracy    <       0.19185935 Ry

     iteration #  3     ecut=    80.00 Ry     beta= 0.70
     Davidson diagonalization with overlap
     ethr =  1.23E-04,  avg # of iterations =  2.7

     total cpu time spent up to now is       92.4 secs

     total energy              =     -45.35184329 Ry
     estimated scf accuracy    <       0.01568003 Ry

     iteration #  4     ecut=    80.00 Ry     beta= 0.70
     Davidson diagonalization with overlap
     ethr =  1.12E-04,  avg # of iterations =  1.2

     total cpu time spent up to now is       93.2 secs

     total energy              =     -45.35359187 Ry
     estimated scf accuracy    <       0.00113692 Ry

     iteration #  5     ecut=    80.00 Ry     beta= 0.70
     Davidson diagonalization with overlap
     ethr =  8.12E-06,  avg # of iterations =  1.9

     total cpu time spent up to now is       94.0 secs

     total energy              =     -45.35370909 Ry
     estimated scf accuracy    <       0.00007681 Ry

     iteration #  6     ecut=    80.00 Ry     beta= 0.70
     Davidson diagonalization with overlap
     ethr =  5.49E-07,  avg # of iterations =  2.8

     total cpu time spent up to now is       94.8 secs

     total energy              =     -45.35371917 Ry
     estimated scf accuracy    <       0.00000266 Ry

     iteration #  7     ecut=    80.00 Ry     beta= 0.70
     Davidson diagonalization with overlap
     ethr =  1.90E-08,  avg # of iterations =  3.2

     total cpu time spent up to now is       95.7 secs

     total energy              =     -45.35371996 Ry
     estimated scf accuracy    <       0.00000005 Ry

     iteration #  8     ecut=    80.00 Ry     beta= 0.70
     Davidson diagonalization with overlap
     ethr =  3.61E-10,  avg # of iterations =  3.0

     total cpu time spent up to now is       96.6 secs

     total energy              =     -45.35371996 Ry
     estimated scf accuracy    <       0.00000003 Ry

     iteration #  9     ecut=    80.00 Ry     beta= 0.70
     Davidson diagonalization with overlap
     ethr =  2.19E-10,  avg # of iterations =  1.5

     total cpu time spent up to now is       97.4 secs

     End of self-consistent calculation

          k = 0.0000 0.0000 0.0000 (  9887 PWs)   bands (ev):

   -37.7303 -37.0604  -3.6725  -1.8940   3.4032   8.5524  12.4251  15.4637
    15.4637  15.9453  15.9453

          k =-0.8134-0.4696 0.1177 (  9817 PWs)   bands (ev):

   -37.7023 -37.0439  -2.5042  -0.4014   4.3334   8.2314   9.4526  11.2407
    11.7291  13.1138  15.1206

          k = 1.6268 0.9392-0.2353 (  9800 PWs)   bands (ev):

   -37.6743 -37.0274  -0.0167   2.7473   3.7738   4.3102   7.1299   9.5846
    10.3475  12.5176  13.8247

          k =-0.8134 0.4696 0.2353 (  9820 PWs)   bands (ev):

   -37.7023 -37.0439  -2.4959  -0.4321   4.4523   8.2234   9.1478  11.0571
    11.6934  13.8224  15.3805

          k = 1.6268 1.8785-0.1177 (  9816 PWs)   bands (ev):

   -37.6744 -37.0274  -0.2366   2.4244   4.4631   5.9131   7.7021   7.9754
     8.7448  10.8416  12.7225

          k = 0.8134 1.4088 0.0000 (  9817 PWs)   bands (ev):

   -37.6744 -37.0274  -0.2565   2.5328   4.4795   5.7256   7.6018   8.0930
     8.3820  11.2727  14.1413

          k = 1.6268-0.9392-0.4707 (  9800 PWs)   bands (ev):

   -37.6743 -37.0274   0.0077   2.8028   3.6915   4.0152   7.8877  10.0946
    10.2959  11.1188  13.8724

          k =-0.0000-0.0000 0.3530 (  9813 PWs)   bands (ev):

   -37.7302 -37.0605  -3.6520  -1.9596   3.7513   7.5452  13.9151  15.4338
    15.4338  15.9651  15.9651

          k = 2.4402 1.4088 0.0000 (  9808 PWs)   bands (ev):

   -37.7023 -37.0439  -2.4740  -0.5141   4.8600   7.9219   8.5612  11.2597
    11.7193  14.0452  15.1862

          k = 1.6268 0.9392 0.1177 (  9790 PWs)   bands (ev):

   -37.6743 -37.0274  -0.0046   2.7707   3.7572   4.1285   7.5105   9.7564
    10.3212  11.8428  14.0209

          k = 2.4402-1.4088-0.3530 (  9805 PWs)   bands (ev):

   -37.7023 -37.0439  -2.4651  -0.5436   5.0333   7.7299   8.4607  11.1384
    11.6842  14.7496  15.7382

          k = 1.6268-1.8785-0.2353 (  9790 PWs)   bands (ev):

   -37.6744 -37.0274  -0.2158   2.3233   4.4455   6.0999   7.7944   7.9222
     9.2462  10.3472  11.7321

          k = 0.0000 0.0000-0.7060 (  9876 PWs)   bands (ev):

   -37.7302 -37.0605  -3.6305  -2.0242   4.2341   6.6284  15.4071  15.4071
    15.9807  15.9807  16.2723

     the Fermi energy is     8.3835 ev

!    total energy              =     -45.35371997 Ry
     estimated scf accuracy    <          3.9E-10 Ry
     smearing contrib. (-TS)   =       0.00168768 Ry
     internal energy E=F+TS    =     -45.35540765 Ry

     The total energy is F=E-TS. E is the sum of the following terms:
     one-electron contribution =      -9.73900037 Ry
     hartree contribution      =       8.64708502 Ry
     xc contribution           =     -13.43939767 Ry
     ewald contribution        =     -30.82409464 Ry

     convergence has been achieved in   9 iterations

     Forces acting on atoms (cartesian axes, Ry/au):

     atom    1 type  1   force =    -0.00000000    0.00000000    0.03077671
     atom    2 type  1   force =    -0.00000000    0.00000000   -0.09831726
     atom    3 type  2   force =     0.00000000    0.00000000    0.17255259
     atom    4 type  2   force =     0.00000000    0.00000000   -0.10501205
     The non-local contrib.  to forces
     atom    1 type  1   force =     0.00000000    0.00000000   -0.00918037
     atom    2 type  1   force =    -0.00000000   -0.00000000   -0.02917748
     atom    3 type  2   force =     0.00000000   -0.00000000    0.02435658
     atom    4 type  2   force =    -0.00000000   -0.00000000    0.05821192
     The ionic contribution  to forces
     atom    1 type  1   force =    -0.00000000    0.00000000    0.00598443
     atom    2 type  1   force =     0.00000000   -0.00000000   -0.10849059
     atom    3 type  2   force =    -0.00000000    0.00000000    3.05946067
     atom    4 type  2   force =    -0.00000000   -0.00000000   -2.95695450
     The local contribution  to forces
     atom    1 type  1   force =     0.00000000   -0.00000000    0.03395032
     atom    2 type  1   force =    -0.00000000    0.00000000    0.03936290
     atom    3 type  2   force =    -0.00000000   -0.00000000   -2.90783248
     atom    4 type  2   force =     0.00000000    0.00000000    2.79521686
     The core correction contribution to forces
     atom    1 type  1   force =     0.00000000    0.00000000    0.00000000
     atom    2 type  1   force =     0.00000000    0.00000000    0.00000000
     atom    3 type  2   force =     0.00000000   -0.00000000   -0.00345345
     atom    4 type  2   force =     0.00000000    0.00000000   -0.00147707
     The Hubbard contrib.    to forces
     atom    1 type  1   force =     0.00000000    0.00000000    0.00000000
     atom    2 type  1   force =     0.00000000    0.00000000    0.00000000
     atom    3 type  2   force =     0.00000000    0.00000000    0.00000000
     atom    4 type  2   force =     0.00000000    0.00000000    0.00000000
     The SCF correction term to forces
     atom    1 type  1   force =    -0.00000000    0.00000000    0.00002184
     atom    2 type  1   force =     0.00000000   -0.00000000   -0.00001258
     atom    3 type  2   force =    -0.00000000   -0.00000000    0.00002078
     atom    4 type  2   force =     0.00000000   -0.00000000   -0.00000975

     Total force =     0.226750     Total SCF correction =     0.000034


     Computing stress (Cartesian axis) and pressure

          total   stress  (Ry/bohr**3)                   (kbar)     P=      457.39
   0.00264938   0.00000000   0.00000000          389.74        0.00        0.00
  -0.00000000   0.00264938   0.00000000           -0.00      389.74        0.00
  -0.00000000   0.00000000   0.00402900           -0.00        0.00      592.69

     Energy error            =      5.2E-02 Ry
     Gradient error          =      1.7E-01 Ry/Bohr
     Cell gradient error     =      1.1E+02 kbar

     number of scf cycles    =   6
     number of bfgs steps    =   5

     enthalpy           old  =     -44.2828870348 Ry
     enthalpy           new  =     -44.3350692765 Ry

     CASE: enthalpy          _new < enthalpy          _old


     WARNING: bfgs curvature condition failed, Theta= 0.800
     new trust radius        =       0.1886782956 bohr
ibrav =      5
 celldm(1) =     12.73958836
 celldm(4) =      0.91423522
Input lattice vectors:
     0.15253925    -0.08806858     0.71524912
     0.00000000     0.17613716     0.71524912
    -0.15253925    -0.08806858     0.71524912
New lattice vectors in INITIAL alat:
     0.15253925    -0.08806858     0.71524912
     0.00000000     0.17613716     0.71524912
    -0.15253925    -0.08806858     0.71524912
New lattice vectors in NEW alat (for information only):
     0.20708063    -0.11955806     0.97099098
     0.00000000     0.23911612     0.97099098
    -0.20708063    -0.11955806     0.97099098
Discrepancy in bohr =     0.000000    0.000000    0.000000
     new conv_thr            =       0.0000000100 Ry

     new unit-cell volume =    298.22975 a.u.^3 (    44.19309 Ang^3 )
     density =      2.63222 g/cm^3

CELL_PARAMETERS (alat= 17.29470907)
   0.152539254  -0.088068579   0.715249117
   0.000000000   0.176137158   0.715249117
  -0.152539254  -0.088068579   0.715249117

ATOMIC_POSITIONS (crystal)
Li            0.6010954301        0.6010954301        0.6010954301
Li            0.7642154880        0.7642154880        0.7642154880
Si            0.3359997631        0.3359997631        0.3359997631
Si            0.8734923088        0.8734923088        0.8734923088



     Writing config-only to output data dir ./output/LiSi.save/
     NEW-OLD atomic charge density approx. for the potential
     extrapolated charge   13.93116, renormalised to   14.00000

     total cpu time spent up to now is      100.0 secs

     Self-consistent Calculation

     iteration #  1     ecut=    80.00 Ry     beta= 0.70
     Davidson diagonalization with overlap
     ethr =  1.00E-06,  avg # of iterations =  9.4

     total cpu time spent up to now is      102.2 secs

     total energy              =     -45.39310895 Ry
     estimated scf accuracy    <       0.01722994 Ry

     iteration #  2     ecut=    80.00 Ry     beta= 0.70
     Davidson diagonalization with overlap
     ethr =  1.23E-04,  avg # of iterations =  3.8

     total cpu time spent up to now is      103.2 secs

     total energy              =     -45.37526940 Ry
     estimated scf accuracy    <       0.20944693 Ry

     iteration #  3     ecut=    80.00 Ry     beta= 0.70
     Davidson diagonalization with overlap
     ethr =  1.23E-04,  avg # of iterations =  2.9

     total cpu time spent up to now is      104.1 secs

     total energy              =     -45.40231091 Ry
     estimated scf accuracy    <       0.00605953 Ry

     iteration #  4     ecut=    80.00 Ry     beta= 0.70
     Davidson diagonalization with overlap
     ethr =  4.33E-05,  avg # of iterations =  2.1

     total cpu time spent up to now is      104.9 secs

     total energy              =     -45.40338917 Ry
     estimated scf accuracy    <       0.00141306 Ry

     iteration #  5     ecut=    80.00 Ry     beta= 0.70
     Davidson diagonalization with overlap
     ethr =  1.01E-05,  avg # of iterations =  1.5

     total cpu time spent up to now is      105.7 secs

     total energy              =     -45.40349335 Ry
     estimated scf accuracy    <       0.00007875 Ry

     iteration #  6     ecut=    80.00 Ry     beta= 0.70
     Davidson diagonalization with overlap
     ethr =  5.62E-07,  avg # of iterations =  3.5

     total cpu time spent up to now is      106.6 secs

     total energy              =     -45.40351376 Ry
     estimated scf accuracy    <       0.00000504 Ry

     iteration #  7     ecut=    80.00 Ry     beta= 0.70
     Davidson diagonalization with overlap
     ethr =  3.60E-08,  avg # of iterations =  1.9

     total cpu time spent up to now is      107.4 secs

     total energy              =     -45.40351477 Ry
     estimated scf accuracy    <       0.00000002 Ry

     iteration #  8     ecut=    80.00 Ry     beta= 0.70
     Davidson diagonalization with overlap
[...]
     atom    4 type  2   force =     0.00000000    0.00000000    0.00043689
     The Hubbard contrib.    to forces
     atom    1 type  1   force =     0.00000000    0.00000000    0.00000000
     atom    2 type  1   force =     0.00000000    0.00000000    0.00000000
     atom    3 type  2   force =     0.00000000    0.00000000    0.00000000
     atom    4 type  2   force =     0.00000000    0.00000000    0.00000000
     The SCF correction term to forces
     atom    1 type  1   force =     0.00000000   -0.00000000    0.00000040
     atom    2 type  1   force =     0.00000000    0.00000000   -0.00000053
     atom    3 type  2   force =    -0.00000000   -0.00000000   -0.00000064
     atom    4 type  2   force =     0.00000000    0.00000000    0.00000072

     Total force =     0.000152     Total SCF correction =     0.000001


     Computing stress (Cartesian axis) and pressure

          total   stress  (Ry/bohr**3)                   (kbar)     P=      499.79
   0.00339845   0.00000000  -0.00000000          499.93        0.00       -0.00
   0.00000000   0.00339845   0.00000000            0.00      499.93        0.00
  -0.00000000   0.00000000   0.00339554           -0.00        0.00      499.50

     Energy error            =      1.4E-06 Ry
     Gradient error          =      1.2E-04 Ry/Bohr
     Cell gradient error     =      5.0E-01 kbar
ibrav =      5
 celldm(1) =     14.57911033
 celldm(4) =      0.95162037
Input lattice vectors:
     0.13110947    -0.07569609     0.82927516
     0.00000000     0.15139217     0.82927516
    -0.13110947    -0.07569609     0.82927516
New lattice vectors in INITIAL alat:
     0.13110947    -0.07569609     0.82927516
     0.00000000     0.15139217     0.82927516
    -0.13110947    -0.07569609     0.82927516
New lattice vectors in NEW alat (for information only):
     0.15553076    -0.08979573     0.98374128
     0.00000000     0.17959145     0.98374128
    -0.15553076    -0.08979573     0.98374128
Discrepancy in bohr =     0.000000    0.000000    0.000000

     bfgs converged in  20 scf cycles and  19 bfgs steps
     (criteria: energy <  1.0E-04 Ry, force <  1.0E-03 Ry/Bohr, cell <  1.0E+00 kbar)

     End of BFGS Geometry Optimization

     Final enthalpy           =     -44.6000945167 Ry

     File ./output/LiSi.bfgs deleted, as requested
Begin final coordinates
     new unit-cell volume =    255.44486 a.u.^3 (    37.85302 Ang^3 )
     density =      3.07309 g/cm^3

CELL_PARAMETERS (alat= 17.29470907)
   0.131109467  -0.075696086   0.829275164
   0.000000000   0.151392172   0.829275164
  -0.131109467  -0.075696086   0.829275164

ATOMIC_POSITIONS (crystal)
Li            0.6049318536        0.6049318536        0.6049318536
Li            0.7625858099        0.7625858099        0.7625858099
Si            0.3503841994        0.3503841994        0.3503841994
Si            0.8569011271        0.8569011271        0.8569011271
End final coordinates



     Writing config-only to output data dir ./output/LiSi.save/

     Final scf calculation at the relaxed structure.
     The G-vectors are recalculated for the final unit cell
     Results may differ from those at the preceding step.

     Parallelization info
     --------------------
     sticks:   dense  smooth     PW     G-vecs:    dense   smooth      PW
     Min         206     206     67                 3079     3079     572
     Max         207     207     68                 3080     3080     573
     Sum        1651    1651    541                24639    24639    4577

     Using Slab Decomposition



     bravais-lattice index     =            5
     lattice parameter (alat)  =      17.2947  a.u.
     unit-cell volume          =     255.4449 (a.u.)^3
     number of atoms/cell      =            4
     number of atomic types    =            2
     number of electrons       =        14.00
     number of Kohn-Sham states=           11
     kinetic-energy cutoff     =      80.0000  Ry
     charge density cutoff     =     320.0000  Ry
     scf convergence threshold =      1.0E-10
     mixing beta               =       0.7000
     number of iterations used =            8  plain     mixing
     press convergence thresh. =      1.0E+00
     Exchange-correlation= PBE
                           (   1   4   3   4   0   0   0)

     celldm(1)=  17.294709  celldm(2)=   0.000000  celldm(3)=   0.000000
     celldm(4)=   0.906483  celldm(5)=   0.000000  celldm(6)=   0.000000

     crystal axes: (cart. coord. in units of alat)
               a(1) = (   0.131109  -0.075696   0.829275 )  
               a(2) = (   0.000000   0.151392   0.829275 )  
               a(3) = (  -0.131109  -0.075696   0.829275 )  

     reciprocal axes: (cart. coord. in units 2 pi/alat)
               b(1) = (  3.813607 -2.201787  0.401957 )  
               b(2) = ( -0.000000  4.403574  0.401957 )  
               b(3) = ( -3.813607 -2.201787  0.401957 )  


     PseudoPot. # 1 for Li read from file:
     ../pseudo/Li_ONCV_PBE_sr.upf
     MD5 check sum: 50ff420e78310ffa21704f3361e624a4
     Pseudo is Norm-conserving, Zval =  3.0
     Generated using ONCVPSP code by D. R. Hamann
     Using radial grid of 1944 points,  4 beta functions with: 
                l(1) =   0
                l(2) =   0
                l(3) =   1
                l(4) =   1

     PseudoPot. # 2 for Si read from file:
     ../pseudo/Si_ONCV_PBE_sr.upf
     MD5 check sum: e543d271109d17c80368dfa7c482276d
     Pseudo is Norm-conserving + core correction, Zval =  4.0
     Generated using ONCVPSP code by D. R. Hamann
     Using radial grid of 1510 points,  6 beta functions with: 
                l(1) =   0
                l(2) =   0
                l(3) =   1
                l(4) =   1
                l(5) =   2
                l(6) =   2

     atomic species   valence    mass     pseudopotential
        Li             3.00     6.94100     Li( 1.00)
        Si             4.00    28.08550     Si( 1.00)

      6 Sym. Ops. (no inversion) found



   Cartesian axes

     site n.     atom                  positions (alat units)
         1           Li  tau(   1) = (   0.0000000  -0.0000000   1.5049649  )
         2           Li  tau(   2) = (   0.0000000   0.0000000   1.8971804  )
         3           Si  tau(   3) = (   0.0000000   0.0000000   0.8716947  )
         4           Si  tau(   4) = (   0.0000000   0.0000000   2.1318205  )

     number of k points=    13  Marzari-Vanderbilt smearing, width (Ry)=  0.0200
                       cart. coord. in units 2pi/alat
        k(    1) = (   0.0000000   0.0000000   0.0000000), wk =   0.0312500
        k(    2) = (  -0.9534018  -0.5504468   0.1004894), wk =   0.1875000
        k(    3) = (   1.9068036   1.1008936  -0.2009787), wk =   0.0937500
        k(    4) = (  -0.9534018   0.5504468   0.2009787), wk =   0.1875000
        k(    5) = (   1.9068036   2.2017871  -0.1004894), wk =   0.3750000
        k(    6) = (   0.9534018   1.6513403   0.0000000), wk =   0.1875000
        k(    7) = (   1.9068036  -1.1008936  -0.4019575), wk =   0.0937500
        k(    8) = (  -0.0000000  -0.0000000   0.3014681), wk =   0.0625000
        k(    9) = (   2.8602054   1.6513403   0.0000000), wk =   0.1875000
        k(   10) = (   1.9068036   1.1008936   0.1004894), wk =   0.1875000
        k(   11) = (   2.8602054  -1.6513403  -0.3014681), wk =   0.1875000
        k(   12) = (   1.9068036  -2.2017871  -0.2009787), wk =   0.1875000
        k(   13) = (   0.0000000   0.0000000  -0.6029362), wk =   0.0312500

     Dense  grid:    24639 G-vectors     FFT dimensions: (  90,  90,  90)

     Estimated max dynamical RAM per process >      21.19 MB

     Estimated total dynamical RAM >     169.50 MB

     Initial potential from superposition of free atoms

     starting charge      13.9897, renormalised to      14.0000
     Starting wfcs are   12 randomized atomic wfcs

     total cpu time spent up to now is      262.6 secs

     Self-consistent Calculation

     iteration #  1     ecut=    80.00 Ry     beta= 0.70
     Davidson diagonalization with overlap
     c_bands:  2 eigenvalues not converged
     c_bands:  2 eigenvalues not converged
     c_bands:  1 eigenvalues not converged
     c_bands:  1 eigenvalues not converged
     c_bands:  1 eigenvalues not converged
     c_bands:  1 eigenvalues not converged
     c_bands:  2 eigenvalues not converged
     c_bands:  1 eigenvalues not converged
     c_bands:  3 eigenvalues not converged
     ethr =  1.00E-06,  avg # of iterations = 19.3

     total cpu time spent up to now is      265.0 secs

     total energy              =     -45.32332294 Ry
     estimated scf accuracy    <       0.21763549 Ry

     iteration #  2     ecut=    80.00 Ry     beta= 0.70
     Davidson diagonalization with overlap
     ethr =  1.55E-03,  avg # of iterations =  4.5

     total cpu time spent up to now is      265.7 secs

     total energy              =     -44.99570073 Ry
     estimated scf accuracy    <       6.14282476 Ry

     iteration #  3     ecut=    80.00 Ry     beta= 0.70
     Davidson diagonalization with overlap
     ethr =  1.55E-03,  avg # of iterations =  2.8

     total cpu time spent up to now is      266.4 secs

     total energy              =     -45.45450716 Ry
     estimated scf accuracy    <       0.07327747 Ry

     iteration #  4     ecut=    80.00 Ry     beta= 0.70
     Davidson diagonalization with overlap
     ethr =  5.23E-04,  avg # of iterations =  3.2

     total cpu time spent up to now is      267.0 secs

     total energy              =     -45.46512624 Ry
     estimated scf accuracy    <       0.02470872 Ry

     iteration #  5     ecut=    80.00 Ry     beta= 0.70
     Davidson diagonalization with overlap
     ethr =  1.76E-04,  avg # of iterations =  1.8

     total cpu time spent up to now is      267.5 secs

     total energy              =     -45.46801347 Ry
     estimated scf accuracy    <       0.00131783 Ry

     iteration #  6     ecut=    80.00 Ry     beta= 0.70
     Davidson diagonalization with overlap
     ethr =  9.41E-06,  avg # of iterations =  6.5

     total cpu time spent up to now is      268.3 secs

     total energy              =     -45.46812932 Ry
     estimated scf accuracy    <       0.00064598 Ry

     iteration #  7     ecut=    80.00 Ry     beta= 0.70
     Davidson diagonalization with overlap
     ethr =  4.61E-06,  avg # of iterations =  3.9

     total cpu time spent up to now is      268.9 secs

     total energy              =     -45.46817578 Ry
     estimated scf accuracy    <       0.00067431 Ry

     iteration #  8     ecut=    80.00 Ry     beta= 0.70
     Davidson diagonalization with overlap
     ethr =  4.61E-06,  avg # of iterations =  1.1

     total cpu time spent up to now is      269.4 secs

     total energy              =     -45.46823104 Ry
     estimated scf accuracy    <       0.00006416 Ry

     iteration #  9     ecut=    80.00 Ry     beta= 0.70
     Davidson diagonalization with overlap
     ethr =  4.58E-07,  avg # of iterations =  1.1

     total cpu time spent up to now is      269.9 secs

     total energy              =     -45.46823332 Ry
     estimated scf accuracy    <       0.00000201 Ry

     iteration # 10     ecut=    80.00 Ry     beta= 0.70
     Davidson diagonalization with overlap
     ethr =  1.43E-08,  avg # of iterations =  1.4

     total cpu time spent up to now is      270.5 secs

     total energy              =     -45.46823352 Ry
     estimated scf accuracy    <       0.00000011 Ry

     iteration # 11     ecut=    80.00 Ry     beta= 0.70
     Davidson diagonalization with overlap
     ethr =  7.92E-10,  avg # of iterations =  1.8

     total cpu time spent up to now is      271.0 secs

     total energy              =     -45.46823354 Ry
     estimated scf accuracy    <          1.6E-10 Ry

     iteration # 12     ecut=    80.00 Ry     beta= 0.70
     Davidson diagonalization with overlap
     ethr =  1.17E-12,  avg # of iterations =  4.0

     total cpu time spent up to now is      271.7 secs

     End of self-consistent calculation

          k = 0.0000 0.0000 0.0000 (  3113 PWs)   bands (ev):

   -35.3402 -34.9683  -3.4908  -3.1963   4.0326   5.5215  11.7793  17.6109
    21.0824  25.1252  25.1256

          k =-0.9534-0.5504 0.1005 (  3110 PWs)   bands (ev):

   -35.2588 -34.8818  -1.4893  -1.1824   5.5018   7.3912  11.9050  14.0475
    15.2570  19.0251  19.6685

          k = 1.9068 1.1009-0.2010 (  3070 PWs)   bands (ev):

   -35.1768 -34.7945   3.7437   4.2960   4.7251   5.4309   8.9102  11.3819
    13.3645  14.2667  15.9520

          k =-0.9534 0.5504 0.2010 (  3108 PWs)   bands (ev):

   -35.2588 -34.8818  -1.4859  -1.1869   5.5640   7.2580  12.0725  14.1314
    15.2456  18.1073  20.3732

          k = 1.9068 2.2018-0.1005 (  3067 PWs)   bands (ev):

   -35.1769 -34.7947   2.4034   2.7402   8.3963   9.5003   9.8611  10.4446
    11.0277  11.3231  15.3495

          k = 0.9534 1.6513 0.0000 (  3082 PWs)   bands (ev):

   -35.1769 -34.7947   2.3663   2.7894   8.2062   9.6924   9.7950  10.6126
    10.9457  11.4152  15.2901

          k = 1.9068-1.1009-0.4020 (  3070 PWs)   bands (ev):

   -35.1768 -34.7945   3.9230   4.0891   4.7419   5.3497   9.3786  11.2691
    12.6490  13.7311  17.6589

          k =-0.0000-0.0000 0.3015 (  3110 PWs)   bands (ev):

   -35.3402 -34.9683  -3.4903  -3.1973   4.1635   5.2894  12.3698  16.1782
    22.8070  25.1024  25.1025

          k = 2.8602 1.6513 0.0000 (  3101 PWs)   bands (ev):

   -35.2588 -34.8818  -1.4760  -1.1999   5.8087   6.8317  12.7680  13.8897
    15.3391  17.2179  20.2589

          k = 1.9068 1.1009 0.1005 (  3073 PWs)   bands (ev):

   -35.1768 -34.7945   3.8085   4.2190   4.7310   5.3901   9.1259  11.3386
    13.0619  13.8342  16.8708

          k = 2.8602-1.6513-0.3015 (  3107 PWs)   bands (ev):

   -35.2588 -34.8818  -1.4721  -1.2048   5.9482   6.6352  12.9511  14.0202
    15.3700  16.6538  20.3434

          k = 1.9068-2.2018-0.2010 (  3072 PWs)   bands (ev):

   -35.1769 -34.7947   2.4553   2.6763   8.6937   9.2691   9.7887  10.4134
    10.8931  11.4152  15.1060

          k = 0.0000 0.0000-0.6029 (  3106 PWs)   bands (ev):

   -35.3402 -34.9683  -3.4897  -3.1983   4.3689   4.9902  13.4747  14.5833
    25.0502  25.0814  25.0816

     the Fermi energy is    10.8153 ev

!    total energy              =     -45.46823354 Ry
     estimated scf accuracy    <          2.3E-11 Ry
     smearing contrib. (-TS)   =       0.00047471 Ry
     internal energy E=F+TS    =     -45.46870825 Ry

     The total energy is F=E-TS. E is the sum of the following terms:
     one-electron contribution =      -2.58317587 Ry
     hartree contribution      =       6.11047466 Ry
     xc contribution           =     -13.66625572 Ry
     ewald contribution        =     -35.32975132 Ry

     convergence has been achieved in  12 iterations

     Forces acting on atoms (cartesian axes, Ry/au):

     atom    1 type  1   force =     0.00000000    0.00000000    0.00000810
     atom    2 type  1   force =     0.00000000    0.00000000    0.00002413
     atom    3 type  2   force =     0.00000000   -0.00000000    0.00008965
     atom    4 type  2   force =     0.00000000   -0.00000000   -0.00012188
     The non-local contrib.  to forces
     atom    1 type  1   force =    -0.00000000   -0.00000000   -0.01588144
     atom    2 type  1   force =     0.00000000    0.00000000    0.05074419
     atom    3 type  2   force =     0.00000000    0.00000000   -0.04985089
     atom    4 type  2   force =    -0.00000000   -0.00000000    0.00271901
     The ionic contribution  to forces
     atom    1 type  1   force =     0.00000000    0.00000000   -0.45793748
     atom    2 type  1   force =     0.00000000    0.00000000    0.94337684
     atom    3 type  2   force =    -0.00000000   -0.00000000    0.44467370
     atom    4 type  2   force =     0.00000000   -0.00000000   -0.93011305
     The local contribution  to forces
     atom    1 type  1   force =    -0.00000000    0.00000000    0.47382109
     atom    2 type  1   force =    -0.00000000   -0.00000000   -0.99409135
     atom    3 type  2   force =     0.00000000    0.00000000   -0.39757927
     atom    4 type  2   force =     0.00000000    0.00000000    0.92683290
     The core correction contribution to forces
     atom    1 type  1   force =     0.00000000    0.00000000    0.00000000
     atom    2 type  1   force =     0.00000000    0.00000000    0.00000000
     atom    3 type  2   force =     0.00000000    0.00000000    0.00284686
     atom    4 type  2   force =     0.00000000    0.00000000    0.00043697
     The Hubbard contrib.    to forces
     atom    1 type  1   force =     0.00000000    0.00000000    0.00000000
     atom    2 type  1   force =     0.00000000    0.00000000    0.00000000
     atom    3 type  2   force =     0.00000000    0.00000000    0.00000000
     atom    4 type  2   force =     0.00000000    0.00000000    0.00000000
     The SCF correction term to forces
     atom    1 type  1   force =    -0.00000000   -0.00000000    0.00000539
     atom    2 type  1   force =    -0.00000000   -0.00000000   -0.00000608
     atom    3 type  2   force =     0.00000000    0.00000000   -0.00000128
     atom    4 type  2   force =     0.00000000    0.00000000    0.00000177

     Total force =     0.000153     Total SCF correction =     0.000008


     Computing stress (Cartesian axis) and pressure

          total   stress  (Ry/bohr**3)                   (kbar)     P=      499.78
   0.00339847  -0.00000000   0.00000000          499.93       -0.00        0.00
   0.00000000   0.00339847   0.00000000            0.00      499.93        0.00
   0.00000000   0.00000000   0.00339533            0.00        0.00      499.47


     Writing all to output data dir ./output/LiSi.save/

     init_run     :      2.15s CPU      2.56s WALL (       2 calls)
     electrons    :    201.65s CPU    217.29s WALL (      21 calls)
     update_pot   :     15.45s CPU     15.62s WALL (      19 calls)
     forces       :      9.28s CPU      9.47s WALL (      21 calls)
     stress       :     24.80s CPU     26.62s WALL (      21 calls)

     Called by init_run:
     wfcinit      :      0.58s CPU      0.76s WALL (       2 calls)
     potinit      :      0.61s CPU      0.71s WALL (       2 calls)
     hinit0       :      0.85s CPU      0.93s WALL (       2 calls)

     Called by electrons:
     c_bands      :    161.70s CPU    173.73s WALL (     217 calls)
     sum_band     :     27.07s CPU     29.22s WALL (     217 calls)
     v_of_rho     :     13.37s CPU     14.23s WALL (     236 calls)
     mix_rho      :      0.50s CPU      0.67s WALL (     217 calls)

     Called by c_bands:
     init_us_2    :      1.78s CPU      1.98s WALL (    6214 calls)
     init_us_2:cp :      1.77s CPU      1.97s WALL (    6214 calls)
     cegterg      :    157.93s CPU    168.97s WALL (    2821 calls)

     Called by *egterg:
     cdiaghg      :      1.64s CPU      1.90s WALL (   12322 calls)
     h_psi        :    152.47s CPU    163.12s WALL (   12621 calls)
     g_psi        :      0.23s CPU      0.24s WALL (    9774 calls)

     Called by h_psi:
     h_psi:calbec :      2.29s CPU      2.49s WALL (   12621 calls)
     vloc_psi     :    148.20s CPU    158.47s WALL (   12621 calls)
     add_vuspsi   :      1.82s CPU      1.95s WALL (   12621 calls)

     General routines
     calbec       :      2.77s CPU      2.99s WALL (   13986 calls)
     fft          :      4.19s CPU      5.24s WALL (    2885 calls)
     ffts         :      0.24s CPU      0.29s WALL (     217 calls)
     fftw         :    150.82s CPU    161.32s WALL (  212787 calls)

     Parallel routines

     PWSCF        :   4m13.66s CPU   4m32.47s WALL


   This run was terminated on:  22:46:23  11Feb2025            

=------------------------------------------------------------------------------=
   JOB DONE.
=------------------------------------------------------------------------------=
