
     Program PWSCF v.7.2 starts on 11Feb2025 at 22:11:37 

     This program is part of the open-source Quantum ESPRESSO suite
     for quantum simulation of materials; please cite
         "P. Giannozzi et al., J. Phys.:Condens. Matter 21 395502 (2009);
         "P. Giannozzi et al., J. Phys.:Condens. Matter 29 465901 (2017);
         "P. Giannozzi et al., J. Chem. Phys. 152 154105 (2020);
          URL http://www.quantum-espresso.org", 
     in publications or presentations arising from this work. More details at
     http://www.quantum-espresso.org/quote

     Parallel version (MPI & OpenMP), running on       8 processor cores
     Number of MPI processes:                 8
     Threads/MPI process:                     1

     MPI processes distributed on     1 nodes
     480599 MiB available memory on the printing compute node when the environment starts

     Waiting for input...
     Reading input from standard input

     Current dimensions of program PWSCF are:
     Max number of different atomic species (ntypx) = 10
     Max number of k-points (npk) =  40000
     Max angular momentum in pseudopotentials (lmaxx) =  4

     R & G space division:  proc/nbgrp/npool/nimage =       8
     Subspace diagonalization in iterative solution of the eigenvalue problem:
     a serial algorithm will be used


     Parallelization info
     --------------------
     sticks:   dense  smooth     PW     G-vecs:    dense   smooth      PW
     Min          56      56     17                 1508     1508     255
     Max          58      58     18                 1511     1511     260
     Sum         451     451    139                12071    12071    2057

     Using Slab Decomposition



     bravais-lattice index     =            4
     lattice parameter (alat)  =       4.5331  a.u.
     unit-cell volume          =     125.2479 (a.u.)^3
     number of atoms/cell      =            2
     number of atomic types    =            2
     number of electrons       =         7.00
     number of Kohn-Sham states=            8
     kinetic-energy cutoff     =      80.0000  Ry
     charge density cutoff     =     320.0000  Ry
     scf convergence threshold =      1.0E-08
     mixing beta               =       0.7000
     number of iterations used =            8  plain     mixing
     energy convergence thresh.=      1.0E-04
     force convergence thresh. =      1.0E-03
     press convergence thresh. =      1.0E+00
     Exchange-correlation= PBE
                           (   1   4   3   4   0   0   0)
     nstep                     =           50


     celldm(1)=   4.533124  celldm(2)=   0.000000  celldm(3)=   1.552555
     celldm(4)=   0.000000  celldm(5)=   0.000000  celldm(6)=   0.000000

     crystal axes: (cart. coord. in units of alat)
               a(1) = (   1.000000   0.000000   0.000000 )  
               a(2) = (  -0.500000   0.866025   0.000000 )  
               a(3) = (   0.000000   0.000000   1.552555 )  

     reciprocal axes: (cart. coord. in units 2 pi/alat)
               b(1) = (  1.000000  0.577350 -0.000000 )  
               b(2) = (  0.000000  1.154701  0.000000 )  
               b(3) = (  0.000000 -0.000000  0.644100 )  


     PseudoPot. # 1 for Li read from file:
     ../pseudo/Li_ONCV_PBE_sr.upf
     MD5 check sum: 50ff420e78310ffa21704f3361e624a4
     Pseudo is Norm-conserving, Zval =  3.0
     Generated using ONCVPSP code by D. R. Hamann
     Using radial grid of 1944 points,  4 beta functions with: 
                l(1) =   0
                l(2) =   0
                l(3) =   1
                l(4) =   1

     PseudoPot. # 2 for Si read from file:
     ../pseudo/Si_ONCV_PBE_sr.upf
     MD5 check sum: e543d271109d17c80368dfa7c482276d
     Pseudo is Norm-conserving + core correction, Zval =  4.0
     Generated using ONCVPSP code by D. R. Hamann
     Using radial grid of 1510 points,  6 beta functions with: 
                l(1) =   0
                l(2) =   0
                l(3) =   1
                l(4) =   1
                l(5) =   2
                l(6) =   2

     atomic species   valence    mass     pseudopotential
        Li             3.00     6.94100     Li( 1.00)
        Si             4.00    28.08550     Si( 1.00)

     12 Sym. Ops. (no inversion) found



   Cartesian axes

     site n.     atom                  positions (alat units)
         1           Li  tau(   1) = (  -0.0000000   0.5773503   0.7762774  )
         2           Si  tau(   2) = (   0.0000000   0.0000000   0.0000000  )

     number of k points=    56  Marzari-Vanderbilt smearing, width (Ry)=  0.0200
                       cart. coord. in units 2pi/alat
        k(    1) = (   0.0000000   0.0000000   0.0000000), wk =   0.0033333
        k(    2) = (   0.0000000   0.0000000   0.1073499), wk =   0.0066667
        k(    3) = (   0.0000000   0.0000000   0.2146999), wk =   0.0066667
        k(    4) = (   0.0000000   0.0000000  -0.3220498), wk =   0.0033333
        k(    5) = (   0.0000000   0.1154701   0.0000000), wk =   0.0200000
        k(    6) = (   0.0000000   0.1154701   0.1073499), wk =   0.0400000
        k(    7) = (   0.0000000   0.1154701   0.2146999), wk =   0.0400000
        k(    8) = (   0.0000000   0.1154701  -0.3220498), wk =   0.0200000
        k(    9) = (   0.0000000   0.2309401   0.0000000), wk =   0.0200000
        k(   10) = (   0.0000000   0.2309401   0.1073499), wk =   0.0400000
        k(   11) = (   0.0000000   0.2309401   0.2146999), wk =   0.0400000
        k(   12) = (   0.0000000   0.2309401  -0.3220498), wk =   0.0200000
        k(   13) = (   0.0000000   0.3464102   0.0000000), wk =   0.0200000
        k(   14) = (   0.0000000   0.3464102   0.1073499), wk =   0.0400000
        k(   15) = (   0.0000000   0.3464102   0.2146999), wk =   0.0400000
        k(   16) = (   0.0000000   0.3464102  -0.3220498), wk =   0.0200000
        k(   17) = (   0.0000000   0.4618802   0.0000000), wk =   0.0200000
        k(   18) = (   0.0000000   0.4618802   0.1073499), wk =   0.0400000
        k(   19) = (   0.0000000   0.4618802   0.2146999), wk =   0.0400000
        k(   20) = (   0.0000000   0.4618802  -0.3220498), wk =   0.0200000
        k(   21) = (   0.0000000  -0.5773503   0.0000000), wk =   0.0100000
        k(   22) = (   0.0000000  -0.5773503   0.1073499), wk =   0.0200000
        k(   23) = (   0.0000000  -0.5773503   0.2146999), wk =   0.0200000
        k(   24) = (   0.0000000  -0.5773503  -0.3220498), wk =   0.0100000
        k(   25) = (   0.1000000   0.1732051   0.0000000), wk =   0.0200000
        k(   26) = (   0.1000000   0.1732051   0.1073499), wk =   0.0400000
        k(   27) = (   0.1000000   0.1732051   0.2146999), wk =   0.0400000
        k(   28) = (   0.1000000   0.1732051  -0.3220498), wk =   0.0200000
        k(   29) = (   0.1000000   0.2886751   0.0000000), wk =   0.0400000
        k(   30) = (   0.1000000   0.2886751   0.1073499), wk =   0.0800000
        k(   31) = (   0.1000000   0.2886751   0.2146999), wk =   0.0800000
        k(   32) = (   0.1000000   0.2886751  -0.3220498), wk =   0.0400000
        k(   33) = (   0.1000000   0.4041452   0.0000000), wk =   0.0400000
        k(   34) = (   0.1000000   0.4041452   0.1073499), wk =   0.0800000
        k(   35) = (   0.1000000   0.4041452   0.2146999), wk =   0.0800000
        k(   36) = (   0.1000000   0.4041452  -0.3220498), wk =   0.0400000
        k(   37) = (   0.1000000   0.5196152   0.0000000), wk =   0.0400000
        k(   38) = (   0.1000000   0.5196152   0.1073499), wk =   0.0800000
        k(   39) = (   0.1000000   0.5196152   0.2146999), wk =   0.0800000
        k(   40) = (   0.1000000   0.5196152  -0.3220498), wk =   0.0400000
        k(   41) = (   0.2000000   0.3464102   0.0000000), wk =   0.0200000
        k(   42) = (   0.2000000   0.3464102   0.1073499), wk =   0.0400000
        k(   43) = (   0.2000000   0.3464102   0.2146999), wk =   0.0400000
        k(   44) = (   0.2000000   0.3464102  -0.3220498), wk =   0.0200000
        k(   45) = (   0.2000000   0.4618802   0.0000000), wk =   0.0400000
        k(   46) = (   0.2000000   0.4618802   0.1073499), wk =   0.0800000
        k(   47) = (   0.2000000   0.4618802   0.2146999), wk =   0.0800000
        k(   48) = (   0.2000000   0.4618802  -0.3220498), wk =   0.0400000
        k(   49) = (   0.2000000   0.5773503   0.0000000), wk =   0.0200000
        k(   50) = (   0.2000000   0.5773503   0.1073499), wk =   0.0400000
        k(   51) = (   0.2000000   0.5773503   0.2146999), wk =   0.0400000
        k(   52) = (   0.2000000   0.5773503  -0.3220498), wk =   0.0200000
        k(   53) = (   0.3000000   0.5196152   0.0000000), wk =   0.0200000
        k(   54) = (   0.3000000   0.5196152   0.1073499), wk =   0.0400000
        k(   55) = (   0.3000000   0.5196152   0.2146999), wk =   0.0400000
        k(   56) = (   0.3000000   0.5196152  -0.3220498), wk =   0.0200000

     Dense  grid:    12071 G-vectors     FFT dimensions: (  25,  25,  45)

     Estimated max dynamical RAM per process >      13.92 MB

     Estimated total dynamical RAM >     111.35 MB

     Initial potential from superposition of free atoms

     starting charge       6.9948, renormalised to       7.0000
     Starting wfcs are    6 randomized atomic wfcs +    2 random wfcs

     total cpu time spent up to now is        0.7 secs

     Self-consistent Calculation

     iteration #  1     ecut=    80.00 Ry     beta= 0.70
     Davidson diagonalization with overlap
     ethr =  1.00E-02,  avg # of iterations =  6.3

     Threshold (ethr) on eigenvalues was too large:
     Diagonalizing with lowered threshold

     Davidson diagonalization with overlap
     ethr =  1.13E-04,  avg # of iterations =  3.7

     total cpu time spent up to now is        1.2 secs

     total energy              =     -22.78925627 Ry
     estimated scf accuracy    <       0.00784720 Ry

     iteration #  2     ecut=    80.00 Ry     beta= 0.70
     Davidson diagonalization with overlap
     ethr =  1.12E-04,  avg # of iterations =  1.1

     total cpu time spent up to now is        1.4 secs

     total energy              =     -22.78954977 Ry
     estimated scf accuracy    <       0.00060032 Ry

     iteration #  3     ecut=    80.00 Ry     beta= 0.70
     Davidson diagonalization with overlap
     ethr =  8.58E-06,  avg # of iterations =  2.5

     total cpu time spent up to now is        1.5 secs

     total energy              =     -22.78960416 Ry
     estimated scf accuracy    <       0.00004948 Ry

     iteration #  4     ecut=    80.00 Ry     beta= 0.70
     Davidson diagonalization with overlap
     ethr =  7.07E-07,  avg # of iterations =  2.1

     total cpu time spent up to now is        1.7 secs

     total energy              =     -22.78961266 Ry
     estimated scf accuracy    <       0.00000056 Ry

     iteration #  5     ecut=    80.00 Ry     beta= 0.70
     Davidson diagonalization with overlap
     ethr =  7.99E-09,  avg # of iterations =  2.3

     total cpu time spent up to now is        1.9 secs

     End of self-consistent calculation

          k = 0.0000 0.0000 0.0000 (  1497 PWs)   bands (ev):

   -34.8193  -3.2206   5.8231  12.2801  25.1326  25.1326  26.3834  26.3834

          k = 0.0000 0.0000 0.1073 (  1526 PWs)   bands (ev):

   -34.8186  -3.2037   5.3397  13.4368  25.2880  25.2880  26.5096  26.5096

          k = 0.0000 0.0000 0.2147 (  1532 PWs)   bands (ev):

   -34.8171  -3.1686   4.5988  16.1106  25.2157  25.6451  25.6452  26.8272

          k = 0.0000 0.0000-0.3220 (  1532 PWs)   bands (ev):

   -34.8163  -3.1504   4.2940  18.3780  22.4231  25.8529  25.8529  27.0524

          k = 0.0000 0.1155 0.0000 (  1509 PWs)   bands (ev):

   -34.8031  -2.9074   6.1430  12.3214  21.5566  23.1878  26.2376  28.8459

          k = 0.0000 0.1155 0.1073 (  1516 PWs)   bands (ev):

   -34.8024  -2.8856   5.6218  13.5127  21.6612  23.3488  26.2627  28.9387

          k = 0.0000 0.1155 0.2147 (  1531 PWs)   bands (ev):

   -34.8009  -2.8401   4.8358  16.2286  21.8971  23.7341  25.0783  26.9400

          k = 0.0000 0.1155-0.3220 (  1536 PWs)   bands (ev):

   -34.8002  -2.8165   4.5148  18.5331  22.1839  22.2637  23.9763  27.0839

          k = 0.0000 0.2309 0.0000 (  1509 PWs)   bands (ev):

   -34.7604  -1.9721   7.1022  12.2852  17.2214  21.2704  24.5101  26.0150

          k = 0.0000 0.2309 0.1073 (  1526 PWs)   bands (ev):

   -34.7598  -1.9361   6.4578  13.5277  17.3461  21.4436  24.0475  25.6150

          k = 0.0000 0.2309 0.2147 (  1529 PWs)   bands (ev):

   -34.7587  -1.8603   5.5416  15.9128  17.9336  21.8673  22.8672  24.9907

          k = 0.0000 0.2309-0.3220 (  1532 PWs)   bands (ev):

   -34.7581  -1.8203   5.1755  16.8179  19.8090  21.0340  22.1434  24.4534

          k = 0.0000 0.3464 0.0000 (  1517 PWs)   bands (ev):

   -34.7075  -0.4283   8.6974  10.8565  14.8801  19.8854  21.4704  22.4571

          k = 0.0000 0.3464 0.1073 (  1525 PWs)   bands (ev):

   -34.7071  -0.3705   7.7688  11.6607  15.5591  20.0681  20.4038  23.4250

          k = 0.0000 0.3464 0.2147 (  1520 PWs)   bands (ev):

   -34.7062  -0.2467   6.6746  12.3480  17.2170  19.7857  20.5228  23.8902

          k = 0.0000 0.3464-0.3220 (  1524 PWs)   bands (ev):

   -34.7057  -0.1799   6.2563  12.5359  17.8336  20.4545  20.8283  24.1819

          k = 0.0000 0.4619 0.0000 (  1515 PWs)   bands (ev):

   -34.6646   1.6961   7.6395  10.9119  15.0248  17.4200  19.0517  20.6135

          k = 0.0000 0.4619 0.1073 (  1510 PWs)   bands (ev):

   -34.6642   1.7804   7.6069  10.2089  15.2554  17.8079  19.2404  21.6686

          k = 0.0000 0.4619 0.2147 (  1503 PWs)   bands (ev):

   -34.6635   1.9617   7.5819   9.1216  14.9787  19.6684  19.7149  23.3226

          k = 0.0000 0.4619-0.3220 (  1502 PWs)   bands (ev):

   -34.6632   2.0598   7.6225   8.6075  14.8067  20.0406  20.8115  23.9061

          k = 0.0000-0.5774 0.0000 (  1518 PWs)   bands (ev):

   -34.6481   3.9799   4.8801  13.2162  14.4956  15.3765  18.7736  19.7657

          k = 0.0000-0.5774 0.1073 (  1508 PWs)   bands (ev):

   -34.6478   4.1027   4.9518  11.6627  13.7137  17.7494  18.9642  20.7311

          k = 0.0000-0.5774 0.2147 (  1508 PWs)   bands (ev):

   -34.6472   4.2392   5.3742   9.5352  13.4479  19.4455  20.0262  23.3635

          k = 0.0000-0.5774-0.3220 (  1496 PWs)   bands (ev):

   -34.6469   4.2539   5.8445   8.4886  13.3598  19.7784  20.8331  23.5767

          k = 0.1000 0.1732 0.0000 (  1513 PWs)   bands (ev):

   -34.7736  -2.2831   6.7826  12.3613  18.7829  20.3006  27.8684  27.9398

          k = 0.1000 0.1732 0.1073 (  1523 PWs)   bands (ev):

   -34.7730  -2.2518   6.1817  13.6124  18.8706  20.4359  26.7056  27.6223

          k = 0.1000 0.1732 0.2147 (  1528 PWs)   bands (ev):

   -34.7718  -2.1860   5.3081  16.3458  19.0458  20.8561  24.7393  25.2893

          k = 0.1000 0.1732-0.3220 (  1520 PWs)   bands (ev):

   -34.7711  -2.1514   4.9564  18.4602  19.2141  21.7851  21.8605  24.2834

          k = 0.1000 0.2887 0.0000 (  1516 PWs)   bands (ev):

   -34.7258  -1.0431   8.0601  12.0155  15.2852  18.4026  23.7979  26.0700

          k = 0.1000 0.2887 0.1073 (  1519 PWs)   bands (ev):

   -34.7254  -0.9938   7.2742  13.1685  15.5452  18.5229  22.8068  25.6459

          k = 0.1000 0.2887 0.2147 (  1523 PWs)   bands (ev):

   -34.7244  -0.8889   6.2396  14.5266  16.7688  19.0884  21.3734  24.2510

          k = 0.1000 0.2887-0.3220 (  1520 PWs)   bands (ev):

   -34.7239  -0.8328   5.8357  14.8256  17.8198  19.7148  21.7543  22.0533

          k = 0.1000 0.4041 0.0000 (  1512 PWs)   bands (ev):

   -34.6779   0.7943   9.5329   9.9684  14.1731  17.3676  19.5773  23.7559

          k = 0.1000 0.4041 0.1073 (  1507 PWs)   bands (ev):

   -34.6775   0.8674   8.5486  10.4425  14.9580  17.1552  19.6455  23.9357

          k = 0.1000 0.4041 0.2147 (  1512 PWs)   bands (ev):

   -34.6768   1.0256   7.5126  10.6539  16.0130  16.9628  20.3989  23.3846

          k = 0.1000 0.4041-0.3220 (  1512 PWs)   bands (ev):

   -34.6764   1.1119   7.1070  10.7015  16.2825  16.8759  21.6425  23.0303

          k = 0.1000 0.5196 0.0000 (  1510 PWs)   bands (ev):

   -34.6482   3.1758   6.2605  12.4488  14.2827  15.8838  16.9703  22.2118

          k = 0.1000 0.5196 0.1073 (  1509 PWs)   bands (ev):

   -34.6479   3.2753   6.3400  11.2447  14.4108  15.4821  18.9735  22.3463

          k = 0.1000 0.5196 0.2147 (  1505 PWs)   bands (ev):

   -34.6473   3.4769   6.6722   9.4691  13.9175  16.1342  21.2041  22.7761

          k = 0.1000 0.5196-0.3220 (  1506 PWs)   bands (ev):

   -34.6470   3.5767   7.1184   8.4463  13.7758  16.3476  21.4578  24.1567

          k = 0.2000 0.3464 0.0000 (  1507 PWs)   bands (ev):

   -34.6830   0.4922   9.6522  11.3562  12.5003  16.7951  21.5863  23.6068

          k = 0.2000 0.3464 0.1073 (  1509 PWs)   bands (ev):

   -34.6826   0.5612   8.5469  12.3659  12.7643  17.1690  20.4279  22.9559

          k = 0.2000 0.3464 0.2147 (  1520 PWs)   bands (ev):

   -34.6819   0.7106   7.3754  12.6446  13.8593  18.3596  18.7326  23.1021

          k = 0.2000 0.3464-0.3220 (  1516 PWs)   bands (ev):

   -34.6815   0.7921   6.9341  12.6907  14.3932  17.5849  19.7919  23.2066

          k = 0.2000 0.4619 0.0000 (  1505 PWs)   bands (ev):

   -34.6483   2.6087   8.5363  11.3722  11.8577  16.8870  18.2375  21.9248

          k = 0.2000 0.4619 0.1073 (  1508 PWs)   bands (ev):

   -34.6480   2.7001   8.5062  10.6084  12.2782  16.4942  18.5030  21.3237

          k = 0.2000 0.4619 0.2147 (  1506 PWs)   bands (ev):

   -34.6474   2.8984   8.4243   9.7419  12.6334  15.4997  18.7462  23.2321

          k = 0.2000 0.4619-0.3220 (  1516 PWs)   bands (ev):

   -34.6471   3.0068   8.3830   9.3628  12.9798  14.7141  19.0951  25.2862

          k = 0.2000 0.5774 0.0000 (  1502 PWs)   bands (ev):

   -34.6350   4.9100   5.7522  11.1752  14.1377  15.4153  17.2080  21.4781

          k = 0.2000 0.5774 0.1073 (  1508 PWs)   bands (ev):

   -34.6347   5.0247   5.8406  11.0718  13.1246  14.6034  18.8555  20.5083

          k = 0.2000 0.5774 0.2147 (  1504 PWs)   bands (ev):

   -34.6342   5.1579   6.2638  10.2378  12.2464  13.9299  18.8042  23.7140

          k = 0.2000 0.5774-0.3220 (  1514 PWs)   bands (ev):

   -34.6339   5.1781   6.6975   9.4025  12.6179  13.1548  18.9172  27.0900

          k = 0.3000 0.5196 0.0000 (  1500 PWs)   bands (ev):

   -34.6300   4.9652   7.7670   8.3345  14.2742  17.0242  17.7739  18.8323

          k = 0.3000 0.5196 0.1073 (  1510 PWs)   bands (ev):

   -34.6298   5.0717   7.7807   8.5221  13.2133  15.8700  16.9448  20.9631

          k = 0.3000 0.5196 0.2147 (  1506 PWs)   bands (ev):

   -34.6292   5.2817   7.8827   9.1335  11.4137  13.8364  17.5031  24.3982

          k = 0.3000 0.5196-0.3220 (  1512 PWs)   bands (ev):

   -34.6290   5.3798   8.0408   9.9120  10.2092  12.9246  17.8643  27.7403

     the Fermi energy is    11.1676 ev

!    total energy              =     -22.78961280 Ry
     estimated scf accuracy    <          2.3E-09 Ry
     smearing contrib. (-TS)   =       0.00003166 Ry
     internal energy E=F+TS    =     -22.78964446 Ry

     The total energy is F=E-TS. E is the sum of the following terms:
     one-electron contribution =      -0.86887696 Ry
     hartree contribution      =       2.88872443 Ry
     xc contribution           =      -6.84545512 Ry
     ewald contribution        =     -17.96403682 Ry

     convergence has been achieved in   5 iterations

     Forces acting on atoms (cartesian axes, Ry/au):

     atom    1 type  1   force =    -0.00000000   -0.00000000    0.00000000
     atom    2 type  2   force =     0.00000000    0.00000000    0.00000000
     The non-local contrib.  to forces
     atom    1 type  1   force =     0.00000000    0.00000000    0.00000000
     atom    2 type  2   force =     0.00000000    0.00000000    0.00000000
     The ionic contribution  to forces
     atom    1 type  1   force =     0.00000000   -0.00000000    0.00000000
     atom    2 type  2   force =    -0.00000000    0.00000000   -0.00000000
     The local contribution  to forces
     atom    1 type  1   force =     0.00000044   -0.00000025    0.00000000
     atom    2 type  2   force =    -0.00000000   -0.00000000   -0.00000000
     The core correction contribution to forces
     atom    1 type  1   force =     0.00000000    0.00000000    0.00000000
     atom    2 type  2   force =    -0.00000000   -0.00000000   -0.00000000
     The Hubbard contrib.    to forces
     atom    1 type  1   force =     0.00000000    0.00000000    0.00000000
     atom    2 type  2   force =     0.00000000    0.00000000    0.00000000
     The SCF correction term to forces
     atom    1 type  1   force =    -0.00000000    0.00000000   -0.00000000
     atom    2 type  2   force =     0.00000000   -0.00000000    0.00000000

     Total force =     0.000000     Total SCF correction =     0.000000


     Computing stress (Cartesian axis) and pressure

          total   stress  (Ry/bohr**3)                   (kbar)     P=      534.99
   0.00364546  -0.00000000   0.00000000          536.27       -0.00        0.00
  -0.00000000   0.00364546  -0.00000000           -0.00      536.27       -0.00
   0.00000000  -0.00000000   0.00361942            0.00       -0.00      532.43


     BFGS Geometry Optimization
     Energy error            =      0.0E+00 Ry
     Gradient error          =      2.2E-24 Ry/Bohr
     Cell gradient error     =      3.6E+01 kbar

     number of scf cycles    =   1
     number of bfgs steps    =   0

     enthalpy           new  =     -22.3639039942 Ry

     new trust radius        =       0.0137948232 bohr
ibrav =      4
 celldm(1) =      4.56106195
 celldm(3) =      1.55155033
Input lattice vectors:
     1.00616313    -0.00000000     0.00000000
    -0.50308156     0.87136283    -0.00000000
     0.00000000    -0.00000000     1.56111273
New lattice vectors in INITIAL alat:
     1.00616313     0.00000000     0.00000000
    -0.50308156     0.87136283     0.00000000
     0.00000000     0.00000000     1.56111273
New lattice vectors in NEW alat (for information only):
     1.00000000     0.00000000     0.00000000
    -0.50000000     0.86602540     0.00000000
     0.00000000     0.00000000     1.55155033
Discrepancy in bohr =     0.000000    0.000000    0.000000
     new conv_thr            =       0.0000000100 Ry

     new unit-cell volume =    127.49537 a.u.^3 (    18.89286 Ang^3 )
     density =      3.07856 g/cm^3

CELL_PARAMETERS (alat=  4.53312374)
   1.006163125   0.000000000   0.000000000
  -0.503081563   0.871362827   0.000000000
   0.000000000   0.000000000   1.561112726

ATOMIC_POSITIONS (crystal)
Li            0.3333333300        0.6666666700        0.5000000000
Si            0.0000000000        0.0000000000        0.0000000000



     Writing config-only to output data dir ./output/LiSi.save/
     NEW-OLD atomic charge density approx. for the potential
     extrapolated charge    7.12331, renormalised to    7.00000

     total cpu time spent up to now is        2.4 secs

     Self-consistent Calculation

     iteration #  1     ecut=    80.00 Ry     beta= 0.70
     Davidson diagonalization with overlap
     ethr =  1.00E-06,  avg # of iterations =  4.1

     total cpu time spent up to now is        2.6 secs

     total energy              =     -22.79729055 Ry
     estimated scf accuracy    <       0.00004654 Ry

     iteration #  2     ecut=    80.00 Ry     beta= 0.70
     Davidson diagonalization with overlap
     ethr =  6.65E-07,  avg # of iterations =  2.8

     total cpu time spent up to now is        2.9 secs

     total energy              =     -22.79747600 Ry
     estimated scf accuracy    <       0.00003276 Ry

     iteration #  3     ecut=    80.00 Ry     beta= 0.70
     Davidson diagonalization with overlap
     ethr =  4.68E-07,  avg # of iterations =  1.0

     total cpu time spent up to now is        3.1 secs

     total energy              =     -22.79747335 Ry
     estimated scf accuracy    <       0.00000844 Ry

     iteration #  4     ecut=    80.00 Ry     beta= 0.70
     Davidson diagonalization with overlap
     ethr =  1.21E-07,  avg # of iterations =  1.0

     total cpu time spent up to now is        3.2 secs

     total energy              =     -22.79747220 Ry
     estimated scf accuracy    <       0.00000198 Ry

     iteration #  5     ecut=    80.00 Ry     beta= 0.70
     Davidson diagonalization with overlap
     ethr =  2.83E-08,  avg # of iterations =  2.0

     total cpu time spent up to now is        3.4 secs

     total energy              =     -22.79747250 Ry
     estimated scf accuracy    <       0.00000005 Ry

     iteration #  6     ecut=    80.00 Ry     beta= 0.70
     Davidson diagonalization with overlap
     ethr =  6.87E-10,  avg # of iterations =  1.8

     total cpu time spent up to now is        3.6 secs

     End of self-consistent calculation

          k = 0.0000 0.0000 0.0000 (  1497 PWs)   bands (ev):

   -35.0252  -3.3224   5.6774  12.0413  24.7739  24.7739  25.8789  25.8789

          k = 0.0000 0.0000 0.1068 (  1526 PWs)   bands (ev):

   -35.0245  -3.3031   5.1882  13.1962  24.9305  24.9305  25.9988  25.9988

          k = 0.0000 0.0000 0.2135 (  1532 PWs)   bands (ev):

   -35.0232  -3.2630   4.4398  15.8597  24.8459  25.2914  25.2916  26.2975

          k = 0.0000 0.0000-0.3203 (  1532 PWs)   bands (ev):

   -35.0225  -3.2422   4.1320  18.1279  22.0644  25.5019  25.5020  26.5067

          k = 0.0000 0.1148 0.0000 (  1509 PWs)   bands (ev):

   -35.0099  -3.0123   5.9936  12.0861  21.1964  22.7924  25.7904  28.3751

          k = 0.0000 0.1148 0.1068 (  1516 PWs)   bands (ev):

   -35.0093  -2.9883   5.4675  13.2744  21.3012  22.9506  25.8152  28.4687

          k = 0.0000 0.1148 0.2135 (  1531 PWs)   bands (ev):

   -35.0080  -2.9382   4.6755  15.9772  21.5380  23.3284  24.7033  26.5035

          k = 0.0000 0.1148-0.3203 (  1536 PWs)   bands (ev):

   -35.0073  -2.9121   4.3520  18.2767  21.8261  21.9166  23.5650  26.5993

          k = 0.0000 0.2295 0.0000 (  1509 PWs)   bands (ev):

   -34.9697  -2.0861   6.9417  12.0607  16.9022  20.8849  24.1044  25.6313

          k = 0.0000 0.2295 0.1068 (  1526 PWs)   bands (ev):

   -34.9692  -2.0485   6.2955  13.2955  17.0294  21.0545  23.6708  25.2027

          k = 0.0000 0.2295 0.2135 (  1529 PWs)   bands (ev):

   -34.9681  -1.9692   5.3774  15.6446  17.6367  21.4681  22.5304  24.5792

          k = 0.0000 0.2295-0.3203 (  1532 PWs)   bands (ev):

   -34.9676  -1.9272   5.0104  16.5130  19.5382  20.7276  21.7360  24.0646

          k = 0.0000 0.3443 0.0000 (  1517 PWs)   bands (ev):

   -34.9199  -0.5567   8.5180  10.6372  14.6042  19.5099  21.1452  22.0980

          k = 0.0000 0.3443 0.1068 (  1525 PWs)   bands (ev):

   -34.9195  -0.4982   7.5942  11.4202  15.2965  19.6887  20.0868  23.0399

          k = 0.0000 0.3443 0.2135 (  1520 PWs)   bands (ev):

   -34.9186  -0.3725   6.5044  12.0842  16.9619  19.4803  20.1316  23.4830

          k = 0.0000 0.3443-0.3203 (  1524 PWs)   bands (ev):

   -34.9182  -0.3047   6.0871  12.2671  17.5607  20.1727  20.4269  23.8045

          k = 0.0000 0.4591 0.0000 (  1515 PWs)   bands (ev):

   -34.8794   1.5492   7.4350  10.7045  14.7757  17.1467  18.6828  20.2847

          k = 0.0000 0.4591 0.1068 (  1510 PWs)   bands (ev):

   -34.8791   1.6335   7.4088   9.9916  15.0196  17.5222  18.8673  21.3241

          k = 0.0000 0.4591 0.2135 (  1503 PWs)   bands (ev):

   -34.8784   1.8151   7.3971   8.8952  14.7364  19.3291  19.3764  22.9377

          k = 0.0000 0.4591-0.3203 (  1502 PWs)   bands (ev):

   -34.8781   1.9136   7.4478   8.3747  14.5594  19.6431  20.5031  23.5624

          k = 0.0000-0.5738 0.0000 (  1518 PWs)   bands (ev):

   -34.8639   3.8309   4.6795  12.9610  14.2783  15.1358  18.4069  19.4443

          k = 0.0000-0.5738 0.1068 (  1508 PWs)   bands (ev):

   -34.8636   3.9564   4.7473  11.4267  13.5003  17.4805  18.5932  20.4004

          k = 0.0000-0.5738 0.2135 (  1508 PWs)   bands (ev):

   -34.8631   4.0951   5.1593   9.3339  13.2171  19.0616  19.7291  23.0058

          k = 0.0000-0.5738-0.3203 (  1496 PWs)   bands (ev):

   -34.8628   4.1096   5.6148   8.3116  13.1222  19.3823  20.5140  23.2372

          k = 0.0994 0.1721 0.0000 (  1513 PWs)   bands (ev):

   -34.9822  -2.3941   6.6258  12.1328  18.4725  19.8981  27.4515  27.4835

          k = 0.0994 0.1721 0.1068 (  1523 PWs)   bands (ev):

   -34.9816  -2.3610   6.0220  13.3784  18.5615  20.0301  26.3085  27.2379

          k = 0.0994 0.1721 0.2135 (  1528 PWs)   bands (ev):

   -34.9804  -2.2913   5.1452  16.0912  18.7388  20.4443  24.4010  24.9113

          k = 0.0994 0.1721-0.3203 (  1520 PWs)   bands (ev):

   -34.9799  -2.2546   4.7921  18.1746  18.9021  21.3898  21.5361  23.9227

          k = 0.0994 0.2869 0.0000 (  1516 PWs)   bands (ev):

   -34.9371  -1.1659   7.8883  11.7965  15.0043  18.0275  23.4383  25.6775

          k = 0.0994 0.2869 0.1068 (  1519 PWs)   bands (ev):

   -34.9367  -1.1155   7.1040  12.9322  15.2722  18.1497  22.4540  25.2744

          k = 0.0994 0.2869 0.2135 (  1523 PWs)   bands (ev):

   -34.9358  -1.0081   6.0715  14.2503  16.4982  18.7332  21.0378  23.9065

          k = 0.0994 0.2869-0.3203 (  1520 PWs)   bands (ev):

   -34.9353  -0.9506   5.6680  14.5428  17.4889  19.4235  21.4189  21.7264

          k = 0.0994 0.4017 0.0000 (  1512 PWs)   bands (ev):

   -34.8919   0.6548   9.3166   9.7734  13.9267  17.0171  19.2747  23.3849

          k = 0.0994 0.4017 0.1068 (  1507 PWs)   bands (ev):

   -34.8916   0.7282   8.3644  10.2071  14.7109  16.8338  19.3108  23.5782

          k = 0.0994 0.4017 0.2135 (  1512 PWs)   bands (ev):

   -34.8909   0.8872   7.3375  10.4063  15.7454  16.6547  20.0658  23.0393

          k = 0.0994 0.4017-0.3203 (  1512 PWs)   bands (ev):

   -34.8906   0.9741   6.9334  10.4532  16.0234  16.5393  21.3290  22.6957

          k = 0.0994 0.5164 0.0000 (  1510 PWs)   bands (ev):

   -34.8639   3.0184   6.0637  12.2185  14.0391  15.6332  16.6455  21.8410

          k = 0.0994 0.5164 0.1068 (  1509 PWs)   bands (ev):

   -34.8637   3.1178   6.1432  11.0201  14.1842  15.1874  18.6509  21.9915

          k = 0.0994 0.5164 0.2135 (  1505 PWs)   bands (ev):

   -34.8631   3.3202   6.4690   9.2645  13.6836  15.8122  20.8848  22.4256

          k = 0.0994 0.5164-0.3203 (  1506 PWs)   bands (ev):

   -34.8628   3.4210   6.8962   8.2668  13.5383  16.0129  21.1462  23.7936

          k = 0.1988 0.3443 0.0000 (  1507 PWs)   bands (ev):

   -34.8968   0.3553   9.4612  11.1385  12.2500  16.4490  21.2431  23.2905

          k = 0.1988 0.3443 0.1068 (  1509 PWs)   bands (ev):

   -34.8964   0.4247   8.3649  12.1353  12.4963  16.8448  20.0984  22.6157

          k = 0.1988 0.3443 0.2135 (  1520 PWs)   bands (ev):

   -34.8957   0.5751   7.2002  12.4108  13.5412  18.0686  18.4354  22.7467

          k = 0.1988 0.3443-0.3203 (  1516 PWs)   bands (ev):

   -34.8953   0.6572   6.7606  12.4574  14.0455  17.3124  19.5030  22.8732

          k = 0.1988 0.4591 0.0000 (  1505 PWs)   bands (ev):

   -34.8641   2.4537   8.3253  11.1336  11.6380  16.5745  17.9479  21.6178

          k = 0.1988 0.4591 0.1068 (  1508 PWs)   bands (ev):

   -34.8638   2.5450   8.3019  10.3921  12.0124  16.2248  18.1931  20.9912

          k = 0.1988 0.4591 0.2135 (  1506 PWs)   bands (ev):

   -34.8632   2.7432   8.2342   9.5216  12.3392  15.2393  18.4643  22.8639

          k = 0.1988 0.4591-0.3203 (  1516 PWs)   bands (ev):

   -34.8629   2.8518   8.1998   9.1393  12.6621  14.4754  18.8083  24.9310

          k = 0.1988 0.5738 0.0000 (  1502 PWs)   bands (ev):

   -34.8515   4.7539   5.5437  10.9359  13.8676  15.1866  16.9112  21.0983

          k = 0.1988 0.5738 0.1068 (  1508 PWs)   bands (ev):

   -34.8513   4.8706   5.6297  10.8418  12.8443  14.3744  18.5650  20.1700

          k = 0.1988 0.5738 0.2135 (  1504 PWs)   bands (ev):

   -34.8508   5.0046   6.0467  10.0310  11.9694  13.6782  18.5225  23.3405

          k = 0.1988 0.5738-0.3203 (  1514 PWs)   bands (ev):

   -34.8506   5.0245   6.4707   9.2109  12.3094  12.9332  18.6296  26.6662

          k = 0.2982 0.5164 0.0000 (  1500 PWs)   bands (ev):

   -34.8468   4.7945   7.5821   8.0898  14.0137  16.7459  17.4824  18.5774

          k = 0.2982 0.5164 0.1068 (  1510 PWs)   bands (ev):

   -34.8466   4.9008   7.6000   8.2723  12.9442  15.6095  16.6936  20.6226

          k = 0.2982 0.5164 0.2135 (  1506 PWs)   bands (ev):

   -34.8461   5.1117   7.7025   8.8764  11.1480  13.6070  17.2345  24.0097

          k = 0.2982 0.5164-0.3203 (  1512 PWs)   bands (ev):

   -34.8459   5.2111   7.8575   9.7091   9.8804  12.7183  17.5820  27.2980

     the Fermi energy is    10.9393 ev

!    total energy              =     -22.79747250 Ry
     estimated scf accuracy    <          2.1E-09 Ry
     smearing contrib. (-TS)   =      -0.00001485 Ry
     internal energy E=F+TS    =     -22.79745766 Ry

     The total energy is F=E-TS. E is the sum of the following terms:
     one-electron contribution =      -1.01442012 Ry
     hartree contribution      =       2.90253396 Ry
     xc contribution           =      -6.82771445 Ry
     ewald contribution        =     -17.85785706 Ry

     convergence has been achieved in   6 iterations

     Forces acting on atoms (cartesian axes, Ry/au):

     atom    1 type  1   force =    -0.00000000   -0.00000000    0.00000000
     atom    2 type  2   force =     0.00000000    0.00000000    0.00000000
     The non-local contrib.  to forces
     atom    1 type  1   force =     0.00000000   -0.00000000    0.00000000
     atom    2 type  2   force =    -0.00000000   -0.00000000    0.00000000
     The ionic contribution  to forces
     atom    1 type  1   force =     0.00000000   -0.00000000    0.00000000
     atom    2 type  2   force =    -0.00000000    0.00000000    0.00000000
     The local contribution  to forces
     atom    1 type  1   force =     0.00000044   -0.00000026   -0.00000000
     atom    2 type  2   force =     0.00000000   -0.00000000    0.00000000
     The core correction contribution to forces
     atom    1 type  1   force =     0.00000000    0.00000000    0.00000000
     atom    2 type  2   force =    -0.00000000    0.00000000   -0.00000000
     The Hubbard contrib.    to forces
     atom    1 type  1   force =     0.00000000    0.00000000    0.00000000
     atom    2 type  2   force =     0.00000000    0.00000000    0.00000000
     The SCF correction term to forces
     atom    1 type  1   force =     0.00000000   -0.00000000   -0.00000000
     atom    2 type  2   force =    -0.00000000    0.00000000    0.00000000

     Total force =     0.000000     Total SCF correction =     0.000000


     Computing stress (Cartesian axis) and pressure

          total   stress  (Ry/bohr**3)                   (kbar)     P=      494.35
   0.00335606   0.00000000   0.00000000          493.69        0.00        0.00
   0.00000000   0.00335606   0.00000000            0.00      493.69        0.00
  -0.00000000   0.00000000   0.00336935           -0.00        0.00      495.65

     Energy error            =      2.2E-04 Ry
     Gradient error          =      2.2E-24 Ry/Bohr
     Cell gradient error     =      6.3E+00 kbar

     number of scf cycles    =   2
     number of bfgs steps    =   1

     enthalpy           old  =     -22.3639039942 Ry
     enthalpy           new  =     -22.3641245475 Ry

     CASE: enthalpy          _new < enthalpy          _old

     new trust radius        =       0.0020865965 bohr
ibrav =      4
 celldm(1) =      4.55684763
 celldm(3) =      1.55199438
Input lattice vectors:
     1.00523345    -0.00000000    -0.00000000
    -0.50261673     0.87055771     0.00000000
     0.00000000     0.00000000     1.56011667
New lattice vectors in INITIAL alat:
     1.00523345     0.00000000     0.00000000
    -0.50261673     0.87055771     0.00000000
     0.00000000     0.00000000     1.56011667
New lattice vectors in NEW alat (for information only):
     1.00000000     0.00000000     0.00000000
    -0.50000000     0.86602540     0.00000000
     0.00000000     0.00000000     1.55199438
Discrepancy in bohr =     0.000000    0.000000    0.000000
     new conv_thr            =            1.0E-10 Ry

     new unit-cell volume =    127.17868 a.u.^3 (    18.84594 Ang^3 )
     density =      3.08623 g/cm^3

CELL_PARAMETERS (alat=  4.53312374)
   1.005233453   0.000000000   0.000000000
  -0.502616727   0.870557707   0.000000000
   0.000000000   0.000000000   1.560116667

ATOMIC_POSITIONS (crystal)
Li            0.3333333300        0.6666666700        0.5000000000
Si            0.0000000000        0.0000000000        0.0000000000



     Writing config-only to output data dir ./output/LiSi.save/
     NEW-OLD atomic charge density approx. for the potential
     extrapolated charge    6.98258, renormalised to    7.00000

     total cpu time spent up to now is        4.1 secs

     Self-consistent Calculation

     iteration #  1     ecut=    80.00 Ry     beta= 0.70
     Davidson diagonalization with overlap
     ethr =  1.00E-06,  avg # of iterations =  2.0

     Threshold (ethr) on eigenvalues was too large:
     Diagonalizing with lowered threshold

     Davidson diagonalization with overlap
     ethr =  1.48E-08,  avg # of iterations =  2.0

     total cpu time spent up to now is        4.6 secs

     total energy              =     -22.79639879 Ry
     estimated scf accuracy    <       0.00000101 Ry

     iteration #  2     ecut=    80.00 Ry     beta= 0.70
     Davidson diagonalization with overlap
     ethr =  1.44E-08,  avg # of iterations =  2.7

     total cpu time spent up to now is        4.8 secs

     total energy              =     -22.79640247 Ry
     estimated scf accuracy    <       0.00000062 Ry

     iteration #  3     ecut=    80.00 Ry     beta= 0.70
     Davidson diagonalization with overlap
     ethr =  8.91E-09,  avg # of iterations =  1.0

     total cpu time spent up to now is        4.9 secs

     total energy              =     -22.79640242 Ry
     estimated scf accuracy    <       0.00000015 Ry

     iteration #  4     ecut=    80.00 Ry     beta= 0.70
     Davidson diagonalization with overlap
     ethr =  2.17E-09,  avg # of iterations =  1.0

     total cpu time spent up to now is        5.1 secs

     total energy              =     -22.79640240 Ry
     estimated scf accuracy    <       0.00000003 Ry

     iteration #  5     ecut=    80.00 Ry     beta= 0.70
     Davidson diagonalization with overlap
     ethr =  4.80E-10,  avg # of iterations =  2.0

     total cpu time spent up to now is        5.3 secs

     total energy              =     -22.79640241 Ry
     estimated scf accuracy    <          6.9E-10 Ry

     iteration #  6     ecut=    80.00 Ry     beta= 0.70
     Davidson diagonalization with overlap
     ethr =  9.87E-12,  avg # of iterations =  1.9

     total cpu time spent up to now is        5.5 secs

     End of self-consistent calculation

          k = 0.0000 0.0000 0.0000 (  1497 PWs)   bands (ev):

   -34.9975  -3.3092   5.6957  12.0727  24.8268  24.8268  25.9527  25.9527

          k = 0.0000 0.0000 0.1068 (  1526 PWs)   bands (ev):

   -34.9968  -3.2902   5.2078  13.2272  24.9830  24.9830  26.0735  26.0735

          k = 0.0000 0.0000 0.2137 (  1532 PWs)   bands (ev):

   -34.9955  -3.2509   4.4610  15.8910  24.8918  25.3429  25.3429  26.3748

          k = 0.0000 0.0000-0.3205 (  1532 PWs)   bands (ev):

   -34.9948  -3.2305   4.1539  18.1581  22.1095  25.5526  25.5526  26.5862

          k = 0.0000 0.1149 0.0000 (  1509 PWs)   bands (ev):

   -34.9821  -2.9986   6.0125  12.1172  21.2490  22.8506  25.8553  28.4441

          k = 0.0000 0.1149 0.1068 (  1516 PWs)   bands (ev):

   -34.9814  -2.9749   5.4875  13.3053  21.3536  23.0090  25.8798  28.5375

          k = 0.0000 0.1149 0.2137 (  1531 PWs)   bands (ev):

   -34.9801  -2.9256   4.6970  16.0088  21.5899  23.3876  24.7517  26.5660

          k = 0.0000 0.1149-0.3205 (  1536 PWs)   bands (ev):

   -34.9795  -2.8998   4.3741  18.3082  21.8777  21.9605  23.6248  26.6689

          k = 0.0000 0.2297 0.0000 (  1509 PWs)   bands (ev):

   -34.9416  -2.0709   6.9622  12.0908  16.9479  20.9416  24.1627  25.6857

          k = 0.0000 0.2297 0.1068 (  1526 PWs)   bands (ev):

   -34.9410  -2.0336   6.3168  13.3263  17.0745  21.1116  23.7250  25.2614

          k = 0.0000 0.2297 0.2137 (  1529 PWs)   bands (ev):

   -34.9399  -1.9549   5.3996  15.6810  17.6772  21.5263  22.5782  24.6369

          k = 0.0000 0.2297-0.3205 (  1532 PWs)   bands (ev):

   -34.9394  -1.9132   5.0330  16.5562  19.5727  20.7689  21.7950  24.1179

          k = 0.0000 0.3446 0.0000 (  1517 PWs)   bands (ev):

   -34.8913  -0.5393   8.5415  10.6684  14.6417  19.5651  21.1907  22.1492

          k = 0.0000 0.3446 0.1068 (  1525 PWs)   bands (ev):

   -34.8908  -0.4809   7.6177  11.4542  15.3314  19.7443  20.1318  23.0943

          k = 0.0000 0.3446 0.2137 (  1520 PWs)   bands (ev):

   -34.8900  -0.3556   6.5278  12.1217  16.9960  19.5228  20.1886  23.5401

          k = 0.0000 0.3446-0.3205 (  1524 PWs)   bands (ev):

   -34.8896  -0.2880   6.1106  12.3053  17.5994  20.2098  20.4850  23.8537

          k = 0.0000 0.4595 0.0000 (  1515 PWs)   bands (ev):

   -34.8504   1.5696   7.4642  10.7323  14.8089  17.1844  18.7370  20.3311

          k = 0.0000 0.4595 0.1068 (  1510 PWs)   bands (ev):

   -34.8501   1.6538   7.4371  10.0211  15.0514  17.5614  18.9219  21.3720

          k = 0.0000 0.4595 0.2137 (  1503 PWs)   bands (ev):

   -34.8495   1.8352   7.4234   8.9267  14.7703  19.3852  19.4160  22.9904

          k = 0.0000 0.4595-0.3205 (  1502 PWs)   bands (ev):

   -34.8492   1.9335   7.4725   8.4075  14.5943  19.7006  20.5459  23.6131

          k = 0.0000-0.5743 0.0000 (  1518 PWs)   bands (ev):

   -34.8348   3.8519   4.7078  12.9960  14.3075  15.1678  18.4607  19.4895

          k = 0.0000-0.5743 0.1068 (  1508 PWs)   bands (ev):

   -34.8345   3.9768   4.7764  11.4592  13.5293  17.5167  18.6476  20.4459

          k = 0.0000-0.5743 0.2137 (  1508 PWs)   bands (ev):

   -34.8340   4.1149   5.1899   9.3622  13.2490  19.1174  19.7702  23.0530

          k = 0.0000-0.5743-0.3205 (  1496 PWs)   bands (ev):

   -34.8337   4.1294   5.6470   8.3371  13.1553  19.4396  20.5590  23.2872

          k = 0.0995 0.1723 0.0000 (  1513 PWs)   bands (ev):

   -34.9541  -2.3794   6.6458  12.1633  18.5176  19.9565  27.5110  27.5504

          k = 0.0995 0.1723 0.1068 (  1523 PWs)   bands (ev):

   -34.9535  -2.3466   6.0429  13.4090  18.6063  20.0888  26.3656  27.2928

          k = 0.0995 0.1723 0.2137 (  1528 PWs)   bands (ev):

   -34.9524  -2.2775   5.1672  16.1239  18.7831  20.5033  24.4478  24.9638

          k = 0.0995 0.1723-0.3205 (  1520 PWs)   bands (ev):

   -34.9518  -2.2412   4.8145  18.2122  18.9469  21.4447  21.5778  23.9756

          k = 0.0995 0.2872 0.0000 (  1516 PWs)   bands (ev):

   -34.9087  -1.1493   7.9106  11.8267  15.0442  18.0812  23.4891  25.7338

          k = 0.0995 0.2872 0.1068 (  1519 PWs)   bands (ev):

   -34.9082  -1.0992   7.1267  12.9648  15.3104  18.2029  22.5042  25.3277

          k = 0.0995 0.2872 0.2137 (  1523 PWs)   bands (ev):

   -34.9073  -0.9922   6.0945  14.2896  16.5353  18.7828  21.0856  23.9548

          k = 0.0995 0.2872-0.3205 (  1520 PWs)   bands (ev):

   -34.9068  -0.9349   5.6911  14.5832  17.5358  19.4647  21.4626  21.7716

          k = 0.0995 0.4020 0.0000 (  1512 PWs)   bands (ev):

   -34.8631   0.6740   9.3476   9.7992  13.9608  17.0665  19.3168  23.4372

          k = 0.0995 0.4020 0.1068 (  1507 PWs)   bands (ev):

   -34.8628   0.7473   8.3899  10.2401  14.7450  16.8791  19.3573  23.6287

          k = 0.0995 0.4020 0.2137 (  1512 PWs)   bands (ev):

   -34.8621   0.9060   7.3619  10.4413  15.7834  16.6981  20.1111  23.0884

          k = 0.0995 0.4020-0.3205 (  1512 PWs)   bands (ev):

   -34.8617   0.9927   6.9578  10.4884  16.0603  16.5874  21.3732  22.7397

          k = 0.0995 0.5169 0.0000 (  1510 PWs)   bands (ev):

   -34.8348   3.0404   6.0917  12.2497  14.0735  15.6674  16.6903  21.8929

          k = 0.0995 0.5169 0.1068 (  1509 PWs)   bands (ev):

   -34.8346   3.1398   6.1712  11.0510  14.2156  15.2293  18.6942  22.0409

          k = 0.0995 0.5169 0.2137 (  1505 PWs)   bands (ev):

   -34.8340   3.3418   6.4979   9.2932  13.7164  15.8582  20.9289  22.4740

          k = 0.0995 0.5169-0.3205 (  1506 PWs)   bands (ev):

   -34.8337   3.4424   6.9274   8.2925  13.5717  16.0608  21.1909  23.8442

          k = 0.1990 0.3446 0.0000 (  1507 PWs)   bands (ev):

   -34.8680   0.3740   9.4864  11.1695  12.2861  16.4964  21.2914  23.3346

          k = 0.1990 0.3446 0.1068 (  1509 PWs)   bands (ev):

   -34.8676   0.4434   8.3897  12.1679  12.5347  16.8888  20.1450  22.6635

          k = 0.1990 0.3446 0.2137 (  1520 PWs)   bands (ev):

   -34.8669   0.5935   7.2245  12.4440  13.5868  18.1095  18.4762  22.7955

          k = 0.1990 0.3446-0.3205 (  1516 PWs)   bands (ev):

   -34.8665   0.6754   6.7849  12.4904  14.0951  17.3522  19.5427  22.9158

          k = 0.1990 0.4595 0.0000 (  1505 PWs)   bands (ev):

   -34.8350   2.4753   8.3555  11.1680  11.6676  16.6165  17.9880  21.6605

          k = 0.1990 0.4595 0.1068 (  1508 PWs)   bands (ev):

   -34.8347   2.5665   8.3311  10.4223  12.0499  16.2617  18.2356  21.0370

          k = 0.1990 0.4595 0.2137 (  1506 PWs)   bands (ev):

   -34.8341   2.7646   8.2613   9.5525  12.3813  15.2761  18.5033  22.9131

          k = 0.1990 0.4595-0.3205 (  1516 PWs)   bands (ev):

   -34.8338   2.8731   8.2259   9.1709  12.7073  14.5097  18.8484  24.9769

          k = 0.1990 0.5743 0.0000 (  1502 PWs)   bands (ev):

   -34.8223   4.7759   5.5734  10.9705  13.9048  15.2175  16.9508  21.1500

          k = 0.1990 0.5743 0.1068 (  1508 PWs)   bands (ev):

   -34.8221   4.8921   5.6598  10.8748  12.8834  14.4056  18.6046  20.2158

          k = 0.1990 0.5743 0.2137 (  1504 PWs)   bands (ev):

   -34.8216   5.0257   6.0776  10.0605  12.0091  13.7132  18.5619  23.3896

          k = 0.1990 0.5743-0.3205 (  1514 PWs)   bands (ev):

   -34.8213   5.0457   6.5026   9.2386  12.3533  12.9647  18.6699  26.7204

          k = 0.2984 0.5169 0.0000 (  1500 PWs)   bands (ev):

   -34.8176   4.8186   7.6082   8.1253  14.0495  16.7844  17.5212  18.6122

          k = 0.2984 0.5169 0.1068 (  1510 PWs)   bands (ev):

   -34.8173   4.9248   7.6254   8.3087  12.9815  15.6455  16.7281  20.6682

          k = 0.2984 0.5169 0.2137 (  1506 PWs)   bands (ev):

   -34.8169   5.1353   7.7278   8.9136  11.1854  13.6395  17.2715  24.0610

          k = 0.2984 0.5169-0.3205 (  1512 PWs)   bands (ev):

   -34.8166   5.2345   7.8830   9.7385   9.9272  12.7480  17.6211  27.3551

     the Fermi energy is    10.9715 ev

!    total energy              =     -22.79640241 Ry
     estimated scf accuracy    <          3.2E-11 Ry
     smearing contrib. (-TS)   =      -0.00000832 Ry
     internal energy E=F+TS    =     -22.79639409 Ry

     The total energy is F=E-TS. E is the sum of the following terms:
     one-electron contribution =      -0.99406596 Ry
     hartree contribution      =       2.90055875 Ry
     xc contribution           =      -6.83022096 Ry
     ewald contribution        =     -17.87266591 Ry

     convergence has been achieved in   6 iterations

     Forces acting on atoms (cartesian axes, Ry/au):

     atom    1 type  1   force =    -0.00000000   -0.00000000    0.00000000
     atom    2 type  2   force =     0.00000000    0.00000000    0.00000000
     The non-local contrib.  to forces
     atom    1 type  1   force =     0.00000000    0.00000000    0.00000000
     atom    2 type  2   force =     0.00000000    0.00000000    0.00000000
     The ionic contribution  to forces
     atom    1 type  1   force =     0.00000000   -0.00000000    0.00000000
     atom    2 type  2   force =    -0.00000000    0.00000000   -0.00000000
     The local contribution  to forces
     atom    1 type  1   force =     0.00000044   -0.00000025    0.00000000
     atom    2 type  2   force =    -0.00000000   -0.00000000   -0.00000000
     The core correction contribution to forces
     atom    1 type  1   force =     0.00000000    0.00000000    0.00000000
     atom    2 type  2   force =     0.00000000   -0.00000000    0.00000000
     The Hubbard contrib.    to forces
     atom    1 type  1   force =     0.00000000    0.00000000    0.00000000
     atom    2 type  2   force =     0.00000000    0.00000000    0.00000000
     The SCF correction term to forces
     atom    1 type  1   force =    -0.00000000    0.00000000    0.00000000
     atom    2 type  2   force =     0.00000000   -0.00000000    0.00000000

     Total force =     0.000000     Total SCF correction =     0.000000


     Computing stress (Cartesian axis) and pressure

          total   stress  (Ry/bohr**3)                   (kbar)     P=      499.94
   0.00339732   0.00000000   0.00000000          499.76        0.00        0.00
   0.00000000   0.00339732  -0.00000000            0.00      499.76       -0.00
   0.00000000  -0.00000000   0.00340102            0.00       -0.00      500.31

     Energy error            =      6.3E-06 Ry
     Gradient error          =      2.2E-24 Ry/Bohr
     Cell gradient error     =      3.1E-01 kbar
ibrav =      4
 celldm(1) =      4.55684763
 celldm(3) =      1.55199438
Input lattice vectors:
     1.00523345     0.00000000     0.00000000
    -0.50261673     0.87055771     0.00000000
     0.00000000     0.00000000     1.56011667
New lattice vectors in INITIAL alat:
     1.00523345     0.00000000     0.00000000
    -0.50261673     0.87055771     0.00000000
     0.00000000     0.00000000     1.56011667
New lattice vectors in NEW alat (for information only):
     1.00000000     0.00000000     0.00000000
    -0.50000000     0.86602540     0.00000000
     0.00000000     0.00000000     1.55199438
Discrepancy in bohr =     0.000000    0.000000    0.000000

     bfgs converged in   3 scf cycles and   2 bfgs steps
     (criteria: energy <  1.0E-04 Ry, force <  1.0E-03 Ry/Bohr, cell <  1.0E+00 kbar)

     End of BFGS Geometry Optimization

     Final enthalpy           =     -22.3641308773 Ry

     File ./output/LiSi.bfgs deleted, as requested
Begin final coordinates
     new unit-cell volume =    127.17868 a.u.^3 (    18.84594 Ang^3 )
     density =      3.08623 g/cm^3

CELL_PARAMETERS (alat=  4.53312374)
   1.005233453   0.000000000   0.000000000
  -0.502616727   0.870557707   0.000000000
   0.000000000   0.000000000   1.560116667

ATOMIC_POSITIONS (crystal)
Li            0.3333333300        0.6666666700        0.5000000000
Si            0.0000000000        0.0000000000        0.0000000000
End final coordinates



     Writing config-only to output data dir ./output/LiSi.save/

     Final scf calculation at the relaxed structure.
     The G-vectors are recalculated for the final unit cell
     Results may differ from those at the preceding step.

     Parallelization info
     --------------------
     sticks:   dense  smooth     PW     G-vecs:    dense   smooth      PW
     Min          56      56     17                 1526     1526     255
     Max          57      57     18                 1531     1531     260
     Sum         451     451    139                12227    12227    2057

     Using Slab Decomposition



     bravais-lattice index     =            4
     lattice parameter (alat)  =       4.5331  a.u.
     unit-cell volume          =     127.1787 (a.u.)^3
     number of atoms/cell      =            2
     number of atomic types    =            2
     number of electrons       =         7.00
     number of Kohn-Sham states=            8
     kinetic-energy cutoff     =      80.0000  Ry
     charge density cutoff     =     320.0000  Ry
     scf convergence threshold =      1.0E-10
     mixing beta               =       0.7000
     number of iterations used =            8  plain     mixing
     press convergence thresh. =      1.0E+00
     Exchange-correlation= PBE
                           (   1   4   3   4   0   0   0)

     celldm(1)=   4.533124  celldm(2)=   0.000000  celldm(3)=   1.552555
     celldm(4)=   0.000000  celldm(5)=   0.000000  celldm(6)=   0.000000

     crystal axes: (cart. coord. in units of alat)
               a(1) = (   1.005233   0.000000   0.000000 )  
               a(2) = (  -0.502617   0.870558   0.000000 )  
               a(3) = (   0.000000   0.000000   1.560117 )  

     reciprocal axes: (cart. coord. in units 2 pi/alat)
               b(1) = (  0.994794  0.574344 -0.000000 )  
               b(2) = (  0.000000  1.148689  0.000000 )  
               b(3) = (  0.000000 -0.000000  0.640978 )  


     PseudoPot. # 1 for Li read from file:
     ../pseudo/Li_ONCV_PBE_sr.upf
     MD5 check sum: 50ff420e78310ffa21704f3361e624a4
     Pseudo is Norm-conserving, Zval =  3.0
     Generated using ONCVPSP code by D. R. Hamann
     Using radial grid of 1944 points,  4 beta functions with: 
                l(1) =   0
                l(2) =   0
                l(3) =   1
                l(4) =   1

     PseudoPot. # 2 for Si read from file:
     ../pseudo/Si_ONCV_PBE_sr.upf
     MD5 check sum: e543d271109d17c80368dfa7c482276d
     Pseudo is Norm-conserving + core correction, Zval =  4.0
     Generated using ONCVPSP code by D. R. Hamann
     Using radial grid of 1510 points,  6 beta functions with: 
                l(1) =   0
                l(2) =   0
                l(3) =   1
                l(4) =   1
                l(5) =   2
                l(6) =   2

     atomic species   valence    mass     pseudopotential
        Li             3.00     6.94100     Li( 1.00)
        Si             4.00    28.08550     Si( 1.00)

     12 Sym. Ops. (no inversion) found



   Cartesian axes

     site n.     atom                  positions (alat units)
         1           Li  tau(   1) = (  -0.0000000   0.5803718   0.7800583  )
         2           Si  tau(   2) = (   0.0000000   0.0000000   0.0000000  )

     number of k points=    56  Marzari-Vanderbilt smearing, width (Ry)=  0.0200
                       cart. coord. in units 2pi/alat
        k(    1) = (   0.0000000   0.0000000   0.0000000), wk =   0.0033333
        k(    2) = (   0.0000000   0.0000000   0.1068296), wk =   0.0066667
        k(    3) = (   0.0000000   0.0000000   0.2136592), wk =   0.0066667
        k(    4) = (   0.0000000   0.0000000  -0.3204889), wk =   0.0033333
        k(    5) = (   0.0000000   0.1148689   0.0000000), wk =   0.0200000
        k(    6) = (   0.0000000   0.1148689   0.1068296), wk =   0.0400000
        k(    7) = (   0.0000000   0.1148689   0.2136592), wk =   0.0400000
        k(    8) = (   0.0000000   0.1148689  -0.3204889), wk =   0.0200000
        k(    9) = (   0.0000000   0.2297378   0.0000000), wk =   0.0200000
        k(   10) = (   0.0000000   0.2297378   0.1068296), wk =   0.0400000
        k(   11) = (   0.0000000   0.2297378   0.2136592), wk =   0.0400000
        k(   12) = (   0.0000000   0.2297378  -0.3204889), wk =   0.0200000
        k(   13) = (   0.0000000   0.3446067   0.0000000), wk =   0.0200000
        k(   14) = (   0.0000000   0.3446067   0.1068296), wk =   0.0400000
        k(   15) = (   0.0000000   0.3446067   0.2136592), wk =   0.0400000
        k(   16) = (   0.0000000   0.3446067  -0.3204889), wk =   0.0200000
        k(   17) = (   0.0000000   0.4594756   0.0000000), wk =   0.0200000
        k(   18) = (   0.0000000   0.4594756   0.1068296), wk =   0.0400000
        k(   19) = (   0.0000000   0.4594756   0.2136592), wk =   0.0400000
        k(   20) = (   0.0000000   0.4594756  -0.3204889), wk =   0.0200000
        k(   21) = (   0.0000000  -0.5743445   0.0000000), wk =   0.0100000
        k(   22) = (   0.0000000  -0.5743445   0.1068296), wk =   0.0200000
        k(   23) = (   0.0000000  -0.5743445   0.2136592), wk =   0.0200000
        k(   24) = (   0.0000000  -0.5743445  -0.3204889), wk =   0.0100000
        k(   25) = (   0.0994794   0.1723033   0.0000000), wk =   0.0200000
        k(   26) = (   0.0994794   0.1723033   0.1068296), wk =   0.0400000
        k(   27) = (   0.0994794   0.1723033   0.2136592), wk =   0.0400000
        k(   28) = (   0.0994794   0.1723033  -0.3204889), wk =   0.0200000
        k(   29) = (   0.0994794   0.2871722   0.0000000), wk =   0.0400000
        k(   30) = (   0.0994794   0.2871722   0.1068296), wk =   0.0800000
        k(   31) = (   0.0994794   0.2871722   0.2136592), wk =   0.0800000
        k(   32) = (   0.0994794   0.2871722  -0.3204889), wk =   0.0400000
        k(   33) = (   0.0994794   0.4020411   0.0000000), wk =   0.0400000
        k(   34) = (   0.0994794   0.4020411   0.1068296), wk =   0.0800000
        k(   35) = (   0.0994794   0.4020411   0.2136592), wk =   0.0800000
        k(   36) = (   0.0994794   0.4020411  -0.3204889), wk =   0.0400000
        k(   37) = (   0.0994794   0.5169100   0.0000000), wk =   0.0400000
        k(   38) = (   0.0994794   0.5169100   0.1068296), wk =   0.0800000
        k(   39) = (   0.0994794   0.5169100   0.2136592), wk =   0.0800000
        k(   40) = (   0.0994794   0.5169100  -0.3204889), wk =   0.0400000
        k(   41) = (   0.1989588   0.3446067   0.0000000), wk =   0.0200000
        k(   42) = (   0.1989588   0.3446067   0.1068296), wk =   0.0400000
        k(   43) = (   0.1989588   0.3446067   0.2136592), wk =   0.0400000
        k(   44) = (   0.1989588   0.3446067  -0.3204889), wk =   0.0200000
        k(   45) = (   0.1989588   0.4594756   0.0000000), wk =   0.0400000
        k(   46) = (   0.1989588   0.4594756   0.1068296), wk =   0.0800000
        k(   47) = (   0.1989588   0.4594756   0.2136592), wk =   0.0800000
        k(   48) = (   0.1989588   0.4594756  -0.3204889), wk =   0.0400000
        k(   49) = (   0.1989588   0.5743445   0.0000000), wk =   0.0200000
        k(   50) = (   0.1989588   0.5743445   0.1068296), wk =   0.0400000
        k(   51) = (   0.1989588   0.5743445   0.2136592), wk =   0.0400000
        k(   52) = (   0.1989588   0.5743445  -0.3204889), wk =   0.0200000
        k(   53) = (   0.2984381   0.5169100   0.0000000), wk =   0.0200000
        k(   54) = (   0.2984381   0.5169100   0.1068296), wk =   0.0400000
        k(   55) = (   0.2984381   0.5169100   0.2136592), wk =   0.0400000
        k(   56) = (   0.2984381   0.5169100  -0.3204889), wk =   0.0200000

     Dense  grid:    12227 G-vectors     FFT dimensions: (  25,  25,  45)

     Estimated max dynamical RAM per process >      13.97 MB

     Estimated total dynamical RAM >     111.78 MB

     Initial potential from superposition of free atoms

     starting charge       6.9948, renormalised to       7.0000
     Starting wfcs are    6 randomized atomic wfcs +    2 random wfcs

     total cpu time spent up to now is        6.0 secs

     Self-consistent Calculation

     iteration #  1     ecut=    80.00 Ry     beta= 0.70
     Davidson diagonalization with overlap
     c_bands:  1 eigenvalues not converged
     c_bands:  1 eigenvalues not converged
     c_bands:  1 eigenvalues not converged
     c_bands:  1 eigenvalues not converged
     c_bands:  1 eigenvalues not converged
     c_bands:  1 eigenvalues not converged
     c_bands:  2 eigenvalues not converged
     c_bands:  1 eigenvalues not converged
     c_bands:  1 eigenvalues not converged
     c_bands:  1 eigenvalues not converged
     c_bands:  1 eigenvalues not converged
     c_bands:  1 eigenvalues not converged
     c_bands:  1 eigenvalues not converged
     ethr =  1.00E-06,  avg # of iterations = 17.2

     total cpu time spent up to now is        6.8 secs

     total energy              =     -22.79600632 Ry
     estimated scf accuracy    <       0.00793898 Ry

     iteration #  2     ecut=    80.00 Ry     beta= 0.70
     Davidson diagonalization with overlap
     ethr =  1.13E-04,  avg # of iterations =  1.0

     total cpu time spent up to now is        7.0 secs

     total energy              =     -22.79633626 Ry
     estimated scf accuracy    <       0.00061936 Ry

     iteration #  3     ecut=    80.00 Ry     beta= 0.70
     Davidson diagonalization with overlap
     ethr =  8.85E-06,  avg # of iterations =  1.2

     total cpu time spent up to now is        7.1 secs

     total energy              =     -22.79639452 Ry
     estimated scf accuracy    <       0.00005285 Ry

     iteration #  4     ecut=    80.00 Ry     beta= 0.70
     Davidson diagonalization with overlap
     ethr =  7.55E-07,  avg # of iterations =  2.1

     total cpu time spent up to now is        7.3 secs

     total energy              =     -22.79640326 Ry
     estimated scf accuracy    <       0.00000053 Ry

     iteration #  5     ecut=    80.00 Ry     beta= 0.70
     Davidson diagonalization with overlap
     ethr =  7.53E-09,  avg # of iterations =  2.6

     total cpu time spent up to now is        7.5 secs

     total energy              =     -22.79640343 Ry
     estimated scf accuracy    <       0.00000001 Ry

     iteration #  6     ecut=    80.00 Ry     beta= 0.70
     Davidson diagonalization with overlap
     ethr =  1.58E-10,  avg # of iterations =  2.4

     total cpu time spent up to now is        7.7 secs

     total energy              =     -22.79640344 Ry
     estimated scf accuracy    <          7.6E-10 Ry

     iteration #  7     ecut=    80.00 Ry     beta= 0.70
     Davidson diagonalization with overlap
     ethr =  1.09E-11,  avg # of iterations =  1.8

     total cpu time spent up to now is        7.9 secs

     End of self-consistent calculation

          k = 0.0000 0.0000 0.0000 (  1533 PWs)   bands (ev):

   -34.9974  -3.3092   5.6957  12.0727  24.8268  24.8268  25.9527  25.9527

          k = 0.0000 0.0000 0.1068 (  1550 PWs)   bands (ev):

   -34.9968  -3.2902   5.2078  13.2272  24.9830  24.9830  26.0735  26.0735

          k = 0.0000 0.0000 0.2137 (  1580 PWs)   bands (ev):

   -34.9954  -3.2509   4.4610  15.8910  24.8918  25.3429  25.3429  26.3748

          k = 0.0000 0.0000-0.3205 (  1556 PWs)   bands (ev):

   -34.9947  -3.2305   4.1539  18.1581  22.1095  25.5526  25.5527  26.5862

          k = 0.0000 0.1149 0.0000 (  1523 PWs)   bands (ev):

   -34.9820  -2.9986   6.0125  12.1172  21.2490  22.8506  25.8553  28.4441

          k = 0.0000 0.1149 0.1068 (  1542 PWs)   bands (ev):

   -34.9814  -2.9749   5.4875  13.3053  21.3536  23.0090  25.8798  28.5375

          k = 0.0000 0.1149 0.2137 (  1556 PWs)   bands (ev):

   -34.9800  -2.9256   4.6970  16.0088  21.5899  23.3876  24.7517  26.5660

          k = 0.0000 0.1149-0.3205 (  1560 PWs)   bands (ev):

   -34.9794  -2.8998   4.3741  18.3082  21.8777  21.9605  23.6248  26.6689

          k = 0.0000 0.2297 0.0000 (  1533 PWs)   bands (ev):

   -34.9415  -2.0710   6.9622  12.0908  16.9479  20.9416  24.1627  25.6857

          k = 0.0000 0.2297 0.1068 (  1548 PWs)   bands (ev):

   -34.9409  -2.0336   6.3168  13.3263  17.0745  21.1116  23.7250  25.2614

          k = 0.0000 0.2297 0.2137 (  1548 PWs)   bands (ev):

   -34.9398  -1.9549   5.3996  15.6810  17.6772  21.5263  22.5782  24.6369

          k = 0.0000 0.2297-0.3205 (  1546 PWs)   bands (ev):

   -34.9393  -1.9132   5.0330  16.5562  19.5727  20.7689  21.7950  24.1179

          k = 0.0000 0.3446 0.0000 (  1537 PWs)   bands (ev):

   -34.8912  -0.5393   8.5415  10.6684  14.6417  19.5651  21.1907  22.1492

          k = 0.0000 0.3446 0.1068 (  1542 PWs)   bands (ev):

   -34.8908  -0.4809   7.6177  11.4542  15.3314  19.7443  20.1318  23.0943

          k = 0.0000 0.3446 0.2137 (  1539 PWs)   bands (ev):

   -34.8899  -0.3556   6.5278  12.1217  16.9960  19.5228  20.1886  23.5401

          k = 0.0000 0.3446-0.3205 (  1546 PWs)   bands (ev):

   -34.8895  -0.2880   6.1106  12.3053  17.5994  20.2097  20.4850  23.8537

          k = 0.0000 0.4595 0.0000 (  1532 PWs)   bands (ev):

   -34.8503   1.5696   7.4642  10.7323  14.8089  17.1844  18.7370  20.3311

          k = 0.0000 0.4595 0.1068 (  1531 PWs)   bands (ev):

   -34.8500   1.6538   7.4371  10.0211  15.0514  17.5614  18.9219  21.3720

          k = 0.0000 0.4595 0.2137 (  1539 PWs)   bands (ev):

   -34.8494   1.8352   7.4234   8.9267  14.7702  19.3852  19.4160  22.9904

          k = 0.0000 0.4595-0.3205 (  1540 PWs)   bands (ev):

   -34.8491   1.9335   7.4725   8.4075  14.5943  19.7006  20.5459  24.6999

          k = 0.0000-0.5743 0.0000 (  1534 PWs)   bands (ev):

   -34.8347   3.8519   4.7078  12.9960  14.3075  15.1678  18.4607  19.4895

          k = 0.0000-0.5743 0.1068 (  1532 PWs)   bands (ev):

   -34.8344   3.9768   4.7764  11.4592  13.5293  17.5167  18.6476  20.4459

          k = 0.0000-0.5743 0.2137 (  1522 PWs)   bands (ev):

   -34.8339   4.1149   5.1899   9.3622  13.2490  19.1174  19.7702  23.0530

          k = 0.0000-0.5743-0.3205 (  1512 PWs)   bands (ev):

   -34.8336   4.1293   5.6470   8.3371  13.1553  19.4395  20.5590  23.2872

          k = 0.0995 0.1723 0.0000 (  1539 PWs)   bands (ev):

   -34.9540  -2.3794   6.6458  12.1633  18.5176  19.9565  27.5110  27.5511

          k = 0.0995 0.1723 0.1068 (  1542 PWs)   bands (ev):

   -34.9534  -2.3466   6.0429  13.4090  18.6063  20.0888  26.3656  27.2928

          k = 0.0995 0.1723 0.2137 (  1556 PWs)   bands (ev):

   -34.9523  -2.2775   5.1672  16.1239  18.7831  20.5033  24.4478  24.9638

          k = 0.0995 0.1723-0.3205 (  1562 PWs)   bands (ev):

   -34.9517  -2.2412   4.8145  18.2122  18.9469  21.4447  21.5778  23.9755

          k = 0.0995 0.2872 0.0000 (  1542 PWs)   bands (ev):

   -34.9086  -1.1493   7.9106  11.8267  15.0442  18.0812  23.4891  25.7339

          k = 0.0995 0.2872 0.1068 (  1540 PWs)   bands (ev):

   -34.9081  -1.0992   7.1267  12.9648  15.3104  18.2029  22.5042  25.3278

          k = 0.0995 0.2872 0.2137 (  1549 PWs)   bands (ev):

   -34.9072  -0.9922   6.0945  14.2896  16.5353  18.7828  21.0856  23.9548

          k = 0.0995 0.2872-0.3205 (  1544 PWs)   bands (ev):

   -34.9067  -0.9350   5.6911  14.5832  17.5358  19.4646  21.4626  21.7716

          k = 0.0995 0.4020 0.0000 (  1534 PWs)   bands (ev):

   -34.8630   0.6740   9.3476   9.7992  13.9608  17.0665  19.3168  23.4372

          k = 0.0995 0.4020 0.1068 (  1534 PWs)   bands (ev):

   -34.8627   0.7473   8.3899  10.2401  14.7450  16.8791  19.3573  23.6288

          k = 0.0995 0.4020 0.2137 (  1535 PWs)   bands (ev):

   -34.8620   0.9060   7.3619  10.4413  15.7834  16.6981  20.1111  23.0884

          k = 0.0995 0.4020-0.3205 (  1538 PWs)   bands (ev):

   -34.8616   0.9927   6.9578  10.4884  16.0603  16.5874  21.3732  22.7397

          k = 0.0995 0.5169 0.0000 (  1540 PWs)   bands (ev):

   -34.8348   3.0404   6.0917  12.2497  14.0735  15.6674  16.6903  21.8929

          k = 0.0995 0.5169 0.1068 (  1532 PWs)   bands (ev):

   -34.8345   3.1398   6.1712  11.0510  14.2156  15.2293  18.6942  22.0409

          k = 0.0995 0.5169 0.2137 (  1523 PWs)   bands (ev):

   -34.8339   3.3418   6.4979   9.2932  13.7164  15.8582  20.9289  22.4740

          k = 0.0995 0.5169-0.3205 (  1520 PWs)   bands (ev):

   -34.8337   3.4424   6.9274   8.2925  13.5717  16.0608  21.1909  23.8442

          k = 0.1990 0.3446 0.0000 (  1531 PWs)   bands (ev):

   -34.8679   0.3740   9.4864  11.1694  12.2861  16.4964  21.2914  23.3346

          k = 0.1990 0.3446 0.1068 (  1529 PWs)   bands (ev):

   -34.8675   0.4434   8.3897  12.1679  12.5347  16.8888  20.1450  22.6635

          k = 0.1990 0.3446 0.2137 (  1532 PWs)   bands (ev):

   -34.8668   0.5935   7.2245  12.4440  13.5868  18.1094  18.4762  22.7955

          k = 0.1990 0.3446-0.3205 (  1546 PWs)   bands (ev):

   -34.8664   0.6754   6.7849  12.4904  14.0951  17.3522  19.5427  22.9158

          k = 0.1990 0.4595 0.0000 (  1531 PWs)   bands (ev):

   -34.8349   2.4753   8.3555  11.1680  11.6676  16.6165  17.9880  21.6605

          k = 0.1990 0.4595 0.1068 (  1523 PWs)   bands (ev):

   -34.8346   2.5665   8.3311  10.4223  12.0499  16.2617  18.2356  21.0370

          k = 0.1990 0.4595 0.2137 (  1531 PWs)   bands (ev):

   -34.8340   2.7646   8.2613   9.5525  12.3813  15.2761  18.5033  22.9131

          k = 0.1990 0.4595-0.3205 (  1532 PWs)   bands (ev):

   -34.8338   2.8731   8.2259   9.1709  12.7073  14.5097  18.8484  24.9769

          k = 0.1990 0.5743 0.0000 (  1538 PWs)   bands (ev):

   -34.8223   4.7759   5.5734  10.9705  13.9048  15.2175  16.9508  21.1501

          k = 0.1990 0.5743 0.1068 (  1534 PWs)   bands (ev):

   -34.8220   4.8921   5.6598  10.8748  12.8834  14.4056  18.6046  20.2158

          k = 0.1990 0.5743 0.2137 (  1534 PWs)   bands (ev):

   -34.8215   5.0257   6.0776  10.0605  12.0091  13.7132  18.5619  23.3896

          k = 0.1990 0.5743-0.3205 (  1530 PWs)   bands (ev):

   -34.8213   5.0457   6.5026   9.2386  12.3533  12.9647  18.6699  26.7204

          k = 0.2984 0.5169 0.0000 (  1530 PWs)   bands (ev):

   -34.8175   4.8186   7.6082   8.1253  14.0495  16.7844  17.5212  18.6122

          k = 0.2984 0.5169 0.1068 (  1536 PWs)   bands (ev):

   -34.8173   4.9248   7.6254   8.3086  12.9815  15.6455  16.7281  20.6682

          k = 0.2984 0.5169 0.2137 (  1536 PWs)   bands (ev):

   -34.8168   5.1353   7.7278   8.9136  11.1854  13.6395  17.2715  24.0610

          k = 0.2984 0.5169-0.3205 (  1518 PWs)   bands (ev):

   -34.8165   5.2345   7.8830   9.7385   9.9272  12.7480  17.6211  27.3550

     the Fermi energy is    10.9715 ev

!    total energy              =     -22.79640344 Ry
     estimated scf accuracy    <          6.6E-12 Ry
     smearing contrib. (-TS)   =      -0.00000832 Ry
     internal energy E=F+TS    =     -22.79639512 Ry

     The total energy is F=E-TS. E is the sum of the following terms:
     one-electron contribution =      -0.99406754 Ry
     hartree contribution      =       2.90055914 Ry
     xc contribution           =      -6.83022081 Ry
     ewald contribution        =     -17.87266591 Ry

     convergence has been achieved in   7 iterations

     Forces acting on atoms (cartesian axes, Ry/au):

     atom    1 type  1   force =     0.00000000    0.00000000    0.00000000
     atom    2 type  2   force =     0.00000000    0.00000000    0.00000000
     The non-local contrib.  to forces
     atom    1 type  1   force =     0.00000000   -0.00000000    0.00000000
     atom    2 type  2   force =     0.00000000    0.00000000    0.00000000
     The ionic contribution  to forces
     atom    1 type  1   force =     0.00000000   -0.00000000    0.00000000
     atom    2 type  2   force =    -0.00000000    0.00000000   -0.00000000
     The local contribution  to forces
     atom    1 type  1   force =     0.00000044   -0.00000025    0.00000000
     atom    2 type  2   force =     0.00000000   -0.00000000    0.00000000
     The core correction contribution to forces
     atom    1 type  1   force =     0.00000000    0.00000000    0.00000000
     atom    2 type  2   force =    -0.00000000   -0.00000000    0.00000000
     The Hubbard contrib.    to forces
     atom    1 type  1   force =     0.00000000    0.00000000    0.00000000
     atom    2 type  2   force =     0.00000000    0.00000000    0.00000000
     The SCF correction term to forces
     atom    1 type  1   force =    -0.00000000    0.00000000    0.00000000
     atom    2 type  2   force =     0.00000000   -0.00000000   -0.00000000

     Total force =     0.000000     Total SCF correction =     0.000000


     Computing stress (Cartesian axis) and pressure

          total   stress  (Ry/bohr**3)                   (kbar)     P=      499.95
   0.00339735   0.00000000   0.00000000          499.77        0.00        0.00
   0.00000000   0.00339735  -0.00000000            0.00      499.77       -0.00
  -0.00000000  -0.00000000   0.00340109           -0.00       -0.00      500.32


     Writing all to output data dir ./output/LiSi.save/

     init_run     :      0.38s CPU      0.41s WALL (       2 calls)
     electrons    :      4.60s CPU      5.69s WALL (       4 calls)
     update_pot   :      0.26s CPU      0.28s WALL (       2 calls)
     forces       :      0.31s CPU      0.32s WALL (       4 calls)
     stress       :      1.01s CPU      1.04s WALL (       4 calls)

     Called by init_run:
     wfcinit      :      0.10s CPU      0.11s WALL (       2 calls)
     potinit      :      0.12s CPU      0.12s WALL (       2 calls)
     hinit0       :      0.15s CPU      0.16s WALL (       2 calls)

     Called by electrons:
     c_bands      :      3.97s CPU      4.99s WALL (      26 calls)
     sum_band     :      0.57s CPU      0.60s WALL (      26 calls)
     v_of_rho     :      0.06s CPU      0.06s WALL (      28 calls)
     mix_rho      :      0.01s CPU      0.01s WALL (      26 calls)

     Called by c_bands:
     init_us_2    :      0.16s CPU      0.18s WALL (    3472 calls)
     init_us_2:cp :      0.16s CPU      0.18s WALL (    3472 calls)
     cegterg      :      3.60s CPU      3.97s WALL (    1456 calls)

     Called by *egterg:
     cdiaghg      :      0.45s CPU      0.48s WALL (    5247 calls)
     h_psi        :      2.83s CPU      3.13s WALL (    5583 calls)
     g_psi        :      0.02s CPU      0.02s WALL (    4015 calls)

     Called by h_psi:
     h_psi:calbec :      0.19s CPU      0.21s WALL (    5583 calls)
     vloc_psi     :      2.52s CPU      2.80s WALL (    5583 calls)
     add_vuspsi   :      0.09s CPU      0.10s WALL (    5583 calls)

     General routines
     calbec       :      0.25s CPU      0.27s WALL (    6703 calls)
     fft          :      0.08s CPU      0.09s WALL (     380 calls)
     ffts         :      0.00s CPU      0.00s WALL (      26 calls)
     fftw         :      2.61s CPU      2.86s WALL (   76204 calls)

     Parallel routines

     PWSCF        :      6.96s CPU      8.55s WALL


   This run was terminated on:  22:11:45  11Feb2025            

=------------------------------------------------------------------------------=
   JOB DONE.
=------------------------------------------------------------------------------=
