
     Program PWSCF v.7.2 starts on 11Feb2025 at 22: 5:32 

     This program is part of the open-source Quantum ESPRESSO suite
     for quantum simulation of materials; please cite
         "P. Giannozzi et al., J. Phys.:Condens. Matter 21 395502 (2009);
         "P. Giannozzi et al., J. Phys.:Condens. Matter 29 465901 (2017);
         "P. Giannozzi et al., J. Chem. Phys. 152 154105 (2020);
          URL http://www.quantum-espresso.org", 
     in publications or presentations arising from this work. More details at
     http://www.quantum-espresso.org/quote

     Parallel version (MPI & OpenMP), running on       8 processor cores
     Number of MPI processes:                 8
     Threads/MPI process:                     1

     MPI processes distributed on     1 nodes
     481787 MiB available memory on the printing compute node when the environment starts

     Waiting for input...
     Reading input from standard input

     Current dimensions of program PWSCF are:
     Max number of different atomic species (ntypx) = 10
     Max number of k-points (npk) =  40000
     Max angular momentum in pseudopotentials (lmaxx) =  4

     R & G space division:  proc/nbgrp/npool/nimage =       8
     Subspace diagonalization in iterative solution of the eigenvalue problem:
     a serial algorithm will be used


     Parallelization info
     --------------------
     sticks:   dense  smooth     PW     G-vecs:    dense   smooth      PW
     Min         115     115     35                 2328     2328     389
     Max         116     116     36                 2331     2331     391
     Sum         925     925    283                18643    18643    3119

     Using Slab Decomposition



     bravais-lattice index     =            2
     lattice parameter (alat)  =       9.1665  a.u.
     unit-cell volume          =     192.5541 (a.u.)^3
     number of atoms/cell      =            2
     number of atomic types    =            2
     number of electrons       =         7.00
     number of Kohn-Sham states=            8
     kinetic-energy cutoff     =      80.0000  Ry
     charge density cutoff     =     320.0000  Ry
     scf convergence threshold =      1.0E-08
     mixing beta               =       0.7000
     number of iterations used =            8  plain     mixing
     energy convergence thresh.=      1.0E-04
     force convergence thresh. =      1.0E-03
     press convergence thresh. =      1.0E+00
     Exchange-correlation= PBE
                           (   1   4   3   4   0   0   0)
     nstep                     =           50


     celldm(1)=   9.166515  celldm(2)=   0.000000  celldm(3)=   0.000000
     celldm(4)=   0.000000  celldm(5)=   0.000000  celldm(6)=   0.000000

     crystal axes: (cart. coord. in units of alat)
               a(1) = (  -0.500000   0.000000   0.500000 )  
               a(2) = (   0.000000   0.500000   0.500000 )  
               a(3) = (  -0.500000   0.500000   0.000000 )  

     reciprocal axes: (cart. coord. in units 2 pi/alat)
               b(1) = ( -1.000000 -1.000000  1.000000 )  
               b(2) = (  1.000000  1.000000  1.000000 )  
               b(3) = ( -1.000000  1.000000 -1.000000 )  


     PseudoPot. # 1 for Li read from file:
     ../pseudo/Li_ONCV_PBE_sr.upf
     MD5 check sum: 50ff420e78310ffa21704f3361e624a4
     Pseudo is Norm-conserving, Zval =  3.0
     Generated using ONCVPSP code by D. R. Hamann
     Using radial grid of 1944 points,  4 beta functions with: 
                l(1) =   0
                l(2) =   0
                l(3) =   1
                l(4) =   1

     PseudoPot. # 2 for Si read from file:
     ../pseudo/Si_ONCV_PBE_sr.upf
     MD5 check sum: e543d271109d17c80368dfa7c482276d
     Pseudo is Norm-conserving + core correction, Zval =  4.0
     Generated using ONCVPSP code by D. R. Hamann
     Using radial grid of 1510 points,  6 beta functions with: 
                l(1) =   0
                l(2) =   0
                l(3) =   1
                l(4) =   1
                l(5) =   2
                l(6) =   2

     atomic species   valence    mass     pseudopotential
        Li             3.00     6.94100     Li( 1.00)
        Si             4.00    28.08550     Si( 1.00)

     48 Sym. Ops., with inversion, found



   Cartesian axes

     site n.     atom                  positions (alat units)
         1           Li  tau(   1) = (   0.0000000   0.0000000   0.0000000  )
         2           Si  tau(   2) = (   0.0000000   0.0000000   0.5000000  )

     number of k points=    16  Marzari-Vanderbilt smearing, width (Ry)=  0.0200
                       cart. coord. in units 2pi/alat
        k(    1) = (   0.0000000   0.0000000   0.0000000), wk =   0.0092593
        k(    2) = (  -0.1666667   0.1666667  -0.1666667), wk =   0.0740741
        k(    3) = (  -0.3333333   0.3333333  -0.3333333), wk =   0.0740741
        k(    4) = (   0.5000000  -0.5000000   0.5000000), wk =   0.0370370
        k(    5) = (   0.0000000   0.3333333   0.0000000), wk =   0.0555556
        k(    6) = (  -0.1666667   0.5000000  -0.1666667), wk =   0.2222222
        k(    7) = (   0.6666667  -0.3333333   0.6666667), wk =   0.2222222
        k(    8) = (   0.5000000  -0.1666667   0.5000000), wk =   0.2222222
        k(    9) = (   0.3333333   0.0000000   0.3333333), wk =   0.1111111
        k(   10) = (   0.0000000   0.6666667   0.0000000), wk =   0.0555556
        k(   11) = (   0.8333333  -0.1666667   0.8333333), wk =   0.2222222
        k(   12) = (   0.6666667  -0.0000000   0.6666667), wk =   0.1111111
        k(   13) = (   0.0000000  -1.0000000   0.0000000), wk =   0.0277778
        k(   14) = (   0.6666667  -0.3333333   1.0000000), wk =   0.2222222
        k(   15) = (   0.5000000  -0.1666667   0.8333333), wk =   0.2222222
        k(   16) = (  -0.3333333  -1.0000000   0.0000000), wk =   0.1111111

     Dense  grid:    18643 G-vectors     FFT dimensions: (  40,  40,  40)

     Estimated max dynamical RAM per process >      13.95 MB

     Estimated total dynamical RAM >     111.61 MB

     Initial potential from superposition of free atoms

     starting charge       6.9948, renormalised to       7.0000
     Starting wfcs are    6 randomized atomic wfcs +    2 random wfcs

     total cpu time spent up to now is        1.0 secs

     Self-consistent Calculation

     iteration #  1     ecut=    80.00 Ry     beta= 0.70
     Davidson diagonalization with overlap
     ethr =  1.00E-02,  avg # of iterations =  6.2

     Threshold (ethr) on eigenvalues was too large:
     Diagonalizing with lowered threshold

     Davidson diagonalization with overlap
     ethr =  4.41E-05,  avg # of iterations =  3.6

     total cpu time spent up to now is        1.4 secs

     total energy              =     -22.78570527 Ry
     estimated scf accuracy    <       0.00324421 Ry

     iteration #  2     ecut=    80.00 Ry     beta= 0.70
     Davidson diagonalization with overlap
     ethr =  4.63E-05,  avg # of iterations =  1.3

     total cpu time spent up to now is        1.6 secs

     total energy              =     -22.78596304 Ry
     estimated scf accuracy    <       0.00006648 Ry

     iteration #  3     ecut=    80.00 Ry     beta= 0.70
     Davidson diagonalization with overlap
     ethr =  9.50E-07,  avg # of iterations =  4.8

     total cpu time spent up to now is        1.7 secs

     total energy              =     -22.78598270 Ry
     estimated scf accuracy    <       0.00000349 Ry

     iteration #  4     ecut=    80.00 Ry     beta= 0.70
     Davidson diagonalization with overlap
     ethr =  4.99E-08,  avg # of iterations =  1.8

     total cpu time spent up to now is        1.9 secs

     total energy              =     -22.78598307 Ry
     estimated scf accuracy    <       0.00000011 Ry

     iteration #  5     ecut=    80.00 Ry     beta= 0.70
     Davidson diagonalization with overlap
     ethr =  1.51E-09,  avg # of iterations =  2.4

     total cpu time spent up to now is        2.0 secs

     End of self-consistent calculation

          k = 0.0000 0.0000 0.0000 (  2277 PWs)   bands (ev):

   -39.5244  -4.1022   9.8173   9.8173   9.8173  14.3199  14.3199  14.3199

          k =-0.1667 0.1667-0.1667 (  2331 PWs)   bands (ev):

   -39.5225  -3.6973   7.3742   9.4989   9.4989  13.9902  14.6354  14.6355

          k =-0.3333 0.3333-0.3333 (  2331 PWs)   bands (ev):

   -39.5189  -2.5645   3.9019   9.1889   9.1889  12.6153  12.6153  13.1053

          k = 0.5000-0.5000 0.5000 (  2332 PWs)   bands (ev):

   -39.5171  -1.5430   2.0306   9.1650   9.1650  11.7543  11.7543  12.7193

          k = 0.0000 0.3333 0.0000 (  2309 PWs)   bands (ev):

   -39.5220  -3.5547   8.2736   8.2736   8.7171  12.3890  13.2399  16.6179

          k =-0.1667 0.5000-0.1667 (  2320 PWs)   bands (ev):

   -39.5190  -2.6278   5.1818   7.6172   7.8850  11.8922  13.4501  15.7481

          k = 0.6667-0.3333 0.6667 (  2330 PWs)   bands (ev):

   -39.5166  -1.3092   2.5278   6.7540   7.7862  11.6426  14.0052  15.2072

          k = 0.5000-0.1667 0.5000 (  2327 PWs)   bands (ev):

   -39.5171  -1.7326   3.2551   6.2169   8.7497  12.2455  13.0952  15.4985

          k = 0.3333 0.0000 0.3333 (  2325 PWs)   bands (ev):

   -39.5201  -3.0324   6.3714   6.5211   9.9492  13.1028  13.5782  14.9324

          k = 0.0000 0.6667 0.0000 (  2357 PWs)   bands (ev):

   -39.5172  -1.8997   4.9429   6.5998   6.5998  10.4866  11.7428  19.6974

          k = 0.8333-0.1667 0.8333 (  2330 PWs)   bands (ev):

   -39.5155  -0.5605   2.9332   4.9989   6.4623  11.0107  12.9388  17.8138

          k = 0.6667-0.0000 0.6667 (  2315 PWs)   bands (ev):

   -39.5154  -0.4120   2.9142   3.8928   7.2282  11.4956  15.6900  16.7084

          k = 0.0000-1.0000 0.0000 (  2346 PWs)   bands (ev):

   -39.5149   0.3642   1.6391   6.0024   6.0024   9.8236  11.5935  21.3496

          k = 0.6667-0.3333 1.0000 (  2336 PWs)   bands (ev):

   -39.5166  -1.4837   4.3793   4.7403   7.1380  13.0055  13.5880  14.6829

          k = 0.5000-0.1667 0.8333 (  2314 PWs)   bands (ev):

   -39.5154  -0.4072   2.7018   4.4056   6.5628  13.3260  13.9519  16.7548

          k =-0.3333-1.0000 0.0000 (  2318 PWs)   bands (ev):

   -39.5149   0.3349   2.2779   4.1149   5.8554  12.9813  13.0835  16.9140

     the Fermi energy is     6.2826 ev

!    total energy              =     -22.78598310 Ry
     estimated scf accuracy    <          1.7E-09 Ry
     smearing contrib. (-TS)   =      -0.00118701 Ry
     internal energy E=F+TS    =     -22.78479609 Ry

     The total energy is F=E-TS. E is the sum of the following terms:
     one-electron contribution =      -4.37515307 Ry
     hartree contribution      =       3.39649687 Ry
     xc contribution           =      -6.44859841 Ry
     ewald contribution        =     -15.35754147 Ry

     convergence has been achieved in   5 iterations

     Forces acting on atoms (cartesian axes, Ry/au):

     atom    1 type  1   force =     0.00000000    0.00000000    0.00000000
     atom    2 type  2   force =     0.00000000    0.00000000    0.00000000
     The non-local contrib.  to forces
     atom    1 type  1   force =    -0.00000000   -0.00000000    0.00000000
     atom    2 type  2   force =     0.00000000   -0.00000000    0.00000000
     The ionic contribution  to forces
     atom    1 type  1   force =    -0.00000000   -0.00000000   -0.00000000
     atom    2 type  2   force =    -0.00000000   -0.00000000    0.00000000
     The local contribution  to forces
     atom    1 type  1   force =     0.00000000    0.00000000    0.00000000
     atom    2 type  2   force =     0.00000000   -0.00000000    0.00000000
     The core correction contribution to forces
     atom    1 type  1   force =     0.00000000    0.00000000    0.00000000
     atom    2 type  2   force =    -0.00000000   -0.00000000   -0.00000000
     The Hubbard contrib.    to forces
     atom    1 type  1   force =     0.00000000    0.00000000    0.00000000
     atom    2 type  2   force =     0.00000000    0.00000000    0.00000000
     The SCF correction term to forces
     atom    1 type  1   force =     0.00000000   -0.00000000   -0.00000000
     atom    2 type  2   force =     0.00000000    0.00000000    0.00000000

     Total force =     0.000000     Total SCF correction =     0.000000


     Computing stress (Cartesian axis) and pressure

          total   stress  (Ry/bohr**3)                   (kbar)     P=       83.39
   0.00056687  -0.00000000  -0.00000000           83.39       -0.00       -0.00
  -0.00000000   0.00056687   0.00000000           -0.00       83.39        0.00
  -0.00000000   0.00000000   0.00056687           -0.00        0.00       83.39


     BFGS Geometry Optimization
     Energy error            =      0.0E+00 Ry
     Gradient error          =      0.0E+00 Ry/Bohr
     Cell gradient error     =      4.2E+02 kbar

     number of scf cycles    =   1
     number of bfgs steps    =   0

     enthalpy           new  =     -22.1315049231 Ry

     new trust radius        =       0.1964941225 bohr
ibrav =      2
 celldm(1) =      8.51751136
Input lattice vectors:
    -0.46459919     0.00000000     0.46459919
    -0.00000000     0.46459919     0.46459919
    -0.46459919     0.46459919     0.00000000
New lattice vectors in INITIAL alat:
    -0.46459919     0.00000000     0.46459919
     0.00000000     0.46459919     0.46459919
    -0.46459919     0.46459919     0.00000000
New lattice vectors in NEW alat (for information only):
    -0.50000000     0.00000000     0.50000000
     0.00000000     0.50000000     0.50000000
    -0.50000000     0.50000000     0.00000000
Discrepancy in bohr =     0.000000    0.000000    0.000000
     new conv_thr            =       0.0000000100 Ry

     new unit-cell volume =    154.48210 a.u.^3 (    22.89189 Ang^3 )
     density =      2.54076 g/cm^3

CELL_PARAMETERS (alat=  9.16651544)
  -0.464599193   0.000000000   0.464599193
   0.000000000   0.464599193   0.464599193
  -0.464599193   0.464599193   0.000000000

ATOMIC_POSITIONS (crystal)
Li            0.0000000000        0.0000000000        0.0000000000
Si            0.5000000000        0.5000000000       -0.5000000000



     Writing config-only to output data dir ./output/LiSi.save/
     NEW-OLD atomic charge density approx. for the potential
     extrapolated charge    5.27613, renormalised to    7.00000

     total cpu time spent up to now is        2.8 secs

     Self-consistent Calculation

     iteration #  1     ecut=    80.00 Ry     beta= 0.70
     Davidson diagonalization with overlap
     ethr =  1.00E-06,  avg # of iterations =  7.9

     total cpu time spent up to now is        3.1 secs

     total energy              =     -22.69491300 Ry
     estimated scf accuracy    <       0.02301856 Ry

     iteration #  2     ecut=    80.00 Ry     beta= 0.70
     Davidson diagonalization with overlap
     ethr =  3.29E-04,  avg # of iterations =  2.3

     total cpu time spent up to now is        3.2 secs

     total energy              =     -22.74141511 Ry
     estimated scf accuracy    <       0.00723344 Ry

     iteration #  3     ecut=    80.00 Ry     beta= 0.70
     Davidson diagonalization with overlap
     ethr =  1.03E-04,  avg # of iterations =  1.1

     total cpu time spent up to now is        3.4 secs

     total energy              =     -22.74070533 Ry
     estimated scf accuracy    <       0.00140341 Ry

     iteration #  4     ecut=    80.00 Ry     beta= 0.70
     Davidson diagonalization with overlap
     ethr =  2.00E-05,  avg # of iterations =  2.1

     total cpu time spent up to now is        3.6 secs

     total energy              =     -22.74087421 Ry
     estimated scf accuracy    <       0.00000444 Ry

     iteration #  5     ecut=    80.00 Ry     beta= 0.70
     Davidson diagonalization with overlap
     ethr =  6.35E-08,  avg # of iterations =  2.4

     total cpu time spent up to now is        3.7 secs

     total energy              =     -22.74087522 Ry
     estimated scf accuracy    <       0.00000064 Ry

     iteration #  6     ecut=    80.00 Ry     beta= 0.70
     Davidson diagonalization with overlap
     ethr =  9.10E-09,  avg # of iterations =  2.0

     total cpu time spent up to now is        3.8 secs

     total energy              =     -22.74087534 Ry
     estimated scf accuracy    <       0.00000001 Ry

     iteration #  7     ecut=    80.00 Ry     beta= 0.70
     Davidson diagonalization with overlap
     ethr =  1.67E-10,  avg # of iterations =  2.4

     total cpu time spent up to now is        3.9 secs

     End of self-consistent calculation

          k = 0.0000 0.0000 0.0000 (  2277 PWs)   bands (ev):

   -37.4015  -2.9678  13.1286  13.1286  13.1286  17.0320  17.0320  17.0320

          k =-0.1794 0.1794-0.1794 (  2331 PWs)   bands (ev):

   -37.3965  -2.5076   9.9889  12.6284  12.6284  17.2328  17.7396  17.7396

          k =-0.3587 0.3587-0.3587 (  2331 PWs)   bands (ev):

   -37.3867  -1.1933   5.8526  12.2501  12.2501  15.3149  15.3149  16.6501

          k = 0.5381-0.5381 0.5381 (  2332 PWs)   bands (ev):

   -37.3817   0.0744   3.5794  12.3297  12.3297  14.1823  14.1823  16.2977

          k = 0.0000 0.3587 0.0000 (  2309 PWs)   bands (ev):

   -37.3950  -2.3454  10.9875  10.9875  12.1487  14.7459  16.0104  20.1947

          k =-0.1794 0.5381-0.1794 (  2320 PWs)   bands (ev):

   -37.3869  -1.2743   7.3916  10.1663  10.7764  14.5020  16.4374  19.1930

          k = 0.7175-0.3587 0.7175 (  2330 PWs)   bands (ev):

   -37.3803   0.3478   4.1524   9.3202  10.3721  14.3868  17.1604  19.0467

          k = 0.5381-0.1794 0.5381 (  2327 PWs)   bands (ev):

   -37.3819  -0.1912   5.0274   8.6533  11.5955  15.1822  16.0792  19.2752

          k = 0.3587 0.0000 0.3587 (  2325 PWs)   bands (ev):

   -37.3900  -1.7431   8.6648   9.0570  13.3561  15.8392  16.7767  18.2936

          k = 0.0000 0.7175 0.0000 (  2357 PWs)   bands (ev):

   -37.3823  -0.4301   7.4657   8.9323   8.9323  12.5249  14.8920  24.0729

          k = 0.8968-0.1794 0.8968 (  2330 PWs)   bands (ev):

   -37.3776   1.2379   4.8424   7.0029   8.7644  13.5577  16.1637  21.6659

          k = 0.7175-0.0000 0.7175 (  2315 PWs)   bands (ev):

   -37.3774   1.5486   4.3361   6.0202   9.6788  14.3593  19.3073  20.3251

          k = 0.0000-1.0762 0.0000 (  2346 PWs)   bands (ev):

   -37.3762   2.8370   2.8815   8.2187   8.2187  11.7532  14.9845  25.4058

          k = 0.7175-0.3587 1.0762 (  2336 PWs)   bands (ev):

   -37.3805   0.0936   6.5173   6.7327   9.6341  16.2088  16.4076  18.1625

          k = 0.5381-0.1794 0.8968 (  2314 PWs)   bands (ev):

   -37.3774   1.5530   4.2067   6.4439   8.9639  16.3572  17.3830  20.3804

          k =-0.3587-1.0762 0.0000 (  2318 PWs)   bands (ev):

   -37.3760   2.7992   3.5875   5.7771   8.1894  15.6826  16.5165  20.8563

     the Fermi energy is     8.6586 ev

!    total energy              =     -22.74087534 Ry
     estimated scf accuracy    <          1.6E-10 Ry
     smearing contrib. (-TS)   =      -0.00144008 Ry
     internal energy E=F+TS    =     -22.73943526 Ry

     The total energy is F=E-TS. E is the sum of the following terms:
     one-electron contribution =      -2.81100937 Ry
     hartree contribution      =       3.21344800 Ry
     xc contribution           =      -6.61414235 Ry
     ewald contribution        =     -16.52773153 Ry

     convergence has been achieved in   7 iterations

     Forces acting on atoms (cartesian axes, Ry/au):

     atom    1 type  1   force =    -0.00000000   -0.00000000    0.00000000
     atom    2 type  2   force =     0.00000000    0.00000000   -0.00000000
     The non-local contrib.  to forces
     atom    1 type  1   force =     0.00000000    0.00000000    0.00000000
     atom    2 type  2   force =     0.00000000    0.00000000    0.00000000
     The ionic contribution  to forces
     atom    1 type  1   force =     0.00000000   -0.00000000   -0.00000000
     atom    2 type  2   force =     0.00000000   -0.00000000    0.00000000
     The local contribution  to forces
     atom    1 type  1   force =     0.00000000    0.00000000    0.00000000
     atom    2 type  2   force =     0.00000000   -0.00000000   -0.00000000
     The core correction contribution to forces
     atom    1 type  1   force =     0.00000000    0.00000000    0.00000000
     atom    2 type  2   force =     0.00000000    0.00000000   -0.00000000
     The Hubbard contrib.    to forces
     atom    1 type  1   force =     0.00000000    0.00000000    0.00000000
     atom    2 type  2   force =     0.00000000    0.00000000    0.00000000
     The SCF correction term to forces
     atom    1 type  1   force =    -0.00000000   -0.00000000    0.00000000
     atom    2 type  2   force =     0.00000000   -0.00000000    0.00000000

     Total force =     0.000000     Total SCF correction =     0.000000


     Computing stress (Cartesian axis) and pressure

          total   stress  (Ry/bohr**3)                   (kbar)     P=      297.58
   0.00202288  -0.00000000   0.00000000          297.58       -0.00        0.00
  -0.00000000   0.00202288   0.00000000           -0.00      297.58        0.00
   0.00000000   0.00000000   0.00202288            0.00        0.00      297.58

     Energy error            =      8.4E-02 Ry
     Gradient error          =      1.0E-34 Ry/Bohr
     Cell gradient error     =      2.0E+02 kbar

     number of scf cycles    =   2
     number of bfgs steps    =   1

     enthalpy           old  =     -22.1315049231 Ry
     enthalpy           new  =     -22.2158013455 Ry

     CASE: enthalpy          _new < enthalpy          _old

     new trust radius        =       0.1368872920 bohr
ibrav =      2
 celldm(1) =      8.04847472
Input lattice vectors:
    -0.43901495     0.00000000     0.43901495
    -0.00000000     0.43901495     0.43901495
    -0.43901495     0.43901495    -0.00000000
New lattice vectors in INITIAL alat:
    -0.43901495     0.00000000     0.43901495
     0.00000000     0.43901495     0.43901495
    -0.43901495     0.43901495     0.00000000
New lattice vectors in NEW alat (for information only):
    -0.50000000     0.00000000     0.50000000
     0.00000000     0.50000000     0.50000000
    -0.50000000     0.50000000     0.00000000
Discrepancy in bohr =     0.000000    0.000000    0.000000
     new conv_thr            =            1.0E-10 Ry

     new unit-cell volume =    130.34091 a.u.^3 (    19.31453 Ang^3 )
     density =      3.01135 g/cm^3

CELL_PARAMETERS (alat=  9.16651544)
  -0.439014955   0.000000000   0.439014955
   0.000000000   0.439014955   0.439014955
  -0.439014955   0.439014955   0.000000000

ATOMIC_POSITIONS (crystal)
Li            0.0000000000       -0.0000000000        0.0000000000
Si            0.5000000000        0.5000000000       -0.5000000000



     Writing config-only to output data dir ./output/LiSi.save/
     NEW-OLD atomic charge density approx. for the potential
     extrapolated charge    5.70445, renormalised to    7.00000

     total cpu time spent up to now is        4.6 secs

     Self-consistent Calculation

     iteration #  1     ecut=    80.00 Ry     beta= 0.70
     Davidson diagonalization with overlap
     ethr =  1.00E-06,  avg # of iterations =  7.3

     total cpu time spent up to now is        4.8 secs

     total energy              =     -22.64413264 Ry
     estimated scf accuracy    <       0.00995811 Ry

     iteration #  2     ecut=    80.00 Ry     beta= 0.70
     Davidson diagonalization with overlap
     ethr =  1.42E-04,  avg # of iterations =  2.5

     total cpu time spent up to now is        4.9 secs

     total energy              =     -22.67120314 Ry
     estimated scf accuracy    <       0.00464104 Ry

     iteration #  3     ecut=    80.00 Ry     beta= 0.70
     Davidson diagonalization with overlap
     ethr =  6.63E-05,  avg # of iterations =  1.0

     total cpu time spent up to now is        5.0 secs

     total energy              =     -22.67054512 Ry
     estimated scf accuracy    <       0.00112914 Ry

     iteration #  4     ecut=    80.00 Ry     beta= 0.70
     Davidson diagonalization with overlap
     ethr =  1.61E-05,  avg # of iterations =  1.9

     total cpu time spent up to now is        5.1 secs

     total energy              =     -22.67067796 Ry
     estimated scf accuracy    <       0.00000168 Ry

     iteration #  5     ecut=    80.00 Ry     beta= 0.70
     Davidson diagonalization with overlap
     ethr =  2.40E-08,  avg # of iterations =  2.7

     total cpu time spent up to now is        5.2 secs

     total energy              =     -22.67067896 Ry
     estimated scf accuracy    <       0.00000048 Ry

     iteration #  6     ecut=    80.00 Ry     beta= 0.70
     Davidson diagonalization with overlap
     ethr =  6.80E-09,  avg # of iterations =  2.0

     total cpu time spent up to now is        5.3 secs

     total energy              =     -22.67067903 Ry
     estimated scf accuracy    <       0.00000002 Ry

     iteration #  7     ecut=    80.00 Ry     beta= 0.70
     Davidson diagonalization with overlap
     ethr =  2.54E-10,  avg # of iterations =  2.0

     total cpu time spent up to now is        5.4 secs

     total energy              =     -22.67067904 Ry
     estimated scf accuracy    <          1.4E-10 Ry

     iteration #  8     ecut=    80.00 Ry     beta= 0.70
     Davidson diagonalization with overlap
     ethr =  2.07E-12,  avg # of iterations =  2.8

     total cpu time spent up to now is        5.5 secs

     End of self-consistent calculation

          k = 0.0000 0.0000 0.0000 (  2277 PWs)   bands (ev):

   -35.6754  -1.8533  16.1315  16.1315  16.1315  19.4477  19.4477  19.4477

          k =-0.1898 0.1898-0.1898 (  2331 PWs)   bands (ev):

   -35.6653  -1.3596  12.2938  15.4084  15.4084  20.1694  20.6002  20.6003

          k =-0.3796 0.3796-0.3796 (  2331 PWs)   bands (ev):

   -35.6451   0.0678   7.6265  14.9623  14.9623  17.8002  17.8002  19.8840

          k = 0.5695-0.5695 0.5695 (  2332 PWs)   bands (ev):

   -35.6351   1.4939   5.0616  15.2297  15.2297  16.3364  16.3364  19.5805

          k = 0.0000 0.3796 0.0000 (  2309 PWs)   bands (ev):

   -35.6621  -1.1855  13.4089  13.4089  15.3281  16.8421  18.4781  23.4266

          k =-0.1898 0.5695-0.1898 (  2320 PWs)   bands (ev):

   -35.6456  -0.0242   9.3487  12.4492  13.4351  16.8489  19.1661  22.2987

          k = 0.7593-0.3796 0.7593 (  2330 PWs)   bands (ev):

   -35.6323   1.7969   5.6743  11.6815  12.6778  16.8895  20.0351  22.4829

          k = 0.5695-0.1898 0.5695 (  2327 PWs)   bands (ev):

   -35.6355   1.1835   6.6386  10.9114  14.1015  17.8601  18.8391  22.6646

          k = 0.3796-0.0000 0.3796 (  2325 PWs)   bands (ev):

   -35.6520  -0.5328  10.5659  11.4886  16.4303  18.3377  19.6853  21.3235

          k = 0.0000 0.7593 0.0000 (  2357 PWs)   bands (ev):

   -35.6365   0.8854   9.8177  11.0415  11.0415  14.3393  17.8139  27.9957

          k = 0.9491-0.1898 0.9491 (  2330 PWs)   bands (ev):

   -35.6268   2.7321   6.6939   8.8797  10.8474  15.8179  19.1726  25.1083

          k = 0.7593 0.0000 0.7593 (  2315 PWs)   bands (ev):

   -35.6264   3.2327   5.6340   8.0913  11.8777  16.9687  22.5974  23.5696

          k = 0.0000-1.1389 0.0000 (  2346 PWs)   bands (ev):

   -35.6241   3.9465   5.2053  10.2333  10.2333  13.4715  18.1267  29.0269

          k = 0.7593-0.3796 1.1389 (  2336 PWs)   bands (ev):

   -35.6328   1.4864   8.1138   8.9337  11.9144  18.9255  19.1147  21.3311

          k = 0.5695-0.1898 0.9491 (  2314 PWs)   bands (ev):

   -35.6264   3.2258   5.5969   8.3938  11.1794  19.0828  20.4515  23.6177

          k =-0.3796-1.1389-0.0000 (  2318 PWs)   bands (ev):

   -35.6236   4.7911   5.0435   7.2779  10.3606  18.1023  19.6450  24.4098

     the Fermi energy is    10.7661 ev

!    total energy              =     -22.67067904 Ry
     estimated scf accuracy    <          8.2E-11 Ry
     smearing contrib. (-TS)   =      -0.00070911 Ry
     internal energy E=F+TS    =     -22.66996993 Ry

     The total energy is F=E-TS. E is the sum of the following terms:
     one-electron contribution =      -1.50559827 Ry
     hartree contribution      =       3.08897108 Ry
     xc contribution           =      -6.76243347 Ry
     ewald contribution        =     -17.49090927 Ry

     convergence has been achieved in   8 iterations

     Forces acting on atoms (cartesian axes, Ry/au):

     atom    1 type  1   force =    -0.00000000    0.00000000    0.00000000
     atom    2 type  2   force =    -0.00000000   -0.00000000   -0.00000000
     The non-local contrib.  to forces
     atom    1 type  1   force =     0.00000000    0.00000000    0.00000000
     atom    2 type  2   force =    -0.00000000    0.00000000    0.00000000
     The ionic contribution  to forces
     atom    1 type  1   force =    -0.00000000   -0.00000000   -0.00000000
     atom    2 type  2   force =     0.00000000   -0.00000000   -0.00000000
     The local contribution  to forces
     atom    1 type  1   force =     0.00000000    0.00000000    0.00000000
     atom    2 type  2   force =    -0.00000000    0.00000000    0.00000000
     The core correction contribution to forces
     atom    1 type  1   force =     0.00000000    0.00000000    0.00000000
     atom    2 type  2   force =    -0.00000000    0.00000000    0.00000000
     The Hubbard contrib.    to forces
     atom    1 type  1   force =     0.00000000    0.00000000    0.00000000
     atom    2 type  2   force =     0.00000000    0.00000000    0.00000000
     The SCF correction term to forces
     atom    1 type  1   force =    -0.00000000   -0.00000000   -0.00000000
     atom    2 type  2   force =     0.00000000   -0.00000000   -0.00000000

     Total force =     0.000000     Total SCF correction =     0.000000


     Computing stress (Cartesian axis) and pressure

          total   stress  (Ry/bohr**3)                   (kbar)     P=      589.84
   0.00400963   0.00000000  -0.00000000          589.84        0.00       -0.00
   0.00000000   0.00400963   0.00000000            0.00      589.84        0.00
  -0.00000000   0.00000000   0.00400963           -0.00        0.00      589.84

     Energy error            =      1.2E-02 Ry
     Gradient error          =      7.0E-33 Ry/Bohr
     Cell gradient error     =      9.0E+01 kbar

     number of scf cycles    =   3
     number of bfgs steps    =   2

     enthalpy           old  =     -22.2158013455 Ry
     enthalpy           new  =     -22.2276592749 Ry

     CASE: enthalpy          _new < enthalpy          _old

     new trust radius        =       0.0377646359 bohr
ibrav =      2
 celldm(1) =      8.18159019
Input lattice vectors:
    -0.44627592     0.00000000     0.44627592
    -0.00000000     0.44627592     0.44627592
    -0.44627592     0.44627592     0.00000000
New lattice vectors in INITIAL alat:
    -0.44627592     0.00000000     0.44627592
     0.00000000     0.44627592     0.44627592
    -0.44627592     0.44627592     0.00000000
New lattice vectors in NEW alat (for information only):
    -0.50000000     0.00000000     0.50000000
     0.00000000     0.50000000     0.50000000
    -0.50000000     0.50000000     0.00000000
Discrepancy in bohr =     0.000000    0.000000    0.000000
     new conv_thr            =            1.0E-10 Ry

     new unit-cell volume =    136.91568 a.u.^3 (    20.28881 Ang^3 )
     density =      2.86675 g/cm^3

CELL_PARAMETERS (alat=  9.16651544)
  -0.446275918   0.000000000   0.446275918
   0.000000000   0.446275918   0.446275918
  -0.446275918   0.446275918   0.000000000

ATOMIC_POSITIONS (crystal)
Li            0.0000000000        0.0000000000       -0.0000000000
Si            0.5000000000        0.5000000000       -0.5000000000



     Writing config-only to output data dir ./output/LiSi.save/
     NEW-OLD atomic charge density approx. for the potential
     extrapolated charge    7.33590, renormalised to    7.00000

     total cpu time spent up to now is        6.1 secs

     Self-consistent Calculation

     iteration #  1     ecut=    80.00 Ry     beta= 0.70
     Davidson diagonalization with overlap
     ethr =  1.00E-06,  avg # of iterations =  5.4

     total cpu time spent up to now is        6.3 secs

     total energy              =     -22.69301111 Ry
     estimated scf accuracy    <       0.00033530 Ry

     iteration #  2     ecut=    80.00 Ry     beta= 0.70
     Davidson diagonalization with overlap
     ethr =  4.79E-06,  avg # of iterations =  3.2

     total cpu time spent up to now is        6.4 secs

     total energy              =     -22.69480113 Ry
     estimated scf accuracy    <       0.00033956 Ry

     iteration #  3     ecut=    80.00 Ry     beta= 0.70
     Davidson diagonalization with overlap
     ethr =  4.79E-06,  avg # of iterations =  1.0

     total cpu time spent up to now is        6.5 secs

     total energy              =     -22.69474176 Ry
     estimated scf accuracy    <       0.00011720 Ry

     iteration #  4     ecut=    80.00 Ry     beta= 0.70
     Davidson diagonalization with overlap
     ethr =  1.67E-06,  avg # of iterations =  1.0

     total cpu time spent up to now is        6.6 secs

     total energy              =     -22.69473889 Ry
     estimated scf accuracy    <       0.00001487 Ry

     iteration #  5     ecut=    80.00 Ry     beta= 0.70
     Davidson diagonalization with overlap
     ethr =  2.12E-07,  avg # of iterations =  1.1

     total cpu time spent up to now is        6.7 secs

     total energy              =     -22.69473882 Ry
     estimated scf accuracy    <       0.00000133 Ry

     iteration #  6     ecut=    80.00 Ry     beta= 0.70
     Davidson diagonalization with overlap
     ethr =  1.90E-08,  avg # of iterations =  2.0

     total cpu time spent up to now is        6.8 secs

     total energy              =     -22.69473903 Ry
     estimated scf accuracy    <       0.00000008 Ry

     iteration #  7     ecut=    80.00 Ry     beta= 0.70
     Davidson diagonalization with overlap
     ethr =  1.21E-09,  avg # of iterations =  2.0

     total cpu time spent up to now is        6.9 secs

     total energy              =     -22.69473904 Ry
     estimated scf accuracy    <          6.9E-10 Ry

     iteration #  8     ecut=    80.00 Ry     beta= 0.70
     Davidson diagonalization with overlap
     ethr =  9.91E-12,  avg # of iterations =  2.6

     total cpu time spent up to now is        7.0 secs

     total energy              =     -22.69473904 Ry
     estimated scf accuracy    <          2.6E-10 Ry

     iteration #  9     ecut=    80.00 Ry     beta= 0.70
     Davidson diagonalization with overlap
     ethr =  3.69E-12,  avg # of iterations =  2.0

     total cpu time spent up to now is        7.2 secs

     total energy              =     -22.69473904 Ry
     estimated scf accuracy    <          1.7E-10 Ry

     iteration # 10     ecut=    80.00 Ry     beta= 0.70
     Davidson diagonalization with overlap
     ethr =  2.38E-12,  avg # of iterations =  2.0

     total cpu time spent up to now is        7.3 secs

     End of self-consistent calculation

          k = 0.0000 0.0000 0.0000 (  2277 PWs)   bands (ev):

   -36.1818  -2.2016  15.2190  15.2190  15.2190  18.7168  18.7168  18.7168

          k =-0.1867 0.1867-0.1867 (  2331 PWs)   bands (ev):

   -36.1736  -1.7165  11.5992  14.5700  14.5700  19.2759  19.7239  19.7239

          k =-0.3735 0.3735-0.3735 (  2331 PWs)   bands (ev):

   -36.1571  -0.3187   7.0867  14.1465  14.1465  17.0378  17.0378  18.8990

          k = 0.5602-0.5602 0.5602 (  2332 PWs)   bands (ev):

   -36.1489   1.0658   4.6034  14.3449  14.3449  15.6855  15.6855  18.5790

          k =-0.0000 0.3735-0.0000 (  2309 PWs)   bands (ev):

   -36.1710  -1.5455  12.6764  12.6764  14.3551  16.2082  17.7314  22.4450

          k =-0.1867 0.5602-0.1867 (  2320 PWs)   bands (ev):

   -36.1575  -0.4079   8.7578  11.7577  12.6249  16.1361  18.3330  21.3557

          k = 0.7469-0.3735 0.7469 (  2330 PWs)   bands (ev):

   -36.1466   1.3600   5.2071  10.9610  11.9805  16.1261  19.1590  21.4431

          k = 0.5602-0.1867 0.5602 (  2327 PWs)   bands (ev):

   -36.1492   0.7662   6.1485  10.2208  13.3474  17.0436  17.9936  21.6372

          k = 0.3735-0.0000 0.3735 (  2325 PWs)   bands (ev):

   -36.1627  -0.9061   9.9914  10.7503  15.5018  17.5709  18.7992  20.4042

          k =-0.0000 0.7469-0.0000 (  2357 PWs)   bands (ev):

   -36.1499   0.4853   9.0976  10.4005  10.4005  13.7905  16.9184  26.8062

          k = 0.9337-0.1867 0.9337 (  2330 PWs)   bands (ev):

   -36.1421   2.2884   6.1232   8.3013  10.2143  15.1336  18.2504  24.0656

          k = 0.7469 0.0000 0.7469 (  2315 PWs)   bands (ev):

   -36.1417   2.7285   5.2383   7.4486  11.2111  16.1736  21.5955  22.5850

          k = 0.0000-1.1204 0.0000 (  2346 PWs)   bands (ev):

   -36.1398   3.6068   4.4941   9.6200   9.6200  12.9517  17.1647  27.9306

          k = 0.7469-0.3735 1.1204 (  2336 PWs)   bands (ev):

   -36.1470   1.0646   7.6294   8.2598  11.2189  18.1631  18.2303  20.3656

          k = 0.5602-0.1867 0.9337 (  2314 PWs)   bands (ev):

   -36.1417   2.7265   5.1718   7.7915  10.5015  18.2555  19.5226  22.6368

          k =-0.3735-1.1204 0.0000 (  2318 PWs)   bands (ev):

   -36.1394   4.3600   4.4234   6.8219   9.6948  17.3689  18.6916  23.3307

     the Fermi energy is    10.1283 ev

!    total energy              =     -22.69473904 Ry
     estimated scf accuracy    <          5.8E-13 Ry
     smearing contrib. (-TS)   =      -0.00107012 Ry
     internal energy E=F+TS    =     -22.69366892 Ry

     The total energy is F=E-TS. E is the sum of the following terms:
     one-electron contribution =      -1.89349816 Ry
     hartree contribution      =       3.12365522 Ry
     xc contribution           =      -6.71749593 Ry
     ewald contribution        =     -17.20633005 Ry

     convergence has been achieved in  10 iterations

     Forces acting on atoms (cartesian axes, Ry/au):

     atom    1 type  1   force =    -0.00000000   -0.00000000    0.00000000
     atom    2 type  2   force =     0.00000000    0.00000000    0.00000000
     The non-local contrib.  to forces
     atom    1 type  1   force =    -0.00000000   -0.00000000   -0.00000000
     atom    2 type  2   force =    -0.00000000   -0.00000000    0.00000000
     The ionic contribution  to forces
     atom    1 type  1   force =    -0.00000000    0.00000000   -0.00000000
     atom    2 type  2   force =     0.00000000   -0.00000000   -0.00000000
     The local contribution  to forces
     atom    1 type  1   force =     0.00000000    0.00000000    0.00000000
     atom    2 type  2   force =    -0.00000000    0.00000000    0.00000000
     The core correction contribution to forces
     atom    1 type  1   force =     0.00000000    0.00000000    0.00000000
     atom    2 type  2   force =    -0.00000000    0.00000000    0.00000000
     The Hubbard contrib.    to forces
     atom    1 type  1   force =     0.00000000    0.00000000    0.00000000
     atom    2 type  2   force =     0.00000000    0.00000000    0.00000000
     The SCF correction term to forces
     atom    1 type  1   force =    -0.00000000   -0.00000000   -0.00000000
     atom    2 type  2   force =     0.00000000   -0.00000000    0.00000000

     Total force =     0.000000     Total SCF correction =     0.000000


     Computing stress (Cartesian axis) and pressure

          total   stress  (Ry/bohr**3)                   (kbar)     P=      490.03
   0.00333113  -0.00000000   0.00000000          490.03       -0.00        0.00
  -0.00000000   0.00333113   0.00000000           -0.00      490.03        0.00
   0.00000000  -0.00000000   0.00333113            0.00       -0.00      490.03

     Energy error            =      1.7E-03 Ry
     Gradient error          =      1.8E-32 Ry/Bohr
     Cell gradient error     =      1.0E+01 kbar

     number of scf cycles    =   4
     number of bfgs steps    =   3

     enthalpy           old  =     -22.2276592749 Ry
     enthalpy           new  =     -22.2293721124 Ry

     CASE: enthalpy          _new < enthalpy          _old

     new trust radius        =       0.0039189040 bohr
ibrav =      2
 celldm(1) =      8.16788939
Input lattice vectors:
    -0.44552859     0.00000000     0.44552859
     0.00000000     0.44552859     0.44552859
    -0.44552859     0.44552859    -0.00000000
New lattice vectors in INITIAL alat:
    -0.44552859     0.00000000     0.44552859
     0.00000000     0.44552859     0.44552859
    -0.44552859     0.44552859     0.00000000
New lattice vectors in NEW alat (for information only):
    -0.50000000     0.00000000     0.50000000
     0.00000000     0.50000000     0.50000000
    -0.50000000     0.50000000     0.00000000
Discrepancy in bohr =     0.000000    0.000000    0.000000
     new conv_thr            =            1.0E-10 Ry

     new unit-cell volume =    136.22899 a.u.^3 (    20.18705 Ang^3 )
     density =      2.88120 g/cm^3

CELL_PARAMETERS (alat=  9.16651544)
  -0.445528589   0.000000000   0.445528589
   0.000000000   0.445528589   0.445528589
  -0.445528589   0.445528589   0.000000000

ATOMIC_POSITIONS (crystal)
Li            0.0000000000        0.0000000000       -0.0000000000
Si            0.5000000000        0.5000000000       -0.5000000000



     Writing config-only to output data dir ./output/LiSi.save/
     NEW-OLD atomic charge density approx. for the potential
     extrapolated charge    6.96474, renormalised to    7.00000

     total cpu time spent up to now is        7.9 secs

     Self-consistent Calculation

     iteration #  1     ecut=    80.00 Ry     beta= 0.70
     Davidson diagonalization with overlap
     ethr =  1.00E-06,  avg # of iterations =  2.0

     Threshold (ethr) on eigenvalues was too large:
     Diagonalizing with lowered threshold

     Davidson diagonalization with overlap
     ethr =  5.92E-08,  avg # of iterations =  2.0

     total cpu time spent up to now is        8.1 secs

     total energy              =     -22.69241030 Ry
     estimated scf accuracy    <       0.00000420 Ry

     iteration #  2     ecut=    80.00 Ry     beta= 0.70
     Davidson diagonalization with overlap
     ethr =  6.00E-08,  avg # of iterations =  2.6

     total cpu time spent up to now is        8.3 secs

     total energy              =     -22.69243001 Ry
     estimated scf accuracy    <       0.00000357 Ry

     iteration #  3     ecut=    80.00 Ry     beta= 0.70
     Davidson diagonalization with overlap
     ethr =  5.10E-08,  avg # of iterations =  1.0

     total cpu time spent up to now is        8.4 secs

     total energy              =     -22.69242933 Ry
     estimated scf accuracy    <       0.00000116 Ry

     iteration #  4     ecut=    80.00 Ry     beta= 0.70
     Davidson diagonalization with overlap
     ethr =  1.66E-08,  avg # of iterations =  1.6

     total cpu time spent up to now is        8.5 secs

     total energy              =     -22.69242940 Ry
     estimated scf accuracy    <       0.00000005 Ry

     iteration #  5     ecut=    80.00 Ry     beta= 0.70
     Davidson diagonalization with overlap
     ethr =  6.56E-10,  avg # of iterations =  1.1

     total cpu time spent up to now is        8.6 secs

     total energy              =     -22.69242940 Ry
     estimated scf accuracy    <          6.1E-09 Ry

     iteration #  6     ecut=    80.00 Ry     beta= 0.70
     Davidson diagonalization with overlap
     ethr =  8.77E-11,  avg # of iterations =  2.0

     total cpu time spent up to now is        8.7 secs

     total energy              =     -22.69242940 Ry
     estimated scf accuracy    <          6.3E-10 Ry

     iteration #  7     ecut=    80.00 Ry     beta= 0.70
     Davidson diagonalization with overlap
     ethr =  9.01E-12,  avg # of iterations =  1.9

     total cpu time spent up to now is        8.8 secs

     End of self-consistent calculation

          k = 0.0000 0.0000 0.0000 (  2277 PWs)   bands (ev):

   -36.1303  -2.1670  15.3105  15.3105  15.3105  18.7903  18.7903  18.7903

          k =-0.1870 0.1870-0.1870 (  2331 PWs)   bands (ev):

   -36.1219  -1.6810  11.6691  14.6544  14.6544  19.3655  19.8116  19.8116

          k =-0.3741 0.3741-0.3741 (  2331 PWs)   bands (ev):

   -36.1051  -0.2801   7.1408  14.2287  14.2287  17.1140  17.1140  18.9977

          k = 0.5611-0.5611 0.5611 (  2332 PWs)   bands (ev):

   -36.0967   1.1089   4.6490  14.4336  14.4336  15.7510  15.7510  18.6794

          k = 0.0000 0.3741 0.0000 (  2309 PWs)   bands (ev):

   -36.1192  -1.5096  12.7500  12.7500  14.4525  16.2719  17.8064  22.5435

          k =-0.1870 0.5611-0.1870 (  2320 PWs)   bands (ev):

   -36.1055  -0.3695   8.8173  11.8272  12.7062  16.2076  18.4164  21.4503

          k = 0.7482-0.3741 0.7482 (  2330 PWs)   bands (ev):

   -36.0944   1.4040   5.2538  11.0332  12.0506  16.2026  19.2468  21.5476

          k = 0.5611-0.1870 0.5611 (  2327 PWs)   bands (ev):

   -36.0970   0.8080   6.1976  10.2899  13.4234  17.1254  18.0782  21.7405

          k = 0.3741 0.0000 0.3741 (  2325 PWs)   bands (ev):

   -36.1108  -0.8688  10.0492  10.8244  15.5953  17.6475  18.8880  20.4966

          k = 0.0000 0.7482 0.0000 (  2357 PWs)   bands (ev):

   -36.0978   0.5255   9.1696  10.4649  10.4649  13.8457  17.0080  26.9254

          k = 0.9352-0.1870 0.9352 (  2330 PWs)   bands (ev):

   -36.0897   2.3333   6.1802   8.3590  10.2778  15.2024  18.3426  24.1704

          k = 0.7482 0.0000 0.7482 (  2315 PWs)   bands (ev):

   -36.0894   2.7794   5.2780   7.5126  11.2781  16.2533  21.6959  22.6838

          k = 0.0000-1.1223 0.0000 (  2346 PWs)   bands (ev):

   -36.0874   3.6408   4.5653   9.6815   9.6815  13.0039  17.2610  28.0408

          k = 0.7482-0.3741 1.1223 (  2336 PWs)   bands (ev):

   -36.0947   1.1070   7.6781   8.3273  11.2886  18.2397  18.3190  20.4624

          k = 0.5611-0.1870 0.9352 (  2314 PWs)   bands (ev):

   -36.0894   2.7770   5.2143   7.8516  10.5693  18.3386  19.6159  22.7353

          k =-0.3741-1.1223-0.0000 (  2318 PWs)   bands (ev):

   -36.0871   4.4285   4.4602   6.8677   9.7614  17.4426  18.7871  23.4390

     the Fermi energy is    10.1924 ev

!    total energy              =     -22.69242940 Ry
     estimated scf accuracy    <          2.3E-12 Ry
     smearing contrib. (-TS)   =      -0.00103684 Ry
     internal energy E=F+TS    =     -22.69139256 Ry

     The total energy is F=E-TS. E is the sum of the following terms:
     one-electron contribution =      -1.85425379 Ry
     hartree contribution      =       3.12006252 Ry
     xc contribution           =      -6.72200939 Ry
     ewald contribution        =     -17.23519190 Ry

     convergence has been achieved in   7 iterations

     Forces acting on atoms (cartesian axes, Ry/au):

     atom    1 type  1   force =     0.00000000    0.00000000    0.00000000
     atom    2 type  2   force =     0.00000000    0.00000000    0.00000000
     The non-local contrib.  to forces
     atom    1 type  1   force =    -0.00000000   -0.00000000   -0.00000000
     atom    2 type  2   force =    -0.00000000   -0.00000000    0.00000000
     The ionic contribution  to forces
     atom    1 type  1   force =     0.00000000    0.00000000   -0.00000000
     atom    2 type  2   force =     0.00000000   -0.00000000   -0.00000000
     The local contribution  to forces
     atom    1 type  1   force =     0.00000000    0.00000000    0.00000000
     atom    2 type  2   force =    -0.00000000   -0.00000000    0.00000000
     The core correction contribution to forces
     atom    1 type  1   force =     0.00000000    0.00000000    0.00000000
     atom    2 type  2   force =     0.00000000   -0.00000000    0.00000000
     The Hubbard contrib.    to forces
     atom    1 type  1   force =     0.00000000    0.00000000    0.00000000
     atom    2 type  2   force =     0.00000000    0.00000000    0.00000000
     The SCF correction term to forces
     atom    1 type  1   force =    -0.00000000    0.00000000   -0.00000000
     atom    2 type  2   force =     0.00000000   -0.00000000    0.00000000

     Total force =     0.000000     Total SCF correction =     0.000000


     Computing stress (Cartesian axis) and pressure

          total   stress  (Ry/bohr**3)                   (kbar)     P=      499.58
   0.00339605   0.00000000   0.00000000          499.58        0.00        0.00
   0.00000000   0.00339605  -0.00000000            0.00      499.58       -0.00
   0.00000000  -0.00000000   0.00339605            0.00       -0.00      499.58

     Energy error            =      2.4E-05 Ry
     Gradient error          =      0.0E+00 Ry/Bohr
     Cell gradient error     =      4.2E-01 kbar
ibrav =      2
 celldm(1) =      8.16788939
Input lattice vectors:
    -0.44552859     0.00000000     0.44552859
     0.00000000     0.44552859     0.44552859
    -0.44552859     0.44552859     0.00000000
New lattice vectors in INITIAL alat:
    -0.44552859     0.00000000     0.44552859
     0.00000000     0.44552859     0.44552859
    -0.44552859     0.44552859     0.00000000
New lattice vectors in NEW alat (for information only):
    -0.50000000     0.00000000     0.50000000
     0.00000000     0.50000000     0.50000000
    -0.50000000     0.50000000     0.00000000
Discrepancy in bohr =     0.000000    0.000000    0.000000

     bfgs converged in   5 scf cycles and   4 bfgs steps
     (criteria: energy <  1.0E-04 Ry, force <  1.0E-03 Ry/Bohr, cell <  1.0E+00 kbar)

     End of BFGS Geometry Optimization

     Final enthalpy           =     -22.2293964551 Ry

     File ./output/LiSi.bfgs deleted, as requested
Begin final coordinates
     new unit-cell volume =    136.22899 a.u.^3 (    20.18705 Ang^3 )
     density =      2.88120 g/cm^3

CELL_PARAMETERS (alat=  9.16651544)
  -0.445528589   0.000000000   0.445528589
   0.000000000   0.445528589   0.445528589
  -0.445528589   0.445528589   0.000000000

ATOMIC_POSITIONS (crystal)
Li            0.0000000000        0.0000000000       -0.0000000000
Si            0.5000000000        0.5000000000       -0.5000000000
End final coordinates



     Writing config-only to output data dir ./output/LiSi.save/

     Final scf calculation at the relaxed structure.
     The G-vectors are recalculated for the final unit cell
     Results may differ from those at the preceding step.

     Parallelization info
     --------------------
     sticks:   dense  smooth     PW     G-vecs:    dense   smooth      PW
     Min          93      93     27                 1665     1665     278
     Max          94      94     28                 1668     1668     280
     Sum         745     745    223                13323    13323    2229

     Using Slab Decomposition



     bravais-lattice index     =            2
     lattice parameter (alat)  =       9.1665  a.u.
     unit-cell volume          =     136.2290 (a.u.)^3
     number of atoms/cell      =            2
     number of atomic types    =            2
     number of electrons       =         7.00
     number of Kohn-Sham states=            8
     kinetic-energy cutoff     =      80.0000  Ry
     charge density cutoff     =     320.0000  Ry
     scf convergence threshold =      1.0E-10
     mixing beta               =       0.7000
     number of iterations used =            8  plain     mixing
     press convergence thresh. =      1.0E+00
     Exchange-correlation= PBE
                           (   1   4   3   4   0   0   0)

     celldm(1)=   9.166515  celldm(2)=   0.000000  celldm(3)=   0.000000
     celldm(4)=   0.000000  celldm(5)=   0.000000  celldm(6)=   0.000000

     crystal axes: (cart. coord. in units of alat)
               a(1) = (  -0.445529   0.000000   0.445529 )  
               a(2) = (   0.000000   0.445529   0.445529 )  
               a(3) = (  -0.445529   0.445529   0.000000 )  

     reciprocal axes: (cart. coord. in units 2 pi/alat)
               b(1) = ( -1.122262 -1.122262  1.122262 )  
               b(2) = (  1.122262  1.122262  1.122262 )  
               b(3) = ( -1.122262  1.122262 -1.122262 )  


     PseudoPot. # 1 for Li read from file:
     ../pseudo/Li_ONCV_PBE_sr.upf
     MD5 check sum: 50ff420e78310ffa21704f3361e624a4
     Pseudo is Norm-conserving, Zval =  3.0
     Generated using ONCVPSP code by D. R. Hamann
     Using radial grid of 1944 points,  4 beta functions with: 
                l(1) =   0
                l(2) =   0
                l(3) =   1
                l(4) =   1

     PseudoPot. # 2 for Si read from file:
     ../pseudo/Si_ONCV_PBE_sr.upf
     MD5 check sum: e543d271109d17c80368dfa7c482276d
     Pseudo is Norm-conserving + core correction, Zval =  4.0
     Generated using ONCVPSP code by D. R. Hamann
     Using radial grid of 1510 points,  6 beta functions with: 
                l(1) =   0
                l(2) =   0
                l(3) =   1
                l(4) =   1
                l(5) =   2
                l(6) =   2

     atomic species   valence    mass     pseudopotential
        Li             3.00     6.94100     Li( 1.00)
        Si             4.00    28.08550     Si( 1.00)

     48 Sym. Ops., with inversion, found



   Cartesian axes

     site n.     atom                  positions (alat units)
         1           Li  tau(   1) = (  -0.0000000   0.0000000   0.0000000  )
         2           Si  tau(   2) = (   0.0000000   0.0000000   0.4455286  )

     number of k points=    16  Marzari-Vanderbilt smearing, width (Ry)=  0.0200
                       cart. coord. in units 2pi/alat
        k(    1) = (   0.0000000   0.0000000   0.0000000), wk =   0.0092593
        k(    2) = (  -0.1870437   0.1870437  -0.1870437), wk =   0.0740741
        k(    3) = (  -0.3740875   0.3740875  -0.3740875), wk =   0.0740741
        k(    4) = (   0.5611312  -0.5611312   0.5611312), wk =   0.0370370
        k(    5) = (   0.0000000   0.3740875   0.0000000), wk =   0.0555556
        k(    6) = (  -0.1870437   0.5611312  -0.1870437), wk =   0.2222222
        k(    7) = (   0.7481750  -0.3740875   0.7481750), wk =   0.2222222
        k(    8) = (   0.5611312  -0.1870437   0.5611312), wk =   0.2222222
        k(    9) = (   0.3740875   0.0000000   0.3740875), wk =   0.1111111
        k(   10) = (   0.0000000   0.7481750   0.0000000), wk =   0.0555556
        k(   11) = (   0.9352187  -0.1870437   0.9352187), wk =   0.2222222
        k(   12) = (   0.7481750   0.0000000   0.7481750), wk =   0.1111111
        k(   13) = (   0.0000000  -1.1222624   0.0000000), wk =   0.0277778
        k(   14) = (   0.7481750  -0.3740875   1.1222624), wk =   0.2222222
        k(   15) = (   0.5611312  -0.1870437   0.9352187), wk =   0.2222222
        k(   16) = (  -0.3740875  -1.1222624  -0.0000000), wk =   0.1111111

     Dense  grid:    13323 G-vectors     FFT dimensions: (  36,  36,  36)

     Estimated max dynamical RAM per process >      13.34 MB

     Estimated total dynamical RAM >     106.69 MB

     Initial potential from superposition of free atoms

     starting charge       6.9948, renormalised to       7.0000
     Starting wfcs are    6 randomized atomic wfcs +    2 random wfcs

     total cpu time spent up to now is        9.6 secs

     Self-consistent Calculation

     iteration #  1     ecut=    80.00 Ry     beta= 0.70
     Davidson diagonalization with overlap
     c_bands:  1 eigenvalues not converged
     c_bands:  1 eigenvalues not converged
     ethr =  1.00E-06,  avg # of iterations = 15.5

     total cpu time spent up to now is        9.8 secs

     total energy              =     -22.69228695 Ry
     estimated scf accuracy    <       0.00355906 Ry

     iteration #  2     ecut=    80.00 Ry     beta= 0.70
     Davidson diagonalization with overlap
     ethr =  5.08E-05,  avg # of iterations =  1.0

     total cpu time spent up to now is        9.9 secs

     total energy              =     -22.69240069 Ry
     estimated scf accuracy    <       0.00015909 Ry

     iteration #  3     ecut=    80.00 Ry     beta= 0.70
     Davidson diagonalization with overlap
     ethr =  2.27E-06,  avg # of iterations =  2.0

     total cpu time spent up to now is       10.0 secs

     total energy              =     -22.69241928 Ry
     estimated scf accuracy    <       0.00000355 Ry

     iteration #  4     ecut=    80.00 Ry     beta= 0.70
     Davidson diagonalization with overlap
     ethr =  5.06E-08,  avg # of iterations =  1.4

     total cpu time spent up to now is       10.1 secs

     total energy              =     -22.69241945 Ry
     estimated scf accuracy    <       0.00000010 Ry

     iteration #  5     ecut=    80.00 Ry     beta= 0.70
     Davidson diagonalization with overlap
     ethr =  1.46E-09,  avg # of iterations =  2.1

     total cpu time spent up to now is       10.2 secs

     total energy              =     -22.69241947 Ry
     estimated scf accuracy    <          1.3E-09 Ry

     iteration #  6     ecut=    80.00 Ry     beta= 0.70
     Davidson diagonalization with overlap
     ethr =  1.80E-11,  avg # of iterations =  3.1

     total cpu time spent up to now is       10.3 secs

     End of self-consistent calculation

          k = 0.0000 0.0000 0.0000 (  1639 PWs)   bands (ev):

   -36.1302  -2.1670  15.3105  15.3105  15.3105  18.7903  18.7903  18.7903

          k =-0.1870 0.1870-0.1870 (  1642 PWs)   bands (ev):

   -36.1218  -1.6810  11.6691  14.6544  14.6544  19.3655  19.8116  19.8116

          k =-0.3741 0.3741-0.3741 (  1634 PWs)   bands (ev):

   -36.1049  -0.2801   7.1408  14.2287  14.2287  17.1140  17.1140  18.9977

          k = 0.5611-0.5611 0.5611 (  1676 PWs)   bands (ev):

   -36.0965   1.1088   4.6490  14.4336  14.4336  15.7509  15.7509  18.6794

          k = 0.0000 0.3741 0.0000 (  1647 PWs)   bands (ev):

   -36.1191  -1.5096  12.7500  12.7500  14.4525  16.2719  17.8064  22.5435

          k =-0.1870 0.5611-0.1870 (  1651 PWs)   bands (ev):

   -36.1053  -0.3696   8.8173  11.8271  12.7062  16.2076  18.4164  21.4503

          k = 0.7482-0.3741 0.7482 (  1641 PWs)   bands (ev):

   -36.0942   1.4040   5.2538  11.0332  12.0506  16.2026  19.2468  21.5476

          k = 0.5611-0.1870 0.5611 (  1636 PWs)   bands (ev):

   -36.0969   0.8080   6.1976  10.2899  13.4234  17.1254  18.0782  21.7405

          k = 0.3741 0.0000 0.3741 (  1636 PWs)   bands (ev):

   -36.1107  -0.8688  10.0491  10.8244  15.5953  17.6475  18.8880  20.4965

          k = 0.0000 0.7482 0.0000 (  1644 PWs)   bands (ev):

   -36.0976   0.5254   9.1696  10.4648  10.4648  13.8456  17.0079  26.4029

          k = 0.9352-0.1870 0.9352 (  1646 PWs)   bands (ev):

   -36.0896   2.3333   6.1802   8.3590  10.2778  15.2024  18.3426  24.1704

          k = 0.7482 0.0000 0.7482 (  1652 PWs)   bands (ev):

   -36.0892   2.7794   5.2780   7.5126  11.2781  16.2533  21.6959  22.6838

          k = 0.0000-1.1223 0.0000 (  1660 PWs)   bands (ev):

   -36.0873   3.6408   4.5653   9.6815   9.6815  13.0039  17.2609  28.0408

          k = 0.7482-0.3741 1.1223 (  1646 PWs)   bands (ev):

   -36.0946   1.1070   7.6781   8.3272  11.2886  18.2397  18.3190  20.4624

          k = 0.5611-0.1870 0.9352 (  1652 PWs)   bands (ev):

   -36.0892   2.7770   5.2143   7.8516  10.5693  18.3386  19.6160  22.7353

          k =-0.3741-1.1223-0.0000 (  1646 PWs)   bands (ev):

   -36.0869   4.4285   4.4602   6.8676   9.7614  17.4426  18.7871  23.4390

     the Fermi energy is    10.1924 ev

!    total energy              =     -22.69241947 Ry
     estimated scf accuracy    <          7.3E-12 Ry
     smearing contrib. (-TS)   =      -0.00103683 Ry
     internal energy E=F+TS    =     -22.69138264 Ry

     The total energy is F=E-TS. E is the sum of the following terms:
     one-electron contribution =      -1.85426390 Ry
     hartree contribution      =       3.12006898 Ry
     xc contribution           =      -6.72199581 Ry
     ewald contribution        =     -17.23519190 Ry

     convergence has been achieved in   6 iterations

     Forces acting on atoms (cartesian axes, Ry/au):

     atom    1 type  1   force =     0.00000000    0.00000000   -0.00000000
     atom    2 type  2   force =     0.00000000    0.00000000    0.00000000
     The non-local contrib.  to forces
     atom    1 type  1   force =     0.00000000    0.00000000    0.00000000
     atom    2 type  2   force =    -0.00000000    0.00000000    0.00000000
     The ionic contribution  to forces
     atom    1 type  1   force =    -0.00000000   -0.00000000   -0.00000000
     atom    2 type  2   force =    -0.00000000    0.00000000    0.00000000
     The local contribution  to forces
     atom    1 type  1   force =    -0.00000000    0.00000000    0.00000000
     atom    2 type  2   force =     0.00000000   -0.00000000    0.00000000
     The core correction contribution to forces
     atom    1 type  1   force =     0.00000000    0.00000000    0.00000000
     atom    2 type  2   force =     0.00000000   -0.00000000    0.00000000
     The Hubbard contrib.    to forces
     atom    1 type  1   force =     0.00000000    0.00000000    0.00000000
     atom    2 type  2   force =     0.00000000    0.00000000    0.00000000
     The SCF correction term to forces
     atom    1 type  1   force =     0.00000000    0.00000000    0.00000000
     atom    2 type  2   force =     0.00000000   -0.00000000    0.00000000

     Total force =     0.000000     Total SCF correction =     0.000000


     Computing stress (Cartesian axis) and pressure

          total   stress  (Ry/bohr**3)                   (kbar)     P=      499.52
   0.00339565   0.00000000   0.00000000          499.52        0.00        0.00
   0.00000000   0.00339565  -0.00000000            0.00      499.52       -0.00
   0.00000000  -0.00000000   0.00339565            0.00       -0.00      499.52


     Writing all to output data dir ./output/LiSi.save/

     init_run     :      0.83s CPU      1.16s WALL (       2 calls)
     electrons    :      4.19s CPU      5.77s WALL (       6 calls)
     update_pot   :      0.85s CPU      0.91s WALL (       4 calls)
     forces       :      0.67s CPU      0.72s WALL (       6 calls)
     stress       :      1.57s CPU      1.66s WALL (       6 calls)

     Called by init_run:
     wfcinit      :      0.05s CPU      0.05s WALL (       2 calls)
     potinit      :      0.19s CPU      0.46s WALL (       2 calls)
     hinit0       :      0.57s CPU      0.63s WALL (       2 calls)

     Called by electrons:
     c_bands      :      3.20s CPU      4.12s WALL (      45 calls)
     sum_band     :      0.52s CPU      0.58s WALL (      45 calls)
     v_of_rho     :      0.49s CPU      1.27s WALL (      49 calls)
     mix_rho      :      0.04s CPU      0.07s WALL (      45 calls)

     Called by c_bands:
     init_us_2    :      0.11s CPU      0.12s WALL (    1664 calls)
     init_us_2:cp :      0.11s CPU      0.12s WALL (    1664 calls)
     cegterg      :      2.96s CPU      3.15s WALL (     720 calls)

     Called by *egterg:
     cdiaghg      :      0.22s CPU      0.23s WALL (    2607 calls)
     h_psi        :      2.53s CPU      2.69s WALL (    2735 calls)
     g_psi        :      0.01s CPU      0.01s WALL (    1983 calls)

     Called by h_psi:
     h_psi:calbec :      0.12s CPU      0.13s WALL (    2735 calls)
     vloc_psi     :      2.33s CPU      2.48s WALL (    2735 calls)
     add_vuspsi   :      0.06s CPU      0.07s WALL (    2735 calls)

     General routines
     calbec       :      0.15s CPU      0.16s WALL (    3215 calls)
     fft          :      0.98s CPU      1.92s WALL (     640 calls)
     ffts         :      0.02s CPU      0.04s WALL (      45 calls)
     fftw         :      2.39s CPU      2.54s WALL (   38062 calls)

     Parallel routines

     PWSCF        :      8.29s CPU     10.64s WALL


   This run was terminated on:  22: 5:43  11Feb2025            

=------------------------------------------------------------------------------=
   JOB DONE.
=------------------------------------------------------------------------------=
