
     Program PWSCF v.7.2 starts on 11Feb2025 at 22:35:49 

     This program is part of the open-source Quantum ESPRESSO suite
     for quantum simulation of materials; please cite
         "P. Giannozzi et al., J. Phys.:Condens. Matter 21 395502 (2009);
         "P. Giannozzi et al., J. Phys.:Condens. Matter 29 465901 (2017);
         "P. Giannozzi et al., J. Chem. Phys. 152 154105 (2020);
          URL http://www.quantum-espresso.org", 
     in publications or presentations arising from this work. More details at
     http://www.quantum-espresso.org/quote

     Parallel version (MPI & OpenMP), running on       8 processor cores
     Number of MPI processes:                 8
     Threads/MPI process:                     1

     MPI processes distributed on     1 nodes
     481175 MiB available memory on the printing compute node when the environment starts

     Waiting for input...
     Reading input from standard input

     Current dimensions of program PWSCF are:
     Max number of different atomic species (ntypx) = 10
     Max number of k-points (npk) =  40000
     Max angular momentum in pseudopotentials (lmaxx) =  4

     R & G space division:  proc/nbgrp/npool/nimage =       8
     Subspace diagonalization in iterative solution of the eigenvalue problem:
     a serial algorithm will be used


     Parallelization info
     --------------------
     sticks:   dense  smooth     PW     G-vecs:    dense   smooth      PW
     Min          99      99     33                 1332     1332     264
     Max         100     100     35                 1333     1333     265
     Sum         793     793    271                10657    10657    2113

     Using Slab Decomposition



     bravais-lattice index     =            5
     lattice parameter (alat)  =       7.8336  a.u.
     unit-cell volume          =     110.2639 (a.u.)^3
     number of atoms/cell      =            2
     number of atomic types    =            2
     number of electrons       =         7.00
     number of Kohn-Sham states=            8
     kinetic-energy cutoff     =      80.0000  Ry
     charge density cutoff     =     320.0000  Ry
     scf convergence threshold =      1.0E-08
     mixing beta               =       0.7000
     number of iterations used =            8  plain     mixing
     energy convergence thresh.=      1.0E-04
     force convergence thresh. =      1.0E-03
     press convergence thresh. =      1.0E+00
     Exchange-correlation= PBE
                           (   1   4   3   4   0   0   0)
     nstep                     =           50


     celldm(1)=   7.833649  celldm(2)=   0.000000  celldm(3)=   0.000000
     celldm(4)=   0.860972  celldm(5)=   0.000000  celldm(6)=   0.000000

     crystal axes: (cart. coord. in units of alat)
               a(1) = (   0.263655  -0.152221   0.952531 )  
               a(2) = (   0.000000   0.304442   0.952531 )  
               a(3) = (  -0.263655  -0.152221   0.952531 )  

     reciprocal axes: (cart. coord. in units 2 pi/alat)
               b(1) = (  1.896420 -1.094898  0.349945 )  
               b(2) = (  0.000000  2.189797  0.349945 )  
               b(3) = ( -1.896420 -1.094898  0.349945 )  


     PseudoPot. # 1 for Li read from file:
     ../pseudo/Li_ONCV_PBE_sr.upf
     MD5 check sum: 50ff420e78310ffa21704f3361e624a4
     Pseudo is Norm-conserving, Zval =  3.0
     Generated using ONCVPSP code by D. R. Hamann
     Using radial grid of 1944 points,  4 beta functions with: 
                l(1) =   0
                l(2) =   0
                l(3) =   1
                l(4) =   1

     PseudoPot. # 2 for Si read from file:
     ../pseudo/Si_ONCV_PBE_sr.upf
     MD5 check sum: e543d271109d17c80368dfa7c482276d
     Pseudo is Norm-conserving + core correction, Zval =  4.0
     Generated using ONCVPSP code by D. R. Hamann
     Using radial grid of 1510 points,  6 beta functions with: 
                l(1) =   0
                l(2) =   0
                l(3) =   1
                l(4) =   1
                l(5) =   2
                l(6) =   2

     atomic species   valence    mass     pseudopotential
        Li             3.00     6.94100     Li( 1.00)
        Si             4.00    28.08550     Si( 1.00)

      6 Sym. Ops. (no inversion) found



   Cartesian axes

     site n.     atom                  positions (alat units)
         1           Li  tau(   1) = (   0.0000000  -0.0000000   1.2517855  )
         2           Si  tau(   2) = (   0.0000000  -0.0000000   1.5912760  )

     number of k points=    44  Marzari-Vanderbilt smearing, width (Ry)=  0.0100
                       cart. coord. in units 2pi/alat
        k(    1) = (   0.0000000   0.0000000   0.0000000), wk =   0.0058309
        k(    2) = (  -0.2709171  -0.1564140   0.0499921), wk =   0.0349854
        k(    3) = (  -0.5418342  -0.3128281   0.0999843), wk =   0.0349854
        k(    4) = (  -0.8127512  -0.4692421   0.1499764), wk =   0.0349854
        k(    5) = (  -0.2709171   0.1564140   0.0999843), wk =   0.0349854
        k(    6) = (  -0.5418342   0.0000000   0.1499764), wk =   0.0699708
        k(    7) = (  -0.8127512  -0.1564140   0.1999685), wk =   0.0699708
        k(    8) = (   0.8127512   0.7820702  -0.0999843), wk =   0.0699708
        k(    9) = (   0.5418342   0.6256562  -0.0499921), wk =   0.0699708
        k(   10) = (   0.2709171   0.4692421   0.0000000), wk =   0.0349854
        k(   11) = (  -0.5418342   0.3128281   0.1999685), wk =   0.0349854
        k(   12) = (  -0.8127512   0.1564140   0.2499607), wk =   0.0699708
        k(   13) = (   0.8127512   1.0948983  -0.0499921), wk =   0.0699708
        k(   14) = (   0.5418342   0.9384843   0.0000000), wk =   0.0349854
        k(   15) = (  -0.8127512   0.4692421   0.2999528), wk =   0.0349854
        k(   16) = (   0.8127512   1.4077264   0.0000000), wk =   0.0349854
        k(   17) = (   0.0000000   0.0000000   0.1499764), wk =   0.0116618
        k(   18) = (  -0.2709171  -0.1564140   0.1999685), wk =   0.0349854
        k(   19) = (  -0.5418342  -0.3128281   0.2499607), wk =   0.0349854
        k(   20) = (   1.0836683   0.6256562  -0.0499921), wk =   0.0349854
        k(   21) = (   0.8127512   0.4692421   0.0000000), wk =   0.0349854
        k(   22) = (   0.5418342   0.3128281   0.0499921), wk =   0.0349854
        k(   23) = (  -0.2709171   0.1564140   0.2499607), wk =   0.0349854
        k(   24) = (  -0.5418342   0.0000000   0.2999528), wk =   0.0699708
        k(   25) = (   1.0836683   0.9384843   0.0000000), wk =   0.0699708
        k(   26) = (   0.8127512   0.7820702   0.0499921), wk =   0.0699708
        k(   27) = (   0.5418342   0.6256562   0.0999843), wk =   0.0699708
        k(   28) = (  -0.5418342   0.3128281   0.3499449), wk =   0.0349854
        k(   29) = (   1.0836683   1.2513124   0.0499921), wk =   0.0699708
        k(   30) = (   0.8127512   1.0948983   0.0999843), wk =   0.0699708
        k(   31) = (   0.5418342   0.9384843   0.1499764), wk =   0.0699708
        k(   32) = (   1.0836683  -0.6256562  -0.2499607), wk =   0.0349854
        k(   33) = (   0.8127512  -0.7820702  -0.1999685), wk =   0.0699708
        k(   34) = (   0.8127512  -0.4692421  -0.1499764), wk =   0.0349854
        k(   35) = (   0.0000000   0.0000000   0.2999528), wk =   0.0116618
        k(   36) = (  -0.2709171  -0.1564140   0.3499449), wk =   0.0349854
        k(   37) = (   1.3545854   0.7820702   0.0499921), wk =   0.0349854
        k(   38) = (   1.0836683   0.6256562   0.0999843), wk =   0.0349854
        k(   39) = (  -0.2709171   0.1564140   0.3999371), wk =   0.0349854
        k(   40) = (   1.3545854   1.0948983   0.0999843), wk =   0.0699708
        k(   41) = (   1.0836683   0.9384843   0.1499764), wk =   0.0699708
        k(   42) = (   1.3545854  -0.7820702  -0.1999685), wk =   0.0349854
        k(   43) = (  -0.0000000  -0.0000000   0.4499292), wk =   0.0116618
        k(   44) = (   1.6255025   0.9384843   0.1499764), wk =   0.0349854

     Dense  grid:    10657 G-vectors     FFT dimensions: (  45,  45,  45)

     Estimated max dynamical RAM per process >      13.99 MB

     Estimated total dynamical RAM >     111.94 MB

     Initial potential from superposition of free atoms

     starting charge       6.9948, renormalised to       7.0000
     Starting wfcs are    6 randomized atomic wfcs +    2 random wfcs

     total cpu time spent up to now is        0.7 secs

     Self-consistent Calculation

     iteration #  1     ecut=    80.00 Ry     beta= 0.70
     Davidson diagonalization with overlap
     ethr =  1.00E-02,  avg # of iterations =  6.4

     total cpu time spent up to now is        1.6 secs

     WARNING: integrated charge=     6.99561985, expected=     7.00000000

     total energy              =     -22.22743841 Ry
     estimated scf accuracy    <       0.16187756 Ry

     iteration #  2     ecut=    80.00 Ry     beta= 0.70
     Davidson diagonalization with overlap
     ethr =  2.31E-03,  avg # of iterations =  1.9

     total cpu time spent up to now is        2.1 secs

     WARNING: integrated charge=     6.99750372, expected=     7.00000000

     total energy              =     -22.25983339 Ry
     estimated scf accuracy    <       0.06722201 Ry

     iteration #  3     ecut=    80.00 Ry     beta= 0.70
     Davidson diagonalization with overlap
     ethr =  9.60E-04,  avg # of iterations =  1.3

     total cpu time spent up to now is        2.4 secs

     WARNING: integrated charge=     6.99971365, expected=     7.00000000

     total energy              =     -22.27679023 Ry
     estimated scf accuracy    <       0.00131583 Ry

     iteration #  4     ecut=    80.00 Ry     beta= 0.70
     Davidson diagonalization with overlap
     ethr =  1.88E-05,  avg # of iterations =  4.2
     Minimization algorithm failed to find Fermi energy: reverting to bisection
     Possible cause: smearing is larger than the electronic band-gap.

     total cpu time spent up to now is        3.0 secs

     WARNING: integrated charge=     6.99981907, expected=     7.00000000

     total energy              =     -22.27688283 Ry
     estimated scf accuracy    <       0.00008113 Ry

     iteration #  5     ecut=    80.00 Ry     beta= 0.70
     Davidson diagonalization with overlap
     ethr =  1.16E-06,  avg # of iterations =  2.2
     Minimization algorithm failed to find Fermi energy: reverting to bisection
     Possible cause: smearing is larger than the electronic band-gap.

     total cpu time spent up to now is        3.4 secs

     WARNING: integrated charge=     6.99996228, expected=     7.00000000

     total energy              =     -22.27688157 Ry
     estimated scf accuracy    <       0.00001802 Ry

     iteration #  6     ecut=    80.00 Ry     beta= 0.70
     Davidson diagonalization with overlap
     ethr =  2.57E-07,  avg # of iterations =  1.3
     Minimization algorithm failed to find Fermi energy: reverting to bisection
     Possible cause: smearing is larger than the electronic band-gap.

     total cpu time spent up to now is        3.8 secs

     WARNING: integrated charge=     6.99999737, expected=     7.00000000

     total energy              =     -22.27688470 Ry
     estimated scf accuracy    <       0.00000059 Ry

     iteration #  7     ecut=    80.00 Ry     beta= 0.70
     Davidson diagonalization with overlap
     ethr =  8.40E-09,  avg # of iterations =  1.7
     Minimization algorithm failed to find Fermi energy: reverting to bisection
     Possible cause: smearing is larger than the electronic band-gap.

     total cpu time spent up to now is        4.4 secs

     WARNING: integrated charge=     6.99999813, expected=     7.00000000

     total energy              =     -22.27688483 Ry
     estimated scf accuracy    <       0.00000005 Ry

     iteration #  8     ecut=    80.00 Ry     beta= 0.70
     Davidson diagonalization with overlap
     ethr =  7.38E-10,  avg # of iterations =  1.5
     Minimization algorithm failed to find Fermi energy: reverting to bisection
     Possible cause: smearing is larger than the electronic band-gap.

     total cpu time spent up to now is        4.7 secs

     End of self-consistent calculation

          k = 0.0000 0.0000 0.0000 (  1311 PWs)   bands (ev):

   -37.0687  -2.9626   6.4417  12.6713  26.9804  29.6442  29.6442  31.0071

          k =-0.2709-0.1564 0.0500 (  1319 PWs)   bands (ev):

   -37.0038  -2.2304   7.1682  12.9644  22.8577  26.6504  26.8440  30.4004

          k =-0.5418-0.3128 0.1000 (  1341 PWs)   bands (ev):

   -36.8567  -0.0863   9.1812  13.7628  15.9011  24.1924  24.4444  25.8093

          k =-0.8128-0.4692 0.1500 (  1338 PWs)   bands (ev):

   -36.7373   3.1420   9.2568  12.2040  15.8833  19.6748  23.2150  24.4840

          k =-0.2709 0.1564 0.1000 (  1319 PWs)   bands (ev):

   -37.0037  -2.2310   7.0904  13.1586  22.8931  26.4683  26.7166  29.9648

          k =-0.5418 0.0000 0.1500 (  1331 PWs)   bands (ev):

   -36.8976  -0.7821   8.3250  14.1118  18.4274  21.3280  26.5690  27.6095

          k =-0.8128-0.1564 0.2000 (  1331 PWs)   bands (ev):

   -36.7641   2.0014  10.3680  12.5458  16.2894  18.9965  21.8024  24.1708

          k = 0.8128 0.7821-0.1000 (  1332 PWs)   bands (ev):

   -36.7043   4.7696   8.2354  13.3293  16.3660  17.7802  19.9851  21.8906

          k = 0.5418 0.6257-0.0500 (  1335 PWs)   bands (ev):

   -36.7643   1.9516  11.3364  12.4734  14.8569  18.6453  21.2636  25.2711

          k = 0.2709 0.4692 0.0000 (  1330 PWs)   bands (ev):

   -36.8978  -0.7932   8.6877  13.3984  18.4555  21.2897  26.5202  28.2604

          k =-0.5418 0.3128 0.2000 (  1327 PWs)   bands (ev):

   -36.8564  -0.0639   8.7164  14.5882  16.0276  23.1926  24.1698  25.8524

          k =-0.8128 0.1564 0.2500 (  1339 PWs)   bands (ev):

   -36.7640   2.0328  10.1242  12.5886  16.5230  18.4582  21.6643  26.1600

          k = 0.8128 1.0949-0.0500 (  1336 PWs)   bands (ev):

   -36.6898   5.2552   9.3364  12.5150  14.7783  17.8988  19.7151  22.5838

          k = 0.5418 0.9385 0.0000 (  1338 PWs)   bands (ev):

   -36.6900   5.1020   9.4487  14.3096  14.8330  16.5645  17.3104  23.1176

          k =-0.8128 0.4692 0.3000 (  1339 PWs)   bands (ev):

   -36.7369   3.2690   9.1295  11.2898  16.3074  20.5891  22.8475  25.1557

          k = 0.8128 1.4077 0.0000 (  1326 PWs)   bands (ev):

   -36.7041   4.9686   8.1762  12.1970  15.4461  18.2040  22.9382  24.1174

          k = 0.0000 0.0000 0.1500 (  1314 PWs)   bands (ev):

   -37.0684  -2.9709   6.2838  13.1687  25.9472  29.6322  29.6322  30.9891

          k =-0.2709-0.1564 0.2000 (  1323 PWs)   bands (ev):

   -37.0034  -2.2330   6.8362  13.8705  22.7666  25.4951  26.8892  30.5590

          k =-0.5418-0.3128 0.2500 (  1332 PWs)   bands (ev):

   -36.8563  -0.0516   8.4455  14.8315  16.4249  23.8899  24.4446  26.4330

          k = 1.0837 0.6257-0.0500 (  1332 PWs)   bands (ev):

   -36.7371   3.2340   8.8941  11.7029  17.5398  19.8811  23.1605  23.6582

          k = 0.8128 0.4692 0.0000 (  1330 PWs)   bands (ev):

   -36.7373   3.1158   9.4667  12.6975  14.4430  20.0948  23.1127  24.0447

          k = 0.5418 0.3128 0.0500 (  1334 PWs)   bands (ev):

   -36.8567  -0.0916   9.3560  13.5432  15.8029  23.9460  24.3151  25.5288

          k =-0.2709 0.1564 0.2500 (  1321 PWs)   bands (ev):

   -37.0032  -2.2342   6.6949  14.3346  22.8500  24.9203  26.6097  29.9141

          k =-0.5418 0.0000 0.3000 (  1328 PWs)   bands (ev):

   -36.8971  -0.7566   7.7022  15.7039  18.3624  21.4648  25.3447  27.3895

          k = 1.0837 0.9385 0.0000 (  1329 PWs)   bands (ev):

   -36.7639   2.0816   9.5172  12.5641  17.6658  19.7471  22.5818  23.7952

          k = 0.8128 0.7821 0.0500 (  1332 PWs)   bands (ev):

   -36.7043   4.8391   8.2075  12.8784  16.1369  17.7823  20.4289  23.7238

          k = 0.5418 0.6257 0.1000 (  1333 PWs)   bands (ev):

   -36.7642   1.9650  11.1238  12.5718  14.9768  18.4055  21.3379  26.0054

          k =-0.5418 0.3128 0.3499 (  1341 PWs)   bands (ev):

   -36.8560  -0.0227   8.0392  15.2454  17.3997  22.1887  24.1099  26.2195

          k = 1.0837 1.2513 0.0500 (  1342 PWs)   bands (ev):

   -36.7637   2.1082   9.3769  12.5653  17.7792  19.2991  22.0746  25.6052

          k = 0.8128 1.0949 0.1000 (  1332 PWs)   bands (ev):

   -36.6897   5.3499   9.2733  11.8655  15.0240  18.1752  20.3065  24.3379

          k = 0.5418 0.9385 0.1500 (  1340 PWs)   bands (ev):

   -36.6899   5.1471   9.4144  13.6206  14.6448  17.1165  18.2971  22.6283

          k = 1.0837-0.6257-0.2500 (  1341 PWs)   bands (ev):

   -36.7368   3.3429   8.7400  11.2030  17.3387  21.0721  22.8691  24.7837

          k = 0.8128-0.7821-0.2000 (  1338 PWs)   bands (ev):

   -36.7041   4.9281   8.1829  12.3959  15.6622  18.0300  21.8331  24.6686

          k = 0.8128-0.4692-0.1500 (  1344 PWs)   bands (ev):

   -36.7371   3.1696   9.4383  11.9523  15.0255  20.4014  22.9490  24.2497

          k = 0.0000 0.0000 0.3000 (  1326 PWs)   bands (ev):

   -37.0677  -2.9897   5.9777  14.4014  23.8325  29.6075  29.6075  30.9448

          k =-0.2709-0.1564 0.3499 (  1326 PWs)   bands (ev):

   -37.0028  -2.2367   6.4402  15.3744  22.4830  23.8203  26.8104  30.3093

          k = 1.3546 0.7821 0.0500 (  1328 PWs)   bands (ev):

   -36.8559  -0.0123   7.8728  15.2976  17.9187  22.7716  24.3157  26.1162

          k = 1.0837 0.6257 0.1000 (  1339 PWs)   bands (ev):

   -36.7369   3.3271   8.6438  11.3902  17.8234  21.8271  22.2574  23.0018

          k =-0.2709 0.1564 0.3999 (  1319 PWs)   bands (ev):

   -37.0026  -2.2377   6.3473  15.8602  22.3870  23.3683  26.5940  30.0321

          k = 1.3546 1.0949 0.1000 (  1332 PWs)   bands (ev):

   -36.8968  -0.7356   7.3072  17.2277  18.3104  21.7776  23.4160  27.4805

          k = 1.0837 0.9385 0.1500 (  1331 PWs)   bands (ev):

   -36.7637   2.1313   9.1558  12.5589  18.0689  20.2187  23.2376  23.8502

          k = 1.3546-0.7821-0.2000 (  1331 PWs)   bands (ev):

   -36.8558   0.0010   7.7225  15.3546  18.9686  21.3747  24.1703  26.1867

          k =-0.0000-0.0000 0.4499 (  1339 PWs)   bands (ev):

   -37.0671  -3.0047   5.7674  15.6746  22.0210  29.5899  29.5899  30.9057

          k = 1.6255 0.9385 0.1500 (  1324 PWs)   bands (ev):

   -37.0024  -2.2388   6.2484  16.5018  21.7565  23.1849  26.6787  30.1401

     the Fermi energy is    12.7174 ev

!    total energy              =     -22.27688484 Ry
     estimated scf accuracy    <          1.3E-10 Ry
     smearing contrib. (-TS)   =       0.00072593 Ry
     internal energy E=F+TS    =     -22.27761077 Ry

     The total energy is F=E-TS. E is the sum of the following terms:
     one-electron contribution =      -2.32870149 Ry
     hartree contribution      =       3.86727426 Ry
     xc contribution           =      -7.09048281 Ry
     ewald contribution        =     -16.72570073 Ry

     convergence has been achieved in   8 iterations

     Forces acting on atoms (cartesian axes, Ry/au):

     atom    1 type  1   force =    -0.00000000   -0.00000000   -0.67790749
     atom    2 type  2   force =     0.00000000    0.00000000    0.67790749
     The non-local contrib.  to forces
     atom    1 type  1   force =     0.00000000    0.00000000    0.30680019
     atom    2 type  2   force =    -0.00000000    0.00000000    0.19061741
     The ionic contribution  to forces
     atom    1 type  1   force =     0.00000000    0.00000000   -3.53521916
     atom    2 type  2   force =    -0.00000000   -0.00000000    3.53521916
     The local contribution  to forces
     atom    1 type  1   force =     0.00000000   -0.00000000    2.55051764
     atom    2 type  2   force =    -0.00000000    0.00000000   -3.03146682
     The core correction contribution to forces
     atom    1 type  1   force =     0.00000000    0.00000000    0.00000000
     atom    2 type  2   force =     0.00000000   -0.00000000   -0.01646597
     The Hubbard contrib.    to forces
     atom    1 type  1   force =     0.00000000    0.00000000    0.00000000
     atom    2 type  2   force =     0.00000000    0.00000000    0.00000000
     The SCF correction term to forces
     atom    1 type  1   force =    -0.00000000   -0.00000000   -0.00000692
     atom    2 type  2   force =     0.00000000    0.00000000    0.00000294

     Total force =     0.958706     Total SCF correction =     0.000008


     Computing stress (Cartesian axis) and pressure

          total   stress  (Ry/bohr**3)                   (kbar)     P=     1359.07
   0.00677271   0.00000000  -0.00000000          996.30        0.00       -0.00
   0.00000000   0.00677271   0.00000000            0.00      996.30        0.00
  -0.00000000   0.00000000   0.01417091           -0.00        0.00     2084.61


     BFGS Geometry Optimization
     Energy error            =      0.0E+00 Ry
     Gradient error          =      6.8E-01 Ry/Bohr
     Cell gradient error     =      1.6E+03 kbar

     number of scf cycles    =   1
     number of bfgs steps    =   0

     enthalpy           new  =     -21.9021056136 Ry

     new trust radius        =       0.5000000000 bohr
ibrav =      5
 celldm(1) =      9.29573238
 celldm(4) =      0.88860068
Input lattice vectors:
     0.28005657    -0.16169073     1.14172772
     0.00000000     0.32338147     1.14172772
    -0.28005657    -0.16169073     1.14172772
New lattice vectors in INITIAL alat:
     0.28005657    -0.16169073     1.14172772
     0.00000000     0.32338147     1.14172772
    -0.28005657    -0.16169073     1.14172772
New lattice vectors in NEW alat (for information only):
     0.23600776    -0.13625914     0.96215060
     0.00000000     0.27251828     0.96215060
    -0.23600776    -0.13625914     0.96215060
Discrepancy in bohr =     0.000000    0.000000    0.000000
     new conv_thr            =       0.0000000100 Ry

     new unit-cell volume =    149.12040 a.u.^3 (    22.09736 Ang^3 )
     density =      2.63212 g/cm^3

CELL_PARAMETERS (alat=  7.83364931)
   0.280056568  -0.161690735   1.141727715
   0.000000000   0.323381469   1.141727715
  -0.280056568  -0.161690735   1.141727715

ATOMIC_POSITIONS (crystal)
Li            0.4157199897        0.4157199897        0.4157199897
Si            0.5791950103        0.5791950103        0.5791950103



     Writing config-only to output data dir ./output/LiSi.save/
     NEW-OLD atomic charge density approx. for the potential
     extrapolated charge    8.82265, renormalised to    7.00000

     total cpu time spent up to now is        5.6 secs

     Self-consistent Calculation

     iteration #  1     ecut=    80.00 Ry     beta= 0.70
     Davidson diagonalization with overlap
     ethr =  1.00E-06,  avg # of iterations = 12.7

     total cpu time spent up to now is        6.8 secs

     total energy              =     -21.79684078 Ry
     estimated scf accuracy    <       1.55816839 Ry

     iteration #  2     ecut=    80.00 Ry     beta= 0.70
     Davidson diagonalization with overlap
     ethr =  1.00E-02,  avg # of iterations =  2.9

     total cpu time spent up to now is        7.3 secs

     total energy              =     -22.40278037 Ry
     estimated scf accuracy    <       2.81801406 Ry

     iteration #  3     ecut=    80.00 Ry     beta= 0.70
     Davidson diagonalization with overlap
     ethr =  1.00E-02,  avg # of iterations =  1.8

     total cpu time spent up to now is        7.7 secs

     total energy              =     -22.73712122 Ry
     estimated scf accuracy    <       0.07007382 Ry

     iteration #  4     ecut=    80.00 Ry     beta= 0.70
     Davidson diagonalization with overlap
     ethr =  1.00E-03,  avg # of iterations =  2.0

     total cpu time spent up to now is        8.2 secs

     total energy              =     -22.74455269 Ry
     estimated scf accuracy    <       0.08118996 Ry

     iteration #  5     ecut=    80.00 Ry     beta= 0.70
     Davidson diagonalization with overlap
     ethr =  1.00E-03,  avg # of iterations =  1.0

     total cpu time spent up to now is        8.6 secs

     total energy              =     -22.75009969 Ry
     estimated scf accuracy    <       0.00747111 Ry

     iteration #  6     ecut=    80.00 Ry     beta= 0.70
     Davidson diagonalization with overlap
     ethr =  1.07E-04,  avg # of iterations =  2.2

     total cpu time spent up to now is        8.9 secs

     total energy              =     -22.75124795 Ry
     estimated scf accuracy    <       0.00013865 Ry

     iteration #  7     ecut=    80.00 Ry     beta= 0.70
     Davidson diagonalization with overlap
     ethr =  1.98E-06,  avg # of iterations =  4.5

     total cpu time spent up to now is        9.4 secs

     total energy              =     -22.75128321 Ry
     estimated scf accuracy    <       0.00001180 Ry

     iteration #  8     ecut=    80.00 Ry     beta= 0.70
     Davidson diagonalization with overlap
     ethr =  1.69E-07,  avg # of iterations =  1.1

     total cpu time spent up to now is        9.7 secs

     total energy              =     -22.75128512 Ry
     estimated scf accuracy    <       0.00000023 Ry

     iteration #  9     ecut=    80.00 Ry     beta= 0.70
     Davidson diagonalization with overlap
     ethr =  3.33E-09,  avg # of iterations =  2.1

     total cpu time spent up to now is       10.1 secs

     total energy              =     -22.75128521 Ry
     estimated scf accuracy    <       0.00000003 Ry

     iteration # 10     ecut=    80.00 Ry     beta= 0.70
     Davidson diagonalization with overlap
     ethr =  3.58E-10,  avg # of iterations =  1.3

     total cpu time spent up to now is       10.4 secs

     End of self-consistent calculation

          k = 0.0000 0.0000 0.0000 (  1311 PWs)   bands (ev):

   -37.6014  -5.2015   2.7095   7.8695  20.3811  21.9776  25.2324  25.2324

          k =-0.2551-0.1473 0.0417 (  1319 PWs)   bands (ev):

   -37.5639  -4.4873   3.4015   8.2637  18.8780  20.5202  22.3987  22.7632

          k =-0.5101-0.2945 0.0834 (  1341 PWs)   bands (ev):

   -37.4784  -2.3697   5.4206   9.3903  12.1644  18.8820  20.5982  21.0012

          k =-0.7652-0.4418 0.1251 (  1338 PWs)   bands (ev):

   -37.4084   1.0298   6.0907   8.4089  11.3556  14.2701  18.1428  19.5112

          k =-0.2551 0.1473 0.0834 (  1319 PWs)   bands (ev):

   -37.5636  -4.4869   3.3558   8.4034  18.7035  20.0419  22.6986  22.9296

          k =-0.5101 0.0000 0.1251 (  1331 PWs)   bands (ev):

   -37.5020  -3.0677   4.6387   9.3709  15.2250  16.6580  20.2817  22.4170

          k =-0.7652-0.1473 0.1668 (  1331 PWs)   bands (ev):

   -37.4239  -0.2836   7.0655   9.1893  11.3958  14.4636  17.2308  19.3980

          k = 0.7652 0.7363-0.0834 (  1332 PWs)   bands (ev):

   -37.3891   3.0585   4.7401   9.8299  12.1059  13.2264  14.1554  17.4928

          k = 0.5101 0.5890-0.0417 (  1335 PWs)   bands (ev):

   -37.4243  -0.3029   7.5783   9.1626  10.4811  14.3747  16.7838  20.2263

          k = 0.2551 0.4418 0.0000 (  1330 PWs)   bands (ev):

   -37.5020  -3.0727   4.8320   8.8895  15.2427  16.7797  21.9973  22.3538

          k =-0.5101 0.2945 0.1668 (  1327 PWs)   bands (ev):

   -37.4776  -2.3610   5.1747   9.9099  12.3417  17.9169  20.4166  20.4420

          k =-0.7652 0.1473 0.2085 (  1339 PWs)   bands (ev):

   -37.4241  -0.2727   6.8998   9.2272  11.7213  14.3161  16.5258  20.8478

          k = 0.7652 1.0308-0.0417 (  1336 PWs)   bands (ev):

   -37.3809   3.0582   7.1121   9.1259   9.8158  13.5858  15.3610  16.3883

          k = 0.5101 0.8835 0.0000 (  1338 PWs)   bands (ev):

   -37.3811   2.9937   7.1672   9.2571  10.9862  12.1447  13.8468  16.8675

          k =-0.7652 0.4418 0.2502 (  1339 PWs)   bands (ev):

   -37.4087   1.0749   6.1038   7.8151  11.6777  15.0549  19.2655  19.2875

          k = 0.7652 1.3253 0.0000 (  1326 PWs)   bands (ev):

   -37.3892   3.1604   4.7061   9.2134  11.4635  13.2398  16.4702  18.9351

          k = 0.0000-0.0000 0.1251 (  1314 PWs)   bands (ev):

   -37.6015  -5.2025   2.6055   8.2532  18.3083  24.1622  25.2282  25.2283

          k =-0.2551-0.1473 0.1668 (  1323 PWs)   bands (ev):

   -37.5637  -4.4856   3.2029   8.9398  17.5794  19.3790  22.7846  24.2833

          k =-0.5101-0.2945 0.2085 (  1332 PWs)   bands (ev):

   -37.4779  -2.3556   5.0243  10.3818  12.2180  17.8984  20.5937  20.5980

          k = 1.0202 0.5890-0.0417 (  1332 PWs)   bands (ev):

   -37.4081   1.0667   6.0121   7.8727  12.8015  14.2268  17.4421  19.4788

          k = 0.7652 0.4418 0.0000 (  1330 PWs)   bands (ev):

   -37.4081   1.0169   6.1373   8.9967  10.1865  14.4757  18.8293  19.4504

          k = 0.5101 0.2945 0.0417 (  1334 PWs)   bands (ev):

   -37.4779  -2.3721   5.5094   9.1918  12.2038  18.7249  20.5260  21.1458

          k =-0.2551 0.1473 0.2085 (  1321 PWs)   bands (ev):

   -37.5639  -4.4848   3.1161   9.3000  16.8768  19.3910  22.6418  24.5927

          k =-0.5101 0.0000 0.2502 (  1328 PWs)   bands (ev):

   -37.5018  -3.0562   4.2854  10.5692  15.1685  16.0223  18.6231  22.6196

          k = 1.0202 0.8835 0.0000 (  1329 PWs)   bands (ev):

   -37.4240  -0.2539   6.5625   9.2136  12.6266  14.6425  17.4956  18.9456

          k = 0.7652 0.7363 0.0417 (  1332 PWs)   bands (ev):

   -37.3893   3.0947   4.7252   9.6250  11.7106  13.3675  14.7514  18.4529

          k = 0.5101 0.5890 0.0834 (  1333 PWs)   bands (ev):

   -37.4239  -0.2982   7.4583   9.2170  10.6089  14.3201  16.5594  20.9891

          k =-0.5101 0.2945 0.2920 (  1341 PWs)   bands (ev):

   -37.4787  -2.3445   4.7917  10.9310  12.8096  16.2780  20.0292  20.4065

          k = 1.0202 1.1780 0.0417 (  1342 PWs)   bands (ev):

   -37.4247  -0.2450   6.4663   9.2215  13.0091  14.4549  16.6185  19.0911

          k = 0.7652 1.0308 0.0834 (  1332 PWs)   bands (ev):

   -37.3811   3.0961   7.0814   8.8923   9.6952  13.9851  15.7936  17.4703

          k = 0.5101 0.8835 0.1251 (  1340 PWs)   bands (ev):

   -37.3808   3.0131   7.1504   9.2449  10.3835  12.8190  14.2757  16.6172

          k = 1.0202-0.5890-0.2085 (  1341 PWs)   bands (ev):

   -37.4093   1.1041   6.0131   7.5281  12.6006  15.5555  17.8000  19.3009

          k = 0.7652-0.7363-0.1668 (  1338 PWs)   bands (ev):

   -37.3900   3.1401   4.7108   9.3423  11.5154  13.2698  15.8229  19.2364

          k = 0.7652-0.4418-0.1251 (  1344 PWs)   bands (ev):

   -37.4091   1.0365   6.1449   8.4904  10.6219  14.7137  19.3439  19.3506

          k = 0.0000-0.0000 0.2502 (  1326 PWs)   bands (ev):

   -37.6025  -5.2047   2.3987   9.2638  15.8626  25.2194  25.2194  27.2200

          k =-0.2551-0.1473 0.2920 (  1326 PWs)   bands (ev):

   -37.5643  -4.4831   2.9566  10.1822  15.3691  19.2610  22.7445  25.1183

          k = 1.2753 0.7363 0.0417 (  1328 PWs)   bands (ev):

   -37.4778  -2.3401   4.6965  11.3553  12.7611  15.9918  20.4025  20.5256

          k = 1.0202 0.5890 0.0834 (  1339 PWs)   bands (ev):

   -37.4089   1.1005   5.9643   7.5773  13.1433  15.2794  16.8495  19.3829

          k =-0.2551 0.1473 0.3337 (  1319 PWs)   bands (ev):

   -37.5641  -4.4825   2.8976  10.6401  14.7253  19.2976  22.6325  25.2367

          k = 1.2753 1.0308 0.0834 (  1332 PWs)   bands (ev):

   -37.5023  -3.0469   4.0525  12.0562  14.4797  15.2486  18.0374  22.7468

          k = 1.0202 0.8835 0.1251 (  1331 PWs)   bands (ev):

   -37.4244  -0.2364   6.3421   9.2198  13.3954  14.8041  17.0985  17.9618

          k = 1.2753-0.7363-0.1668 (  1331 PWs)   bands (ev):

   -37.4784  -2.3351   4.6082  11.4559  14.0993  14.3576  20.1372  20.4418

          k =-0.0000-0.0000 0.3754 (  1339 PWs)   bands (ev):

   -37.6026  -5.2065   2.2533  10.4967  13.9325  25.2128  25.2128  27.1653

          k = 1.5303 0.8835 0.1251 (  1324 PWs)   bands (ev):

   -37.5643  -4.4817   2.8344  11.3838  13.7685  19.2580  22.6767  25.3228

     the Fermi energy is     9.2594 ev

!    total energy              =     -22.75128521 Ry
     estimated scf accuracy    <          3.0E-10 Ry
     smearing contrib. (-TS)   =      -0.00083914 Ry
     internal energy E=F+TS    =     -22.75044607 Ry

     The total energy is F=E-TS. E is the sum of the following terms:
     one-electron contribution =      -2.45679045 Ry
     hartree contribution      =       3.13816925 Ry
     xc contribution           =      -6.74975945 Ry
     ewald contribution        =     -16.68206542 Ry

     convergence has been achieved in  10 iterations

     Forces acting on atoms (cartesian axes, Ry/au):

     atom    1 type  1   force =    -0.00000000    0.00000000   -0.04216365
     atom    2 type  2   force =     0.00000000   -0.00000000    0.04216365
     The non-local contrib.  to forces
     atom    1 type  1   force =    -0.00000000   -0.00000000   -0.00746171
     atom    2 type  2   force =    -0.00000000    0.00000000    0.00983725
     The ionic contribution  to forces
     atom    1 type  1   force =    -0.00000000    0.00000000   -0.22621332
     atom    2 type  2   force =    -0.00000000   -0.00000000    0.22621332
     The local contribution  to forces
     atom    1 type  1   force =     0.00000000    0.00000000    0.19153063
     atom    2 type  2   force =    -0.00000000    0.00000000   -0.19308235
     The core correction contribution to forces
     atom    1 type  1   force =     0.00000000    0.00000000    0.00000000
     atom    2 type  2   force =    -0.00000000    0.00000000   -0.00082107
     The Hubbard contrib.    to forces
     atom    1 type  1   force =     0.00000000    0.00000000    0.00000000
     atom    2 type  2   force =     0.00000000    0.00000000    0.00000000
     The SCF correction term to forces
     atom    1 type  1   force =     0.00000000    0.00000000   -0.00001674
     atom    2 type  2   force =    -0.00000000   -0.00000000    0.00001901

     Total force =     0.059628     Total SCF correction =     0.000025


     Computing stress (Cartesian axis) and pressure

          total   stress  (Ry/bohr**3)                   (kbar)     P=      362.73
   0.00356739   0.00000000  -0.00000000          524.78        0.00       -0.00
  -0.00000000   0.00356739   0.00000000           -0.00      524.78        0.00
   0.00000000   0.00000000   0.00026263            0.00        0.00       38.63

     Energy error            =      3.4E-01 Ry
     Gradient error          =      4.2E-02 Ry/Bohr
     Cell gradient error     =      4.6E+02 kbar

     number of scf cycles    =   2
     number of bfgs steps    =   1

     enthalpy           old  =     -21.9021056136 Ry
     enthalpy           new  =     -22.2444352646 Ry

     CASE: enthalpy          _new < enthalpy          _old

     new trust radius        =       0.1566699602 bohr
ibrav =      5
 celldm(1) =      8.75077900
 celldm(4) =      0.87235021
Input lattice vectors:
     0.28221341    -0.16293599     1.06848748
     0.00000000     0.32587198     1.06848748
    -0.28221341    -0.16293599     1.06848748
New lattice vectors in INITIAL alat:
     0.28221341    -0.16293599     1.06848748
     0.00000000     0.32587198     1.06848748
    -0.28221341    -0.16293599     1.06848748
New lattice vectors in NEW alat (for information only):
     0.25263590    -0.14585940     0.95650412
     0.00000000     0.29171881     0.95650412
    -0.25263590    -0.14585940     0.95650412
Discrepancy in bohr =     0.000000    0.000000    0.000000
     new conv_thr            =       0.0000000042 Ry

     new unit-cell volume =    141.71236 a.u.^3 (    20.99961 Ang^3 )
     density =      2.76971 g/cm^3

CELL_PARAMETERS (alat=  7.83364931)
   0.282213414  -0.162935991   1.068487477
   0.000000000   0.325871981   1.068487477
  -0.282213414  -0.162935991   1.068487477

ATOMIC_POSITIONS (crystal)
Li            0.4124584662        0.4124584662        0.4124584662
Si            0.5824565338        0.5824565338        0.5824565338



     Writing config-only to output data dir ./output/LiSi.save/
     NEW-OLD atomic charge density approx. for the potential
     extrapolated charge    6.63434, renormalised to    7.00000

     total cpu time spent up to now is       10.9 secs

     Self-consistent Calculation

     iteration #  1     ecut=    80.00 Ry     beta= 0.70
     Davidson diagonalization with overlap
     ethr =  1.00E-06,  avg # of iterations =  9.3

     total cpu time spent up to now is       11.7 secs

     total energy              =     -22.75848424 Ry
     estimated scf accuracy    <       0.00481134 Ry

     iteration #  2     ecut=    80.00 Ry     beta= 0.70
     Davidson diagonalization with overlap
     ethr =  6.87E-05,  avg # of iterations =  2.0

     total cpu time spent up to now is       12.1 secs

     total energy              =     -22.76073346 Ry
     estimated scf accuracy    <       0.00940370 Ry

     iteration #  3     ecut=    80.00 Ry     beta= 0.70
     Davidson diagonalization with overlap
     ethr =  6.87E-05,  avg # of iterations =  1.2

     total cpu time spent up to now is       12.5 secs

     total energy              =     -22.76200089 Ry
     estimated scf accuracy    <       0.00031060 Ry

     iteration #  4     ecut=    80.00 Ry     beta= 0.70
     Davidson diagonalization with overlap
     ethr =  4.44E-06,  avg # of iterations =  1.8

     total cpu time spent up to now is       12.8 secs

     total energy              =     -22.76199928 Ry
     estimated scf accuracy    <       0.00030526 Ry

     iteration #  5     ecut=    80.00 Ry     beta= 0.70
     Davidson diagonalization with overlap
     ethr =  4.36E-06,  avg # of iterations =  1.0

     total cpu time spent up to now is       13.1 secs

     total energy              =     -22.76205422 Ry
     estimated scf accuracy    <       0.00003167 Ry

     iteration #  6     ecut=    80.00 Ry     beta= 0.70
     Davidson diagonalization with overlap
     ethr =  4.52E-07,  avg # of iterations =  1.0

     total cpu time spent up to now is       13.4 secs

     total energy              =     -22.76205890 Ry
     estimated scf accuracy    <       0.00000005 Ry

     iteration #  7     ecut=    80.00 Ry     beta= 0.70
     Davidson diagonalization with overlap
     ethr =  7.65E-10,  avg # of iterations =  3.2

     total cpu time spent up to now is       13.8 secs

     total energy              =     -22.76205897 Ry
     estimated scf accuracy    <          4.4E-09 Ry

     iteration #  8     ecut=    80.00 Ry     beta= 0.70
     Davidson diagonalization with overlap
     ethr =  6.35E-11,  avg # of iterations =  1.2

     total cpu time spent up to now is       14.2 secs

     End of self-consistent calculation

          k = 0.0000 0.0000 0.0000 (  1311 PWs)   bands (ev):

   -36.9274  -4.6047   3.3887   9.0439  24.0497  24.3977  25.5045  25.5045

          k =-0.2531-0.1461 0.0446 (  1319 PWs)   bands (ev):

   -36.8914  -3.9066   4.0609   9.4057  19.3314  22.9651  22.9672  24.9995

          k =-0.5062-0.2923 0.0891 (  1341 PWs)   bands (ev):

   -36.8100  -1.8340   6.0092  10.3552  12.6650  19.4731  20.8105  21.8670

          k =-0.7593-0.4384 0.1337 (  1338 PWs)   bands (ev):

   -36.7440   1.5047   6.4506   8.8559  12.3840  14.8871  18.9273  19.7330

          k =-0.2531 0.1461 0.0891 (  1319 PWs)   bands (ev):

   -36.8913  -3.9058   4.0017   9.5711  19.4037  22.2726  22.8523  25.1650

          k =-0.5062-0.0000 0.1337 (  1331 PWs)   bands (ev):

   -36.8326  -2.5153   5.2233  10.4902  15.5956  17.2060  21.7805  23.0695

          k =-0.7593-0.1461 0.1783 (  1331 PWs)   bands (ev):

   -36.7587   0.2198   7.5120   9.5526  12.4377  15.0052  17.6079  19.8269

          k = 0.7593 0.7306-0.0891 (  1332 PWs)   bands (ev):

   -36.7257   3.5235   5.1110  10.1801  12.7786  13.6587  15.0797  18.1608

          k = 0.5062 0.5845-0.0446 (  1335 PWs)   bands (ev):

   -36.7588   0.1891   8.1285   9.5202  11.4453  14.7560  17.1297  20.6898

          k = 0.2531 0.4384 0.0000 (  1330 PWs)   bands (ev):

   -36.8326  -2.5238   5.4659   9.9290  15.6286  17.2218  22.1592  23.4676

          k =-0.5062 0.2923 0.1783 (  1327 PWs)   bands (ev):

   -36.8097  -1.8196   5.7087  10.8541  12.9877  18.6756  20.5463  21.5711

          k =-0.7593 0.1461 0.2228 (  1339 PWs)   bands (ev):

   -36.7587   0.2373   7.3240   9.6181  12.6908  14.7135  17.0555  22.0699

          k = 0.7593 1.0229-0.0446 (  1336 PWs)   bands (ev):

   -36.7177   3.5345   7.5400   9.2723  10.1944  13.9908  16.6072  16.9388

          k = 0.5062 0.8768 0.0000 (  1338 PWs)   bands (ev):

   -36.7178   3.4321   7.6325   9.4722  11.3413  13.0276  14.1227  17.7367

          k =-0.7593 0.4384 0.2674 (  1339 PWs)   bands (ev):

   -36.7440   1.5769   6.4776   8.1779  12.3136  16.1271  19.3640  20.4145

          k = 0.7593 1.3152 0.0000 (  1326 PWs)   bands (ev):

   -36.7257   3.6927   5.0553   9.4488  11.9396  13.5443  17.8959  20.2582

          k = 0.0000-0.0000 0.1337 (  1314 PWs)   bands (ev):

   -36.9274  -4.6054   3.2510   9.5070  21.1608  25.4957  25.4957  27.2653

          k =-0.2531-0.1461 0.1783 (  1323 PWs)   bands (ev):

   -36.8913  -3.9028   3.8045  10.2117  18.9842  20.8204  23.0064  25.7298

          k =-0.5062-0.2923 0.2228 (  1332 PWs)   bands (ev):

   -36.8098  -1.8108   5.5222  11.3374  12.8905  19.4191  20.8101  21.1748

          k = 1.0124 0.5845-0.0446 (  1332 PWs)   bands (ev):

   -36.7439   1.5635   6.3211   8.3004  14.0863  14.7392  18.3146  19.6766

          k = 0.7593 0.4384 0.0000 (  1330 PWs)   bands (ev):

   -36.7439   1.4847   6.5255   9.4670  10.9793  15.2203  19.6231  19.6281

          k = 0.5062 0.2923 0.0446 (  1334 PWs)   bands (ev):

   -36.8099  -1.8378   6.1206  10.1282  12.7076  19.1184  20.6854  22.0461

          k =-0.2531 0.1461 0.2228 (  1321 PWs)   bands (ev):

   -36.8913  -3.9009   3.6941  10.6304  18.9824  20.0505  22.7548  25.7361

          k =-0.5062 0.0000 0.2674 (  1328 PWs)   bands (ev):

   -36.8324  -2.4958   4.7856  11.8535  15.5148  17.0461  20.1143  22.9072

          k = 1.0124 0.8768 0.0000 (  1329 PWs)   bands (ev):

   -36.7587   0.2675   6.9116   9.5875  13.4815  15.6423  17.8933  19.8069

          k = 0.7593 0.7306 0.0446 (  1332 PWs)   bands (ev):

   -36.7257   3.5836   5.0847   9.9467  12.2911  13.6775  15.8488  19.3420

          k = 0.5062 0.5845 0.0891 (  1333 PWs)   bands (ev):

   -36.7587   0.1967   7.9852   9.6082  11.5363  14.6485  16.9685  21.5022

          k =-0.5062 0.2923 0.3120 (  1341 PWs)   bands (ev):

   -36.8099  -1.7923   5.2408  11.6376  13.9301  17.7127  20.4892  20.7279

          k = 1.0124 1.1690 0.0446 (  1342 PWs)   bands (ev):

   -36.7588   0.2821   6.8039   9.6033  13.7301  15.2900  17.3551  20.9313

          k = 0.7593 1.0229 0.0891 (  1332 PWs)   bands (ev):

   -36.7178   3.5966   7.4891   8.9744  10.1014  14.3297  16.7343  18.5781

          k = 0.5062 0.8768 0.1337 (  1340 PWs)   bands (ev):

   -36.7178   3.4625   7.6045   9.4476  10.7718  13.4127  14.9263  17.3955

          k = 1.0124-0.5845-0.2228 (  1341 PWs)   bands (ev):

   -36.7441   1.6243   6.3218   7.8966  13.2155  16.7679  19.2879  19.3850

          k = 0.7593-0.7306-0.1783 (  1338 PWs)   bands (ev):

   -36.7259   3.6592   5.0615   9.6079  12.0252  13.5590  17.1201  20.3061

          k = 0.7593-0.4384-0.1337 (  1344 PWs)   bands (ev):

   -36.7441   1.5157   6.5409   8.9380  11.2859  15.5973  19.4639  20.2152

          k = 0.0000-0.0000 0.2674 (  1326 PWs)   bands (ev):

   -36.9275  -4.6070   2.9818  10.7138  18.3333  25.4779  25.4779  27.1817

          k =-0.2531-0.1461 0.3120 (  1326 PWs)   bands (ev):

   -36.8913  -3.8971   3.4919  11.6707  17.4295  19.7661  22.9334  25.8680

          k = 1.2655 0.7306 0.0446 (  1328 PWs)   bands (ev):

   -36.8097  -1.7850   5.1229  11.9209  14.0265  17.8960  20.6847  20.7411

          k = 1.0124 0.5845 0.0891 (  1339 PWs)   bands (ev):

   -36.7440   1.6185   6.2401   7.9845  13.8753  16.4771  17.9659  19.5161

          k =-0.2531 0.1461 0.3565 (  1319 PWs)   bands (ev):

   -36.8912  -3.8956   3.4178  12.1910  16.8623  19.6511  22.7390  25.8315

          k = 1.2655 1.0229 0.0891 (  1332 PWs)   bands (ev):

   -36.8324  -2.4798   4.4993  13.4537  15.3771  16.3611  18.8704  22.8995

          k = 1.0124 0.8768 0.1337 (  1331 PWs)   bands (ev):

   -36.7587   0.2962   6.6505   9.5974  13.9113  16.0580  18.0640  19.2783

          k = 1.2655-0.7306-0.1783 (  1331 PWs)   bands (ev):

   -36.8098  -1.7766   5.0163  11.9349  15.5931  16.0704  20.5459  20.5534

          k = 0.0000-0.0000 0.4011 (  1339 PWs)   bands (ev):

   -36.9274  -4.6083   2.7951  12.1786  16.0931  25.4658  25.4658  27.0924

          k = 1.5186 0.8768 0.1337 (  1324 PWs)   bands (ev):

   -36.8912  -3.8939   3.3384  13.0614  15.7484  19.6214  22.8142  25.8789

     the Fermi energy is     9.6399 ev

!    total energy              =     -22.76205897 Ry
     estimated scf accuracy    <          8.4E-11 Ry
     smearing contrib. (-TS)   =      -0.00023366 Ry
     internal energy E=F+TS    =     -22.76182531 Ry

     The total energy is F=E-TS. E is the sum of the following terms:
     one-electron contribution =      -1.94499862 Ry
     hartree contribution      =       3.03637480 Ry
     xc contribution           =      -6.77786855 Ry
     ewald contribution        =     -17.07533293 Ry

     convergence has been achieved in   8 iterations

     Forces acting on atoms (cartesian axes, Ry/au):

     atom    1 type  1   force =    -0.00000000    0.00000000   -0.03655826
     atom    2 type  2   force =     0.00000000   -0.00000000    0.03655826
     The non-local contrib.  to forces
     atom    1 type  1   force =     0.00000000    0.00000000    0.01149668
     atom    2 type  2   force =    -0.00000000    0.00000000   -0.01049316
     The ionic contribution  to forces
     atom    1 type  1   force =     0.00000000    0.00000000    0.09768937
     atom    2 type  2   force =    -0.00000000   -0.00000000   -0.09768937
     The local contribution  to forces
     atom    1 type  1   force =     0.00000000    0.00000000   -0.14575311
     atom    2 type  2   force =    -0.00000000    0.00000000    0.14403962
     The core correction contribution to forces
     atom    1 type  1   force =     0.00000000    0.00000000    0.00000000
     atom    2 type  2   force =    -0.00000000    0.00000000    0.00070607
     The Hubbard contrib.    to forces
     atom    1 type  1   force =     0.00000000    0.00000000    0.00000000
     atom    2 type  2   force =     0.00000000    0.00000000    0.00000000
     The SCF correction term to forces
     atom    1 type  1   force =     0.00000000    0.00000000    0.00000910
     atom    2 type  2   force =     0.00000000    0.00000000   -0.00000461

     Total force =     0.051701     Total SCF correction =     0.000010


     Computing stress (Cartesian axis) and pressure

          total   stress  (Ry/bohr**3)                   (kbar)     P=      418.49
   0.00381946   0.00000000  -0.00000000          561.86        0.00       -0.00
  -0.00000000   0.00381946   0.00000000           -0.00      561.86        0.00
  -0.00000000   0.00000000   0.00089563           -0.00        0.00      131.75

     Energy error            =      3.6E-02 Ry
     Gradient error          =      3.7E-02 Ry/Bohr
     Cell gradient error     =      3.7E+02 kbar

     number of scf cycles    =   3
     number of bfgs steps    =   2

     enthalpy           old  =     -22.2444352646 Ry
     enthalpy           new  =     -22.2803884367 Ry

     CASE: enthalpy          _new < enthalpy          _old


     WARNING: bfgs curvature condition failed, Theta= 0.968
     new trust radius        =       0.1795175293 bohr
ibrav =      5
 celldm(1) =      8.16324675
 celldm(4) =      0.84815568
Input lattice vectors:
     0.28713298    -0.16577630     0.98792322
     0.00000000     0.33155261     0.98792322
    -0.28713298    -0.16577630     0.98792322
New lattice vectors in INITIAL alat:
     0.28713298    -0.16577630     0.98792322
     0.00000000     0.33155261     0.98792322
    -0.28713298    -0.16577630     0.98792322
New lattice vectors in NEW alat (for information only):
     0.27553977    -0.15908296     0.94803505
     0.00000000     0.31816592     0.94803505
    -0.27553977    -0.15908296     0.94803505
Discrepancy in bohr =     0.000000    0.000000    0.000000
     new conv_thr            =       0.0000000037 Ry

     new unit-cell volume =    135.63518 a.u.^3 (    20.09906 Ang^3 )
     density =      2.89381 g/cm^3

CELL_PARAMETERS (alat=  7.83364931)
   0.287132983  -0.165776305   0.987923215
   0.000000000   0.331552610   0.987923215
  -0.287132983  -0.165776305   0.987923215

ATOMIC_POSITIONS (crystal)
Li            0.4089097211        0.4089097211        0.4089097211
Si            0.5860052789        0.5860052789        0.5860052789



     Writing config-only to output data dir ./output/LiSi.save/
     NEW-OLD atomic charge density approx. for the potential
     extrapolated charge    6.68659, renormalised to    7.00000

     total cpu time spent up to now is       14.7 secs

     Self-consistent Calculation

     iteration #  1     ecut=    80.00 Ry     beta= 0.70
     Davidson diagonalization with overlap
     ethr =  1.00E-06,  avg # of iterations =  9.8

     total cpu time spent up to now is       15.5 secs

     total energy              =     -22.76509036 Ry
     estimated scf accuracy    <       0.00467156 Ry

     iteration #  2     ecut=    80.00 Ry     beta= 0.70
     Davidson diagonalization with overlap
     ethr =  6.67E-05,  avg # of iterations =  2.2

     total cpu time spent up to now is       15.9 secs

     total energy              =     -22.76760709 Ry
     estimated scf accuracy    <       0.00730257 Ry

     iteration #  3     ecut=    80.00 Ry     beta= 0.70
     Davidson diagonalization with overlap
     ethr =  6.67E-05,  avg # of iterations =  1.0

     total cpu time spent up to now is       16.2 secs

     total energy              =     -22.76864345 Ry
     estimated scf accuracy    <       0.00014512 Ry

     iteration #  4     ecut=    80.00 Ry     beta= 0.70
     Davidson diagonalization with overlap
     ethr =  2.07E-06,  avg # of iterations =  2.5

     total cpu time spent up to now is       16.6 secs

     total energy              =     -22.76865250 Ry
     estimated scf accuracy    <       0.00001192 Ry

     iteration #  5     ecut=    80.00 Ry     beta= 0.70
     Davidson diagonalization with overlap
     ethr =  1.70E-07,  avg # of iterations =  1.8

     total cpu time spent up to now is       16.9 secs

     total energy              =     -22.76865427 Ry
     estimated scf accuracy    <       0.00000710 Ry

     iteration #  6     ecut=    80.00 Ry     beta= 0.70
     Davidson diagonalization with overlap
     ethr =  1.01E-07,  avg # of iterations =  1.0

     total cpu time spent up to now is       17.2 secs

     total energy              =     -22.76865551 Ry
     estimated scf accuracy    <          8.2E-09 Ry

     iteration #  7     ecut=    80.00 Ry     beta= 0.70
     Davidson diagonalization with overlap
     ethr =  1.18E-10,  avg # of iterations =  3.3

     total cpu time spent up to now is       17.6 secs

     End of self-consistent calculation

          k = 0.0000 0.0000 0.0000 (  1311 PWs)   bands (ev):

   -36.2755  -3.9471   4.2894  10.3782  25.3527  25.3527  26.9001  29.0939

          k =-0.2488-0.1436 0.0482 (  1319 PWs)   bands (ev):

   -36.2434  -3.2820   4.9190  10.6946  19.3193  22.6774  24.2521  26.1273

          k =-0.4975-0.2872 0.0964 (  1341 PWs)   bands (ev):

   -36.1711  -1.3027   6.7210  11.1774  13.2088  19.7010  20.5492  22.3246

          k =-0.7463-0.4309 0.1446 (  1338 PWs)   bands (ev):

   -36.1126   1.9049   6.6175   9.2949  13.5036  15.6409  19.4944  19.5727

          k =-0.2488 0.1436 0.0964 (  1319 PWs)   bands (ev):

   -36.2434  -3.2796   4.8318  10.9027  19.4878  22.4681  23.9030  25.4898

          k =-0.4975-0.0000 0.1446 (  1331 PWs)   bands (ev):

   -36.1911  -1.9486   5.9315  11.7210  15.7288  17.2838  21.8070  23.8320

          k =-0.7463-0.1436 0.1928 (  1331 PWs)   bands (ev):

   -36.1256   0.6802   7.9493   9.7121  13.3593  15.5689  17.8242  20.0605

          k = 0.7463 0.7181-0.0964 (  1332 PWs)   bands (ev):

   -36.0964   3.8937   5.2981  10.4451  13.2402  14.0133  16.2565  18.6167

          k = 0.4975 0.5745-0.0482 (  1335 PWs)   bands (ev):

   -36.1257   0.6287   8.7479   9.6596  12.4521  14.8584  17.3346  20.9627

          k = 0.2488 0.4309 0.0000 (  1330 PWs)   bands (ev):

   -36.1912  -1.9650   6.2671  11.0471  15.7998  17.1967  21.8824  23.6279

          k =-0.4975 0.2872 0.1928 (  1327 PWs)   bands (ev):

   -36.1708  -1.2764   6.3218  11.5925  13.7670  18.9378  20.1018  22.2142

          k =-0.7463 0.1436 0.2410 (  1339 PWs)   bands (ev):

   -36.1255   0.7099   7.7335   9.8323  13.4126  14.8666  17.7868  22.5701

          k = 0.7463 1.0054-0.0482 (  1336 PWs)   bands (ev):

   -36.0892   3.9218   7.8142   9.1325  10.4419  14.2045  17.4149  18.2728

          k = 0.4975 0.8617 0.0000 (  1338 PWs)   bands (ev):

   -36.0893   3.7535   7.9765   9.3700  11.6085  13.8435  14.3710  18.7995

          k =-0.7463 0.4309 0.2892 (  1339 PWs)   bands (ev):

   -36.1124   2.0239   6.6729   8.4940  12.8260  17.4006  18.8901  21.2890

          k = 0.7463 1.2926 0.0000 (  1326 PWs)   bands (ev):

   -36.0962   4.1925   5.1983   9.5565  12.3112  13.5672  19.5540  21.8609

          k = 0.0000-0.0000 0.1446 (  1314 PWs)   bands (ev):

   -36.2753  -3.9446   4.0796  10.9769  24.5318  25.3266  25.3266  26.6057

          k =-0.2488-0.1436 0.1928 (  1323 PWs)   bands (ev):

   -36.2432  -3.2707   4.5467  11.7113  19.0832  22.7519  23.2985  26.4515

          k =-0.4975-0.2872 0.2410 (  1332 PWs)   bands (ev):

   -36.1708  -1.2603   6.0739  11.8253  14.0105  20.2763  20.5483  21.8098

          k = 0.9951 0.5745-0.0482 (  1332 PWs)   bands (ev):

   -36.1125   2.0036   6.4114   8.7174  15.0838  15.8086  19.0664  19.3943

          k = 0.7463 0.4309 0.0000 (  1330 PWs)   bands (ev):

   -36.1126   1.8724   6.7384   9.9301  11.8039  16.0790  19.3112  20.2318

          k = 0.4975 0.2872 0.0482 (  1334 PWs)   bands (ev):

   -36.1710  -1.3096   6.8728  10.9896  13.1584  19.2174  20.3297  22.4191

          k =-0.2488 0.1436 0.2410 (  1321 PWs)   bands (ev):

   -36.2430  -3.2651   4.3900  12.2161  19.5569  22.0801  22.3004  25.3281

          k =-0.4975 0.0000 0.2892 (  1328 PWs)   bands (ev):

   -36.1908  -1.9107   5.3426  13.2530  15.5796  17.5178  21.3725  23.7792

          k = 0.9951 0.8617 0.0000 (  1329 PWs)   bands (ev):

   -36.1255   0.7624   7.1965   9.7620  13.8748  17.0207  18.2048  20.1736

          k = 0.7463 0.7181 0.0482 (  1332 PWs)   bands (ev):

   -36.0963   3.9996   5.2485  10.1655  12.8481  13.7088  17.0986  20.0843

          k = 0.4975 0.5745 0.0964 (  1333 PWs)   bands (ev):

   -36.1257   0.6413   8.5493   9.8319  12.4415  14.6247  17.3664  21.7904

          k =-0.4975 0.2872 0.3374 (  1341 PWs)   bands (ev):

   -36.1706  -1.2261   5.7089  11.9871  15.3963  18.6693  20.0118  21.5302

          k = 0.9951 1.1490 0.0482 (  1342 PWs)   bands (ev):

   -36.1254   0.7877   7.0774   9.7944  13.9222  15.8967  18.5996  23.0923

          k = 0.7463 1.0054 0.0964 (  1332 PWs)   bands (ev):

   -36.0891   4.0296   7.7277   8.7813  10.3528  14.5136  17.5235  20.0373

          k = 0.4975 0.8617 0.1446 (  1340 PWs)   bands (ev):

   -36.0893   3.8023   7.9292   9.3315  11.0780  13.7197  15.7468  18.4007

          k = 0.9951-0.5745-0.2410 (  1341 PWs)   bands (ev):

   -36.1124   2.1069   6.4133   8.2269  13.6965  18.0622  18.9222  21.0283

          k = 0.7463-0.7181-0.1928 (  1338 PWs)   bands (ev):

   -36.0963   4.1337   5.2066   9.7536  12.4862  13.5356  18.6467  21.1498

          k = 0.7463-0.4309-0.1446 (  1344 PWs)   bands (ev):

   -36.1125   1.9224   6.7697   9.3666  11.8928  16.6321  19.0442  20.8446

          k = 0.0000-0.0000 0.2892 (  1326 PWs)   bands (ev):

   -36.2749  -3.9391   3.6822  12.5028  21.3783  25.2816  25.2817  26.4386

          k =-0.2488-0.1436 0.3374 (  1326 PWs)   bands (ev):

   -36.2428  -3.2537   4.1067  13.5009  18.6661  21.1949  22.6130  26.0075

          k = 1.2438 0.7181 0.0482 (  1328 PWs)   bands (ev):

   -36.1706  -1.2124   5.5525  12.0782  15.7105  19.9905  20.3283  20.9407

          k = 0.9951 0.5745 0.0964 (  1339 PWs)   bands (ev):

   -36.1124   2.0986   6.2823   8.3697  14.4586  17.8632  19.1270  19.2441

          k =-0.2488 0.1436 0.3856 (  1319 PWs)   bands (ev):

   -36.2427  -3.2490   4.0039  14.0931  19.1901  19.8909  22.2737  25.6222

          k = 1.2438 1.0054 0.0964 (  1332 PWs)   bands (ev):

   -36.1906  -1.8791   4.9629  14.7537  15.4562  17.8824  20.1892  22.9085

          k = 0.9951 0.8617 0.1446 (  1331 PWs)   bands (ev):

   -36.1253   0.8128   6.8744   9.7770  14.0250  16.8312  19.6130  20.9932

          k = 1.2438-0.7181-0.1928 (  1331 PWs)   bands (ev):

   -36.1705  -1.1965   5.4150  12.1010  17.4037  17.8919  20.1009  20.9988

          k = 0.0000 0.0000 0.4338 (  1339 PWs)   bands (ev):

   -36.2747  -3.9346   3.4133  14.3500  18.7255  25.2591  25.2592  26.2956

          k = 1.4926 0.8617 0.1446 (  1324 PWs)   bands (ev):

   -36.2426  -3.2438   3.8940  15.1730  17.8339  19.9473  22.4006  25.8626

     the Fermi energy is     9.8785 ev

!    total energy              =     -22.76865552 Ry
     estimated scf accuracy    <          1.6E-09 Ry
     smearing contrib. (-TS)   =       0.00009501 Ry
     internal energy E=F+TS    =     -22.76875053 Ry

     The total energy is F=E-TS. E is the sum of the following terms:
     one-electron contribution =      -1.64928584 Ry
     hartree contribution      =       3.02381837 Ry
     xc contribution           =      -6.80152797 Ry
     ewald contribution        =     -17.34175509 Ry

     convergence has been achieved in   7 iterations

     Forces acting on atoms (cartesian axes, Ry/au):

     atom    1 type  1   force =     0.00000000    0.00000000   -0.01360957
     atom    2 type  2   force =    -0.00000000   -0.00000000    0.01360957
     The non-local contrib.  to forces
     atom    1 type  1   force =    -0.00000000    0.00000000    0.03081472
     atom    2 type  2   force =     0.00000000    0.00000000   -0.04224280
     The ionic contribution  to forces
     atom    1 type  1   force =    -0.00000000    0.00000000    0.39719343
     atom    2 type  2   force =    -0.00000000   -0.00000000   -0.39719343
     The local contribution  to forces
     atom    1 type  1   force =     0.00000000    0.00000000   -0.44165276
     atom    2 type  2   force =    -0.00000000    0.00000000    0.45011297
     The core correction contribution to forces
     atom    1 type  1   force =     0.00000000    0.00000000    0.00000000
     atom    2 type  2   force =    -0.00000000    0.00000000    0.00296262
     The Hubbard contrib.    to forces
     atom    1 type  1   force =     0.00000000    0.00000000    0.00000000
     atom    2 type  2   force =     0.00000000    0.00000000    0.00000000
     The SCF correction term to forces
     atom    1 type  1   force =    -0.00000000   -0.00000000    0.00003980
     atom    2 type  2   force =     0.00000000   -0.00000000   -0.00002504

     Total force =     0.019247     Total SCF correction =     0.000047


     Computing stress (Cartesian axis) and pressure

          total   stress  (Ry/bohr**3)                   (kbar)     P=      465.17
   0.00352375   0.00000000   0.00000000          518.36        0.00        0.00
   0.00000000   0.00352375   0.00000000            0.00      518.36        0.00
   0.00000000   0.00000000   0.00243891            0.00        0.00      358.78

     Energy error            =      2.7E-02 Ry
     Gradient error          =      1.4E-02 Ry/Bohr
     Cell gradient error     =      1.4E+02 kbar

     number of scf cycles    =   4
     number of bfgs steps    =   3

     enthalpy           old  =     -22.2803884367 Ry
     enthalpy           new  =     -22.3076409077 Ry

     CASE: enthalpy          _new < enthalpy          _old

     new trust radius        =       0.1192639190 bohr
ibrav =      5
 celldm(1) =      7.79634149
 celldm(4) =      0.83054958
Input lattice vectors:
     0.28968970    -0.16725243     0.93733887
     0.00000000     0.33450486     0.93733887
    -0.28968970    -0.16725243     0.93733887
New lattice vectors in INITIAL alat:
     0.28968970    -0.16725243     0.93733887
     0.00000000     0.33450486     0.93733887
    -0.28968970    -0.16725243     0.93733887
New lattice vectors in NEW alat (for information only):
     0.29107596    -0.16805278     0.94182432
     0.00000000     0.33610556     0.94182432
    -0.29107596    -0.16805278     0.94182432
Discrepancy in bohr =     0.000000    0.000000    0.000000
     new conv_thr            =       0.0000000014 Ry

     new unit-cell volume =    130.99229 a.u.^3 (    19.41106 Ang^3 )
     density =      2.99638 g/cm^3

CELL_PARAMETERS (alat=  7.83364931)
   0.289689704  -0.167252429   0.937338875
   0.000000000   0.334504857   0.937338875
  -0.289689704  -0.167252429   0.937338875

ATOMIC_POSITIONS (crystal)
Li            0.4068036052        0.4068036052        0.4068036052
Si            0.5881113948        0.5881113948        0.5881113948



     Writing config-only to output data dir ./output/LiSi.save/
     NEW-OLD atomic charge density approx. for the potential
     extrapolated charge    6.75208, renormalised to    7.00000

     total cpu time spent up to now is       18.0 secs

     Self-consistent Calculation

     iteration #  1     ecut=    80.00 Ry     beta= 0.70
     Davidson diagonalization with overlap
     c_bands:  1 eigenvalues not converged
     ethr =  1.00E-06,  avg # of iterations =  8.7

     total cpu time spent up to now is       18.8 secs

     total energy              =     -22.75178560 Ry
     estimated scf accuracy    <       0.00236098 Ry

     iteration #  2     ecut=    80.00 Ry     beta= 0.70
     Davidson diagonalization with overlap
     ethr =  3.37E-05,  avg # of iterations =  2.3

     total cpu time spent up to now is       19.2 secs

     total energy              =     -22.75351922 Ry
     estimated scf accuracy    <       0.00364180 Ry

     iteration #  3     ecut=    80.00 Ry     beta= 0.70
     Davidson diagonalization with overlap
     ethr =  3.37E-05,  avg # of iterations =  1.0

     total cpu time spent up to now is       19.5 secs

     total energy              =     -22.75397102 Ry
     estimated scf accuracy    <       0.00011246 Ry

     iteration #  4     ecut=    80.00 Ry     beta= 0.70
     Davidson diagonalization with overlap
     ethr =  1.61E-06,  avg # of iterations =  2.1

     total cpu time spent up to now is       19.8 secs

     total energy              =     -22.75396981 Ry
     estimated scf accuracy    <       0.00001732 Ry

     iteration #  5     ecut=    80.00 Ry     beta= 0.70
     Davidson diagonalization with overlap
     ethr =  2.47E-07,  avg # of iterations =  1.5

     total cpu time spent up to now is       20.2 secs

     total energy              =     -22.75397283 Ry
     estimated scf accuracy    <       0.00000003 Ry

     iteration #  6     ecut=    80.00 Ry     beta= 0.70
     Davidson diagonalization with overlap
     ethr =  4.47E-10,  avg # of iterations =  3.8

     total cpu time spent up to now is       20.6 secs

     total energy              =     -22.75397289 Ry
     estimated scf accuracy    <          7.5E-09 Ry

     iteration #  7     ecut=    80.00 Ry     beta= 0.70
     Davidson diagonalization with overlap
     ethr =  1.08E-10,  avg # of iterations =  1.1

     total cpu time spent up to now is       20.9 secs

     total energy              =     -22.75397289 Ry
     estimated scf accuracy    <          1.5E-09 Ry

     iteration #  8     ecut=    80.00 Ry     beta= 0.70
     Davidson diagonalization with overlap
     ethr =  2.17E-11,  avg # of iterations =  1.0

     total cpu time spent up to now is       21.2 secs

     End of self-consistent calculation

          k = 0.0000 0.0000 0.0000 (  1311 PWs)   bands (ev):

   -35.7205  -3.5426   5.0299  11.3598  25.2436  25.2436  26.3774  26.3774

          k =-0.2466-0.1424 0.0508 (  1319 PWs)   bands (ev):

   -35.6897  -2.8980   5.6306  11.6373  19.3404  22.5379  24.6379  26.0838

          k =-0.4931-0.2847 0.1016 (  1341 PWs)   bands (ev):

   -35.6203  -0.9766   7.3316  11.5579  13.8734  19.9543  20.4385  22.6598

          k =-0.7397-0.4271 0.1524 (  1338 PWs)   bands (ev):

   -35.5644   2.1430   6.7475   9.7207  14.3114  16.3566  19.4021  20.1139

          k =-0.2466 0.1424 0.1016 (  1319 PWs)   bands (ev):

   -35.6896  -2.8941   5.5187  11.8795  19.5650  22.2528  24.3515  25.3602

          k =-0.4931-0.0000 0.1524 (  1331 PWs)   bands (ev):

   -35.6394  -1.5993   6.5303  12.5707  15.8442  17.4413  21.8426  24.1886

          k =-0.7397-0.1424 0.2032 (  1331 PWs)   bands (ev):

   -35.5767   0.9634   8.3318   9.8632  13.7872  16.3186  18.1160  20.4302

          k = 0.7397 0.7118-0.1016 (  1332 PWs)   bands (ev):

   -35.5487   4.0857   5.4619  10.7596  13.4374  14.5180  17.1762  19.1366

          k = 0.4931 0.5694-0.0508 (  1335 PWs)   bands (ev):

   -35.5769   0.8953   9.2983   9.7710  13.1141  15.0792  17.6393  21.3525

          k = 0.2466 0.4271 0.0000 (  1330 PWs)   bands (ev):

   -35.6397  -1.6222   6.9460  11.8296  15.9553  17.2613  21.8711  23.8473

          k =-0.4931 0.2847 0.2032 (  1327 PWs)   bands (ev):

   -35.6200  -0.9403   6.8467  11.9561  14.5262  19.1956  19.8507  22.5622

          k =-0.7397 0.1424 0.2540 (  1339 PWs)   bands (ev):

   -35.5765   1.0035   8.1037  10.0138  13.6760  15.1806  18.6526  23.0049

          k = 0.7397 0.9965-0.0508 (  1336 PWs)   bands (ev):

   -35.5418   4.1582   7.9641   9.1293  10.7237  14.4969  17.9716  19.5719

          k = 0.4931 0.8541 0.0000 (  1338 PWs)   bands (ev):

   -35.5420   3.9385   8.1830   9.3848  11.9227  14.3324  14.8665  19.7802

          k =-0.7397 0.4271 0.3048 (  1339 PWs)   bands (ev):

   -35.5639   2.3014   6.8206   8.8117  13.2720  18.2770  18.6215  21.9934

          k = 0.7397 1.2812 0.0000 (  1326 PWs)   bands (ev):

   -35.5484   4.4987   5.3143   9.7317  12.6231  13.7059  20.7644  23.2003

          k = 0.0000-0.0000 0.1524 (  1314 PWs)   bands (ev):

   -35.7202  -3.5372   4.7566  12.0673  25.1917  25.1917  26.3132  26.6872

          k =-0.2466-0.1424 0.2032 (  1323 PWs)   bands (ev):

   -35.6892  -2.8799   5.1587  12.8147  19.0850  22.6431  24.4354  26.8626

          k =-0.4931-0.2847 0.2540 (  1332 PWs)   bands (ev):

   -35.6199  -0.9183   6.5508  11.9817  15.0770  20.4373  20.7186  22.3317

          k = 0.9863 0.5694-0.0508 (  1332 PWs)   bands (ev):

   -35.5642   2.2739   6.4898   9.1150  15.6331  16.8981  19.2661  19.6895

          k = 0.7397 0.4271 0.0000 (  1330 PWs)   bands (ev):

   -35.5643   2.1018   6.8991  10.3754  12.4481  16.7980  19.1557  20.7225

          k = 0.4931 0.2847 0.0508 (  1334 PWs)   bands (ev):

   -35.6204  -0.9859   7.5154  11.4736  13.6652  19.4127  20.1436  22.6942

          k =-0.2466 0.1424 0.2540 (  1321 PWs)   bands (ev):

   -35.6890  -2.8708   4.9632  13.3775  19.6873  22.0331  23.3224  25.1406

          k =-0.4931 0.0000 0.3048 (  1328 PWs)   bands (ev):

   -35.6389  -1.5456   5.8173  14.1168  15.6294  17.9985  21.7197  24.8788

          k = 0.9863 0.8541 0.0000 (  1329 PWs)   bands (ev):

   -35.5764   1.0743   7.4642   9.9163  14.0327  17.9941  18.8419  20.5870

          k = 0.7397 0.7118 0.0508 (  1332 PWs)   bands (ev):

   -35.5486   4.2303   5.3899  10.4298  13.2739  13.8739  18.0157  20.7684

          k = 0.4931 0.5694 0.1016 (  1333 PWs)   bands (ev):

   -35.5768   0.9122   9.0197  10.0466  13.0155  14.7149  17.8826  22.1672

          k =-0.4931 0.2847 0.3556 (  1341 PWs)   bands (ev):

   -35.6195  -0.8703   6.1172  12.1732  16.4919  19.1964  19.7377  22.1117

          k = 0.9863 1.1389 0.0508 (  1342 PWs)   bands (ev):

   -35.5763   1.1090   7.3424   9.9521  13.9690  16.3103  19.8519  23.9387

          k = 0.7397 0.9965 0.1016 (  1332 PWs)   bands (ev):

   -35.5417   4.3055   7.8494   8.7357  10.6396  14.8020  18.1632  21.2545

          k = 0.4931 0.8541 0.1524 (  1340 PWs)   bands (ev):

   -35.5419   4.0011   8.1220   9.3355  11.4147  14.0075  16.4582  19.3848

          k = 0.9863-0.5694-0.2540 (  1341 PWs)   bands (ev):

   -35.5638   2.4146   6.4886   8.5497  14.1430  18.6611  18.8062  22.3545

          k = 0.7397-0.7118-0.2032 (  1338 PWs)   bands (ev):

   -35.5484   4.4171   5.3266   9.9564  12.9026  13.6056  19.8078  21.7704

          k = 0.7397-0.4271-0.1524 (  1344 PWs)   bands (ev):

   -35.5641   2.1676   6.9412   9.7692  12.3986  17.4312  18.8131  21.3614

          k = 0.0000-0.0000 0.3048 (  1326 PWs)   bands (ev):

   -35.7194  -3.5247   4.2510  13.8382  23.5239  25.1097  25.1098  26.1254

          k =-0.2466-0.1424 0.3556 (  1326 PWs)   bands (ev):

   -35.6885  -2.8525   4.6136  14.8348  18.8322  22.4479  22.8880  26.2623

          k = 1.2328 0.7118 0.0508 (  1328 PWs)   bands (ev):

   -35.6194  -0.8511   5.9300  12.1635  16.9531  20.1418  21.0989  21.4816

          k = 0.9863 0.5694 0.1016 (  1339 PWs)   bands (ev):

   -35.5639   2.4040   6.3254   8.7327  14.9750  18.5974  18.9178  20.4560

          k =-0.2466 0.1424 0.4064 (  1319 PWs)   bands (ev):

   -35.6883  -2.8449   4.4872  15.4349  19.7068  21.1932  21.9985  25.5599

          k = 1.2328 0.9965 0.1016 (  1332 PWs)   bands (ev):

   -35.6385  -1.5002   5.3621  15.3094  15.4935  19.0974  21.2934  23.3913

          k = 0.9863 0.8541 0.1524 (  1331 PWs)   bands (ev):

   -35.5762   1.1436   7.0975   9.9275  14.0879  17.2678  20.9518  22.2311

          k = 1.2328-0.7118-0.2032 (  1331 PWs)   bands (ev):

   -35.6192  -0.8286   5.7674  12.2092  18.4961  19.0856  19.8497  21.7247

          k = 0.0000-0.0000 0.4572 (  1339 PWs)   bands (ev):

   -35.7188  -3.5145   3.9149  15.9738  20.6269  25.0756  25.0756  25.9438

          k = 1.4794 0.8541 0.1524 (  1324 PWs)   bands (ev):

   -35.6881  -2.8365   4.3528  16.6235  18.7612  20.8841  22.1632  25.9826

     the Fermi energy is    10.0646 ev

!    total energy              =     -22.75397289 Ry
     estimated scf accuracy    <          2.8E-11 Ry
     smearing contrib. (-TS)   =       0.00024079 Ry
     internal energy E=F+TS    =     -22.75421368 Ry

     The total energy is F=E-TS. E is the sum of the following terms:
     one-electron contribution =      -1.46448035 Ry
     hartree contribution      =       3.04169118 Ry
     xc contribution           =      -6.82605449 Ry
     ewald contribution        =     -17.50537002 Ry

     convergence has been achieved in   8 iterations

     Forces acting on atoms (cartesian axes, Ry/au):

     atom    1 type  1   force =    -0.00000000    0.00000000    0.00867851
     atom    2 type  2   force =     0.00000000   -0.00000000   -0.00867851
     The non-local contrib.  to forces
     atom    1 type  1   force =     0.00000000   -0.00000000    0.03511440
     atom    2 type  2   force =    -0.00000000   -0.00000000   -0.06598227
     The ionic contribution  to forces
     atom    1 type  1   force =    -0.00000000    0.00000000    0.54017451
     atom    2 type  2   force =     0.00000000   -0.00000000   -0.54017451
     The local contribution  to forces
     atom    1 type  1   force =     0.00000000    0.00000000   -0.56660884
     atom    2 type  2   force =     0.00000000    0.00000000    0.59291579
     The core correction contribution to forces
     atom    1 type  1   force =     0.00000000    0.00000000    0.00000000
     atom    2 type  2   force =    -0.00000000    0.00000000    0.00455912
     The Hubbard contrib.    to forces
     atom    1 type  1   force =     0.00000000    0.00000000    0.00000000
     atom    2 type  2   force =     0.00000000    0.00000000    0.00000000
     The SCF correction term to forces
     atom    1 type  1   force =    -0.00000000   -0.00000000   -0.00000132
     atom    2 type  2   force =     0.00000000    0.00000000    0.00000360

     Total force =     0.012273     Total SCF correction =     0.000004


     Computing stress (Cartesian axis) and pressure

          total   stress  (Ry/bohr**3)                   (kbar)     P=      537.00
   0.00336634  -0.00000000  -0.00000000          495.21       -0.00       -0.00
   0.00000000   0.00336634   0.00000000            0.00      495.21        0.00
  -0.00000000   0.00000000   0.00421872           -0.00        0.00      620.60

     Energy error            =      1.1E-03 Ry
     Gradient error          =      8.7E-03 Ry/Bohr
     Cell gradient error     =      1.2E+02 kbar

     number of scf cycles    =   5
     number of bfgs steps    =   4

     enthalpy           old  =     -22.3076409077 Ry
     enthalpy           new  =     -22.3087391335 Ry

     CASE: enthalpy          _new < enthalpy          _old

     new trust radius        =       0.0560208576 bohr
ibrav =      5
 celldm(1) =      7.96318256
 celldm(4) =      0.83856948
Input lattice vectors:
     0.28880211    -0.16673998     0.96027888
    -0.00000000     0.33347996     0.96027888
    -0.28880211    -0.16673998     0.96027888
New lattice vectors in INITIAL alat:
     0.28880211    -0.16673998     0.96027888
     0.00000000     0.33347996     0.96027888
    -0.28880211    -0.16673998     0.96027888
New lattice vectors in NEW alat (for information only):
     0.28410431    -0.16402770     0.94465849
     0.00000000     0.32805540     0.94465849
    -0.28410431    -0.16402770     0.94465849
Discrepancy in bohr =     0.000000    0.000000    0.000000
     new conv_thr            =       0.0000000009 Ry

     new unit-cell volume =    133.37705 a.u.^3 (    19.76444 Ang^3 )
     density =      2.94280 g/cm^3

CELL_PARAMETERS (alat=  7.83364931)
   0.288802115  -0.166739979   0.960278880
   0.000000000   0.333479957   0.960278880
  -0.288802115  -0.166739979   0.960278880

ATOMIC_POSITIONS (crystal)
Li            0.4076843225        0.4076843225        0.4076843225
Si            0.5872306775        0.5872306775        0.5872306775



     Writing config-only to output data dir ./output/LiSi.save/
     NEW-OLD atomic charge density approx. for the potential
     extrapolated charge    7.12507, renormalised to    7.00000

     total cpu time spent up to now is       21.6 secs

     Self-consistent Calculation

     iteration #  1     ecut=    80.00 Ry     beta= 0.70
     Davidson diagonalization with overlap
     ethr =  1.00E-06,  avg # of iterations =  6.9

     total cpu time spent up to now is       22.3 secs

     total energy              =     -22.76281096 Ry
     estimated scf accuracy    <       0.00073722 Ry

     iteration #  2     ecut=    80.00 Ry     beta= 0.70
     Davidson diagonalization with overlap
     ethr =  1.05E-05,  avg # of iterations =  2.2

     total cpu time spent up to now is       22.7 secs

     total energy              =     -22.76330149 Ry
     estimated scf accuracy    <       0.00122744 Ry

     iteration #  3     ecut=    80.00 Ry     beta= 0.70
     Davidson diagonalization with overlap
     ethr =  1.05E-05,  avg # of iterations =  1.0

     total cpu time spent up to now is       23.0 secs

     total energy              =     -22.76345711 Ry
     estimated scf accuracy    <       0.00003393 Ry

     iteration #  4     ecut=    80.00 Ry     beta= 0.70
     Davidson diagonalization with overlap
     ethr =  4.85E-07,  avg # of iterations =  1.2

     total cpu time spent up to now is       23.3 secs

     total energy              =     -22.76345537 Ry
     estimated scf accuracy    <       0.00000724 Ry

     iteration #  5     ecut=    80.00 Ry     beta= 0.70
     Davidson diagonalization with overlap
     ethr =  1.03E-07,  avg # of iterations =  1.5

     total cpu time spent up to now is       23.6 secs

     total energy              =     -22.76345663 Ry
     estimated scf accuracy    <       0.00000047 Ry

     iteration #  6     ecut=    80.00 Ry     beta= 0.70
     Davidson diagonalization with overlap
     ethr =  6.76E-09,  avg # of iterations =  1.8

     total cpu time spent up to now is       23.9 secs

     total energy              =     -22.76345674 Ry
     estimated scf accuracy    <          2.8E-09 Ry

     iteration #  7     ecut=    80.00 Ry     beta= 0.70
     Davidson diagonalization with overlap
     ethr =  4.00E-11,  avg # of iterations =  3.5

     total cpu time spent up to now is       24.2 secs

     End of self-consistent calculation

          k = 0.0000 0.0000 0.0000 (  1311 PWs)   bands (ev):

   -35.9904  -3.7363   4.6679  10.8873  25.2508  25.2508  26.4340  26.4340

          k =-0.2473-0.1428 0.0496 (  1319 PWs)   bands (ev):

   -35.9593  -3.0834   5.2808  11.1839  19.2849  22.5464  24.4454  26.0395

          k =-0.4947-0.2856 0.0992 (  1341 PWs)   bands (ev):

   -35.8893  -1.1384   7.0252  11.3785  13.5144  19.7959  20.4340  22.4602

          k =-0.7420-0.4284 0.1488 (  1338 PWs)   bands (ev):

   -35.8327   2.0182   6.6591   9.4936  13.9208  15.9904  19.3894  19.8201

          k =-0.2473 0.1428 0.0992 (  1319 PWs)   bands (ev):

   -35.9592  -3.0801   5.1806  11.4100  19.4839  22.2975  24.1451  25.3541

          k =-0.4947-0.0000 0.1488 (  1331 PWs)   bands (ev):

   -35.9086  -1.7708   6.2311  12.1665  15.7546  17.3118  21.7767  23.9885

          k =-0.7420-0.1428 0.1984 (  1331 PWs)   bands (ev):

   -35.8453   0.8186   8.1326   9.7588  13.5852  15.9117  17.9401  20.2089

          k = 0.7420 0.7140-0.0992 (  1332 PWs)   bands (ev):

   -35.8170   3.9850   5.3549  10.5803  13.3277  14.2362  16.7332  18.8408

          k = 0.4947 0.5712-0.0496 (  1335 PWs)   bands (ev):

   -35.8454   0.7583   9.0164   9.6883  12.7997  14.9236  17.4567  21.1210

          k = 0.2473 0.4284 0.0000 (  1330 PWs)   bands (ev):

   -35.9088  -1.7906   6.6086  11.4545  15.8461  17.1779  21.8237  23.6973

          k =-0.4947 0.2856 0.1984 (  1327 PWs)   bands (ev):

   -35.8890  -1.1068   6.5816  11.7739  14.1375  19.0354  19.9132  22.3578

          k =-0.7420 0.1428 0.2479 (  1339 PWs)   bands (ev):

   -35.8451   0.8536   7.9093   9.8973  13.5495  14.9852  18.1964  22.7587

          k = 0.7420 0.9996-0.0496 (  1336 PWs)   bands (ev):

   -35.8100   4.0312   7.8750   9.0902  10.5596  14.3230  17.6748  18.9363

          k = 0.4947 0.8568 0.0000 (  1338 PWs)   bands (ev):

   -35.8101   3.8360   8.0669   9.3346  11.7403  14.1017  14.5818  19.2807

          k =-0.7420 0.4284 0.2975 (  1339 PWs)   bands (ev):

   -35.8324   2.1573   6.7251   8.6391  13.0342  17.8630  18.6931  21.6083

          k = 0.7420 1.2851 0.0000 (  1326 PWs)   bands (ev):

   -35.8167   4.3427   5.2316   9.6231  12.4566  13.5893  20.1836  22.5412

          k =-0.0000-0.0000 0.1488 (  1314 PWs)   bands (ev):

   -35.9901  -3.7322   4.4246  11.5438  25.2119  25.2119  25.7023  26.3665

          k =-0.2473-0.1428 0.1984 (  1323 PWs)   bands (ev):

   -35.9590  -3.0683   4.8560  12.2870  19.0409  22.6366  23.9671  26.6521

          k =-0.4947-0.2856 0.2479 (  1332 PWs)   bands (ev):

   -35.8889  -1.0875   6.3082  11.8874  14.5508  20.4329  20.4831  22.0517

          k = 0.9893 0.5712-0.0496 (  1332 PWs)   bands (ev):

   -35.8326   2.1337   6.4262   8.9024  15.3473  16.3776  19.2709  19.3554

          k = 0.7420 0.4284 0.0000 (  1330 PWs)   bands (ev):

   -35.8327   1.9809   6.7966  10.1372  12.1300  16.4364  19.1737  20.4527

          k = 0.4947 0.2856 0.0496 (  1334 PWs)   bands (ev):

   -35.8893  -1.1465   7.1939  11.2431  13.3840  19.2793  20.1754  22.5196

          k =-0.2473 0.1428 0.2479 (  1321 PWs)   bands (ev):

   -35.9587  -3.0608   4.6788  12.8236  19.5842  22.1021  22.7841  25.1642

          k =-0.4947 0.0000 0.2975 (  1328 PWs)   bands (ev):

   -35.9082  -1.7245   5.5768  13.7184  15.5715  17.7093  21.5496  24.3722

          k = 0.9893 0.8568 0.0000 (  1329 PWs)   bands (ev):

   -35.8450   0.9158   7.3187   9.8118  13.9315  17.5607  18.4481  20.3515

          k = 0.7420 0.7140 0.0496 (  1332 PWs)   bands (ev):

[...]
     unit-cell volume          =     133.2155 (a.u.)^3
     number of atoms/cell      =            2
     number of atomic types    =            2
     number of electrons       =         7.00
     number of Kohn-Sham states=            8
     kinetic-energy cutoff     =      80.0000  Ry
     charge density cutoff     =     320.0000  Ry
     scf convergence threshold =      1.4E-10
     mixing beta               =       0.7000
     number of iterations used =            8  plain     mixing
     press convergence thresh. =      1.0E+00
     Exchange-correlation= PBE
                           (   1   4   3   4   0   0   0)

     celldm(1)=   7.833649  celldm(2)=   0.000000  celldm(3)=   0.000000
     celldm(4)=   0.860972  celldm(5)=   0.000000  celldm(6)=   0.000000

     crystal axes: (cart. coord. in units of alat)
               a(1) = (   0.288811  -0.166745   0.959054 )  
               a(2) = (   0.000000   0.333491   0.959054 )  
               a(3) = (  -0.288811  -0.166745   0.959054 )  

     reciprocal axes: (cart. coord. in units 2 pi/alat)
               b(1) = (  1.731233 -0.999528  0.347565 )  
               b(2) = ( -0.000000  1.999056  0.347565 )  
               b(3) = ( -1.731233 -0.999528  0.347565 )  


     PseudoPot. # 1 for Li read from file:
     ../pseudo/Li_ONCV_PBE_sr.upf
     MD5 check sum: 50ff420e78310ffa21704f3361e624a4
     Pseudo is Norm-conserving, Zval =  3.0
     Generated using ONCVPSP code by D. R. Hamann
     Using radial grid of 1944 points,  4 beta functions with: 
                l(1) =   0
                l(2) =   0
                l(3) =   1
                l(4) =   1

     PseudoPot. # 2 for Si read from file:
     ../pseudo/Si_ONCV_PBE_sr.upf
     MD5 check sum: e543d271109d17c80368dfa7c482276d
     Pseudo is Norm-conserving + core correction, Zval =  4.0
     Generated using ONCVPSP code by D. R. Hamann
     Using radial grid of 1510 points,  6 beta functions with: 
                l(1) =   0
                l(2) =   0
                l(3) =   1
                l(4) =   1
                l(5) =   2
                l(6) =   2

     atomic species   valence    mass     pseudopotential
        Li             3.00     6.94100     Li( 1.00)
        Si             4.00    28.08550     Si( 1.00)

      6 Sym. Ops. (no inversion) found



   Cartesian axes

     site n.     atom                  positions (alat units)
         1           Li  tau(   1) = (  -0.0000000  -0.0000000   1.1727288  )
         2           Si  tau(   2) = (   0.0000000  -0.0000000   1.6898031  )

     number of k points=    44  Marzari-Vanderbilt smearing, width (Ry)=  0.0100
                       cart. coord. in units 2pi/alat
        k(    1) = (   0.0000000   0.0000000   0.0000000), wk =   0.0058309
        k(    2) = (  -0.2473191  -0.1427897   0.0496521), wk =   0.0349854
        k(    3) = (  -0.4946381  -0.2855795   0.0993042), wk =   0.0349854
        k(    4) = (  -0.7419572  -0.4283692   0.1489563), wk =   0.0349854
        k(    5) = (  -0.2473191   0.1427897   0.0993042), wk =   0.0349854
        k(    6) = (  -0.4946381   0.0000000   0.1489563), wk =   0.0699708
        k(    7) = (  -0.7419572  -0.1427897   0.1986084), wk =   0.0699708
        k(    8) = (   0.7419572   0.7139487  -0.0993042), wk =   0.0699708
        k(    9) = (   0.4946381   0.5711589  -0.0496521), wk =   0.0699708
        k(   10) = (   0.2473191   0.4283692   0.0000000), wk =   0.0349854
        k(   11) = (  -0.4946381   0.2855795   0.1986084), wk =   0.0349854
        k(   12) = (  -0.7419572   0.1427897   0.2482605), wk =   0.0699708
        k(   13) = (   0.7419572   0.9995281  -0.0496521), wk =   0.0699708
        k(   14) = (   0.4946381   0.8567384   0.0000000), wk =   0.0349854
        k(   15) = (  -0.7419572   0.4283692   0.2979126), wk =   0.0349854
        k(   16) = (   0.7419572   1.2851076   0.0000000), wk =   0.0349854
        k(   17) = (  -0.0000000  -0.0000000   0.1489563), wk =   0.0116618
        k(   18) = (  -0.2473191  -0.1427897   0.1986084), wk =   0.0349854
        k(   19) = (  -0.4946381  -0.2855795   0.2482605), wk =   0.0349854
        k(   20) = (   0.9892763   0.5711589  -0.0496521), wk =   0.0349854
        k(   21) = (   0.7419572   0.4283692   0.0000000), wk =   0.0349854
        k(   22) = (   0.4946381   0.2855795   0.0496521), wk =   0.0349854
        k(   23) = (  -0.2473191   0.1427897   0.2482605), wk =   0.0349854
        k(   24) = (  -0.4946381   0.0000000   0.2979126), wk =   0.0699708
        k(   25) = (   0.9892763   0.8567384   0.0000000), wk =   0.0699708
        k(   26) = (   0.7419572   0.7139487   0.0496521), wk =   0.0699708
        k(   27) = (   0.4946381   0.5711589   0.0993042), wk =   0.0699708
        k(   28) = (  -0.4946381   0.2855795   0.3475647), wk =   0.0349854
        k(   29) = (   0.9892763   1.1423179   0.0496521), wk =   0.0699708
        k(   30) = (   0.7419572   0.9995281   0.0993042), wk =   0.0699708
        k(   31) = (   0.4946381   0.8567384   0.1489563), wk =   0.0699708
        k(   32) = (   0.9892763  -0.5711589  -0.2482605), wk =   0.0349854
        k(   33) = (   0.7419572  -0.7139487  -0.1986084), wk =   0.0699708
        k(   34) = (   0.7419572  -0.4283692  -0.1489563), wk =   0.0349854
        k(   35) = (  -0.0000000  -0.0000000   0.2979126), wk =   0.0116618
        k(   36) = (  -0.2473191  -0.1427897   0.3475647), wk =   0.0349854
        k(   37) = (   1.2365953   0.7139487   0.0496521), wk =   0.0349854
        k(   38) = (   0.9892763   0.5711589   0.0993042), wk =   0.0349854
        k(   39) = (  -0.2473191   0.1427897   0.3972168), wk =   0.0349854
        k(   40) = (   1.2365953   0.9995281   0.0993042), wk =   0.0699708
        k(   41) = (   0.9892763   0.8567384   0.1489563), wk =   0.0699708
        k(   42) = (   1.2365953  -0.7139487  -0.1986084), wk =   0.0349854
        k(   43) = (  -0.0000000  -0.0000000   0.4468689), wk =   0.0116618
        k(   44) = (   1.4839144   0.8567384   0.1489563), wk =   0.0349854

     Dense  grid:    12859 G-vectors     FFT dimensions: (  45,  45,  45)

     Estimated max dynamical RAM per process >      14.36 MB

     Estimated total dynamical RAM >     114.87 MB

     Initial potential from superposition of free atoms

     starting charge       6.9948, renormalised to       7.0000
     Starting wfcs are    6 randomized atomic wfcs +    2 random wfcs

     total cpu time spent up to now is       27.3 secs

     Self-consistent Calculation

     iteration #  1     ecut=    80.00 Ry     beta= 0.70
     Davidson diagonalization with overlap
     c_bands:  1 eigenvalues not converged
     c_bands:  1 eigenvalues not converged
     c_bands:  1 eigenvalues not converged
     c_bands:  1 eigenvalues not converged
     c_bands:  1 eigenvalues not converged
     c_bands:  1 eigenvalues not converged
     ethr =  1.00E-06,  avg # of iterations = 16.6

     total cpu time spent up to now is       28.6 secs

     total energy              =     -22.75441581 Ry
     estimated scf accuracy    <       0.02512799 Ry

     iteration #  2     ecut=    80.00 Ry     beta= 0.70
     Davidson diagonalization with overlap
     ethr =  3.59E-04,  avg # of iterations =  2.0

     total cpu time spent up to now is       29.0 secs

     total energy              =     -22.75920226 Ry
     estimated scf accuracy    <       0.01828622 Ry

     iteration #  3     ecut=    80.00 Ry     beta= 0.70
     Davidson diagonalization with overlap
     ethr =  2.61E-04,  avg # of iterations =  1.0

     total cpu time spent up to now is       29.3 secs

     total energy              =     -22.76295176 Ry
     estimated scf accuracy    <       0.00029722 Ry

     iteration #  4     ecut=    80.00 Ry     beta= 0.70
     Davidson diagonalization with overlap
     ethr =  4.25E-06,  avg # of iterations =  2.3

     total cpu time spent up to now is       29.6 secs

     total energy              =     -22.76299207 Ry
     estimated scf accuracy    <       0.00011737 Ry

     iteration #  5     ecut=    80.00 Ry     beta= 0.70
     Davidson diagonalization with overlap
     ethr =  1.68E-06,  avg # of iterations =  1.1

     total cpu time spent up to now is       29.9 secs

     total energy              =     -22.76301216 Ry
     estimated scf accuracy    <       0.00000081 Ry

     iteration #  6     ecut=    80.00 Ry     beta= 0.70
     Davidson diagonalization with overlap
     ethr =  1.16E-08,  avg # of iterations =  2.5

     total cpu time spent up to now is       30.3 secs

     total energy              =     -22.76301253 Ry
     estimated scf accuracy    <       0.00000008 Ry

     iteration #  7     ecut=    80.00 Ry     beta= 0.70
     Davidson diagonalization with overlap
     ethr =  1.12E-09,  avg # of iterations =  1.5

     total cpu time spent up to now is       30.6 secs

     total energy              =     -22.76301254 Ry
     estimated scf accuracy    <          2.3E-10 Ry

     iteration #  8     ecut=    80.00 Ry     beta= 0.70
     Davidson diagonalization with overlap
     ethr =  3.27E-12,  avg # of iterations =  3.6

     total cpu time spent up to now is       31.0 secs

     End of self-consistent calculation

          k = 0.0000 0.0000 0.0000 (  1641 PWs)   bands (ev):

   -35.9708  -3.7259   4.6880  10.9128  25.2554  25.2554  26.4404  26.4404

          k =-0.2473-0.1428 0.0497 (  1625 PWs)   bands (ev):

   -35.9397  -3.0733   5.3004  11.2084  19.2932  22.5522  24.4637  26.0483

          k =-0.4946-0.2856 0.0993 (  1626 PWs)   bands (ev):

   -35.8695  -1.1291   7.0430  11.3901  13.5363  19.8088  20.4401  22.4773

          k =-0.7420-0.4284 0.1490 (  1605 PWs)   bands (ev):

   -35.8129   2.0261   6.6660   9.5081  13.9443  16.0124  19.3958  19.8389

          k =-0.2473 0.1428 0.0993 (  1620 PWs)   bands (ev):

   -35.9396  -3.0700   5.1997  11.4354  19.4936  22.3016  24.1644  25.3600

          k =-0.4946 0.0000 0.1490 (  1623 PWs)   bands (ev):

   -35.8889  -1.7612   6.2485  12.1889  15.7630  17.3251  21.7856  24.0056

          k =-0.7420-0.1428 0.1986 (  1612 PWs)   bands (ev):

   -35.8255   0.8273   8.1452   9.7671  13.5990  15.9369  17.9536  20.2262

          k = 0.7420 0.7139-0.0993 (  1601 PWs)   bands (ev):

   -35.7973   3.9918   5.3628  10.5925  13.3372  14.2536  16.7615  18.8607

          k = 0.4946 0.5712-0.0497 (  1605 PWs)   bands (ev):

   -35.8257   0.7667   9.0335   9.6948  12.8190  14.9364  17.4710  21.1386

          k = 0.2473 0.4284 0.0000 (  1621 PWs)   bands (ev):

   -35.8891  -1.7812   6.6279  11.4751  15.8554  17.1891  21.8317  23.7115

          k =-0.4946 0.2856 0.1986 (  1605 PWs)   bands (ev):

   -35.8693  -1.0974   6.5973  11.7856  14.1617  19.0484  19.9163  22.3741

          k =-0.7420 0.1428 0.2483 (  1604 PWs)   bands (ev):

   -35.8254   0.8625   7.9214   9.9062  13.5605  15.0003  18.2228  22.7777

          k = 0.7420 0.9995-0.0497 (  1599 PWs)   bands (ev):

   -35.7903   4.0395   7.8817   9.0951  10.5720  14.3360  17.6946  18.9734

          k = 0.4946 0.8567 0.0000 (  1588 PWs)   bands (ev):

   -35.7904   3.8430   8.0750   9.3404  11.7528  14.1182  14.6003  19.3112

          k =-0.7420 0.4284 0.2979 (  1601 PWs)   bands (ev):

   -35.8126   2.1662   6.7320   8.6509  13.0507  17.8886  18.6956  21.6324

          k = 0.7420 1.2851 0.0000 (  1600 PWs)   bands (ev):

   -35.7971   4.3523   5.2380   9.6315  12.4698  13.5992  20.2181  22.5802

          k =-0.0000-0.0000 0.1490 (  1611 PWs)   bands (ev):

   -35.9705  -3.7218   4.4433  11.5720  25.2161  25.2162  25.7582  26.3728

          k =-0.2473-0.1428 0.1986 (  1625 PWs)   bands (ev):

   -35.9393  -3.0582   4.8733  12.3155  19.0484  22.6430  24.0007  26.6711

          k =-0.4946-0.2856 0.2483 (  1632 PWs)   bands (ev):

   -35.8692  -1.0779   6.3227  11.8956  14.5802  20.4391  20.5006  22.0714

          k = 0.9893 0.5712-0.0497 (  1611 PWs)   bands (ev):

   -35.8128   2.1423   6.4319   8.9161  15.3664  16.4073  19.2765  19.3756

          k = 0.7420 0.4284 0.0000 (  1607 PWs)   bands (ev):

   -35.8129   1.9886   6.8041  10.1520  12.1502  16.4579  19.1787  20.4720

          k = 0.4946 0.2856 0.0497 (  1614 PWs)   bands (ev):

   -35.8695  -1.1373   7.2126  11.2564  13.4029  19.2907  20.1799  22.5356

          k =-0.2473 0.1428 0.2483 (  1617 PWs)   bands (ev):

   -35.9391  -3.0506   4.6951  12.8535  19.5950  22.1051  22.8189  25.1689

          k =-0.4946 0.0000 0.2979 (  1615 PWs)   bands (ev):

   -35.8885  -1.7146   5.5912  13.7419  15.5785  17.7291  21.5648  24.4050

          k = 0.9893 0.8567 0.0000 (  1607 PWs)   bands (ev):

   -35.8253   0.9251   7.3285   9.8203  13.9406  17.5905  18.4689  20.3693

          k = 0.7420 0.7139 0.0497 (  1603 PWs)   bands (ev):

   -35.7972   4.1188   5.3012  10.2872  13.0789  13.7487  17.6007  20.4277

          k = 0.4946 0.5712 0.0993 (  1604 PWs)   bands (ev):

   -35.8256   0.7816   8.7958   9.9188  12.7598  14.6338  17.6144  21.9607

          k =-0.4946 0.2856 0.3476 (  1616 PWs)   bands (ev):

   -35.8689  -1.0362   5.9201  12.0682  16.0007  18.9447  19.8135  21.8248

          k = 0.9893 1.1423 0.0497 (  1598 PWs)   bands (ev):

   -35.8252   0.9554   7.2074   9.8561  13.9225  16.1056  19.2626  23.6352

          k = 0.7420 0.9995 0.0993 (  1601 PWs)   bands (ev):

   -35.7903   4.1685   7.7798   8.7245  10.4820  14.6412  17.8550  20.6901

          k = 0.4946 0.8567 0.1490 (  1607 PWs)   bands (ev):

   -35.7904   3.8995   8.0199   9.2964  11.2378  13.8558  16.1219  18.9120

          k = 0.9893-0.5712-0.2483 (  1600 PWs)   bands (ev):

   -35.8126   2.2655   6.4332   8.3858  13.9184  18.4850  18.7318  21.7400

          k = 0.7420-0.7139-0.1986 (  1597 PWs)   bands (ev):

   -35.7971   4.2813   5.2482   9.8433  12.7005  13.5321  19.2782  21.4699

          k = 0.7420-0.4284-0.1490 (  1595 PWs)   bands (ev):

   -35.8128   2.0471   6.8416   9.5690  12.1556  17.0626  18.8704  21.0932

          k =-0.0000-0.0000 0.2979 (  1626 PWs)   bands (ev):

   -35.9699  -3.7123   3.9858  13.2353  22.5728  25.1518  25.1519  26.1937

          k =-0.2473-0.1428 0.3476 (  1623 PWs)   bands (ev):

   -35.9388  -3.0353   4.3750  14.2379  18.7470  22.1218  22.4738  26.0857

          k = 1.2366 0.7139 0.0497 (  1620 PWs)   bands (ev):

   -35.8689  -1.0195   5.7467  12.0990  16.3978  20.1782  20.6841  21.1276

          k = 0.9893 0.5712 0.0993 (  1606 PWs)   bands (ev):

   -35.8126   2.2561   6.2843   8.5500  14.7200  18.2874  18.9651  19.8737

          k =-0.2473 0.1428 0.3972 (  1623 PWs)   bands (ev):

   -35.9386  -3.0290   4.2590  14.8415  19.5403  20.5164  22.0739  25.5355

          k = 1.2366 0.9995 0.0993 (  1617 PWs)   bands (ev):

   -35.8882  -1.6754   5.1698  15.0825  15.4466  18.5114  20.8146  23.0894

          k = 0.9893 0.8567 0.1490 (  1603 PWs)   bands (ev):

   -35.8252   0.9856   6.9816   9.8344  14.0303  17.0541  20.3526  21.6743

          k = 1.2366-0.7139-0.1986 (  1613 PWs)   bands (ev):

   -35.8687  -1.0000   5.5954  12.1345  18.0425  18.5517  19.9153  21.3284

          k =-0.0000-0.0000 0.4469 (  1606 PWs)   bands (ev):

   -35.9694  -3.7045   3.6795  15.2459  19.7739  25.1234  25.1236  26.0296

          k = 1.4839 0.8567 0.1490 (  1620 PWs)   bands (ev):

   -35.9385  -3.0220   4.1355  15.9965  18.3951  20.3580  22.2218  25.8748

     the Fermi energy is     9.9555 ev

!    total energy              =     -22.76301254 Ry
     estimated scf accuracy    <          5.3E-12 Ry
     smearing contrib. (-TS)   =       0.00018781 Ry
     internal energy E=F+TS    =     -22.76320035 Ry

     The total energy is F=E-TS. E is the sum of the following terms:
     one-electron contribution =      -1.56010499 Ry
     hartree contribution      =       3.03620147 Ry
     xc contribution           =      -6.81370921 Ry
     ewald contribution        =     -17.42558763 Ry

     convergence has been achieved in   8 iterations

     Forces acting on atoms (cartesian axes, Ry/au):

     atom    1 type  1   force =     0.00000000    0.00000000   -0.00040087
     atom    2 type  2   force =    -0.00000000   -0.00000000    0.00040087
     The non-local contrib.  to forces
     atom    1 type  1   force =     0.00000000   -0.00000000    0.03425807
     atom    2 type  2   force =    -0.00000000    0.00000000   -0.05726743
     The ionic contribution  to forces
     atom    1 type  1   force =    -0.00000000    0.00000000    0.49195450
     atom    2 type  2   force =     0.00000000   -0.00000000   -0.49195450
     The local contribution  to forces
     atom    1 type  1   force =     0.00000000    0.00000000   -0.52661443
     atom    2 type  2   force =    -0.00000000    0.00000000    0.54565085
     The core correction contribution to forces
     atom    1 type  1   force =     0.00000000    0.00000000    0.00000000
     atom    2 type  2   force =    -0.00000000    0.00000000    0.00397559
     The Hubbard contrib.    to forces
     atom    1 type  1   force =     0.00000000    0.00000000    0.00000000
     atom    2 type  2   force =     0.00000000    0.00000000    0.00000000
     The SCF correction term to forces
     atom    1 type  1   force =    -0.00000000    0.00000000    0.00000245
     atom    2 type  2   force =    -0.00000000   -0.00000000   -0.00000219

     Total force =     0.000567     Total SCF correction =     0.000003


     Computing stress (Cartesian axis) and pressure

          total   stress  (Ry/bohr**3)                   (kbar)     P=      501.54
   0.00341200   0.00000000  -0.00000000          501.92        0.00       -0.00
   0.00000000   0.00341200   0.00000000            0.00      501.92        0.00
   0.00000000   0.00000000   0.00340423            0.00        0.00      500.78


     Writing all to output data dir ./output/LiSi.save/

     init_run     :      0.57s CPU      0.83s WALL (       2 calls)
     electrons    :     22.48s CPU     26.54s WALL (       8 calls)
     update_pot   :      0.83s CPU      0.93s WALL (       6 calls)
     forces       :      0.70s CPU      0.84s WALL (       8 calls)
     stress       :      1.75s CPU      1.83s WALL (       8 calls)

     Called by init_run:
     wfcinit      :      0.21s CPU      0.22s WALL (       2 calls)
     potinit      :      0.15s CPU      0.34s WALL (       2 calls)
     hinit0       :      0.20s CPU      0.23s WALL (       2 calls)

     Called by electrons:
     c_bands      :     18.43s CPU     21.18s WALL (      63 calls)
     sum_band     :      3.11s CPU      3.31s WALL (      63 calls)
     v_of_rho     :      0.97s CPU      2.20s WALL (      70 calls)
     mix_rho      :      0.11s CPU      0.18s WALL (      63 calls)

     Called by c_bands:
     init_us_2    :      0.27s CPU      0.30s WALL (    6336 calls)
     init_us_2:cp :      0.26s CPU      0.29s WALL (    6336 calls)
     cegterg      :     17.79s CPU     18.60s WALL (    2772 calls)

     Called by *egterg:
     cdiaghg      :      0.87s CPU      0.93s WALL (   10178 calls)
     h_psi        :     16.34s CPU     17.07s WALL (   10574 calls)
     g_psi        :      0.03s CPU      0.03s WALL (    7714 calls)

     Called by h_psi:
     h_psi:calbec :      0.36s CPU      0.38s WALL (   10574 calls)
     vloc_psi     :     15.77s CPU     16.46s WALL (   10574 calls)
     add_vuspsi   :      0.16s CPU      0.17s WALL (   10574 calls)

     General routines
     calbec       :      0.45s CPU      0.47s WALL (   12334 calls)
     fft          :      1.08s CPU      2.59s WALL (     899 calls)
     ffts         :      0.07s CPU      0.14s WALL (      63 calls)
     fftw         :     16.71s CPU     17.38s WALL (  148602 calls)

     Parallel routines

     PWSCF        :     26.54s CPU     31.46s WALL


   This run was terminated on:  22:36:20  11Feb2025            

=------------------------------------------------------------------------------=
   JOB DONE.
=------------------------------------------------------------------------------=
