
     Program PWSCF v.7.2 starts on 28Nov2024 at 15:52: 9 

     This program is part of the open-source Quantum ESPRESSO suite
     for quantum simulation of materials; please cite
         "P. Giannozzi et al., J. Phys.:Condens. Matter 21 395502 (2009);
         "P. Giannozzi et al., J. Phys.:Condens. Matter 29 465901 (2017);
         "P. Giannozzi et al., J. Chem. Phys. 152 154105 (2020);
          URL http://www.quantum-espresso.org", 
     in publications or presentations arising from this work. More details at
     http://www.quantum-espresso.org/quote

     Parallel version (MPI & OpenMP), running on       8 processor cores
     Number of MPI processes:                 8
     Threads/MPI process:                     1

     MPI processes distributed on     1 nodes
     483110 MiB available memory on the printing compute node when the environment starts

     Waiting for input...
     Reading input from standard input

     Current dimensions of program PWSCF are:
     Max number of different atomic species (ntypx) = 10
     Max number of k-points (npk) =  40000
     Max angular momentum in pseudopotentials (lmaxx) =  4

     R & G space division:  proc/nbgrp/npool/nimage =       8
     Subspace diagonalization in iterative solution of the eigenvalue problem:
     a serial algorithm will be used


     Parallelization info
     --------------------
     sticks:   dense  smooth     PW     G-vecs:    dense   smooth      PW
     Min         323     323     90                15763    15763    2319
     Max         325     325     92                15765    15765    2322
     Sum        2593    2593    725               126113   126113   18563

     Using Slab Decomposition



     bravais-lattice index     =            6
     lattice parameter (alat)  =      10.0704  a.u.
     unit-cell volume          =    1304.7248 (a.u.)^3
     number of atoms/cell      =            4
     number of atomic types    =            2
     number of electrons       =        14.00
     number of Kohn-Sham states=           11
     kinetic-energy cutoff     =      80.0000  Ry
     charge density cutoff     =     320.0000  Ry
     scf convergence threshold =      1.0E-08
     mixing beta               =       0.7000
     number of iterations used =            8  plain     mixing
     energy convergence thresh.=      1.0E-04
     force convergence thresh. =      1.0E-03
     press convergence thresh. =      1.0E+00
     Exchange-correlation= PBE
                           (   1   4   3   4   0   0   0)
     nstep                     =           50


     celldm(1)=  10.070410  celldm(2)=   0.000000  celldm(3)=   1.277549
     celldm(4)=   0.000000  celldm(5)=   0.000000  celldm(6)=   0.000000

     crystal axes: (cart. coord. in units of alat)
               a(1) = (   1.000000   0.000000   0.000000 )  
               a(2) = (   0.000000   1.000000   0.000000 )  
               a(3) = (   0.000000   0.000000   1.277549 )  

     reciprocal axes: (cart. coord. in units 2 pi/alat)
               b(1) = (  1.000000  0.000000  0.000000 )  
               b(2) = (  0.000000  1.000000  0.000000 )  
               b(3) = (  0.000000  0.000000  0.782749 )  


     PseudoPot. # 1 for Li read from file:
     ../pseudo/Li_ONCV_PBE_sr.upf
     MD5 check sum: 50ff420e78310ffa21704f3361e624a4
     Pseudo is Norm-conserving, Zval =  3.0
     Generated using ONCVPSP code by D. R. Hamann
     Using radial grid of 1944 points,  4 beta functions with: 
                l(1) =   0
                l(2) =   0
                l(3) =   1
                l(4) =   1

     PseudoPot. # 2 for Si read from file:
     ../pseudo/Si_ONCV_PBE_sr.upf
     MD5 check sum: e543d271109d17c80368dfa7c482276d
     Pseudo is Norm-conserving + core correction, Zval =  4.0
     Generated using ONCVPSP code by D. R. Hamann
     Using radial grid of 1510 points,  6 beta functions with: 
                l(1) =   0
                l(2) =   0
                l(3) =   1
                l(4) =   1
                l(5) =   2
                l(6) =   2

     atomic species   valence    mass     pseudopotential
        Li             3.00     6.94100     Li( 1.00)
        Si             4.00    28.08550     Si( 1.00)

     16 Sym. Ops., with inversion, found ( 8 have fractional translation)



   Cartesian axes

     site n.     atom                  positions (alat units)
         1           Li  tau(   1) = (   0.0000000   0.5000000   0.6595958  )
         2           Li  tau(   2) = (   0.5000000   0.0000000   0.6179528  )
         3           Si  tau(   3) = (   0.0000000   0.5000000   1.1717357  )
         4           Si  tau(   4) = (   0.5000000   0.0000000   0.1058130  )

     number of k points=    60  Marzari-Vanderbilt smearing, width (Ry)=  0.0200
                       cart. coord. in units 2pi/alat
        k(    1) = (   0.0000000   0.0000000   0.0000000), wk =   0.0052083
        k(    2) = (   0.0000000   0.0000000   0.1304582), wk =   0.0104167
        k(    3) = (   0.0000000   0.0000000   0.2609164), wk =   0.0104167
        k(    4) = (   0.0000000   0.0000000  -0.3913745), wk =   0.0052083
        k(    5) = (   0.0000000   0.1250000   0.0000000), wk =   0.0208333
        k(    6) = (   0.0000000   0.1250000   0.1304582), wk =   0.0416667
        k(    7) = (   0.0000000   0.1250000   0.2609164), wk =   0.0416667
        k(    8) = (   0.0000000   0.1250000  -0.3913745), wk =   0.0208333
        k(    9) = (   0.0000000   0.2500000   0.0000000), wk =   0.0208333
        k(   10) = (   0.0000000   0.2500000   0.1304582), wk =   0.0416667
        k(   11) = (   0.0000000   0.2500000   0.2609164), wk =   0.0416667
        k(   12) = (   0.0000000   0.2500000  -0.3913745), wk =   0.0208333
        k(   13) = (   0.0000000   0.3750000   0.0000000), wk =   0.0208333
        k(   14) = (   0.0000000   0.3750000   0.1304582), wk =   0.0416667
        k(   15) = (   0.0000000   0.3750000   0.2609164), wk =   0.0416667
        k(   16) = (   0.0000000   0.3750000  -0.3913745), wk =   0.0208333
        k(   17) = (   0.0000000  -0.5000000   0.0000000), wk =   0.0104167
        k(   18) = (   0.0000000  -0.5000000   0.1304582), wk =   0.0208333
        k(   19) = (   0.0000000  -0.5000000   0.2609164), wk =   0.0208333
        k(   20) = (   0.0000000  -0.5000000  -0.3913745), wk =   0.0104167
        k(   21) = (   0.1250000   0.1250000   0.0000000), wk =   0.0208333
        k(   22) = (   0.1250000   0.1250000   0.1304582), wk =   0.0416667
        k(   23) = (   0.1250000   0.1250000   0.2609164), wk =   0.0416667
        k(   24) = (   0.1250000   0.1250000  -0.3913745), wk =   0.0208333
        k(   25) = (   0.1250000   0.2500000   0.0000000), wk =   0.0416667
        k(   26) = (   0.1250000   0.2500000   0.1304582), wk =   0.0833333
        k(   27) = (   0.1250000   0.2500000   0.2609164), wk =   0.0833333
        k(   28) = (   0.1250000   0.2500000  -0.3913745), wk =   0.0416667
        k(   29) = (   0.1250000   0.3750000   0.0000000), wk =   0.0416667
        k(   30) = (   0.1250000   0.3750000   0.1304582), wk =   0.0833333
        k(   31) = (   0.1250000   0.3750000   0.2609164), wk =   0.0833333
        k(   32) = (   0.1250000   0.3750000  -0.3913745), wk =   0.0416667
        k(   33) = (   0.1250000  -0.5000000   0.0000000), wk =   0.0208333
        k(   34) = (   0.1250000  -0.5000000   0.1304582), wk =   0.0416667
        k(   35) = (   0.1250000  -0.5000000   0.2609164), wk =   0.0416667
        k(   36) = (   0.1250000  -0.5000000  -0.3913745), wk =   0.0208333
        k(   37) = (   0.2500000   0.2500000   0.0000000), wk =   0.0208333
        k(   38) = (   0.2500000   0.2500000   0.1304582), wk =   0.0416667
        k(   39) = (   0.2500000   0.2500000   0.2609164), wk =   0.0416667
        k(   40) = (   0.2500000   0.2500000  -0.3913745), wk =   0.0208333
        k(   41) = (   0.2500000   0.3750000   0.0000000), wk =   0.0416667
        k(   42) = (   0.2500000   0.3750000   0.1304582), wk =   0.0833333
        k(   43) = (   0.2500000   0.3750000   0.2609164), wk =   0.0833333
        k(   44) = (   0.2500000   0.3750000  -0.3913745), wk =   0.0416667
        k(   45) = (   0.2500000  -0.5000000   0.0000000), wk =   0.0208333
        k(   46) = (   0.2500000  -0.5000000   0.1304582), wk =   0.0416667
        k(   47) = (   0.2500000  -0.5000000   0.2609164), wk =   0.0416667
        k(   48) = (   0.2500000  -0.5000000  -0.3913745), wk =   0.0208333
        k(   49) = (   0.3750000   0.3750000   0.0000000), wk =   0.0208333
        k(   50) = (   0.3750000   0.3750000   0.1304582), wk =   0.0416667
        k(   51) = (   0.3750000   0.3750000   0.2609164), wk =   0.0416667
        k(   52) = (   0.3750000   0.3750000  -0.3913745), wk =   0.0208333
        k(   53) = (   0.3750000  -0.5000000   0.0000000), wk =   0.0208333
        k(   54) = (   0.3750000  -0.5000000   0.1304582), wk =   0.0416667
        k(   55) = (   0.3750000  -0.5000000   0.2609164), wk =   0.0416667
        k(   56) = (   0.3750000  -0.5000000  -0.3913745), wk =   0.0208333
        k(   57) = (  -0.5000000  -0.5000000   0.0000000), wk =   0.0052083
        k(   58) = (  -0.5000000  -0.5000000   0.1304582), wk =   0.0104167
        k(   59) = (  -0.5000000  -0.5000000   0.2609164), wk =   0.0104167
        k(   60) = (  -0.5000000  -0.5000000  -0.3913745), wk =   0.0052083

     Dense  grid:   126113 G-vectors     FFT dimensions: (  60,  60,  75)

     Estimated max dynamical RAM per process >      44.08 MB

     Estimated total dynamical RAM >     352.67 MB

     Initial potential from superposition of free atoms

     starting charge      13.9897, renormalised to      14.0000
     Starting wfcs are   12 randomized atomic wfcs

     total cpu time spent up to now is        4.4 secs

     Self-consistent Calculation

     iteration #  1     ecut=    80.00 Ry     beta= 0.70
     Davidson diagonalization with overlap
     ethr =  1.00E-02,  avg # of iterations =  2.7

     Threshold (ethr) on eigenvalues was too large:
     Diagonalizing with lowered threshold

     Davidson diagonalization with overlap
     ethr =  6.97E-04,  avg # of iterations =  2.5

     total cpu time spent up to now is        8.6 secs

     total energy              =     -45.25323234 Ry
     estimated scf accuracy    <       0.08603974 Ry

     iteration #  2     ecut=    80.00 Ry     beta= 0.70
     Davidson diagonalization with overlap
     ethr =  6.15E-04,  avg # of iterations =  3.9

     total cpu time spent up to now is       10.9 secs

     total energy              =     -45.25717293 Ry
     estimated scf accuracy    <       0.06585824 Ry

     iteration #  3     ecut=    80.00 Ry     beta= 0.70
     Davidson diagonalization with overlap
     ethr =  4.70E-04,  avg # of iterations =  2.1

     total cpu time spent up to now is       12.9 secs

     total energy              =     -45.27272712 Ry
     estimated scf accuracy    <       0.00615497 Ry

     iteration #  4     ecut=    80.00 Ry     beta= 0.70
     Davidson diagonalization with overlap
     ethr =  4.40E-05,  avg # of iterations =  2.3

     total cpu time spent up to now is       14.9 secs

     total energy              =     -45.27362221 Ry
     estimated scf accuracy    <       0.00025559 Ry

     iteration #  5     ecut=    80.00 Ry     beta= 0.70
     Davidson diagonalization with overlap
     ethr =  1.83E-06,  avg # of iterations =  5.5

     total cpu time spent up to now is       17.6 secs

     total energy              =     -45.27370339 Ry
     estimated scf accuracy    <       0.00000780 Ry

     iteration #  6     ecut=    80.00 Ry     beta= 0.70
     Davidson diagonalization with overlap
     ethr =  5.57E-08,  avg # of iterations =  3.1

     total cpu time spent up to now is       19.7 secs

     total energy              =     -45.27370618 Ry
     estimated scf accuracy    <       0.00000088 Ry

     iteration #  7     ecut=    80.00 Ry     beta= 0.70
     Davidson diagonalization with overlap
     ethr =  6.29E-09,  avg # of iterations =  3.1

     total cpu time spent up to now is       21.9 secs

     total energy              =     -45.27370638 Ry
     estimated scf accuracy    <       0.00000028 Ry

     iteration #  8     ecut=    80.00 Ry     beta= 0.70
     Davidson diagonalization with overlap
     ethr =  1.99E-09,  avg # of iterations =  2.0

     total cpu time spent up to now is       23.9 secs

     total energy              =     -45.27370643 Ry
     estimated scf accuracy    <       0.00000001 Ry

     iteration #  9     ecut=    80.00 Ry     beta= 0.70
     Davidson diagonalization with overlap
     ethr =  7.24E-11,  avg # of iterations =  4.1

     total cpu time spent up to now is       26.2 secs

     End of self-consistent calculation

          k = 0.0000 0.0000 0.0000 ( 15749 PWs)   bands (ev):

   -48.2876 -48.2869  -7.4593  -6.2351  -1.2287  -1.1846  -0.8227  -0.8227
     0.3104   1.3114   1.3114

          k = 0.0000 0.0000 0.1305 ( 15749 PWs)   bands (ev):

   -48.2876 -48.2869  -7.4531  -6.2429  -1.6577  -0.7950  -0.7950  -0.7522
     0.4951   1.2240   1.2240

          k = 0.0000 0.0000 0.2609 ( 15788 PWs)   bands (ev):

   -48.2876 -48.2869  -7.4405  -6.2590  -1.9582  -0.7344  -0.7344  -0.5102
     1.0527   1.0527   1.0836

          k = 0.0000 0.0000-0.3914 ( 15812 PWs)   bands (ev):

   -48.2876 -48.2869  -7.4340  -6.2672  -2.0620  -0.7009  -0.7009  -0.4526
     0.9675   0.9675   1.6435

          k = 0.0000 0.1250 0.0000 ( 15773 PWs)   bands (ev):

   -48.2876 -48.2869  -7.4158  -6.2815  -1.2982  -1.1806  -0.7625  -0.6844
     0.1106   1.1993   1.3813

          k = 0.0000 0.1250 0.1305 ( 15776 PWs)   bands (ev):

   -48.2876 -48.2869  -7.4099  -6.2883  -1.6753  -0.8398  -0.7353  -0.6518
     0.2926   1.1341   1.3211

          k = 0.0000 0.1250 0.2609 ( 15775 PWs)   bands (ev):

   -48.2876 -48.2869  -7.3977  -6.3020  -1.9689  -0.6759  -0.6738  -0.5829
     0.7281   0.9989   1.3279

          k = 0.0000 0.1250-0.3914 ( 15778 PWs)   bands (ev):

   -48.2876 -48.2869  -7.3915  -6.3091  -2.0712  -0.6432  -0.6294  -0.5613
     0.8497   0.9286   1.6267

          k = 0.0000 0.2500 0.0000 ( 15761 PWs)   bands (ev):

   -48.2875 -48.2870  -7.2902  -6.4162  -1.4123  -1.0552  -0.5847  -0.4833
    -0.2856   0.8977   1.4348

          k = 0.0000 0.2500 0.1305 ( 15775 PWs)   bands (ev):

   -48.2875 -48.2870  -7.2849  -6.4201  -1.6838  -0.8442  -0.5917  -0.5593
     0.0236   0.8720   1.4008

          k = 0.0000 0.2500 0.2609 ( 15771 PWs)   bands (ev):

   -48.2875 -48.2870  -7.2742  -6.4283  -1.9569  -0.8453  -0.5041  -0.4924
     0.5018   0.8120   1.4250

          k = 0.0000 0.2500-0.3914 ( 15776 PWs)   bands (ev):

   -48.2875 -48.2870  -7.2687  -6.4325  -2.0551  -0.8810  -0.4737  -0.4251
     0.6983   0.7773   1.5709

          k = 0.0000 0.3750 0.0000 ( 15794 PWs)   bands (ev):

   -48.2874 -48.2871  -7.0969  -6.6210  -1.3886  -0.9964  -0.5528  -0.3771
    -0.2997   0.4922   1.3685

          k = 0.0000 0.3750 0.1305 ( 15777 PWs)   bands (ev):

   -48.2874 -48.2871  -7.0929  -6.6217  -1.5989  -1.0673  -0.4530  -0.2779
    -0.0722   0.4933   1.3568

          k = 0.0000 0.3750 0.2609 ( 15762 PWs)   bands (ev):

   -48.2874 -48.2871  -7.0848  -6.6233  -1.8454  -1.2342  -0.2309  -0.2114
     0.3659   0.4925   1.3990

          k = 0.0000 0.3750-0.3914 ( 15780 PWs)   bands (ev):

   -48.2874 -48.2871  -7.0806  -6.6242  -1.9371  -1.3018  -0.2054  -0.1111
     0.4901   0.5611   1.4791

          k = 0.0000-0.5000 0.0000 ( 15764 PWs)   bands (ev):

   -48.2873 -48.2873  -6.8616  -6.8616  -1.2123  -1.2123  -0.4514  -0.4514
     0.0718   0.0718   1.2811

          k = 0.0000-0.5000 0.1305 ( 15774 PWs)   bands (ev):

   -48.2873 -48.2873  -6.8596  -6.8596  -1.3809  -1.3809  -0.2232  -0.2232
     0.0868   0.0868   1.3091

          k = 0.0000-0.5000 0.2609 ( 15758 PWs)   bands (ev):

   -48.2873 -48.2873  -6.8556  -6.8556  -1.5972  -1.5972   0.1169   0.1169
     0.1177   0.1177   1.3731

          k = 0.0000-0.5000-0.3914 ( 15772 PWs)   bands (ev):

   -48.2873 -48.2873  -6.8536  -6.8536  -1.6798  -1.6798   0.1338   0.1338
     0.2631   0.2631   1.4102

          k = 0.1250 0.1250 0.0000 ( 15771 PWs)   bands (ev):

   -48.2876 -48.2870  -7.3739  -6.3216  -1.2882  -1.1344  -1.0112  -0.3577
    -0.0678   1.2062   1.3072

          k = 0.1250 0.1250 0.1305 ( 15794 PWs)   bands (ev):

   -48.2876 -48.2870  -7.3682  -6.3275  -1.6570  -0.9792  -0.7903  -0.3881
     0.1395   1.1702   1.2219

          k = 0.1250 0.1250 0.2609 ( 15777 PWs)   bands (ev):

   -48.2876 -48.2870  -7.3565  -6.3394  -1.9520  -0.9082  -0.6473  -0.3427
     0.5640   0.9264   1.3538

          k = 0.1250 0.1250-0.3914 ( 15772 PWs)   bands (ev):

   -48.2876 -48.2870  -7.3505  -6.3456  -2.0548  -0.8682  -0.6407  -0.2988
     0.7347   0.8121   1.6024

          k = 0.1250 0.2500 0.0000 ( 15787 PWs)   bands (ev):

   -48.2875 -48.2870  -7.2530  -6.4399  -1.3679  -1.0151  -0.9955  -0.4413
    -0.0342   0.9044   1.3719

          k = 0.1250 0.2500 0.1305 ( 15778 PWs)   bands (ev):

   -48.2875 -48.2870  -7.2480  -6.4435  -1.6269  -1.0299  -0.8348  -0.2789
     0.0567   0.8948   1.2738

          k = 0.1250 0.2500 0.2609 ( 15763 PWs)   bands (ev):

   -48.2875 -48.2870  -7.2377  -6.4507  -1.9016  -0.9615  -0.8638  -0.0017
     0.2945   0.7704   1.3455

          k = 0.1250 0.2500-0.3914 ( 15776 PWs)   bands (ev):

   -48.2875 -48.2870  -7.2325  -6.4545  -2.0007  -0.9122  -0.9031   0.0753
     0.4271   0.6825   1.5286

          k = 0.1250 0.3750 0.0000 ( 15763 PWs)   bands (ev):

   -48.2874 -48.2871  -7.0685  -6.6245  -1.3884  -0.9962  -0.8076  -0.6891
     0.1706   0.5301   1.3887

          k = 0.1250 0.3750 0.1305 ( 15752 PWs)   bands (ev):

   -48.2874 -48.2871  -7.0648  -6.6252  -1.5590  -1.0854  -0.8546  -0.3695
     0.2273   0.5964   1.3030

          k = 0.1250 0.3750 0.2609 ( 15759 PWs)   bands (ev):

   -48.2874 -48.2871  -7.0571  -6.6267  -1.7869  -1.2269  -0.7835  -0.0714
     0.3595   0.6765   1.3282

          k = 0.1250 0.3750-0.3914 ( 15786 PWs)   bands (ev):

   -48.2874 -48.2871  -7.0532  -6.6275  -1.8747  -1.2824  -0.7446   0.0136
     0.4371   0.6745   1.4348

          k = 0.1250-0.5000 0.0000 ( 15742 PWs)   bands (ev):

   -48.2873 -48.2873  -6.8469  -6.8469  -1.2416  -1.2416  -0.6711  -0.6711
     0.2783   0.2783   1.3547

          k = 0.1250-0.5000 0.1305 ( 15770 PWs)   bands (ev):

   -48.2873 -48.2873  -6.8450  -6.8450  -1.3746  -1.3746  -0.5781  -0.5781
     0.3959   0.3959   1.3637

          k = 0.1250-0.5000 0.2609 ( 15764 PWs)   bands (ev):

   -48.2873 -48.2873  -6.8413  -6.8413  -1.5598  -1.5598  -0.4592  -0.4592
     0.5953   0.5953   1.4173

          k = 0.1250-0.5000-0.3914 ( 15784 PWs)   bands (ev):

   -48.2873 -48.2873  -6.8395  -6.8395  -1.6333  -1.6333  -0.4117  -0.4117
     0.6666   0.6667   1.4728

          k = 0.2500 0.2500 0.0000 ( 15772 PWs)   bands (ev):

   -48.2874 -48.2871  -7.1473  -6.5144  -1.3818  -1.1731  -0.9296  -0.7752
     0.3864   0.8425   1.2868

          k = 0.2500 0.2500 0.1305 ( 15775 PWs)   bands (ev):

   -48.2874 -48.2871  -7.1430  -6.5167  -1.4751  -1.3433  -0.9284  -0.4605
     0.4213   0.9456   0.9940

          k = 0.2500 0.2500 0.2609 ( 15758 PWs)   bands (ev):

   -48.2874 -48.2871  -7.1342  -6.5214  -1.7557  -1.2557  -0.9934  -0.1127
     0.5046   0.6123   1.2229

          k = 0.2500 0.2500-0.3914 ( 15742 PWs)   bands (ev):

   -48.2874 -48.2871  -7.1297  -6.5239  -1.8552  -1.2046  -1.0247   0.0042
     0.4516   0.5457   1.4333

          k = 0.2500 0.3750 0.0000 ( 15751 PWs)   bands (ev):

   -48.2874 -48.2872  -6.9903  -6.6420  -1.5052  -1.1824  -0.9884  -0.7848
     0.6083   0.6621   1.3360

          k = 0.2500 0.3750 0.1305 ( 15751 PWs)   bands (ev):

   -48.2874 -48.2872  -6.9872  -6.6425  -1.5129  -1.2660  -1.1134  -0.6159
     0.6406   0.7390   1.1235

          k = 0.2500 0.3750 0.2609 ( 15758 PWs)   bands (ev):

   -48.2874 -48.2872  -6.9809  -6.6435  -1.6223  -1.2938  -1.1861  -0.4864
     0.5225   0.7395   1.2978

          k = 0.2500 0.3750-0.3914 ( 15750 PWs)   bands (ev):

   -48.2874 -48.2872  -6.9777  -6.6441  -1.6915  -1.2769  -1.2017  -0.4455
     0.4019   0.7276   1.5055

          k = 0.2500-0.5000 0.0000 ( 15732 PWs)   bands (ev):

   -48.2873 -48.2873  -6.8103  -6.8103  -1.4337  -1.4337  -0.8128  -0.8128
     0.5997   0.5997   1.4143

          k = 0.2500-0.5000 0.1305 ( 15736 PWs)   bands (ev):

   -48.2873 -48.2873  -6.8089  -6.8089  -1.4488  -1.4488  -0.8588  -0.8588
     0.6652   0.6652   1.4410

          k = 0.2500-0.5000 0.2609 ( 15760 PWs)   bands (ev):

   -48.2873 -48.2873  -6.8060  -6.8060  -1.4955  -1.4955  -0.8953  -0.8953
     0.6298   0.6298   1.6782

          k = 0.2500-0.5000-0.3914 ( 15748 PWs)   bands (ev):

   -48.2873 -48.2873  -6.8045  -6.8045  -1.5250  -1.5250  -0.8927  -0.8927
     0.5659   0.5659   1.8595

          k = 0.3750 0.3750 0.0000 ( 15744 PWs)   bands (ev):

   -48.2873 -48.2872  -6.8820  -6.6886  -1.6790  -1.4972  -0.8904  -0.7405
     0.8509   0.9240   1.2525

          k = 0.3750 0.3750 0.1305 ( 15766 PWs)   bands (ev):

   -48.2873 -48.2872  -6.8798  -6.6885  -1.6365  -1.4830  -1.0529  -0.7073
     0.7692   0.7797   1.1597

          k = 0.3750 0.3750 0.2609 ( 15758 PWs)   bands (ev):

   -48.2873 -48.2872  -6.8755  -6.6884  -1.5382  -1.4493  -1.2632  -0.7150
     0.3210   0.6015   1.6284

          k = 0.3750 0.3750-0.3914 ( 15756 PWs)   bands (ev):

   -48.2873 -48.2872  -6.8734  -6.6883  -1.4796  -1.3949  -1.3870  -0.7184
     0.1357   0.5076   1.9046

          k = 0.3750-0.5000 0.0000 ( 15782 PWs)   bands (ev):

   -48.2873 -48.2873  -6.7723  -6.7723  -1.6861  -1.6861  -0.7684  -0.7684
     0.9778   0.9778   1.3463

          k = 0.3750-0.5000 0.1305 ( 15760 PWs)   bands (ev):

   -48.2873 -48.2873  -6.7713  -6.7713  -1.6495  -1.6495  -0.8458  -0.8458
     0.7257   0.7257   1.5833

          k = 0.3750-0.5000 0.2609 ( 15766 PWs)   bands (ev):

   -48.2873 -48.2873  -6.7693  -6.7693  -1.5665  -1.5665  -0.9778  -0.9778
     0.3666   0.3666   2.0445

          k = 0.3750-0.5000-0.3914 ( 15764 PWs)   bands (ev):

   -48.2873 -48.2873  -6.7683  -6.7683  -1.5184  -1.5184  -1.0359  -1.0359
     0.2123   0.2123   2.2858

          k =-0.5000-0.5000 0.0000 ( 15768 PWs)   bands (ev):

   -48.2873 -48.2873  -6.7562  -6.7562  -1.7876  -1.7876  -0.7313  -0.7313
     1.2344   1.2344   1.3789

          k =-0.5000-0.5000 0.1305 ( 15812 PWs)   bands (ev):

   -48.2873 -48.2873  -6.7553  -6.7553  -1.7439  -1.7439  -0.7986  -0.7986
     0.6882   0.6882   1.9094

          k =-0.5000-0.5000 0.2609 ( 15748 PWs)   bands (ev):

   -48.2873 -48.2873  -6.7537  -6.7537  -1.6422  -1.6422  -0.9157  -0.9157
     0.2097   0.2097   2.3310

          k =-0.5000-0.5000-0.3914 ( 15712 PWs)   bands (ev):

   -48.2873 -48.2873  -6.7529  -6.7529  -1.5811  -1.5811  -0.9676  -0.9676
     0.0176   0.0176   2.4784

     the Fermi energy is    -0.6516 ev

!    total energy              =     -45.27370643 Ry
     estimated scf accuracy    <          3.2E-09 Ry
     smearing contrib. (-TS)   =       0.00036007 Ry
     internal energy E=F+TS    =     -45.27406650 Ry

     The total energy is F=E-TS. E is the sum of the following terms:
     one-electron contribution =     -23.87102811 Ry
     hartree contribution      =      10.49638633 Ry
     xc contribution           =     -11.96656958 Ry
     ewald contribution        =     -19.93285514 Ry

     convergence has been achieved in   9 iterations

     Forces acting on atoms (cartesian axes, Ry/au):

     atom    1 type  1   force =     0.00000000    0.00000000   -0.00729617
     atom    2 type  1   force =     0.00000000    0.00000000    0.00729617
     atom    3 type  2   force =     0.00000000    0.00000000    0.01014218
     atom    4 type  2   force =     0.00000000    0.00000000   -0.01014218
     The non-local contrib.  to forces
     atom    1 type  1   force =     0.00000000    0.00000000   -0.10803963
     atom    2 type  1   force =     0.00000000    0.00000000    0.10803963
     atom    3 type  2   force =     0.00000000    0.00000000    0.03448238
     atom    4 type  2   force =     0.00000000    0.00000000   -0.03448238
     The ionic contribution  to forces
     atom    1 type  1   force =     0.00000000   -0.00000000   -0.39843652
     atom    2 type  1   force =    -0.00000000    0.00000000    0.39843652
     atom    3 type  2   force =    -0.00000000    0.00000000    0.31350614
     atom    4 type  2   force =    -0.00000000   -0.00000000   -0.31350614
     The local contribution  to forces
     atom    1 type  1   force =     0.00000000    0.00000000    0.49920304
     atom    2 type  1   force =     0.00000000    0.00000000   -0.49920304
     atom    3 type  2   force =     0.00000000    0.00000000   -0.33539989
     atom    4 type  2   force =     0.00000000    0.00000000    0.33539989
     The core correction contribution to forces
     atom    1 type  1   force =     0.00000000    0.00000000    0.00000000
     atom    2 type  1   force =     0.00000000    0.00000000    0.00000000
     atom    3 type  2   force =    -0.00000000    0.00000000   -0.00248033
     atom    4 type  2   force =    -0.00000000   -0.00000000    0.00248033
     The Hubbard contrib.    to forces
     atom    1 type  1   force =     0.00000000    0.00000000    0.00000000
     atom    2 type  1   force =     0.00000000    0.00000000    0.00000000
     atom    3 type  2   force =     0.00000000    0.00000000    0.00000000
     atom    4 type  2   force =     0.00000000    0.00000000    0.00000000
     The SCF correction term to forces
     atom    1 type  1   force =     0.00000000    0.00000000   -0.00002306
     atom    2 type  1   force =     0.00000000    0.00000000    0.00002306
     atom    3 type  2   force =     0.00000000   -0.00000000    0.00003388
     atom    4 type  2   force =    -0.00000000    0.00000000   -0.00003388

     Total force =     0.017669     Total SCF correction =     0.000058


     Computing stress (Cartesian axis) and pressure

          total   stress  (Ry/bohr**3)                   (kbar)     P=      -45.08
  -0.00029683   0.00000000   0.00000000          -43.66        0.00        0.00
   0.00000000  -0.00029683   0.00000000            0.00      -43.66        0.00
   0.00000000   0.00000000  -0.00032576            0.00        0.00      -47.92


     BFGS Geometry Optimization
     Energy error            =      0.0E+00 Ry
     Gradient error          =      1.0E-02 Ry/Bohr
     Cell gradient error     =      5.5E+02 kbar

     number of scf cycles    =   1
     number of bfgs steps    =   0

     enthalpy           new  =     -40.8390368339 Ry

     new trust radius        =       0.5000000000 bohr
ibrav =      6
 celldm(1) =      9.37883194
 celldm(3) =      1.27681123
Input lattice vectors:
     0.93132571     0.00000000     0.00000000
     0.00000000     0.93132571     0.00000000
     0.00000000     0.00000000     1.18912712
New lattice vectors in INITIAL alat:
     0.93132571     0.00000000     0.00000000
     0.00000000     0.93132571     0.00000000
     0.00000000     0.00000000     1.18912712
New lattice vectors in NEW alat (for information only):
     1.00000000     0.00000000     0.00000000
     0.00000000     1.00000000     0.00000000
     0.00000000     0.00000000     1.27681123
Discrepancy in bohr =     0.000000    0.000000    0.000000
     new conv_thr            =       0.0000000100 Ry

     new unit-cell volume =   1053.35062 a.u.^3 (   156.09046 Ang^3 )
     density =      0.74525 g/cm^3

CELL_PARAMETERS (alat= 10.07041021)
   0.931325710   0.000000000   0.000000000
   0.000000000   0.931325710   0.000000000
   0.000000000   0.000000000   1.189127121

ATOMIC_POSITIONS (crystal)
Li            0.0000000000        0.5000000000        0.5158764771
Li            0.5000000000        0.0000000000        0.4841235229
Si            0.0000000000        0.5000000000        0.9177609457
Si            0.5000000000        0.0000000000        0.0822390543



     Writing config-only to output data dir ./output/LiSi.save/
     NEW-OLD atomic charge density approx. for the potential
     extrapolated charge   10.66147, renormalised to   14.00000

     total cpu time spent up to now is       32.4 secs

     Self-consistent Calculation

     iteration #  1     ecut=    80.00 Ry     beta= 0.70
     Davidson diagonalization with overlap
     ethr =  1.00E-06,  avg # of iterations =  9.8

     total cpu time spent up to now is       37.8 secs

     total energy              =     -45.12840643 Ry
     estimated scf accuracy    <       0.17361232 Ry

     iteration #  2     ecut=    80.00 Ry     beta= 0.70
     Davidson diagonalization with overlap
     ethr =  1.24E-03,  avg # of iterations =  3.4

     total cpu time spent up to now is       40.3 secs

     total energy              =     -45.35396792 Ry
     estimated scf accuracy    <       0.21300136 Ry

     iteration #  3     ecut=    80.00 Ry     beta= 0.70
     Davidson diagonalization with overlap
     ethr =  1.24E-03,  avg # of iterations =  1.3

     total cpu time spent up to now is       41.9 secs

     total energy              =     -45.35968910 Ry
     estimated scf accuracy    <       0.03455555 Ry

     iteration #  4     ecut=    80.00 Ry     beta= 0.70
     Davidson diagonalization with overlap
     ethr =  2.47E-04,  avg # of iterations =  1.2

     total cpu time spent up to now is       43.5 secs

     total energy              =     -45.35671062 Ry
     estimated scf accuracy    <       0.01330171 Ry

     iteration #  5     ecut=    80.00 Ry     beta= 0.70
     Davidson diagonalization with overlap
     ethr =  9.50E-05,  avg # of iterations =  2.4

     total cpu time spent up to now is       45.3 secs

     total energy              =     -45.35852116 Ry
     estimated scf accuracy    <       0.00032846 Ry

     iteration #  6     ecut=    80.00 Ry     beta= 0.70
     Davidson diagonalization with overlap
     ethr =  2.35E-06,  avg # of iterations =  5.4

     total cpu time spent up to now is       48.0 secs

     total energy              =     -45.35873781 Ry
     estimated scf accuracy    <       0.00002659 Ry

     iteration #  7     ecut=    80.00 Ry     beta= 0.70
     Davidson diagonalization with overlap
     ethr =  1.90E-07,  avg # of iterations =  2.1

     total cpu time spent up to now is       49.8 secs

     total energy              =     -45.35874439 Ry
     estimated scf accuracy    <       0.00000130 Ry

     iteration #  8     ecut=    80.00 Ry     beta= 0.70
     Davidson diagonalization with overlap
     ethr =  9.26E-09,  avg # of iterations =  3.2

     total cpu time spent up to now is       51.7 secs

     total energy              =     -45.35874449 Ry
     estimated scf accuracy    <       0.00000060 Ry

     iteration #  9     ecut=    80.00 Ry     beta= 0.70
     Davidson diagonalization with overlap
     ethr =  4.27E-09,  avg # of iterations =  1.5

     total cpu time spent up to now is       53.4 secs

     total energy              =     -45.35874449 Ry
     estimated scf accuracy    <       0.00000010 Ry

     iteration # 10     ecut=    80.00 Ry     beta= 0.70
     Davidson diagonalization with overlap
     ethr =  6.94E-10,  avg # of iterations =  3.0

     total cpu time spent up to now is       55.3 secs

     End of self-consistent calculation

          k = 0.0000 0.0000 0.0000 ( 15749 PWs)   bands (ev):

   -47.2672 -47.2653  -7.1126  -5.2529  -0.6504  -0.5477  -0.2510  -0.2510
     1.2521   2.5412   2.5412

          k = 0.0000 0.0000 0.1402 ( 15749 PWs)   bands (ev):

   -47.2672 -47.2653  -7.1028  -5.2707  -1.1188  -0.2148  -0.2148  -0.0495
     1.4636   2.3797   2.3797

          k = 0.0000 0.0000 0.2803 ( 15788 PWs)   bands (ev):

   -47.2672 -47.2653  -7.0824  -5.3071  -1.4563  -0.1347  -0.1347   0.2804
     2.0917   2.0917   2.1442

          k = 0.0000 0.0000-0.4205 ( 15812 PWs)   bands (ev):

   -47.2672 -47.2653  -7.0720  -5.3256  -1.5718  -0.0898  -0.0898   0.3708
     1.9572   1.9572   2.8396

          k = 0.0000 0.1342 0.0000 ( 15773 PWs)   bands (ev):

   -47.2671 -47.2653  -7.0511  -5.3261  -0.8437  -0.4945  -0.1764  -0.0230
     1.0034   2.3836   2.6192

          k = 0.0000 0.1342 0.1402 ( 15776 PWs)   bands (ev):

   -47.2671 -47.2653  -7.0415  -5.3409  -1.1928  -0.1901  -0.1408   0.0430
     1.2108   2.2695   2.4858

          k = 0.0000 0.1342 0.2803 ( 15775 PWs)   bands (ev):

   -47.2671 -47.2653  -7.0217  -5.3714  -1.5151  -0.0620  -0.0217   0.1812
     1.7049   2.0433   2.4300

          k = 0.0000 0.1342-0.4205 ( 15778 PWs)   bands (ev):

   -47.2671 -47.2653  -7.0115  -5.3869  -1.6282  -0.0178   0.0334   0.2196
     1.8287   1.9301   2.8114

          k = 0.0000 0.2684 0.0000 ( 15761 PWs)   bands (ev):

   -47.2669 -47.2656  -6.8715  -5.5405  -1.0112  -0.3636   0.0444   0.2803
     0.5136   1.9666   2.6512

          k = 0.0000 0.2684 0.1402 ( 15775 PWs)   bands (ev):

   -47.2669 -47.2656  -6.8627  -5.5484  -1.2712  -0.1624   0.0782   0.1393
     0.8951   1.9279   2.5310

          k = 0.0000 0.2684 0.2803 ( 15771 PWs)   bands (ev):

   -47.2669 -47.2656  -6.8448  -5.5649  -1.5699  -0.1730   0.1527   0.2617
     1.4789   1.8345   2.5120

          k = 0.0000 0.2684-0.4205 ( 15776 PWs)   bands (ev):

   -47.2669 -47.2656  -6.8355  -5.5735  -1.6798  -0.2164   0.1942   0.3450
     1.7155   1.7792   2.7170

          k = 0.0000 0.4027 0.0000 ( 15794 PWs)   bands (ev):

   -47.2666 -47.2659  -6.5899  -5.8652  -0.9666  -0.3792   0.2360   0.4016
     0.4575   1.4219   2.4923

          k = 0.0000 0.4027 0.1402 ( 15777 PWs)   bands (ev):

   -47.2666 -47.2659  -6.5828  -5.8661  -1.1846  -0.4826   0.3576   0.4316
     0.8262   1.4257   2.3491

          k = 0.0000 0.4027 0.2803 ( 15762 PWs)   bands (ev):

   -47.2666 -47.2659  -6.5685  -5.8684  -1.4633  -0.6858   0.4969   0.6534
     1.3888   1.4281   2.3905

          k = 0.0000 0.4027-0.4205 ( 15780 PWs)   bands (ev):

   -47.2666 -47.2659  -6.5611  -5.8697  -1.5696  -0.7687   0.5328   0.7798
     1.4259   1.6530   2.4863

          k = 0.0000-0.5369 0.0000 ( 15764 PWs)   bands (ev):

   -47.2662 -47.2662  -6.2375  -6.2375  -0.7121  -0.7121   0.3854   0.3854
     0.8745   0.8745   2.2860

          k = 0.0000-0.5369 0.1402 ( 15774 PWs)   bands (ev):

   -47.2662 -47.2662  -6.2335  -6.2335  -0.8997  -0.8997   0.6571   0.6571
     0.8964   0.8964   2.3066

          k = 0.0000-0.5369 0.2803 ( 15758 PWs)   bands (ev):

   -47.2662 -47.2662  -6.2255  -6.2255  -1.1539  -1.1539   0.9425   0.9425
     1.0911   1.0911   2.3558

          k = 0.0000-0.5369-0.4205 ( 15772 PWs)   bands (ev):

   -47.2662 -47.2662  -6.2214  -6.2214  -1.2529  -1.2529   0.9667   0.9667
     1.2855   1.2855   2.3868

          k = 0.1342 0.1342 0.0000 ( 15771 PWs)   bands (ev):

   -47.2671 -47.2654  -6.9912  -5.3875  -0.8319  -0.5130  -0.4433   0.4193
     0.7854   2.3479   2.5192

          k = 0.1342 0.1342 0.1402 ( 15794 PWs)   bands (ev):

   -47.2671 -47.2654  -6.9818  -5.4001  -1.1852  -0.4716  -0.0953   0.3781
     1.0327   2.2545   2.3579

          k = 0.1342 0.1342 0.2803 ( 15777 PWs)   bands (ev):

   -47.2671 -47.2654  -6.9626  -5.4260  -1.5138  -0.3783   0.1000   0.4300
     1.5529   1.8612   2.4823

          k = 0.1342 0.1342-0.4205 ( 15772 PWs)   bands (ev):

   -47.2671 -47.2654  -6.9527  -5.4393  -1.6292  -0.3248   0.1159   0.4876
     1.6905   1.7792   2.7696

          k = 0.1342 0.2684 0.0000 ( 15787 PWs)   bands (ev):

   -47.2669 -47.2656  -6.8166  -5.5723  -0.9582  -0.4763  -0.3209   0.3251
     0.8614   1.9124   2.5714

          k = 0.1342 0.2684 0.1402 ( 15778 PWs)   bands (ev):

   -47.2669 -47.2656  -6.8082  -5.5794  -1.2006  -0.5146  -0.1594   0.5225
     0.9724   1.8825   2.3361

          k = 0.1342 0.2684 0.2803 ( 15763 PWs)   bands (ev):

   -47.2669 -47.2656  -6.7909  -5.5941  -1.5021  -0.4358  -0.1939   0.8891
     1.2552   1.6556   2.4073

          k = 0.1342 0.2684-0.4205 ( 15776 PWs)   bands (ev):

   -47.2669 -47.2656  -6.7820  -5.6018  -1.6143  -0.3757  -0.2385   0.9969
     1.4054   1.5398   2.6399

          k = 0.1342 0.4027 0.0000 ( 15763 PWs)   bands (ev):

   -47.2666 -47.2659  -6.5450  -5.8637  -0.9717  -0.3972  -0.2059   0.0681
     1.1075   1.4133   2.5562

          k = 0.1342 0.4027 0.1402 ( 15752 PWs)   bands (ev):

   -47.2666 -47.2659  -6.5384  -5.8648  -1.1429  -0.5121  -0.2501   0.4207
     1.1600   1.5265   2.3124

          k = 0.1342 0.4027 0.2803 ( 15759 PWs)   bands (ev):

   -47.2666 -47.2659  -6.5248  -5.8671  -1.3950  -0.6782  -0.1837   0.7656
     1.3407   1.6418   2.3193

          k = 0.1342 0.4027-0.4205 ( 15786 PWs)   bands (ev):

   -47.2666 -47.2659  -6.5178  -5.8684  -1.4957  -0.7435  -0.1415   0.8512
     1.4758   1.6131   2.4602

          k = 0.1342-0.5369 0.0000 ( 15742 PWs)   bands (ev):

   -47.2662 -47.2662  -6.2098  -6.2098  -0.7538  -0.7538   0.0414   0.0414
     1.1486   1.1486   2.4310

          k = 0.1342-0.5369 0.1402 ( 15770 PWs)   bands (ev):

   -47.2662 -47.2662  -6.2062  -6.2062  -0.8984  -0.8984   0.1266   0.1266
     1.3203   1.3204   2.4179

          k = 0.1342-0.5369 0.2803 ( 15764 PWs)   bands (ev):

   -47.2662 -47.2662  -6.1988  -6.1988  -1.1121  -1.1121   0.2451   0.2451
     1.6186   1.6186   2.4344

          k = 0.1342-0.5369-0.4205 ( 15784 PWs)   bands (ev):

   -47.2662 -47.2662  -6.1951  -6.1951  -1.1989  -1.1989   0.2955   0.2955
     1.7225   1.7226   2.4914

          k = 0.2684 0.2684 0.0000 ( 15772 PWs)   bands (ev):

   -47.2667 -47.2658  -6.6589  -5.6792  -1.0033  -0.6912  -0.2733  -0.0620
     1.4317   1.7516   2.4467

          k = 0.2684 0.2684 0.1402 ( 15775 PWs)   bands (ev):

   -47.2667 -47.2658  -6.6515  -5.6838  -1.0023  -0.9547  -0.2957   0.3068
     1.4664   1.8763   1.9114

          k = 0.2684 0.2684 0.2803 ( 15758 PWs)   bands (ev):

   -47.2667 -47.2658  -6.6363  -5.6934  -1.3266  -0.8427  -0.3628   0.7336
     1.3758   1.5773   2.1950

          k = 0.2684 0.2684-0.4205 ( 15742 PWs)   bands (ev):

   -47.2667 -47.2658  -6.6285  -5.6983  -1.4433  -0.7763  -0.3951   0.8785
     1.1601   1.6318   2.4619

          k = 0.2684 0.4027 0.0000 ( 15751 PWs)   bands (ev):

   -47.2665 -47.2660  -6.4199  -5.8749  -1.1468  -0.6662  -0.4410  -0.0663
     1.5127   1.6594   2.4812

          k = 0.2684 0.4027 0.1402 ( 15751 PWs)   bands (ev):

   -47.2665 -47.2660  -6.4143  -5.8758  -1.1389  -0.7642  -0.5699   0.1015
     1.5373   1.7346   2.0978

          k = 0.2684 0.4027 0.2803 ( 15758 PWs)   bands (ev):

   -47.2665 -47.2660  -6.4030  -5.8779  -1.2119  -0.8231  -0.6653   0.2323
     1.2950   1.7704   2.3333

          k = 0.2684 0.4027-0.4205 ( 15750 PWs)   bands (ev):

   -47.2665 -47.2660  -6.3972  -5.8791  -1.2803  -0.7462  -0.7458   0.2663
     1.1412   1.7419   2.6228

          k = 0.2684-0.5369 0.0000 ( 15732 PWs)   bands (ev):

   -47.2662 -47.2662  -6.1397  -6.1397  -1.0216  -1.0216  -0.1689  -0.1689
     1.5026   1.5026   2.5295

          k = 0.2684-0.5369 0.1402 ( 15736 PWs)   bands (ev):

   -47.2662 -47.2662  -6.1370  -6.1370  -1.0297  -1.0297  -0.2377  -0.2377
     1.5735   1.5736   2.5483

          k = 0.2684-0.5369 0.2803 ( 15760 PWs)   bands (ev):

   -47.2662 -47.2662  -6.1315  -6.1315  -1.0623  -1.0623  -0.3118  -0.3118
     1.5038   1.5038   2.8644

          k = 0.2684-0.5369-0.4205 ( 15748 PWs)   bands (ev):

   -47.2662 -47.2662  -6.1288  -6.1288  -1.0862  -1.0862  -0.3236  -0.3236
     1.4155   1.4155   3.1306

          k = 0.4027 0.4027 0.0000 ( 15744 PWs)   bands (ev):

   -47.2664 -47.2661  -6.2436  -5.9343  -1.3818  -1.0997  -0.2991  -0.0397
     1.6991   2.0459   2.3506

          k = 0.4027 0.4027 0.1402 ( 15766 PWs)   bands (ev):

   -47.2664 -47.2661  -6.2398  -5.9345  -1.3292  -1.0770  -0.4802  -0.0101
     1.5750   1.6524   2.2530

          k = 0.4027 0.4027 0.2803 ( 15758 PWs)   bands (ev):

   -47.2664 -47.2661  -6.2322  -5.9349  -1.2063  -1.0184  -0.7363  -0.0212
     0.9801   1.4422   2.8227

          k = 0.4027 0.4027-0.4205 ( 15756 PWs)   bands (ev):

   -47.2664 -47.2661  -6.2283  -5.9351  -1.1319  -0.9480  -0.8825  -0.0282
     0.7434   1.3221   3.2287

          k = 0.4027-0.5369 0.0000 ( 15782 PWs)   bands (ev):

   -47.2662 -47.2662  -6.0644  -6.0644  -1.3749  -1.3749  -0.1112  -0.1112
     1.9068   1.9068   2.3810

          k = 0.4027-0.5369 0.1402 ( 15760 PWs)   bands (ev):

   -47.2662 -47.2662  -6.0628  -6.0628  -1.3285  -1.3285  -0.2016  -0.2016
     1.5385   1.5385   2.7164

          k = 0.4027-0.5369 0.2803 ( 15766 PWs)   bands (ev):

   -47.2662 -47.2662  -6.0596  -6.0596  -1.2202  -1.2202  -0.3641  -0.3641
     1.0758   1.0758   3.3278

          k = 0.4027-0.5369-0.4205 ( 15764 PWs)   bands (ev):

   -47.2662 -47.2662  -6.0579  -6.0579  -1.1542  -1.1542  -0.4422  -0.4422
     0.8857   0.8857   3.7141

          k =-0.5369-0.5369 0.0000 ( 15768 PWs)   bands (ev):

   -47.2662 -47.2662  -6.0315  -6.0315  -1.5181  -1.5181  -0.0597  -0.0597
     2.1985   2.3053   2.3055

          k =-0.5369-0.5369 0.1402 ( 15812 PWs)   bands (ev):

   -47.2662 -47.2662  -6.0304  -6.0304  -1.4643  -1.4643  -0.1299  -0.1299
     1.4451   1.4452   3.0928

          k =-0.5369-0.5369 0.2803 ( 15748 PWs)   bands (ev):

   -47.2662 -47.2662  -6.0282  -6.0282  -1.3379  -1.3379  -0.2537  -0.2537
     0.8359   0.8359   3.7409

          k =-0.5369-0.5369-0.4205 ( 15712 PWs)   bands (ev):

   -47.2662 -47.2662  -6.0271  -6.0271  -1.2610  -1.2610  -0.3093  -0.3093
     0.5935   0.5935   3.9806

     the Fermi energy is     0.0241 ev

!    total energy              =     -45.35874451 Ry
     estimated scf accuracy    <          7.0E-09 Ry
     smearing contrib. (-TS)   =       0.00094606 Ry
     internal energy E=F+TS    =     -45.35969057 Ry

     The total energy is F=E-TS. E is the sum of the following terms:
     one-electron contribution =     -21.72260311 Ry
     hartree contribution      =       9.85881909 Ry
     xc contribution           =     -12.08100030 Ry
     ewald contribution        =     -21.41490626 Ry

     convergence has been achieved in  10 iterations

     Forces acting on atoms (cartesian axes, Ry/au):

     atom    1 type  1   force =     0.00000000    0.00000000   -0.02413340
     atom    2 type  1   force =     0.00000000    0.00000000    0.02413340
     atom    3 type  2   force =     0.00000000    0.00000000    0.02766885
     atom    4 type  2   force =     0.00000000    0.00000000   -0.02766885
     The non-local contrib.  to forces
     atom    1 type  1   force =     0.00000000    0.00000000   -0.11154666
     atom    2 type  1   force =     0.00000000    0.00000000    0.11154666
     atom    3 type  2   force =     0.00000000    0.00000000    0.08093871
     atom    4 type  2   force =     0.00000000    0.00000000   -0.08093871
     The ionic contribution  to forces
     atom    1 type  1   force =    -0.00000000   -0.00000000   -0.45447596
     atom    2 type  1   force =     0.00000000   -0.00000000    0.45447596
     atom    3 type  2   force =     0.00000000   -0.00000000    0.35623380
     atom    4 type  2   force =     0.00000000    0.00000000   -0.35623380
     The local contribution  to forces
     atom    1 type  1   force =     0.00000000    0.00000000    0.54191102
     atom    2 type  1   force =     0.00000000    0.00000000   -0.54191102
     atom    3 type  2   force =     0.00000000    0.00000000   -0.40412330
     atom    4 type  2   force =     0.00000000    0.00000000    0.40412330
     The core correction contribution to forces
     atom    1 type  1   force =     0.00000000    0.00000000    0.00000000
     atom    2 type  1   force =     0.00000000    0.00000000    0.00000000
     atom    3 type  2   force =    -0.00000000    0.00000000   -0.00536908
     atom    4 type  2   force =    -0.00000000   -0.00000000    0.00536908
     The Hubbard contrib.    to forces
     atom    1 type  1   force =     0.00000000    0.00000000    0.00000000
     atom    2 type  1   force =     0.00000000    0.00000000    0.00000000
     atom    3 type  2   force =     0.00000000    0.00000000    0.00000000
     atom    4 type  2   force =     0.00000000    0.00000000    0.00000000
     The SCF correction term to forces
     atom    1 type  1   force =    -0.00000000    0.00000000   -0.00002179
     atom    2 type  1   force =    -0.00000000   -0.00000000    0.00002179
     atom    3 type  2   force =     0.00000000   -0.00000000   -0.00001128
     atom    4 type  2   force =     0.00000000    0.00000000    0.00001128

     Total force =     0.051923     Total SCF correction =     0.000035


     Computing stress (Cartesian axis) and pressure

          total   stress  (Ry/bohr**3)                   (kbar)     P=      -53.85
  -0.00040019   0.00000000   0.00000000          -58.87        0.00        0.00
   0.00000000  -0.00040019   0.00000000            0.00      -58.87        0.00
   0.00000000   0.00000000  -0.00029779            0.00        0.00      -43.81

     Energy error            =      9.4E-01 Ry
     Gradient error          =      2.8E-02 Ry/Bohr
     Cell gradient error     =      5.6E+02 kbar

     number of scf cycles    =   2
     number of bfgs steps    =   1

     enthalpy           old  =     -40.8390368339 Ry
     enthalpy           new  =     -41.7784785368 Ry

     CASE: enthalpy          _new < enthalpy          _old


     WARNING: bfgs curvature condition failed, Theta= 0.952
     new trust radius        =       0.7239981155 bohr
ibrav =      6
 celldm(1) =      8.33274033
 celldm(3) =      1.28236238
Input lattice vectors:
     0.82744795     0.00000000     0.00000000
     0.00000000     0.82744795     0.00000000
     0.00000000     0.00000000     1.06108813
New lattice vectors in INITIAL alat:
     0.82744795     0.00000000     0.00000000
     0.00000000     0.82744795     0.00000000
     0.00000000     0.00000000     1.06108813
New lattice vectors in NEW alat (for information only):
     1.00000000     0.00000000     0.00000000
     0.00000000     1.00000000     0.00000000
     0.00000000     0.00000000     1.28236238
Discrepancy in bohr =     0.000000    0.000000    0.000000
     new conv_thr            =       0.0000000028 Ry

     new unit-cell volume =    741.94944 a.u.^3 (   109.94556 Ang^3 )
     density =      1.05803 g/cm^3

CELL_PARAMETERS (alat= 10.07041021)
   0.827447954   0.000000000   0.000000000
   0.000000000   0.827447954   0.000000000
   0.000000000   0.000000000   1.061088127

ATOMIC_POSITIONS (crystal)
Li            0.0000000000        0.5000000000        0.5132712061
Li            0.5000000000        0.0000000000        0.4867287939
Si            0.0000000000        0.5000000000        0.9207079550
Si            0.5000000000        0.0000000000        0.0792920450



     Writing config-only to output data dir ./output/LiSi.save/
     NEW-OLD atomic charge density approx. for the potential
     extrapolated charge    8.12845, renormalised to   14.00000

     total cpu time spent up to now is       61.1 secs

     Self-consistent Calculation

     iteration #  1     ecut=    80.00 Ry     beta= 0.70
     Davidson diagonalization with overlap
     ethr =  1.00E-06,  avg # of iterations = 11.7

     total cpu time spent up to now is       66.8 secs

     total energy              =     -44.98053836 Ry
     estimated scf accuracy    <       0.60739966 Ry

     iteration #  2     ecut=    80.00 Ry     beta= 0.70
     Davidson diagonalization with overlap
     ethr =  4.34E-03,  avg # of iterations =  2.6

     total cpu time spent up to now is       69.0 secs

     total energy              =     -45.48038327 Ry
     estimated scf accuracy    <       0.19724204 Ry

     iteration #  3     ecut=    80.00 Ry     beta= 0.70
     Davidson diagonalization with overlap
     ethr =  1.41E-03,  avg # of iterations =  1.0

     total cpu time spent up to now is       70.5 secs

     total energy              =     -45.48281255 Ry
     estimated scf accuracy    <       0.02443845 Ry

     iteration #  4     ecut=    80.00 Ry     beta= 0.70
     Davidson diagonalization with overlap
     ethr =  1.75E-04,  avg # of iterations =  2.2

     total cpu time spent up to now is       72.1 secs

     total energy              =     -45.48559036 Ry
     estimated scf accuracy    <       0.00160518 Ry

     iteration #  5     ecut=    80.00 Ry     beta= 0.70
     Davidson diagonalization with overlap
     ethr =  1.15E-05,  avg # of iterations =  4.8

     total cpu time spent up to now is       74.3 secs

     total energy              =     -45.48609758 Ry
     estimated scf accuracy    <       0.00019719 Ry

     iteration #  6     ecut=    80.00 Ry     beta= 0.70
     Davidson diagonalization with overlap
     ethr =  1.41E-06,  avg # of iterations =  2.5

     total cpu time spent up to now is       76.0 secs

     total energy              =     -45.48611606 Ry
     estimated scf accuracy    <       0.00001064 Ry

     iteration #  7     ecut=    80.00 Ry     beta= 0.70
     Davidson diagonalization with overlap
     ethr =  7.60E-08,  avg # of iterations =  2.8

     total cpu time spent up to now is       77.8 secs

     total energy              =     -45.48611966 Ry
     estimated scf accuracy    <       0.00000099 Ry

     iteration #  8     ecut=    80.00 Ry     beta= 0.70
     Davidson diagonalization with overlap
     ethr =  7.10E-09,  avg # of iterations =  2.5

     total cpu time spent up to now is       79.6 secs

     total energy              =     -45.48611993 Ry
     estimated scf accuracy    <       0.00000003 Ry

     iteration #  9     ecut=    80.00 Ry     beta= 0.70
     Davidson diagonalization with overlap
     ethr =  1.84E-10,  avg # of iterations =  3.7

     total cpu time spent up to now is       81.6 secs

     End of self-consistent calculation

          k = 0.0000 0.0000 0.0000 ( 15749 PWs)   bands (ev):

   -45.2585 -45.2495  -6.5089  -3.1128   0.5991   0.9922   0.9984   0.9984
     3.4229   5.2199   5.2199

          k = 0.0000 0.0000 0.1571 ( 15749 PWs)   bands (ev):

   -45.2585 -45.2495  -6.4927  -3.1781   0.1863   1.0504   1.0504   1.5393
     3.6659   4.7877   4.7877

          k = 0.0000 0.0000 0.3141 ( 15788 PWs)   bands (ev):

   -45.2585 -45.2495  -6.4591  -3.3065  -0.1484   1.1669   1.1669   2.0987
     4.2151   4.2151   4.4475

          k = 0.0000 0.0000-0.4712 ( 15812 PWs)   bands (ev):

   -45.2585 -45.2495  -6.4416  -3.3698  -0.2589   1.2333   1.2333   2.2978
     3.9777   3.9777   5.3629

          k = 0.0000 0.1511 0.0000 ( 15773 PWs)   bands (ev):

   -45.2581 -45.2499  -6.4114  -3.2504   0.1433   1.0543   1.1009   1.4993
     3.0638   4.9505   5.3181

          k = 0.0000 0.1511 0.1571 ( 15776 PWs)   bands (ev):

   -45.2581 -45.2499  -6.3953  -3.3002  -0.1300   1.1524   1.3116   1.6358
     3.2753   4.6730   4.8779

          k = 0.0000 0.1511 0.3141 ( 15775 PWs)   bands (ev):

   -45.2581 -45.2499  -6.3621  -3.4009  -0.4343   1.2677   1.4781   1.9510
     3.7355   4.2060   4.7505

          k = 0.0000 0.1511-0.4712 ( 15778 PWs)   bands (ev):

   -45.2581 -45.2499  -6.3448  -3.4517  -0.5409   1.3334   1.5478   2.0410
     3.8309   3.9948   5.3199

          k = 0.0000 0.3021 0.0000 ( 15761 PWs)   bands (ev):

   -45.2572 -45.2508  -6.1226  -3.6853  -0.1319   1.1906   1.4062   2.0326
     2.3722   4.2534   4.8466

          k = 0.0000 0.3021 0.1571 ( 15775 PWs)   bands (ev):

   -45.2572 -45.2508  -6.1071  -3.7044  -0.3832   1.4120   1.4559   1.8550
     2.8274   4.1878   4.7100

          k = 0.0000 0.3021 0.3141 ( 15771 PWs)   bands (ev):

   -45.2572 -45.2508  -6.0752  -3.7455  -0.7088   1.3910   1.5671   2.0237
     3.5305   4.0138   4.7567

          k = 0.0000 0.3021-0.4712 ( 15776 PWs)   bands (ev):

   -45.2572 -45.2508  -6.0587  -3.7675  -0.8308   1.3314   1.6302   2.1257
     3.8213   3.9057   5.1676

          k = 0.0000 0.4532 0.0000 ( 15794 PWs)   bands (ev):

   -45.2557 -45.2523  -5.6558  -4.3415   0.0172   1.0416   1.9062   2.0441
     2.3655   3.3967   4.2737

          k = 0.0000 0.4532 0.1571 ( 15777 PWs)   bands (ev):

   -45.2557 -45.2523  -5.6420  -4.3403  -0.2332   0.8918   1.9522   2.2210
     2.8458   3.4105   4.2855

          k = 0.0000 0.4532 0.3141 ( 15762 PWs)   bands (ev):

   -45.2557 -45.2523  -5.6134  -4.3387  -0.5793   0.6103   2.0542   2.6334
     3.4292   3.6436   4.3909

          k = 0.0000 0.4532-0.4712 ( 15780 PWs)   bands (ev):

   -45.2557 -45.2523  -5.5986  -4.3383  -0.7148   0.4925   2.1116   2.7960
     3.4316   4.0345   4.5801

          k = 0.0000-0.6043 0.0000 ( 15764 PWs)   bands (ev):

   -45.2540 -45.2540  -5.0410  -5.0410   0.4783   0.4783   2.2799   2.2799
     2.5830   2.5830   4.3420

          k = 0.0000-0.6043 0.1571 ( 15774 PWs)   bands (ev):

   -45.2540 -45.2540  -5.0308  -5.0308   0.2413   0.2413   2.6205   2.6205
     2.6567   2.6567   4.3525

          k = 0.0000-0.6043 0.3141 ( 15758 PWs)   bands (ev):

   -45.2540 -45.2540  -5.0101  -5.0101  -0.0973  -0.0973   2.7011   2.7011
     3.2944   3.2945   4.4168

          k = 0.0000-0.6043-0.4712 ( 15772 PWs)   bands (ev):

   -45.2540 -45.2540  -4.9996  -4.9996  -0.2325  -0.2325   2.7446   2.7446
     3.5712   3.5712   4.5055

          k = 0.1511 0.1511 0.0000 ( 15771 PWs)   bands (ev):

   -45.2578 -45.2502  -6.3150  -3.3581   0.1547   0.5596   1.1138   2.2073
     2.7704   4.7789   5.1184

          k = 0.1511 0.1511 0.1571 ( 15794 PWs)   bands (ev):

   -45.2578 -45.2502  -6.2992  -3.3980  -0.1523   0.6183   1.5012   2.1534
     3.0495   4.4149   4.7832

          k = 0.1511 0.1511 0.3141 ( 15777 PWs)   bands (ev):

   -45.2578 -45.2502  -6.2663  -3.4798  -0.4908   0.7521   1.8446   2.2112
     3.6831   3.7292   4.8963

          k = 0.1511 0.1511-0.4712 ( 15772 PWs)   bands (ev):

   -45.2578 -45.2502  -6.2493  -3.5217  -0.6098   0.8302   1.8956   2.2914
     3.4565   4.0299   5.2450

          k = 0.1511 0.3021 0.0000 ( 15787 PWs)   bands (ev):

   -45.2569 -45.2511  -6.0303  -3.7199  -0.0637   0.6406   1.2382   2.1339
     2.9129   3.9914   5.1367

          k = 0.1511 0.3021 0.1571 ( 15778 PWs)   bands (ev):

   -45.2569 -45.2511  -6.0152  -3.7376  -0.2882   0.6100   1.4134   2.3593
     3.0503   3.8878   4.4577

          k = 0.1511 0.3021 0.3141 ( 15763 PWs)   bands (ev):

   -45.2569 -45.2510  -5.9839  -3.7751  -0.6143   0.7039   1.3866   2.9148
     3.3545   3.4650   4.6014

          k = 0.1511 0.3021-0.4712 ( 15776 PWs)   bands (ev):

   -45.2569 -45.2510  -5.9677  -3.7951  -0.7408   0.7817   1.3282   3.0953
     3.2025   3.6477   5.0029

          k = 0.1511 0.4532 0.0000 ( 15763 PWs)   bands (ev):

   -45.2556 -45.2524  -5.5722  -4.3115   0.0057   1.0167   1.0738   1.7845
     3.2010   3.2178   4.4723

          k = 0.1511 0.4532 0.1571 ( 15752 PWs)   bands (ev):

   -45.2556 -45.2524  -5.5589  -4.3112  -0.1888   0.8383   1.0738   2.1833
     3.1054   3.5894   4.3387

          k = 0.1511 0.4532 0.3141 ( 15759 PWs)   bands (ev):

   -45.2556 -45.2524  -5.5314  -4.3113  -0.4952   0.6239   1.1266   2.5555
     3.4015   3.8418   4.3631

          k = 0.1511 0.4532-0.4712 ( 15786 PWs)   bands (ev):

   -45.2556 -45.2524  -5.5172  -4.3118  -0.6217   0.5376   1.1662   2.6108
     3.6184   3.8179   4.6286

          k = 0.1511-0.6043 0.0000 ( 15742 PWs)   bands (ev):

   -45.2540 -45.2540  -4.9750  -4.9750   0.4283   0.4283   1.5716   1.5716
     2.9980   2.9980   4.7526

          k = 0.1511-0.6043 0.1571 ( 15770 PWs)   bands (ev):

   -45.2540 -45.2540  -4.9657  -4.9657   0.2419   0.2419   1.6466   1.6466
     3.2865   3.2865   4.7039

          k = 0.1511-0.6043 0.3141 ( 15764 PWs)   bands (ev):

   -45.2540 -45.2540  -4.9467  -4.9467  -0.0444  -0.0444   1.7594   1.7594
     3.8070   3.8070   4.6650

          k = 0.1511-0.6043-0.4712 ( 15784 PWs)   bands (ev):

   -45.2540 -45.2540  -4.9370  -4.9370  -0.1631  -0.1631   1.8104   1.8104
     3.9819   3.9819   4.7503

          k = 0.3021 0.3021 0.0000 ( 15772 PWs)   bands (ev):

   -45.2562 -45.2517  -5.7594  -3.8834  -0.1881   0.3416   1.2424   1.5972
     3.5948   3.8406   4.8360

          k = 0.3021 0.3021 0.1571 ( 15775 PWs)   bands (ev):

   -45.2562 -45.2517  -5.7454  -3.8950  -0.1221   0.0192   1.2218   2.0242
     3.6591   3.7019   3.9723

          k = 0.3021 0.3021 0.3141 ( 15758 PWs)   bands (ev):

   -45.2562 -45.2517  -5.7164  -3.9197  -0.3698   0.0316   1.1594   2.5814
     2.9169   4.0080   4.1951

          k = 0.3021 0.3021-0.4712 ( 15742 PWs)   bands (ev):

   -45.2562 -45.2517  -5.7015  -3.9328  -0.5143   0.1240   1.1285   2.6087
     2.7655   4.1044   4.6200

          k = 0.3021 0.4532 0.0000 ( 15751 PWs)   bands (ev):

   -45.2552 -45.2527  -5.3319  -4.2641  -0.3315   0.6054   0.7250   1.5033
     3.2420   3.8441   4.7141

          k = 0.3021 0.4532 0.1571 ( 15751 PWs)   bands (ev):

   -45.2552 -45.2527  -5.3203  -4.2658  -0.3039   0.3882   0.6857   1.6613
     3.2696   3.6863   4.4557

          k = 0.3021 0.4532 0.3141 ( 15758 PWs)   bands (ev):

   -45.2552 -45.2527  -5.2964  -4.2697  -0.3149   0.2145   0.6034   1.7544
     2.9103   3.8073   4.7578

          k = 0.3021 0.4532-0.4712 ( 15750 PWs)   bands (ev):

   -45.2552 -45.2527  -5.2842  -4.2720  -0.3687   0.2486   0.5351   1.7460
     2.7354   3.8168   5.1989

          k = 0.3021-0.6043 0.0000 ( 15732 PWs)   bands (ev):

   -45.2540 -45.2540  -4.7984  -4.7984  -0.0199  -0.0199   1.2029   1.2029
     3.3447   3.3447   4.9475

          k = 0.3021-0.6043 0.1571 ( 15736 PWs)   bands (ev):

   -45.2539 -45.2539  -4.7917  -4.7917  -0.0213  -0.0213   1.0905   1.0905
     3.4117   3.4117   4.9714

          k = 0.3021-0.6043 0.3141 ( 15760 PWs)   bands (ev):

   -45.2539 -45.2539  -4.7780  -4.7780  -0.0379  -0.0379   0.9380   0.9380
     3.3107   3.3107   5.4479

          k = 0.3021-0.6043-0.4712 ( 15748 PWs)   bands (ev):

   -45.2539 -45.2539  -4.7711  -4.7711  -0.0542  -0.0542   0.8901   0.8901
     3.2041   3.2041   5.9226

          k = 0.4532 0.4532 0.0000 ( 15744 PWs)   bands (ev):

   -45.2546 -45.2533  -4.9737  -4.3232  -0.7316  -0.1310   0.9763   1.4927
     3.4299   4.4979   4.5354

          k = 0.4532 0.4532 0.1571 ( 15766 PWs)   bands (ev):

   -45.2546 -45.2533  -4.9656  -4.3249  -0.6619  -0.0982   0.7655   1.5209
     3.1533   3.3992   4.6909

          k = 0.4532 0.4532 0.3141 ( 15758 PWs)   bands (ev):

   -45.2546 -45.2533  -4.9490  -4.3287  -0.4980  -0.0067   0.4318   1.5123
     2.3338   3.1775   5.3931

          k = 0.4532 0.4532-0.4712 ( 15756 PWs)   bands (ev):

   -45.2546 -45.2533  -4.9405  -4.3307  -0.3979   0.1002   0.2309   1.5021
     2.0103   3.0409   6.1727

          k = 0.4532-0.6043 0.0000 ( 15782 PWs)   bands (ev):

   -45.2539 -45.2539  -4.5877  -4.5877  -0.6556  -0.6556   1.3161   1.3161
     3.7005   3.7006   4.5674

          k = 0.4532-0.6043 0.1571 ( 15760 PWs)   bands (ev):

   -45.2539 -45.2539  -4.5849  -4.5849  -0.5939  -0.5939   1.2043   1.2043
     3.1678   3.1678   5.1182

          k = 0.4532-0.6043 0.3141 ( 15766 PWs)   bands (ev):

   -45.2539 -45.2539  -4.5794  -4.5794  -0.4458  -0.4458   0.9774   0.9774
     2.5696   2.5696   5.9950

          k = 0.4532-0.6043-0.4712 ( 15764 PWs)   bands (ev):

   -45.2539 -45.2539  -4.5766  -4.5766  -0.3520  -0.3520   0.8520   0.8520
     2.3430   2.3430   6.6256

          k =-0.6043-0.6043 0.0000 ( 15768 PWs)   bands (ev):

   -45.2539 -45.2539  -4.4858  -4.4858  -0.9229  -0.9229   1.4104   1.4104
     3.8730   3.8730   4.4120

          k =-0.6043-0.6043 0.1571 ( 15812 PWs)   bands (ev):

   -45.2539 -45.2539  -4.4855  -4.4855  -0.8521  -0.8521   1.3479   1.3479
     2.9577   2.9577   5.4979

          k =-0.6043-0.6043 0.3141 ( 15748 PWs)   bands (ev):

   -45.2539 -45.2539  -4.4848  -4.4848  -0.6851  -0.6851   1.2342   1.2342
     2.1297   2.1297   6.3742

          k =-0.6043-0.6043-0.4712 ( 15712 PWs)   bands (ev):

   -45.2539 -45.2539  -4.4845  -4.4845  -0.5827  -0.5827   1.1820   1.1820
     1.8021   1.8021   7.2923

     the Fermi energy is     1.5514 ev

!    total energy              =     -45.48611994 Ry
     estimated scf accuracy    <          1.3E-10 Ry
     smearing contrib. (-TS)   =       0.00060434 Ry
     internal energy E=F+TS    =     -45.48672428 Ry

     The total energy is F=E-TS. E is the sum of the following terms:
     one-electron contribution =     -17.85236512 Ry
     hartree contribution      =       8.83684845 Ry
     xc contribution           =     -12.33285980 Ry
     ewald contribution        =     -24.13834782 Ry

     convergence has been achieved in   9 iterations

     Forces acting on atoms (cartesian axes, Ry/au):

     atom    1 type  1   force =     0.00000000    0.00000000   -0.06340941
     atom    2 type  1   force =     0.00000000    0.00000000    0.06340941
     atom    3 type  2   force =     0.00000000    0.00000000    0.06346918
     atom    4 type  2   force =     0.00000000    0.00000000   -0.06346918
     The non-local contrib.  to forces
     atom    1 type  1   force =     0.00000000    0.00000000   -0.11419058
     atom    2 type  1   force =     0.00000000    0.00000000    0.11419058
     atom    3 type  2   force =     0.00000000    0.00000000    0.15545793
     atom    4 type  2   force =     0.00000000    0.00000000   -0.15545793
     The ionic contribution  to forces
     atom    1 type  1   force =    -0.00000000    0.00000000   -0.52942196
     atom    2 type  1   force =     0.00000000   -0.00000000    0.52942196
     atom    3 type  2   force =    -0.00000000    0.00000000    0.40056958
     atom    4 type  2   force =     0.00000000   -0.00000000   -0.40056958
     The local contribution  to forces
     atom    1 type  1   force =     0.00000000    0.00000000    0.58020334
     atom    2 type  1   force =     0.00000000    0.00000000   -0.58020334
     atom    3 type  2   force =     0.00000000    0.00000000   -0.48257830
     atom    4 type  2   force =     0.00000000    0.00000000    0.48257830
     The core correction contribution to forces
     atom    1 type  1   force =     0.00000000    0.00000000    0.00000000
     atom    2 type  1   force =     0.00000000    0.00000000    0.00000000
     atom    3 type  2   force =     0.00000000   -0.00000000   -0.00998052
     atom    4 type  2   force =    -0.00000000   -0.00000000    0.00998052
     The Hubbard contrib.    to forces
     atom    1 type  1   force =     0.00000000    0.00000000    0.00000000
     atom    2 type  1   force =     0.00000000    0.00000000    0.00000000
     atom    3 type  2   force =     0.00000000    0.00000000    0.00000000
     atom    4 type  2   force =     0.00000000    0.00000000    0.00000000
     The SCF correction term to forces
     atom    1 type  1   force =    -0.00000000   -0.00000000   -0.00000021
     atom    2 type  1   force =     0.00000000    0.00000000    0.00000021
     atom    3 type  2   force =    -0.00000000    0.00000000    0.00000049
     atom    4 type  2   force =     0.00000000    0.00000000   -0.00000049

     Total force =     0.126879     Total SCF correction =     0.000001


     Computing stress (Cartesian axis) and pressure

          total   stress  (Ry/bohr**3)                   (kbar)     P=      -56.32
  -0.00056249   0.00000000   0.00000000          -82.75        0.00        0.00
   0.00000000  -0.00056249   0.00000000            0.00      -82.75        0.00
   0.00000000   0.00000000  -0.00002362            0.00        0.00       -3.47

     Energy error            =      1.2E+00 Ry
     Gradient error          =      6.3E-02 Ry/Bohr
     Cell gradient error     =      5.8E+02 kbar

     number of scf cycles    =   3
     number of bfgs steps    =   2

     enthalpy           old  =     -41.7784785368 Ry
     enthalpy           new  =     -42.9642850356 Ry

     CASE: enthalpy          _new < enthalpy          _old

     new trust radius        =       0.8000000000 bohr
ibrav =      6
 celldm(1) =      7.10908056
 celldm(3) =      1.30992027
Input lattice vectors:
     0.70593753     0.00000000     0.00000000
     0.00000000     0.70593753     0.00000000
     0.00000000     0.00000000     0.92472189
New lattice vectors in INITIAL alat:
     0.70593753     0.00000000     0.00000000
     0.00000000     0.70593753     0.00000000
     0.00000000     0.00000000     0.92472189
New lattice vectors in NEW alat (for information only):
     1.00000000     0.00000000     0.00000000
     0.00000000     1.00000000     0.00000000
     0.00000000     0.00000000     1.30992027
Discrepancy in bohr =     0.000000    0.000000    0.000000
     new conv_thr            =       0.0000000063 Ry

     new unit-cell volume =    470.63603 a.u.^3 (    69.74106 Ang^3 )
     density =      1.66797 g/cm^3

CELL_PARAMETERS (alat= 10.07041021)
   0.705937535   0.000000000   0.000000000
   0.000000000   0.705937535   0.000000000
   0.000000000   0.000000000   0.924721888

ATOMIC_POSITIONS (crystal)
Li            0.0000000000        0.5000000000        0.5066160055
Li            0.5000000000        0.0000000000        0.4933839945
Si            0.0000000000        0.5000000000        0.9274732574
Si            0.5000000000        0.0000000000        0.0725267426



     Writing config-only to output data dir ./output/LiSi.save/
     NEW-OLD atomic charge density approx. for the potential

     negative rho (up, down):  9.084E-02 0.000E+00
     extrapolated charge    5.93521, renormalised to   14.00000

     total cpu time spent up to now is       87.1 secs

     Self-consistent Calculation

     iteration #  1     ecut=    80.00 Ry     beta= 0.70
     Davidson diagonalization with overlap
     c_bands:  1 eigenvalues not converged
     c_bands:  1 eigenvalues not converged
     ethr =  1.00E-06,  avg # of iterations = 14.1

     total cpu time spent up to now is       93.5 secs

     total energy              =     -44.94366152 Ry
     estimated scf accuracy    <       1.69303921 Ry

     iteration #  2     ecut=    80.00 Ry     beta= 0.70
     Davidson diagonalization with overlap
     ethr =  1.00E-02,  avg # of iterations =  2.0

     total cpu time spent up to now is       95.4 secs

     total energy              =     -45.52460667 Ry
     estimated scf accuracy    <       0.27094405 Ry

     iteration #  3     ecut=    80.00 Ry     beta= 0.70
     Davidson diagonalization with overlap
     ethr =  1.94E-03,  avg # of iterations =  2.0

     total cpu time spent up to now is       97.1 secs

     total energy              =     -45.56579346 Ry
     estimated scf accuracy    <       0.08251731 Ry

     iteration #  4     ecut=    80.00 Ry     beta= 0.70
     Davidson diagonalization with overlap
     ethr =  5.89E-04,  avg # of iterations =  2.0

     total cpu time spent up to now is       98.8 secs

     total energy              =     -45.58116475 Ry
     estimated scf accuracy    <       0.00711447 Ry

     iteration #  5     ecut=    80.00 Ry     beta= 0.70
     Davidson diagonalization with overlap
     ethr =  5.08E-05,  avg # of iterations =  2.5

     total cpu time spent up to now is      100.4 secs

     total energy              =     -45.58218850 Ry
     estimated scf accuracy    <       0.00002100 Ry

     iteration #  6     ecut=    80.00 Ry     beta= 0.70
     Davidson diagonalization with overlap
     ethr =  1.50E-07,  avg # of iterations =  6.0

     total cpu time spent up to now is      102.9 secs

     total energy              =     -45.58221857 Ry
     estimated scf accuracy    <       0.00001193 Ry

     iteration #  7     ecut=    80.00 Ry     beta= 0.70
     Davidson diagonalization with overlap
     ethr =  8.52E-08,  avg # of iterations =  2.0

     total cpu time spent up to now is      104.6 secs

     total energy              =     -45.58222157 Ry
     estimated scf accuracy    <       0.00000103 Ry

     iteration #  8     ecut=    80.00 Ry     beta= 0.70
     Davidson diagonalization with overlap
     ethr =  7.33E-09,  avg # of iterations =  2.0

     total cpu time spent up to now is      106.2 secs

     total energy              =     -45.58222182 Ry
     estimated scf accuracy    <       0.00000002 Ry

     iteration #  9     ecut=    80.00 Ry     beta= 0.70
     Davidson diagonalization with overlap
     ethr =  1.33E-10,  avg # of iterations =  2.5

     total cpu time spent up to now is      107.9 secs

     End of self-consistent calculation

          k = 0.0000 0.0000 0.0000 ( 15749 PWs)   bands (ev):

   -41.9440 -41.8902  -5.6244   0.1946   3.4474   3.4474   3.9216   3.9267
     7.7481  10.1462  10.1462

          k = 0.0000 0.0000 0.1802 ( 15749 PWs)   bands (ev):

   -41.9440 -41.8902  -5.6063  -0.0395   3.5220   3.5220   3.6988   4.5471
     8.0347   8.8768   8.8768

          k = 0.0000 0.0000 0.3605 ( 15788 PWs)   bands (ev):

   -41.9440 -41.8901  -5.5689  -0.4228   3.5364   3.6911   3.6911   5.5215
     7.8848   7.8848   8.8216

          k = 0.0000 0.0000-0.5407 ( 15812 PWs)   bands (ev):

   -41.9440 -41.8901  -5.5495  -0.5874   3.4684   3.7888   3.7888   6.0315
     7.5053   7.5053   9.7724

          k = 0.0000 0.1771 0.0000 ( 15773 PWs)   bands (ev):

   -41.9419 -41.8922  -5.4725   0.1444   2.1278   3.5945   4.0007   4.9902
     7.1076   8.5912   9.6383

          k = 0.0000 0.1771 0.1802 ( 15776 PWs)   bands (ev):

   -41.9419 -41.8921  -5.4541  -0.0473   2.0501   3.6687   4.4913   4.9563
     7.1990   8.6468   8.8878

          k = 0.0000 0.1771 0.3605 ( 15775 PWs)   bands (ev):

   -41.9419 -41.8921  -5.4159  -0.3853   1.9919   3.8366   4.9052   5.3453
     7.1908   7.9764   8.8917

          k = 0.0000 0.1771-0.5407 ( 15778 PWs)   bands (ev):

   -41.9419 -41.8921  -5.3962  -0.5365   1.9825   3.9336   4.9595   5.5616
     7.2862   7.6132   9.1024

          k = 0.0000 0.3541 0.0000 ( 15761 PWs)   bands (ev):

   -41.9359 -41.8978  -5.0186  -0.5966   1.5352   4.0346   4.1510   5.7703
     5.9465   8.4135   8.4501

          k = 0.0000 0.3541 0.1802 ( 15775 PWs)   bands (ev):

   -41.9359 -41.8978  -4.9992  -0.6248   1.2824   4.1073   4.4521   5.4745
     6.4258   8.3516   8.4493

          k = 0.0000 0.3541 0.3605 ( 15771 PWs)   bands (ev):

   -41.9359 -41.8978  -4.9591  -0.7018   0.9521   4.2715   4.4327   5.7804
     6.9599   8.0046   8.9338

          k = 0.0000 0.3541-0.5407 ( 15776 PWs)   bands (ev):

   -41.9359 -41.8978  -4.9383  -0.7512   0.8398   4.3280   4.3662   5.8756
     7.4233   7.7749   9.5702

          k = 0.0000 0.5312 0.0000 ( 15794 PWs)   bands (ev):

   -41.9270 -41.9064  -4.2689  -1.9622   2.0126   3.8359   4.7634   5.4048
     6.2076   7.0282   7.6727

          k = 0.0000 0.5312 0.1802 ( 15777 PWs)   bands (ev):

   -41.9270 -41.9064  -4.2484  -1.9463   1.6997   3.6159   4.8330   5.7907
     6.7555   7.0681   7.7078

          k = 0.0000 0.5312 0.3605 ( 15762 PWs)   bands (ev):

   -41.9270 -41.9064  -4.2058  -1.9148   1.2435   3.1942   4.9895   6.5861
     7.1385   7.4204   8.3446

          k = 0.0000 0.5312-0.5407 ( 15780 PWs)   bands (ev):

   -41.9270 -41.9064  -4.1837  -1.8994   1.0607   3.0124   5.0791   6.7621
     7.1631   7.8566   9.2167

          k = 0.0000-0.7083 0.0000 ( 15764 PWs)   bands (ev):

   -41.9166 -41.9166  -3.2375  -3.2375   2.8796   2.8796   5.7703   5.7703
     5.8232   5.8232   8.1618

          k = 0.0000-0.7083 0.1802 ( 15774 PWs)   bands (ev):

   -41.9166 -41.9166  -3.2168  -3.2168   2.5572   2.5572   5.8330   5.8330
     6.4132   6.4132   8.1326

          k = 0.0000-0.7083 0.3605 ( 15758 PWs)   bands (ev):

   -41.9166 -41.9166  -3.1737  -3.1737   2.0814   2.0814   5.9714   5.9714
     7.4713   7.4713   8.2291

          k = 0.0000-0.7083-0.5407 ( 15772 PWs)   bands (ev):

   -41.9166 -41.9166  -3.1513  -3.1513   1.8879   1.8879   6.0486   6.0486
     7.7374   7.7374   8.7262

          k = 0.1771 0.1771 0.0000 ( 15771 PWs)   bands (ev):

   -41.9399 -41.8940  -5.3211   0.1005   2.1132   2.6003   4.0724   6.1375
     6.7029   8.9996   9.1919

          k = 0.1771 0.1771 0.1802 ( 15794 PWs)   bands (ev):

   -41.9399 -41.8940  -5.3023  -0.0584   1.9605   2.6825   4.5704   6.0113
     6.9814   7.9742   9.2189

          k = 0.1771 0.1771 0.3605 ( 15777 PWs)   bands (ev):

   -41.9399 -41.8940  -5.2635  -0.3548   1.8030   2.8716   5.2521   6.0820
     6.9279   7.4735   9.3603

          k = 0.1771 0.1771-0.5407 ( 15772 PWs)   bands (ev):

   -41.9399 -41.8939  -5.2434  -0.4926   1.7562   2.9832   5.4235   6.1797
     6.5226   7.9857   9.6249

          k = 0.1771 0.3541 0.0000 ( 15787 PWs)   bands (ev):

   -41.9344 -41.8992  -4.8687  -0.5389   1.6405   2.8017   4.2153   5.7263
     7.1626   7.6480   8.3871

          k = 0.1771 0.3541 0.1802 ( 15778 PWs)   bands (ev):

   -41.9344 -41.8992  -4.8491  -0.5710   1.4124   2.8159   4.4926   5.9011
     7.1903   7.4674   8.1152

          k = 0.1771 0.3541 0.3605 ( 15763 PWs)   bands (ev):

   -41.9344 -41.8992  -4.8086  -0.6523   1.0903   2.9390   4.5172   6.4916
     7.0044   7.4638   8.2888

          k = 0.1771 0.3541-0.5407 ( 15776 PWs)   bands (ev):

   -41.9343 -41.8992  -4.7876  -0.7019   0.9739   3.0345   4.4108   6.3276
     7.3565   7.7216   8.7518

          k = 0.1771 0.5312 0.0000 ( 15763 PWs)   bands (ev):

   -41.9262 -41.9071  -4.1221  -1.8402   2.0577   3.4968   3.8732   5.0700
     6.3528   6.9685   8.4421

          k = 0.1771 0.5312 0.1802 ( 15752 PWs)   bands (ev):

   -41.9262 -41.9071  -4.1017  -1.8266   1.7807   3.4232   3.7684   5.5356
     6.3144   7.4182   8.3169

          k = 0.1771 0.5312 0.3605 ( 15759 PWs)   bands (ev):

   -41.9261 -41.9071  -4.0593  -1.8001   1.3551   3.2288   3.6948   5.8463
     6.9407   7.9303   8.3495

          k = 0.1771 0.5312-0.5407 ( 15786 PWs)   bands (ev):

   -41.9261 -41.9071  -4.0373  -1.7873   1.1806   3.1129   3.7027   5.8499
     7.2468   8.3058   8.6178

          k = 0.1771-0.7083 0.0000 ( 15742 PWs)   bands (ev):

   -41.9166 -41.9166  -3.0976  -3.0976   2.9064   2.9064   4.4074   4.4074
     6.2528   6.2528   9.2807

          k = 0.1771-0.7083 0.1802 ( 15770 PWs)   bands (ev):

   -41.9166 -41.9166  -3.0775  -3.0775   2.6133   2.6133   4.5067   4.5067
     6.6931   6.6931   9.2170

          k = 0.1771-0.7083 0.3605 ( 15764 PWs)   bands (ev):

   -41.9165 -41.9165  -3.0360  -3.0360   2.1752   2.1752   4.6332   4.6332
     7.5142   7.5142   9.1618

          k = 0.1771-0.7083-0.5407 ( 15784 PWs)   bands (ev):

   -41.9165 -41.9165  -3.0144  -3.0144   1.9952   1.9952   4.6846   4.6846
     7.8478   7.8479   9.2094

          k = 0.3541 0.3541 0.0000 ( 15772 PWs)   bands (ev):

   -41.9301 -41.9032  -4.4214  -0.6279   1.3652   2.2264   4.3049   4.8486
     6.8031   7.9461   8.6978

          k = 0.3541 0.3541 0.1802 ( 15775 PWs)   bands (ev):

   -41.9301 -41.9032  -4.4015  -0.6580   1.4537   1.9061   4.3764   5.2881
     6.7033   6.9149   8.9188

          k = 0.3541 0.3541 0.3605 ( 15758 PWs)   bands (ev):

   -41.9301 -41.9031  -4.3601  -0.7245   1.4723   1.6599   4.3656   5.5999
     5.9855   7.5455   9.0133

          k = 0.3541 0.3541-0.5407 ( 15742 PWs)   bands (ev):

   -41.9300 -41.9031  -4.3387  -0.7611   1.3078   1.7840   4.3494   5.1713
     6.1791   8.4431   9.1054

          k = 0.3541 0.5312 0.0000 ( 15751 PWs)   bands (ev):

   -41.9238 -41.9092  -3.6863  -1.5227   1.4328   2.8432   3.4080   4.3747
     6.2539   7.1918   8.7160

          k = 0.3541 0.5312 0.1802 ( 15751 PWs)   bands (ev):

   -41.9237 -41.9092  -3.6665  -1.5188   1.4670   2.5086   3.4460   4.5037
     6.2525   6.8415   9.1492

          k = 0.3541 0.5312 0.3605 ( 15758 PWs)   bands (ev):

   -41.9237 -41.9091  -3.6255  -1.5127   1.4863   2.1958   3.3571   4.4583
     5.8889   7.2128   9.4203

          k = 0.3541 0.5312-0.5407 ( 15750 PWs)   bands (ev):

   -41.9237 -41.9091  -3.6042  -1.5105   1.4442   2.1775   3.2546   4.3599
     5.7662   7.4321  10.2709

          k = 0.3541-0.7083 0.0000 ( 15732 PWs)   bands (ev):

   -41.9164 -41.9164  -2.6893  -2.6893   2.2576   2.2576   3.6745   3.6745
     6.4785   6.4785   9.2189

          k = 0.3541-0.7083 0.1802 ( 15736 PWs)   bands (ev):

   -41.9164 -41.9164  -2.6723  -2.6723   2.2401   2.2401   3.5087   3.5087
     6.5559   6.5559   9.3252

          k = 0.3541-0.7083 0.3605 ( 15760 PWs)   bands (ev):

   -41.9164 -41.9164  -2.6375  -2.6375   2.1941   2.1941   3.2494   3.2494
     6.5370   6.5370   9.9790

          k = 0.3541-0.7083-0.5407 ( 15748 PWs)   bands (ev):

   -41.9164 -41.9164  -2.6197  -2.6197   2.1646   2.1646   3.1467   3.1467
     6.4799   6.4799  10.5618

          k = 0.5312 0.5312 0.0000 ( 15744 PWs)   bands (ev):

   -41.9202 -41.9123  -2.9805  -1.3738   0.5327   2.0729   3.3333   4.3582
     6.4373   7.0706   7.9547

          k = 0.5312 0.5312 0.1802 ( 15766 PWs)   bands (ev):

   -41.9202 -41.9123  -2.9635  -1.3850   0.6241   2.0922   3.0959   4.4152
     5.8398   6.4208   8.9992

          k = 0.5312 0.5312 0.3605 ( 15758 PWs)   bands (ev):

   -41.9202 -41.9123  -2.9285  -1.4076   0.8385   2.1690   2.6783   4.4651
     4.7178   6.3019   9.8232

          k = 0.5312 0.5312-0.5407 ( 15756 PWs)   bands (ev):

   -41.9202 -41.9123  -2.9106  -1.4191   0.9688   2.3401   2.3630   4.2795
     4.4764   6.2229  11.3713

          k = 0.5312-0.7083 0.0000 ( 15782 PWs)   bands (ev):

   -41.9162 -41.9162  -2.0779  -2.0779   0.9425   0.9425   3.9796   3.9796
     6.6944   6.6944   8.1359

          k = 0.5312-0.7083 0.1802 ( 15760 PWs)   bands (ev):

   -41.9162 -41.9162  -2.0709  -2.0709   1.0117   1.0117   3.8329   3.8329
     5.9940   5.9940   9.1458

          k = 0.5312-0.7083 0.3605 ( 15766 PWs)   bands (ev):

   -41.9162 -41.9162  -2.0573  -2.0573   1.1865   1.1865   3.4574   3.4574
     5.3608   5.3608  10.5426

          k = 0.5312-0.7083-0.5407 ( 15764 PWs)   bands (ev):

   -41.9162 -41.9162  -2.0508  -2.0508   1.3033   1.3033   3.2215   3.2215
     5.1731   5.1731  11.2561

          k =-0.7083-0.7083 0.0000 ( 15768 PWs)   bands (ev):

   -41.9161 -41.9161  -1.6456  -1.6456   0.2468   0.2468   4.1981   4.1981
     6.7705   6.7705   7.6891

          k =-0.7083-0.7083 0.1802 ( 15812 PWs)   bands (ev):

   -41.9161 -41.9161  -1.6554  -1.6554   0.3391   0.3391   4.1850   4.1850
     5.5431   5.5431   9.2739

          k =-0.7083-0.7083 0.3605 ( 15748 PWs)   bands (ev):

   -41.9161 -41.9161  -1.6748  -1.6748   0.5560   0.5560   4.1601   4.1601
     4.4161   4.4161  11.1850

          k =-0.7083-0.7083-0.5407 ( 15712 PWs)   bands (ev):

   -41.9161 -41.9161  -1.6844  -1.6844   0.6881   0.6881   3.9750   3.9750
     4.1483   4.1483  11.5693

     the Fermi energy is     4.5128 ev

!    total energy              =     -45.58222182 Ry
     estimated scf accuracy    <          2.8E-10 Ry
     smearing contrib. (-TS)   =      -0.00208566 Ry
     internal energy E=F+TS    =     -45.58013617 Ry

     The total energy is F=E-TS. E is the sum of the following terms:
     one-electron contribution =     -12.04352528 Ry
     hartree contribution      =       7.54903898 Ry
     xc contribution           =     -12.79621086 Ry
     ewald contribution        =     -28.28943900 Ry

     convergence has been achieved in   9 iterations

     Forces acting on atoms (cartesian axes, Ry/au):

     atom    1 type  1   force =     0.00000000    0.00000000   -0.13076831
     atom    2 type  1   force =     0.00000000    0.00000000    0.13076831
     atom    3 type  2   force =     0.00000000    0.00000000    0.11055198
     atom    4 type  2   force =     0.00000000    0.00000000   -0.11055198
     The non-local contrib.  to forces
     atom    1 type  1   force =     0.00000000    0.00000000   -0.10311200
     atom    2 type  1   force =     0.00000000    0.00000000    0.10311200
     atom    3 type  2   force =     0.00000000    0.00000000    0.19797852
     atom    4 type  2   force =     0.00000000    0.00000000   -0.19797852
     The ionic contribution  to forces
     atom    1 type  1   force =    -0.00000000   -0.00000000   -0.56571308
[...]
        k(   60) = (  -0.9265045  -0.9265045  -0.5710919), wk =   0.0052083

     Dense  grid:    25175 G-vectors     FFT dimensions: (  32,  32,  54)

     Estimated max dynamical RAM per process >      18.26 MB

     Estimated total dynamical RAM >     146.07 MB

     Initial potential from superposition of free atoms

     starting charge      13.9897, renormalised to      14.0000
     Starting wfcs are   12 randomized atomic wfcs

     total cpu time spent up to now is      396.2 secs

     Self-consistent Calculation

     iteration #  1     ecut=    80.00 Ry     beta= 0.70
     Davidson diagonalization with overlap
     c_bands:  2 eigenvalues not converged
     c_bands:  2 eigenvalues not converged
     c_bands:  1 eigenvalues not converged
     c_bands:  1 eigenvalues not converged
     c_bands:  1 eigenvalues not converged
     c_bands:  1 eigenvalues not converged
     c_bands:  1 eigenvalues not converged
     c_bands:  1 eigenvalues not converged
     c_bands:  1 eigenvalues not converged
     c_bands:  1 eigenvalues not converged
     c_bands:  1 eigenvalues not converged
     c_bands:  1 eigenvalues not converged
     ethr =  1.00E-06,  avg # of iterations = 16.5

     total cpu time spent up to now is      397.6 secs

     total energy              =     -45.59034468 Ry
     estimated scf accuracy    <       0.02672408 Ry

     iteration #  2     ecut=    80.00 Ry     beta= 0.70
     Davidson diagonalization with overlap
     ethr =  1.91E-04,  avg # of iterations =  2.1

     total cpu time spent up to now is      398.0 secs

     total energy              =     -45.59208163 Ry
     estimated scf accuracy    <       0.01976591 Ry

     iteration #  3     ecut=    80.00 Ry     beta= 0.70
     Davidson diagonalization with overlap
     ethr =  1.41E-04,  avg # of iterations =  2.0

     total cpu time spent up to now is      398.3 secs

     total energy              =     -45.59655647 Ry
     estimated scf accuracy    <       0.00105663 Ry

     iteration #  4     ecut=    80.00 Ry     beta= 0.70
     Davidson diagonalization with overlap
     ethr =  7.55E-06,  avg # of iterations =  1.7

     total cpu time spent up to now is      398.6 secs

     total energy              =     -45.59668843 Ry
     estimated scf accuracy    <       0.00000777 Ry

     iteration #  5     ecut=    80.00 Ry     beta= 0.70
     Davidson diagonalization with overlap
     ethr =  5.55E-08,  avg # of iterations =  4.0

     total cpu time spent up to now is      399.0 secs

     total energy              =     -45.59669631 Ry
     estimated scf accuracy    <       0.00000496 Ry

     iteration #  6     ecut=    80.00 Ry     beta= 0.70
     Davidson diagonalization with overlap
     ethr =  3.54E-08,  avg # of iterations =  1.5

     total cpu time spent up to now is      399.4 secs

     total energy              =     -45.59669682 Ry
     estimated scf accuracy    <       0.00000022 Ry

     iteration #  7     ecut=    80.00 Ry     beta= 0.70
     Davidson diagonalization with overlap
     ethr =  1.58E-09,  avg # of iterations =  2.2

     total cpu time spent up to now is      399.7 secs

     total energy              =     -45.59669686 Ry
     estimated scf accuracy    <          5.0E-09 Ry

     iteration #  8     ecut=    80.00 Ry     beta= 0.70
     Davidson diagonalization with overlap
     ethr =  3.60E-11,  avg # of iterations =  3.8

     total cpu time spent up to now is      400.1 secs

     total energy              =     -45.59669686 Ry
     estimated scf accuracy    <          7.9E-10 Ry

     iteration #  9     ecut=    80.00 Ry     beta= 0.70
     Davidson diagonalization with overlap
     ethr =  5.62E-12,  avg # of iterations =  2.0

     total cpu time spent up to now is      400.5 secs

     total energy              =     -45.59669686 Ry
     estimated scf accuracy    <          4.8E-10 Ry

     iteration # 10     ecut=    80.00 Ry     beta= 0.70
     Davidson diagonalization with overlap
     ethr =  3.45E-12,  avg # of iterations =  1.8

     total cpu time spent up to now is      400.8 secs

     End of self-consistent calculation

          k = 0.0000 0.0000 0.0000 (  3201 PWs)   bands (ev):

   -35.3877 -35.1712  -3.7616   3.3841   6.2004  10.9372  10.9372  13.2603
    15.4088  17.9314  17.9314

          k = 0.0000 0.0000 0.1904 (  3157 PWs)   bands (ev):

   -35.3874 -35.1714  -3.7549   2.9998   6.9845  11.0248  11.0248  13.3376
    14.9113  16.7395  16.7395

          k = 0.0000 0.0000 0.3807 (  3125 PWs)   bands (ev):

   -35.3867 -35.1719  -3.7414   2.4780   8.6712  11.2262  11.2262  13.3047
    13.5093  15.5980  15.5980

          k = 0.0000 0.0000-0.5711 (  3130 PWs)   bands (ev):

   -35.3864 -35.1721  -3.7344   2.2759  10.2168  11.3452  11.3452  11.6719
    13.6060  15.1576  15.1576

          k = 0.0000 0.2316 0.0000 (  3157 PWs)   bands (ev):

   -35.3770 -35.1770  -3.5038   3.5814   6.3154   8.4991  11.1807  14.4854
    16.0034  17.1393  17.3626

          k = 0.0000 0.2316 0.1904 (  3139 PWs)   bands (ev):

   -35.3767 -35.1772  -3.4961   3.1876   7.0892   8.5666  11.2677  14.4163
    14.9001  16.7444  16.9919

          k = 0.0000 0.2316 0.3807 (  3149 PWs)   bands (ev):

   -35.3762 -35.1776  -3.4805   2.6569   8.5369   8.8827  11.4673  13.4159
    14.1100  15.6365  15.8581

          k = 0.0000 0.2316-0.5711 (  3128 PWs)   bands (ev):

   -35.3759 -35.1778  -3.4725   2.4517   8.7300  10.0667  11.5850  12.1893
    13.7489  15.3754  15.4203

          k = 0.0000 0.4633 0.0000 (  3133 PWs)   bands (ev):

   -35.3477 -35.1945  -2.7331   4.0283   5.5971   6.6060  11.9111  13.4737
    14.5234  15.5880  18.6485

          k = 0.0000 0.4633 0.1904 (  3157 PWs)   bands (ev):

   -35.3475 -35.1947  -2.7226   3.6475   5.6174   7.2949  11.9961  12.6358
    15.2875  15.8520  17.7090

          k = 0.0000 0.4633 0.3807 (  3150 PWs)   bands (ev):

   -35.3470 -35.1950  -2.7011   3.1234   5.6998   8.4769  12.1571  12.1907
    14.4858  16.6259  16.7585

          k = 0.0000 0.4633-0.5711 (  3146 PWs)   bands (ev):

   -35.3468 -35.1951  -2.6900   2.9185   5.7480   9.0144  12.3046  12.9481
    12.9598  16.1996  16.6143

          k = 0.0000 0.6949 0.0000 (  3134 PWs)   bands (ev):

   -35.3067 -35.2237  -1.4578   2.5022   5.3680   6.8014  11.7009  12.5779
    13.1270  16.8313  16.9553

          k = 0.0000 0.6949 0.1904 (  3160 PWs)   bands (ev):

   -35.3065 -35.2238  -1.4434   2.4948   5.0121   7.0938  11.5045  13.2089
    13.6131  16.6363  17.0123

          k = 0.0000 0.6949 0.3807 (  3152 PWs)   bands (ev):

   -35.3063 -35.2239  -1.4138   2.4677   4.5888   7.2535  12.2442  13.3950
    15.0436  16.1805  17.0969

          k = 0.0000 0.6949-0.5711 (  3158 PWs)   bands (ev):

   -35.3061 -35.2240  -1.3984   2.4470   4.4437   7.2267  13.5030  13.6269
    14.0952  17.0735  17.1572

          k = 0.0000-0.9265 0.0000 (  3144 PWs)   bands (ev):

   -35.2628 -35.2628   0.3055   0.3055   6.3339   6.3339  11.4212  11.4212
    14.8215  14.8215  18.5945

          k = 0.0000-0.9265 0.1904 (  3148 PWs)   bands (ev):

   -35.2627 -35.2627   0.3216   0.3216   6.1116   6.1116  12.0221  12.0221
    14.8987  14.8987  18.4269

          k = 0.0000-0.9265 0.3807 (  3162 PWs)   bands (ev):

   -35.2626 -35.2626   0.3550   0.3550   5.7374   5.7374  13.4700  13.4700
    15.0720  15.0720  17.8031

          k = 0.0000-0.9265-0.5711 (  3164 PWs)   bands (ev):

   -35.2626 -35.2626   0.3723   0.3723   5.5743   5.5743  14.6738  14.6738
    15.1712  15.1712  16.8685

          k = 0.2316 0.2316 0.0000 (  3147 PWs)   bands (ev):

   -35.3670 -35.1822  -3.2463   3.7868   6.4427   8.2886   9.3155  15.5346
    16.8469  16.9539  17.0687

          k = 0.2316 0.2316 0.1904 (  3140 PWs)   bands (ev):

   -35.3667 -35.1823  -3.2375   3.3818   7.2133   8.3776   9.3519  14.3279
    16.0987  17.0097  17.0826

          k = 0.2316 0.2316 0.3807 (  3148 PWs)   bands (ev):

   -35.3662 -35.1827  -3.2196   2.8405   8.5816   8.7131   9.4905  13.1547
    14.3942  15.9621  17.1741

          k = 0.2316 0.2316-0.5711 (  3146 PWs)   bands (ev):

   -35.3659 -35.1829  -3.2105   2.6317   8.7016   9.2775  10.0927  12.7030
    13.1031  15.6160  17.2663

          k = 0.2316 0.4633 0.0000 (  3143 PWs)   bands (ev):

   -35.3395 -35.1979  -2.4764   4.2714   5.7689   6.7715   9.6445  13.4530
    14.7090  16.7600  18.1380

          k = 0.2316 0.4633 0.1904 (  3149 PWs)   bands (ev):

   -35.3393 -35.1981  -2.4646   3.8708   5.8003   7.4769   9.7057  12.4993
    15.9676  16.2010  17.7382

          k = 0.2316 0.4633 0.3807 (  3141 PWs)   bands (ev):

   -35.3388 -35.1983  -2.4402   3.3282   5.9035   8.6728   9.8430  11.7845
    14.9723  16.4487  17.8013

          k = 0.2316 0.4633-0.5711 (  3134 PWs)   bands (ev):

   -35.3386 -35.1985  -2.4277   3.1172   5.9628   9.2663   9.7950  12.0282
    13.8610  16.1242  17.8157

          k = 0.2316 0.6949 0.0000 (  3156 PWs)   bands (ev):

   -35.3012 -35.2245  -1.2025   2.7544   5.5892   7.0297  10.7458  11.6778
    12.8058  14.7938  18.3277

          k = 0.2316 0.6949 0.1904 (  3160 PWs)   bands (ev):

   -35.3010 -35.2246  -1.1864   2.7510   5.2098   7.3397  10.8489  11.4550
    13.7326  14.8020  17.5361

          k = 0.2316 0.6949 0.3807 (  3153 PWs)   bands (ev):

   -35.3008 -35.2247  -1.1530   2.7301   4.7668   7.4841  11.0218  12.0175
    14.8190  15.2216  16.4633

          k = 0.2316 0.6949-0.5711 (  3144 PWs)   bands (ev):

   -35.3006 -35.2247  -1.1357   2.7112   4.6174   7.4419  11.0362  12.9531
    14.8359  14.9770  17.0113

          k = 0.2316-0.9265 0.0000 (  3152 PWs)   bands (ev):

   -35.2604 -35.2604   0.5586   0.5586   6.5900   6.5900  11.2634  11.2634
    12.7956  12.7956  19.1893

          k = 0.2316-0.9265 0.1904 (  3148 PWs)   bands (ev):

   -35.2604 -35.2604   0.5773   0.5773   6.3447   6.3447  11.8562  11.8562
    12.8183  12.8183  18.7431

          k = 0.2316-0.9265 0.3807 (  3156 PWs)   bands (ev):

   -35.2603 -35.2603   0.6159   0.6159   5.9400   5.9400  12.7166  12.7166
    13.4025  13.4025  17.7092

          k = 0.2316-0.9265-0.5711 (  3152 PWs)   bands (ev):

   -35.2602 -35.2602   0.6359   0.6359   5.7655   5.7655  12.7626  12.7626
    14.5195  14.5195  16.6923

          k = 0.4633 0.4633 0.0000 (  3151 PWs)   bands (ev):

   -35.3171 -35.2087  -1.7091   4.9407   5.7562   7.2199   7.3274  13.0298
    14.0265  14.2937  16.0654

          k = 0.4633 0.4633 0.1904 (  3138 PWs)   bands (ev):

   -35.3169 -35.2088  -1.6934   4.4855   5.8486   7.3184   7.9659  11.7749
    14.0419  15.8105  15.9772

          k = 0.4633 0.4633 0.3807 (  3142 PWs)   bands (ev):

   -35.3166 -35.2090  -1.6610   3.8990   6.0616   7.3033   9.2712  10.5748
    14.1572  15.3557  16.9405

          k = 0.4633 0.4633-0.5711 (  3116 PWs)   bands (ev):

   -35.3164 -35.2091  -1.6442   3.6743   6.1880   7.2958   9.9738  10.1116
    14.5926  14.6537  16.6500

          k = 0.4633 0.6949 0.0000 (  3148 PWs)   bands (ev):

   -35.2865 -35.2278  -0.4402   3.4880   6.1639   7.6863   7.8970  11.2455
    12.1721  12.8429  15.6010

          k = 0.4633 0.6949 0.1904 (  3146 PWs)   bands (ev):

   -35.2864 -35.2278  -0.4189   3.5024   5.7234   7.8349   8.2120  10.9718
    11.7754  13.8914  15.5894

          k = 0.4633 0.6949 0.3807 (  3155 PWs)   bands (ev):

   -35.2861 -35.2279  -0.3744   3.5102   5.2376   7.8756   8.3685  10.9922
    11.8665  14.9058  15.5965

          k = 0.4633 0.6949-0.5711 (  3140 PWs)   bands (ev):

   -35.2860 -35.2279  -0.3511   3.4994   5.0843   8.0449   8.0776  11.1650
    12.1160  15.2782  15.7488

          k = 0.4633-0.9265 0.0000 (  3170 PWs)   bands (ev):

   -35.2547 -35.2547   1.3112   1.3112   7.3452   7.3452   9.3471   9.3471
    11.7412  11.7412  15.9438

          k = 0.4633-0.9265 0.1904 (  3152 PWs)   bands (ev):

   -35.2547 -35.2547   1.3378   1.3378   7.0082   7.0082   9.5548   9.5548
    12.0162  12.0162  16.0864

          k = 0.4633-0.9265 0.3807 (  3138 PWs)   bands (ev):

   -35.2546 -35.2546   1.3931   1.3931   6.5125   6.5125   9.7201   9.7201
    12.7051  12.7051  16.4733

          k = 0.4633-0.9265-0.5711 (  3144 PWs)   bands (ev):

   -35.2546 -35.2546   1.4221   1.4221   6.3097   6.3097   9.7424   9.7424
    13.1047  13.1047  16.8114

          k = 0.6949 0.6949 0.0000 (  3147 PWs)   bands (ev):

   -35.2673 -35.2355   0.8161   4.2145   5.4761   7.5355   8.5564   8.9706
    11.4822  12.6821  13.7511

          k = 0.6949 0.6949 0.1904 (  3133 PWs)   bands (ev):

   -35.2672 -35.2355   0.8460   4.3091   5.3318   7.1150   8.9418   9.2269
    10.1945  13.3289  14.4001

          k = 0.6949 0.6949 0.3807 (  3133 PWs)   bands (ev):

   -35.2671 -35.2355   0.9090   4.5284   5.0433   6.7266   8.9214   8.9795
    10.0803  13.1751  15.7572

          k = 0.6949 0.6949-0.5711 (  3138 PWs)   bands (ev):

   -35.2670 -35.2355   0.9423   4.6593   4.9016   6.6028   8.5096   8.9015
    10.4445  13.1707  16.9187

          k = 0.6949-0.9265 0.0000 (  3152 PWs)   bands (ev):

   -35.2490 -35.2490   2.5266   2.5266   6.7547   6.7547   8.6328   8.6328
    11.5964  11.5964  13.2596

          k = 0.6949-0.9265 0.1904 (  3146 PWs)   bands (ev):

   -35.2490 -35.2490   2.5701   2.5701   6.6956   6.6956   8.3995   8.3995
    11.2916  11.2916  14.3370

          k = 0.6949-0.9265 0.3807 (  3134 PWs)   bands (ev):

   -35.2489 -35.2489   2.6619   2.6619   6.6154   6.6154   7.8779   7.8779
    11.2461  11.2461  16.3178

          k = 0.6949-0.9265-0.5711 (  3148 PWs)   bands (ev):

   -35.2489 -35.2489   2.7105   2.7105   6.6020   6.6020   7.5999   7.5999
    11.3111  11.3111  17.8908

          k =-0.9265-0.9265 0.0000 (  3108 PWs)   bands (ev):

   -35.2467 -35.2467   3.6991   3.6991   5.1298   5.1298   9.8575   9.8575
    10.9627  10.9627  12.1395

          k =-0.9265-0.9265 0.1904 (  3144 PWs)   bands (ev):

   -35.2466 -35.2466   3.7946   3.7946   5.0795   5.0795   9.6638   9.6638
     9.9770   9.9770  13.8688

          k =-0.9265-0.9265 0.3807 (  3160 PWs)   bands (ev):

   -35.2465 -35.2465   4.0160   4.0160   4.9842   4.9842   8.4440   8.4440
    10.2160  10.2160  16.4238

          k =-0.9265-0.9265-0.5711 (  3120 PWs)   bands (ev):

   -35.2465 -35.2465   4.1485   4.1485   4.9389   4.9389   7.9718   7.9718
    10.3359  10.3359  18.7455

     the Fermi energy is    10.9873 ev

!    total energy              =     -45.59669686 Ry
     estimated scf accuracy    <          1.6E-12 Ry
     smearing contrib. (-TS)   =      -0.00134446 Ry
     internal energy E=F+TS    =     -45.59535240 Ry

     The total energy is F=E-TS. E is the sum of the following terms:
     one-electron contribution =      -2.44669622 Ry
     hartree contribution      =       5.88815013 Ry
     xc contribution           =     -13.62285873 Ry
     ewald contribution        =     -35.41394758 Ry

     convergence has been achieved in  10 iterations

     Forces acting on atoms (cartesian axes, Ry/au):

     atom    1 type  1   force =     0.00000000    0.00000000    0.00001400
     atom    2 type  1   force =     0.00000000    0.00000000   -0.00001400
     atom    3 type  2   force =     0.00000000    0.00000000   -0.00048314
     atom    4 type  2   force =     0.00000000    0.00000000    0.00048314
     The non-local contrib.  to forces
     atom    1 type  1   force =     0.00000000    0.00000000    0.00081480
     atom    2 type  1   force =     0.00000000    0.00000000   -0.00081480
     atom    3 type  2   force =     0.00000000    0.00000000    0.03004966
     atom    4 type  2   force =     0.00000000    0.00000000   -0.03004966
     The ionic contribution  to forces
     atom    1 type  1   force =    -0.00000000    0.00000000    0.29193424
     atom    2 type  1   force =     0.00000000   -0.00000000   -0.29193424
     atom    3 type  2   force =    -0.00000000    0.00000000   -0.42589478
     atom    4 type  2   force =     0.00000000   -0.00000000    0.42589478
     The local contribution  to forces
     atom    1 type  1   force =     0.00000000    0.00000000   -0.29273618
     atom    2 type  1   force =     0.00000000    0.00000000    0.29273618
     atom    3 type  2   force =     0.00000000   -0.00000000    0.39388044
     atom    4 type  2   force =    -0.00000000    0.00000000   -0.39388044
     The core correction contribution to forces
     atom    1 type  1   force =     0.00000000    0.00000000    0.00000000
     atom    2 type  1   force =     0.00000000    0.00000000    0.00000000
     atom    3 type  2   force =    -0.00000000   -0.00000000    0.00148264
     atom    4 type  2   force =    -0.00000000   -0.00000000   -0.00148264
     The Hubbard contrib.    to forces
     atom    1 type  1   force =     0.00000000    0.00000000    0.00000000
     atom    2 type  1   force =     0.00000000    0.00000000    0.00000000
     atom    3 type  2   force =     0.00000000    0.00000000    0.00000000
     atom    4 type  2   force =     0.00000000    0.00000000    0.00000000
     The SCF correction term to forces
     atom    1 type  1   force =     0.00000000    0.00000000    0.00000114
     atom    2 type  1   force =    -0.00000000    0.00000000   -0.00000114
     atom    3 type  2   force =     0.00000000   -0.00000000   -0.00000109
     atom    4 type  2   force =    -0.00000000   -0.00000000    0.00000109

     Total force =     0.000684     Total SCF correction =     0.000002


     Computing stress (Cartesian axis) and pressure

          total   stress  (Ry/bohr**3)                   (kbar)     P=      499.83
   0.00339551   0.00000000   0.00000000          499.50        0.00        0.00
   0.00000000   0.00339551   0.00000000            0.00      499.50        0.00
   0.00000000   0.00000000   0.00340229            0.00        0.00      500.49


     Writing all to output data dir ./output/LiSi.save/

     init_run     :      2.75s CPU      4.67s WALL (       2 calls)
     electrons    :    256.39s CPU    287.51s WALL (      21 calls)
     update_pot   :     23.00s CPU     23.20s WALL (      19 calls)
     forces       :     15.79s CPU     16.08s WALL (      21 calls)
     stress       :     66.56s CPU     69.36s WALL (      21 calls)

     Called by init_run:
     wfcinit      :      1.18s CPU      2.59s WALL (       2 calls)
     potinit      :      0.74s CPU      0.92s WALL (       2 calls)
     hinit0       :      0.66s CPU      0.92s WALL (       2 calls)

     Called by electrons:
     c_bands      :    222.31s CPU    248.43s WALL (     151 calls)
     sum_band     :     31.21s CPU     35.01s WALL (     151 calls)
     v_of_rho     :      2.88s CPU      3.66s WALL (     167 calls)
     mix_rho      :      0.22s CPU      0.33s WALL (     151 calls)

     Called by c_bands:
     init_us_2    :      9.04s CPU      9.95s WALL (   20760 calls)
     init_us_2:cp :      9.01s CPU      9.93s WALL (   20760 calls)
     cegterg      :    203.46s CPU    226.28s WALL (    9060 calls)

     Called by *egterg:
     cdiaghg      :      4.90s CPU      5.28s WALL (   36325 calls)
     h_psi        :    177.74s CPU    200.97s WALL (   37885 calls)
     g_psi        :      1.20s CPU      1.24s WALL (   28705 calls)

     Called by h_psi:
     h_psi:calbec :     11.01s CPU     12.19s WALL (   37885 calls)
     vloc_psi     :    156.60s CPU    178.09s WALL (   37885 calls)
     add_vuspsi   :      9.41s CPU      9.97s WALL (   37885 calls)

     General routines
     calbec       :     13.49s CPU     14.73s WALL (   44185 calls)
     fft          :      1.70s CPU      2.81s WALL (    2198 calls)
     ffts         :      0.09s CPU      0.14s WALL (     151 calls)
     fftw         :    160.24s CPU    182.07s WALL (  692044 calls)

     Parallel routines

     PWSCF        :   6m 4.94s CPU   6m41.92s WALL


   This run was terminated on:  15:58:51  28Nov2024            

=------------------------------------------------------------------------------=
   JOB DONE.
=------------------------------------------------------------------------------=
