
     Program PWSCF v.7.2 starts on 11Feb2025 at 22:47:53 

     This program is part of the open-source Quantum ESPRESSO suite
     for quantum simulation of materials; please cite
         "P. Giannozzi et al., J. Phys.:Condens. Matter 21 395502 (2009);
         "P. Giannozzi et al., J. Phys.:Condens. Matter 29 465901 (2017);
         "P. Giannozzi et al., J. Chem. Phys. 152 154105 (2020);
          URL http://www.quantum-espresso.org", 
     in publications or presentations arising from this work. More details at
     http://www.quantum-espresso.org/quote

     Parallel version (MPI & OpenMP), running on       8 processor cores
     Number of MPI processes:                 8
     Threads/MPI process:                     1

     MPI processes distributed on     1 nodes
     482000 MiB available memory on the printing compute node when the environment starts

     Waiting for input...
     Reading input from standard input

     Current dimensions of program PWSCF are:
     Max number of different atomic species (ntypx) = 10
     Max number of k-points (npk) =  40000
     Max angular momentum in pseudopotentials (lmaxx) =  4

     R & G space division:  proc/nbgrp/npool/nimage =       8
     Subspace diagonalization in iterative solution of the eigenvalue problem:
     a serial algorithm will be used


     Parallelization info
     --------------------
     sticks:   dense  smooth     PW     G-vecs:    dense   smooth      PW
     Min         151     151     45                 3491     3491     558
     Max         152     152     46                 3494     3494     560
     Sum        1213    1213    361                27941    27941    4477

     Using Slab Decomposition



     bravais-lattice index     =            2
     lattice parameter (alat)  =      10.5043  a.u.
     unit-cell volume          =     289.7630 (a.u.)^3
     number of atoms/cell      =            2
     number of atomic types    =            2
     number of electrons       =         7.00
     number of Kohn-Sham states=            8
     kinetic-energy cutoff     =      80.0000  Ry
     charge density cutoff     =     320.0000  Ry
     scf convergence threshold =      1.0E-08
     mixing beta               =       0.7000
     number of iterations used =            8  plain     mixing
     energy convergence thresh.=      1.0E-04
     force convergence thresh. =      1.0E-03
     press convergence thresh. =      1.0E+00
     Exchange-correlation= PBE
                           (   1   4   3   4   0   0   0)
     nstep                     =           50


     celldm(1)=  10.504313  celldm(2)=   0.000000  celldm(3)=   0.000000
     celldm(4)=   0.000000  celldm(5)=   0.000000  celldm(6)=   0.000000

     crystal axes: (cart. coord. in units of alat)
               a(1) = (  -0.500000   0.000000   0.500000 )  
               a(2) = (   0.000000   0.500000   0.500000 )  
               a(3) = (  -0.500000   0.500000   0.000000 )  

     reciprocal axes: (cart. coord. in units 2 pi/alat)
               b(1) = ( -1.000000 -1.000000  1.000000 )  
               b(2) = (  1.000000  1.000000  1.000000 )  
               b(3) = ( -1.000000  1.000000 -1.000000 )  


     PseudoPot. # 1 for Li read from file:
     ../pseudo/Li_ONCV_PBE_sr.upf
     MD5 check sum: 50ff420e78310ffa21704f3361e624a4
     Pseudo is Norm-conserving, Zval =  3.0
     Generated using ONCVPSP code by D. R. Hamann
     Using radial grid of 1944 points,  4 beta functions with: 
                l(1) =   0
                l(2) =   0
                l(3) =   1
                l(4) =   1

     PseudoPot. # 2 for Si read from file:
     ../pseudo/Si_ONCV_PBE_sr.upf
     MD5 check sum: e543d271109d17c80368dfa7c482276d
     Pseudo is Norm-conserving + core correction, Zval =  4.0
     Generated using ONCVPSP code by D. R. Hamann
     Using radial grid of 1510 points,  6 beta functions with: 
                l(1) =   0
                l(2) =   0
                l(3) =   1
                l(4) =   1
                l(5) =   2
                l(6) =   2

     atomic species   valence    mass     pseudopotential
        Li             3.00     6.94100     Li( 1.00)
        Si             4.00    28.08550     Si( 1.00)

     24 Sym. Ops. (no inversion) found



   Cartesian axes

     site n.     atom                  positions (alat units)
         1           Li  tau(   1) = (   0.2500000   0.2500000   0.7500000  )
         2           Si  tau(   2) = (   0.0000000   0.0000000   0.0000000  )

     number of k points=    16  Marzari-Vanderbilt smearing, width (Ry)=  0.0200
                       cart. coord. in units 2pi/alat
        k(    1) = (   0.0000000   0.0000000   0.0000000), wk =   0.0092593
        k(    2) = (  -0.1666667   0.1666667  -0.1666667), wk =   0.0740741
        k(    3) = (  -0.3333333   0.3333333  -0.3333333), wk =   0.0740741
        k(    4) = (   0.5000000  -0.5000000   0.5000000), wk =   0.0370370
        k(    5) = (   0.0000000   0.3333333   0.0000000), wk =   0.0555556
        k(    6) = (  -0.1666667   0.5000000  -0.1666667), wk =   0.2222222
        k(    7) = (   0.6666667  -0.3333333   0.6666667), wk =   0.2222222
        k(    8) = (   0.5000000  -0.1666667   0.5000000), wk =   0.2222222
        k(    9) = (   0.3333333   0.0000000   0.3333333), wk =   0.1111111
        k(   10) = (   0.0000000   0.6666667   0.0000000), wk =   0.0555556
        k(   11) = (   0.8333333  -0.1666667   0.8333333), wk =   0.2222222
        k(   12) = (   0.6666667  -0.0000000   0.6666667), wk =   0.1111111
        k(   13) = (   0.0000000  -1.0000000   0.0000000), wk =   0.0277778
        k(   14) = (   0.6666667  -0.3333333   1.0000000), wk =   0.2222222
        k(   15) = (   0.5000000  -0.1666667   0.8333333), wk =   0.2222222
        k(   16) = (  -0.3333333  -1.0000000   0.0000000), wk =   0.1111111

     Dense  grid:    27941 G-vectors     FFT dimensions: (  45,  45,  45)

     Estimated max dynamical RAM per process >      15.19 MB

     Estimated total dynamical RAM >     121.53 MB

     Initial potential from superposition of free atoms

     starting charge       6.9948, renormalised to       7.0000
     Starting wfcs are    6 randomized atomic wfcs +    2 random wfcs

     total cpu time spent up to now is        0.8 secs

     Self-consistent Calculation

     iteration #  1     ecut=    80.00 Ry     beta= 0.70
     Davidson diagonalization with overlap
     ethr =  1.00E-02,  avg # of iterations =  6.2

     Threshold (ethr) on eigenvalues was too large:
     Diagonalizing with lowered threshold

     Davidson diagonalization with overlap
     ethr =  3.96E-05,  avg # of iterations =  5.6

     total cpu time spent up to now is        1.3 secs

     total energy              =     -22.71261590 Ry
     estimated scf accuracy    <       0.00293489 Ry

     iteration #  2     ecut=    80.00 Ry     beta= 0.70
     Davidson diagonalization with overlap
     ethr =  4.19E-05,  avg # of iterations =  1.1

     total cpu time spent up to now is        1.5 secs

     total energy              =     -22.71277244 Ry
     estimated scf accuracy    <       0.00018182 Ry

     iteration #  3     ecut=    80.00 Ry     beta= 0.70
     Davidson diagonalization with overlap
     ethr =  2.60E-06,  avg # of iterations =  3.8

     total cpu time spent up to now is        1.7 secs

     total energy              =     -22.71278364 Ry
     estimated scf accuracy    <       0.00000378 Ry

     iteration #  4     ecut=    80.00 Ry     beta= 0.70
     Davidson diagonalization with overlap
     ethr =  5.40E-08,  avg # of iterations =  2.1

     total cpu time spent up to now is        1.9 secs

     total energy              =     -22.71278447 Ry
     estimated scf accuracy    <       0.00000004 Ry

     iteration #  5     ecut=    80.00 Ry     beta= 0.70
     Davidson diagonalization with overlap
     ethr =  5.64E-10,  avg # of iterations =  3.2

     total cpu time spent up to now is        2.1 secs

     End of self-consistent calculation

          k = 0.0000 0.0000 0.0000 (  3479 PWs)   bands (ev):

   -43.0902  -5.7225   4.8406   4.8406   4.8406   8.5080   8.5080   8.5080

          k =-0.1667 0.1667-0.1667 (  3521 PWs)   bands (ev):

   -43.0899  -5.4582   3.1416   4.5318   4.5318   8.6908   9.0062   9.0062

          k =-0.3333 0.3333-0.3333 (  3488 PWs)   bands (ev):

   -43.0893  -4.7669   0.8258   4.0977   4.0977   8.8333   9.0313   9.0313

          k = 0.5000-0.5000 0.5000 (  3498 PWs)   bands (ev):

   -43.0891  -4.2517  -0.2804   3.9318   3.9318   8.7698   8.7698   8.8609

          k = 0.0000 0.3333 0.0000 (  3515 PWs)   bands (ev):

   -43.0898  -5.3704   3.6055   3.9139   3.9139   7.9540   9.7460   9.9736

          k =-0.1667 0.5000-0.1667 (  3502 PWs)   bands (ev):

   -43.0893  -4.8144   1.6250   3.4287   3.5729   7.9256   9.3762  10.5224

          k = 0.6667-0.3333 0.6667 (  3513 PWs)   bands (ev):

   -43.0890  -4.1576   0.0994   2.9791   3.4104   7.8606   9.9666  10.1358

          k = 0.5000-0.1667 0.5000 (  3500 PWs)   bands (ev):

   -43.0891  -4.3385   0.4461   2.7054   3.8480   8.3428   9.6626  10.1323

          k = 0.3333 0.0000 0.3333 (  3513 PWs)   bands (ev):

   -43.0895  -5.0450   2.0912   3.1592   4.4636   8.9978   9.3343   9.7962

          k = 0.0000 0.6667 0.0000 (  3519 PWs)   bands (ev):

   -43.0891  -4.4513   1.6655   2.8068   2.8068   6.6062   8.0322  12.6163

          k = 0.8333-0.1667 0.8333 (  3485 PWs)   bands (ev):

   -43.0888  -3.9189   0.8065   1.9184   2.6822   6.7037   8.6846  12.6377

          k = 0.6667-0.0000 0.6667 (  3498 PWs)   bands (ev):

   -43.0888  -3.8474   0.5966   1.3757   3.1023   7.3751  10.7969  11.6870

          k = 0.0000-1.0000 0.0000 (  3490 PWs)   bands (ev):

   -43.0887  -3.7635   0.5906   2.3984   2.3984   5.7502   7.7777  14.9930

          k = 0.6667-0.3333 1.0000 (  3503 PWs)   bands (ev):

   -43.0890  -4.2380   0.9827   2.1874   3.0428   8.2471   8.9952  10.6036

          k = 0.5000-0.1667 0.8333 (  3498 PWs)   bands (ev):

   -43.0888  -3.8469   0.4525   1.8845   2.5694   8.3547   9.5080  11.4770

          k =-0.3333-1.0000 0.0000 (  3472 PWs)   bands (ev):

   -43.0887  -3.7021   0.8494   1.7127   1.8665   7.6115   9.0346  12.0034

     the Fermi energy is     2.4720 ev

!    total energy              =     -22.71278449 Ry
     estimated scf accuracy    <          1.3E-09 Ry
     smearing contrib. (-TS)   =       0.00046031 Ry
     internal energy E=F+TS    =     -22.71324481 Ry

     The total energy is F=E-TS. E is the sum of the following terms:
     one-electron contribution =      -8.02076108 Ry
     hartree contribution      =       4.32002797 Ry
     xc contribution           =      -6.26841173 Ry
     ewald contribution        =     -12.74409996 Ry

     convergence has been achieved in   5 iterations

     Forces acting on atoms (cartesian axes, Ry/au):

     atom    1 type  1   force =     0.00000000    0.00000000    0.00000000
     atom    2 type  2   force =    -0.00000000   -0.00000000    0.00000000
     The non-local contrib.  to forces
     atom    1 type  1   force =    -0.00000000    0.00000000   -0.00000000
     atom    2 type  2   force =    -0.00000000    0.00000000    0.00000000
     The ionic contribution  to forces
     atom    1 type  1   force =    -0.00000000   -0.00000000    0.00000000
     atom    2 type  2   force =    -0.00000000    0.00000000   -0.00000000
     The local contribution  to forces
     atom    1 type  1   force =     0.00000000    0.00000000    0.00000000
     atom    2 type  2   force =    -0.00000000    0.00000000   -0.00000000
     The core correction contribution to forces
     atom    1 type  1   force =     0.00000000    0.00000000    0.00000000
     atom    2 type  2   force =    -0.00000000   -0.00000000   -0.00000000
     The Hubbard contrib.    to forces
     atom    1 type  1   force =     0.00000000    0.00000000    0.00000000
     atom    2 type  2   force =     0.00000000    0.00000000    0.00000000
     The SCF correction term to forces
     atom    1 type  1   force =    -0.00000000    0.00000000   -0.00000000
     atom    2 type  2   force =     0.00000000   -0.00000000   -0.00000000

     Total force =     0.000000     Total SCF correction =     0.000000


     Computing stress (Cartesian axis) and pressure

          total   stress  (Ry/bohr**3)                   (kbar)     P=       19.51
   0.00013261   0.00000000  -0.00000000           19.51        0.00       -0.00
   0.00000000   0.00013261   0.00000000            0.00       19.51        0.00
  -0.00000000   0.00000000   0.00013261           -0.00        0.00       19.51


     BFGS Geometry Optimization
     Energy error            =      0.0E+00 Ry
     Gradient error          =      2.9E-32 Ry/Bohr
     Cell gradient error     =      4.8E+02 kbar

     number of scf cycles    =   1
     number of bfgs steps    =   0

     enthalpy           new  =     -21.7278999745 Ry

     new trust radius        =       0.2780036176 bohr
ibrav =      2
 celldm(1) =      9.64655138
Input lattice vectors:
    -0.45917098     0.00000000     0.45917098
     0.00000000     0.45917098     0.45917098
    -0.45917098     0.45917098    -0.00000000
New lattice vectors in INITIAL alat:
    -0.45917098     0.00000000     0.45917098
     0.00000000     0.45917098     0.45917098
    -0.45917098     0.45917098     0.00000000
New lattice vectors in NEW alat (for information only):
    -0.50000000     0.00000000     0.50000000
     0.00000000     0.50000000     0.50000000
    -0.50000000     0.50000000     0.00000000
Discrepancy in bohr =     0.000000    0.000000    0.000000
     new conv_thr            =       0.0000000100 Ry

     new unit-cell volume =    224.41726 a.u.^3 (    33.25521 Ang^3 )
     density =      1.74899 g/cm^3

CELL_PARAMETERS (alat= 10.50431302)
  -0.459170979   0.000000000   0.459170979
   0.000000000   0.459170979   0.459170979
  -0.459170979   0.459170979   0.000000000

ATOMIC_POSITIONS (crystal)
Li            0.2500000000        1.2500000000       -0.7500000000
Si            0.0000000000        0.0000000000       -0.0000000000



     Writing config-only to output data dir ./output/LiSi.save/
     NEW-OLD atomic charge density approx. for the potential
     extrapolated charge    4.96325, renormalised to    7.00000

     total cpu time spent up to now is        3.1 secs

     Self-consistent Calculation

     iteration #  1     ecut=    80.00 Ry     beta= 0.70
     Davidson diagonalization with overlap
     ethr =  1.00E-06,  avg # of iterations =  9.8

     total cpu time spent up to now is        3.6 secs

     total energy              =     -22.57937965 Ry
     estimated scf accuracy    <       0.06414833 Ry

     iteration #  2     ecut=    80.00 Ry     beta= 0.70
     Davidson diagonalization with overlap
     ethr =  9.16E-04,  avg # of iterations =  2.1

     total cpu time spent up to now is        3.8 secs

     total energy              =     -22.68411902 Ry
     estimated scf accuracy    <       0.01833120 Ry

     iteration #  3     ecut=    80.00 Ry     beta= 0.70
     Davidson diagonalization with overlap
     ethr =  2.62E-04,  avg # of iterations =  1.0

     total cpu time spent up to now is        3.9 secs

     total energy              =     -22.68246085 Ry
     estimated scf accuracy    <       0.00396651 Ry

     iteration #  4     ecut=    80.00 Ry     beta= 0.70
     Davidson diagonalization with overlap
     ethr =  5.67E-05,  avg # of iterations =  1.8

     total cpu time spent up to now is        4.1 secs

     total energy              =     -22.68281503 Ry
     estimated scf accuracy    <       0.00000346 Ry

     iteration #  5     ecut=    80.00 Ry     beta= 0.70
     Davidson diagonalization with overlap
     ethr =  4.94E-08,  avg # of iterations =  4.8

     total cpu time spent up to now is        4.3 secs

     total energy              =     -22.68282568 Ry
     estimated scf accuracy    <       0.00000348 Ry

     iteration #  6     ecut=    80.00 Ry     beta= 0.70
     Davidson diagonalization with overlap
     ethr =  4.94E-08,  avg # of iterations =  2.0

     total cpu time spent up to now is        4.5 secs

     total energy              =     -22.68282595 Ry
     estimated scf accuracy    <       0.00000049 Ry

     iteration #  7     ecut=    80.00 Ry     beta= 0.70
     Davidson diagonalization with overlap
     ethr =  7.00E-09,  avg # of iterations =  1.2

     total cpu time spent up to now is        4.6 secs

     End of self-consistent calculation

          k = 0.0000 0.0000 0.0000 (  3479 PWs)   bands (ev):

   -41.2867  -4.7508   7.5484   7.5484   7.5484  10.7096  10.7096  10.7096

          k =-0.1815 0.1815-0.1815 (  3521 PWs)   bands (ev):

   -41.2857  -4.4115   5.2992   7.0658   7.0658  11.4121  11.4121  11.4750

          k =-0.3630 0.3630-0.3630 (  3488 PWs)   bands (ev):

   -41.2837  -3.4782   2.3451   6.4783   6.4783  11.3392  11.3392  11.8731

          k = 0.5445-0.5445 0.5445 (  3498 PWs)   bands (ev):

   -41.2827  -2.6834   0.8243   6.2712   6.2712  10.9680  10.9680  11.9230

          k = 0.0000 0.3630 0.0000 (  3515 PWs)   bands (ev):

   -41.2854  -4.2985   6.1349   6.1471   6.1471  10.2227  12.7662  12.7665

          k =-0.1815 0.5445-0.1815 (  3502 PWs)   bands (ev):

   -41.2837  -3.5540   3.4004   5.5092   5.8495  10.1801  11.8234  13.3485

          k = 0.7259-0.3630 0.7259 (  3513 PWs)   bands (ev):

   -41.2823  -2.5620   1.2996   5.0492   5.5108  10.0332  12.5426  13.2806

          k = 0.5445-0.1815 0.5445 (  3500 PWs)   bands (ev):

   -41.2827  -2.8533   1.7937   4.6588   6.1217  10.6276  12.1359  13.3917

          k = 0.3630 0.0000 0.3630 (  3513 PWs)   bands (ev):

   -41.2844  -3.8665   4.0108   5.1673   7.0054  11.5799  11.7694  12.7730

          k = 0.0000 0.7259 0.0000 (  3519 PWs)   bands (ev):

   -41.2827  -3.0524   3.6159   4.6913   4.6913   8.6296  10.2279  16.0290

          k = 0.9074-0.1815 0.9074 (  3485 PWs)   bands (ev):

   -41.2817  -2.2233   2.2572   3.5802   4.5388   8.8292  11.0991  15.8657

          k = 0.7259-0.0000 0.7259 (  3498 PWs)   bands (ev):

   -41.2817  -2.0666   1.7620   3.0376   5.0941   9.5791  13.7118  14.7889

          k = 0.0000-1.0889 0.0000 (  3490 PWs)   bands (ev):

   -41.2813  -1.9756   1.9878   4.1739   4.1739   7.6375  10.0454  18.7254

          k = 0.7259-0.3630 1.0889 (  3503 PWs)   bands (ev):

   -41.2823  -2.7197   2.5190   3.9546   5.0168  10.7406  11.3692  13.5682

          k = 0.5445-0.1815 0.9074 (  3498 PWs)   bands (ev):

   -41.2817  -2.0652   1.6342   3.6285   4.3849  10.7791  12.2311  14.4223

          k =-0.3630-1.0889 0.0000 (  3472 PWs)   bands (ev):

   -41.2813  -1.8383   2.1816   3.1188   3.6755  10.0602  11.4417  15.2922

     the Fermi energy is     4.3104 ev

!    total energy              =     -22.68282600 Ry
     estimated scf accuracy    <          9.5E-09 Ry
     smearing contrib. (-TS)   =       0.00027866 Ry
     internal energy E=F+TS    =     -22.68310467 Ry

     The total energy is F=E-TS. E is the sum of the following terms:
     one-electron contribution =      -6.42799311 Ry
     hartree contribution      =       4.02928078 Ry
     xc contribution           =      -6.40709983 Ry
     ewald contribution        =     -13.87729251 Ry

     convergence has been achieved in   7 iterations

     Forces acting on atoms (cartesian axes, Ry/au):

     atom    1 type  1   force =     0.00000000   -0.00000000    0.00000000
     atom    2 type  2   force =     0.00000000    0.00000000    0.00000000
     The non-local contrib.  to forces
     atom    1 type  1   force =    -0.00000000    0.00000000   -0.00000000
     atom    2 type  2   force =     0.00000000   -0.00000000    0.00000000
     The ionic contribution  to forces
     atom    1 type  1   force =    -0.00000000   -0.00000000    0.00000000
     atom    2 type  2   force =    -0.00000000    0.00000000   -0.00000000
     The local contribution  to forces
     atom    1 type  1   force =    -0.00000000   -0.00000000   -0.00000000
     atom    2 type  2   force =     0.00000000   -0.00000000    0.00000000
     The core correction contribution to forces
     atom    1 type  1   force =     0.00000000    0.00000000    0.00000000
     atom    2 type  2   force =    -0.00000000    0.00000000    0.00000000
     The Hubbard contrib.    to forces
     atom    1 type  1   force =     0.00000000    0.00000000    0.00000000
     atom    2 type  2   force =     0.00000000    0.00000000    0.00000000
     The SCF correction term to forces
     atom    1 type  1   force =     0.00000000    0.00000000   -0.00000000
     atom    2 type  2   force =    -0.00000000    0.00000000    0.00000000

     Total force =     0.000000     Total SCF correction =     0.000000


     Computing stress (Cartesian axis) and pressure

          total   stress  (Ry/bohr**3)                   (kbar)     P=      135.90
   0.00092383   0.00000000   0.00000000          135.90        0.00        0.00
   0.00000000   0.00092383  -0.00000000            0.00      135.90       -0.00
   0.00000000  -0.00000000   0.00092383            0.00       -0.00      135.90

     Energy error            =      1.9E-01 Ry
     Gradient error          =      3.0E-31 Ry/Bohr
     Cell gradient error     =      3.6E+02 kbar

     number of scf cycles    =   2
     number of bfgs steps    =   1

     enthalpy           old  =     -21.7278999745 Ry
     enthalpy           new  =     -21.9200472424 Ry

     CASE: enthalpy          _new < enthalpy          _old

     new trust radius        =       0.3996169675 bohr
ibrav =      2
 celldm(1) =      8.35990892
Input lattice vectors:
    -0.39792745    -0.00000000     0.39792745
     0.00000000     0.39792745     0.39792745
    -0.39792745     0.39792745    -0.00000000
New lattice vectors in INITIAL alat:
    -0.39792745     0.00000000     0.39792745
     0.00000000     0.39792745     0.39792745
    -0.39792745     0.39792745     0.00000000
New lattice vectors in NEW alat (for information only):
    -0.50000000     0.00000000     0.50000000
     0.00000000     0.50000000     0.50000000
    -0.50000000     0.50000000     0.00000000
Discrepancy in bohr =     0.000000    0.000000    0.000000
     new conv_thr            =            1.0E-10 Ry

     new unit-cell volume =    146.06449 a.u.^3 (    21.64452 Ang^3 )
     density =      2.68719 g/cm^3

CELL_PARAMETERS (alat= 10.50431302)
  -0.397927447   0.000000000   0.397927447
   0.000000000   0.397927447   0.397927447
  -0.397927447   0.397927447   0.000000000

ATOMIC_POSITIONS (crystal)
Li            0.2500000000        1.2500000000       -0.7500000000
Si           -0.0000000000        0.0000000000        0.0000000000



     Writing config-only to output data dir ./output/LiSi.save/
     NEW-OLD atomic charge density approx. for the potential

     negative rho (up, down):  4.835E-03 0.000E+00
     extrapolated charge    3.24779, renormalised to    7.00000

     total cpu time spent up to now is        5.6 secs

     Self-consistent Calculation

     iteration #  1     ecut=    80.00 Ry     beta= 0.70
     Davidson diagonalization with overlap
     ethr =  1.00E-06,  avg # of iterations = 10.0

     total cpu time spent up to now is        6.0 secs

     total energy              =     -22.14356661 Ry
     estimated scf accuracy    <       0.45574624 Ry

     iteration #  2     ecut=    80.00 Ry     beta= 0.70
     Davidson diagonalization with overlap
     ethr =  6.51E-03,  avg # of iterations =  2.0

     total cpu time spent up to now is        6.2 secs

     total energy              =     -22.50372818 Ry
     estimated scf accuracy    <       0.08855129 Ry

     iteration #  3     ecut=    80.00 Ry     beta= 0.70
     Davidson diagonalization with overlap
     ethr =  1.27E-03,  avg # of iterations =  1.0

     total cpu time spent up to now is        6.3 secs

     total energy              =     -22.50144309 Ry
     estimated scf accuracy    <       0.01060870 Ry

     iteration #  4     ecut=    80.00 Ry     beta= 0.70
     Davidson diagonalization with overlap
     ethr =  1.52E-04,  avg # of iterations =  2.0

     total cpu time spent up to now is        6.4 secs

     total energy              =     -22.50286243 Ry
     estimated scf accuracy    <       0.00007633 Ry

     iteration #  5     ecut=    80.00 Ry     beta= 0.70
     Davidson diagonalization with overlap
     ethr =  1.09E-06,  avg # of iterations =  5.1

     total cpu time spent up to now is        6.6 secs

     total energy              =     -22.50287472 Ry
     estimated scf accuracy    <       0.00000027 Ry

     iteration #  6     ecut=    80.00 Ry     beta= 0.70
     Davidson diagonalization with overlap
     ethr =  3.89E-09,  avg # of iterations =  2.6

     total cpu time spent up to now is        6.8 secs

     total energy              =     -22.50287494 Ry
     estimated scf accuracy    <       0.00000002 Ry

     iteration #  7     ecut=    80.00 Ry     beta= 0.70
     Davidson diagonalization with overlap
     ethr =  2.99E-10,  avg # of iterations =  2.0

     total cpu time spent up to now is        7.0 secs

     total energy              =     -22.50287495 Ry
     estimated scf accuracy    <          1.6E-09 Ry

     iteration #  8     ecut=    80.00 Ry     beta= 0.70
     Davidson diagonalization with overlap
     ethr =  2.27E-11,  avg # of iterations =  1.6

     total cpu time spent up to now is        7.1 secs

     End of self-consistent calculation

          k = 0.0000 0.0000 0.0000 (  3479 PWs)   bands (ev):

   -38.0487  -2.3724  13.7298  13.7298  13.7298  15.7037  15.7037  15.7037

          k =-0.2094 0.2094-0.2094 (  3521 PWs)   bands (ev):

   -38.0423  -1.9260  10.1870  12.7273  12.7273  16.9898  16.9898  17.7826

          k =-0.4188 0.4188-0.4188 (  3488 PWs)   bands (ev):

   -38.0296  -0.6341   6.1129  11.8792  11.8792  16.4980  16.4980  18.6494

          k = 0.6283-0.6283 0.6283 (  3498 PWs)   bands (ev):

   -38.0233   0.6599   3.8305  11.6345  11.6345  15.8375  15.8375  18.5749

          k = 0.0000 0.4188 0.0000 (  3515 PWs)   bands (ev):

   -38.0402  -1.7744  11.1067  11.1067  12.1753  15.2503  17.4023  19.2254

          k =-0.2094 0.6283-0.2094 (  3502 PWs)   bands (ev):

   -38.0297  -0.7432   7.5943  10.1891  11.1923  15.1143  17.3432  19.6941

          k = 0.8377-0.4188 0.8377 (  3513 PWs)   bands (ev):

   -38.0212   0.8587   4.4199   9.8447  10.2617  14.9408  18.3002  20.1691

          k = 0.6283-0.2094 0.6283 (  3500 PWs)   bands (ev):

   -38.0233   0.3380   5.2149   9.1908  11.2657  15.7878  17.6417  20.6751

          k = 0.4188 0.0000 0.4188 (  3513 PWs)   bands (ev):

   -38.0339  -1.1847   8.4822   9.7652  12.7971  17.2512  17.2954  19.5740

          k = 0.0000 0.8377 0.0000 (  3519 PWs)   bands (ev):

   -38.0235  -0.0041   8.3275   8.9823   8.9823  13.2759  15.3296  23.6148

          k = 1.0471-0.2094 1.0471 (  3485 PWs)   bands (ev):

   -38.0172   1.4337   5.7239   7.5314   8.7827  13.8849  16.5879  22.9150

          k = 0.8377-0.0000 0.8377 (  3498 PWs)   bands (ev):

   -38.0171   1.8905   4.5367   7.0341   9.6165  14.7226  20.1610  21.6927

          k = 0.0000-1.2565 0.0000 (  3490 PWs)   bands (ev):

   -38.0152   1.9246   5.3072   8.2567   8.2567  12.2060  15.3754  26.6064

          k = 0.8377-0.4188 1.2565 (  3503 PWs)   bands (ev):

   -38.0213   0.5450   6.2783   7.9903   9.6487  16.3595  16.7879  20.0175

          k = 0.6283-0.2094 1.0471 (  3498 PWs)   bands (ev):

   -38.0171   1.8878   4.4908   7.4908   8.8612  16.1974  18.4187  20.9303

          k =-0.4188-1.2565 0.0000 (  3472 PWs)   bands (ev):

   -38.0151   2.3750   5.2057   6.2823   8.1608  15.7717  16.8222  22.5281

     the Fermi energy is     8.6980 ev

!    total energy              =     -22.50287495 Ry
     estimated scf accuracy    <          3.0E-11 Ry
     smearing contrib. (-TS)   =      -0.00038111 Ry
     internal energy E=F+TS    =     -22.50249384 Ry

     The total energy is F=E-TS. E is the sum of the following terms:
     one-electron contribution =      -3.36362205 Ry
     hartree contribution      =       3.58850647 Ry
     xc contribution           =      -6.71428332 Ry
     ewald contribution        =     -16.01309493 Ry

     convergence has been achieved in   8 iterations

     Forces acting on atoms (cartesian axes, Ry/au):

     atom    1 type  1   force =    -0.00000000   -0.00000000   -0.00000000
     atom    2 type  2   force =     0.00000000   -0.00000000    0.00000000
     The non-local contrib.  to forces
     atom    1 type  1   force =    -0.00000000    0.00000000   -0.00000000
     atom    2 type  2   force =    -0.00000000   -0.00000000    0.00000000
     The ionic contribution  to forces
     atom    1 type  1   force =     0.00000000    0.00000000    0.00000000
     atom    2 type  2   force =    -0.00000000   -0.00000000    0.00000000
     The local contribution  to forces
     atom    1 type  1   force =    -0.00000000   -0.00000000   -0.00000000
     atom    2 type  2   force =    -0.00000000    0.00000000   -0.00000000
     The core correction contribution to forces
     atom    1 type  1   force =     0.00000000    0.00000000    0.00000000
     atom    2 type  2   force =     0.00000000    0.00000000   -0.00000000
     The Hubbard contrib.    to forces
     atom    1 type  1   force =     0.00000000    0.00000000    0.00000000
     atom    2 type  2   force =     0.00000000    0.00000000    0.00000000
     The SCF correction term to forces
     atom    1 type  1   force =    -0.00000000    0.00000000    0.00000000
     atom    2 type  2   force =    -0.00000000    0.00000000   -0.00000000

     Total force =     0.000000     Total SCF correction =     0.000000


     Computing stress (Cartesian axis) and pressure

          total   stress  (Ry/bohr**3)                   (kbar)     P=      679.94
   0.00462215   0.00000000  -0.00000000          679.94        0.00       -0.00
   0.00000000   0.00462215   0.00000000            0.00      679.94        0.00
  -0.00000000   0.00000000   0.00462215           -0.00        0.00      679.94

     Energy error            =      8.6E-02 Ry
     Gradient error          =      3.7E-31 Ry/Bohr
     Cell gradient error     =      1.8E+02 kbar

     number of scf cycles    =   3
     number of bfgs steps    =   2

     enthalpy           old  =     -21.9200472424 Ry
     enthalpy           new  =     -22.0064118345 Ry

     CASE: enthalpy          _new < enthalpy          _old

     new trust radius        =       0.1007021056 bohr
ibrav =      2
 celldm(1) =      8.70819633
Input lattice vectors:
    -0.41450575    -0.00000000     0.41450575
    -0.00000000     0.41450575     0.41450575
    -0.41450575     0.41450575     0.00000000
New lattice vectors in INITIAL alat:
    -0.41450575     0.00000000     0.41450575
     0.00000000     0.41450575     0.41450575
    -0.41450575     0.41450575     0.00000000
New lattice vectors in NEW alat (for information only):
    -0.50000000     0.00000000     0.50000000
     0.00000000     0.50000000     0.50000000
    -0.50000000     0.50000000     0.00000000
Discrepancy in bohr =     0.000000    0.000000    0.000000
     new conv_thr            =            1.0E-10 Ry

     new unit-cell volume =    165.09147 a.u.^3 (    24.46403 Ang^3 )
     density =      2.37749 g/cm^3

CELL_PARAMETERS (alat= 10.50431302)
  -0.414505752   0.000000000   0.414505752
   0.000000000   0.414505752   0.414505752
  -0.414505752   0.414505752   0.000000000

ATOMIC_POSITIONS (crystal)
Li            0.2500000000        1.2500000000       -0.7500000000
Si           -0.0000000000        0.0000000000       -0.0000000000



     Writing config-only to output data dir ./output/LiSi.save/
     NEW-OLD atomic charge density approx. for the potential
     extrapolated charge    7.80616, renormalised to    7.00000

     total cpu time spent up to now is        8.0 secs

     Self-consistent Calculation

     iteration #  1     ecut=    80.00 Ry     beta= 0.70
     Davidson diagonalization with overlap
     ethr =  1.00E-06,  avg # of iterations =  7.0

     total cpu time spent up to now is        8.3 secs

     total energy              =     -22.56113547 Ry
     estimated scf accuracy    <       0.00267225 Ry

     iteration #  2     ecut=    80.00 Ry     beta= 0.70
     Davidson diagonalization with overlap
     ethr =  3.82E-05,  avg # of iterations =  3.4

     total cpu time spent up to now is        8.5 secs

     total energy              =     -22.57613256 Ry
     estimated scf accuracy    <       0.00388910 Ry

     iteration #  3     ecut=    80.00 Ry     beta= 0.70
     Davidson diagonalization with overlap
     ethr =  3.82E-05,  avg # of iterations =  1.0

     total cpu time spent up to now is        8.7 secs

     total energy              =     -22.57532261 Ry
     estimated scf accuracy    <       0.00147755 Ry

     iteration #  4     ecut=    80.00 Ry     beta= 0.70
     Davidson diagonalization with overlap
     ethr =  2.11E-05,  avg # of iterations =  1.1

     total cpu time spent up to now is        8.9 secs

     total energy              =     -22.57542354 Ry
     estimated scf accuracy    <       0.00003079 Ry

     iteration #  5     ecut=    80.00 Ry     beta= 0.70
     Davidson diagonalization with overlap
     ethr =  4.40E-07,  avg # of iterations =  2.2

     total cpu time spent up to now is        9.0 secs

     total energy              =     -22.57542892 Ry
     estimated scf accuracy    <       0.00000865 Ry

     iteration #  6     ecut=    80.00 Ry     beta= 0.70
     Davidson diagonalization with overlap
     ethr =  1.24E-07,  avg # of iterations =  1.0

     total cpu time spent up to now is        9.2 secs

     total energy              =     -22.57542926 Ry
     estimated scf accuracy    <       0.00000039 Ry

     iteration #  7     ecut=    80.00 Ry     beta= 0.70
     Davidson diagonalization with overlap
     ethr =  5.59E-09,  avg # of iterations =  2.1

     total cpu time spent up to now is        9.3 secs

     total energy              =     -22.57542933 Ry
     estimated scf accuracy    <       0.00000016 Ry

     iteration #  8     ecut=    80.00 Ry     beta= 0.70
     Davidson diagonalization with overlap
     ethr =  2.24E-09,  avg # of iterations =  1.1

     total cpu time spent up to now is        9.5 secs

     total energy              =     -22.57542932 Ry
     estimated scf accuracy    <       0.00000002 Ry

     iteration #  9     ecut=    80.00 Ry     beta= 0.70
     Davidson diagonalization with overlap
     ethr =  2.48E-10,  avg # of iterations =  2.0

     total cpu time spent up to now is        9.7 secs

     End of self-consistent calculation

          k = 0.0000 0.0000 0.0000 (  3479 PWs)   bands (ev):

   -38.9908  -3.1713  11.7581  11.7581  11.7581  14.0604  14.0604  14.0604

          k =-0.2010 0.2010-0.2010 (  3521 PWs)   bands (ev):

   -38.9869  -2.7509   8.6162  10.9291  10.9291  15.1523  15.1523  15.7272

          k =-0.4021 0.4021-0.4021 (  3488 PWs)   bands (ev):

   -38.9791  -1.5455   4.8534  10.1443  10.1443  14.8323  14.8323  16.4786

          k = 0.6031-0.6031 0.6031 (  3498 PWs)   bands (ev):

   -38.9752  -0.3719   2.7705   9.9019   9.9019  14.2721  14.2721  16.4730

          k =-0.0000 0.4021-0.0000 (  3515 PWs)   bands (ev):

   -38.9856  -2.6092   9.5246   9.5246  10.1926  13.6308  15.7752  17.1157

          k =-0.2010 0.6031-0.2010 (  3502 PWs)   bands (ev):

   -38.9791  -1.6503   6.2228   8.6861   9.4512  13.5321  15.5590  17.6497

          k = 0.8042-0.4021 0.8042 (  3513 PWs)   bands (ev):

   -38.9739  -0.2066   3.3450   8.2899   8.7331  13.3474  16.4461  17.9749

          k = 0.6031-0.2010 0.6031 (  3500 PWs)   bands (ev):

   -38.9752  -0.6654   4.0569   7.7177   9.6129  14.1158  15.8708  18.3363

          k = 0.4021 0.0000 0.4021 (  3513 PWs)   bands (ev):

   -38.9817  -2.0584   7.0304   8.2754  10.9368  15.4523  15.4736  17.3778

          k =-0.0000 0.8042-0.0000 (  3519 PWs)   bands (ev):

   -38.9753  -0.9769   6.7871   7.5955   7.5955  11.7537  13.6570  21.1803

          k = 1.0052-0.2010 1.0052 (  3485 PWs)   bands (ev):

   -38.9714   0.2854   4.5836   6.2293   7.4089  12.2115  14.8083  20.6679

          k = 0.8042-0.0000 0.8042 (  3498 PWs)   bands (ev):

   -38.9713   0.6370   3.6137   5.7138   8.1576  13.0354  18.0927  19.4820

          k = 0.0000-1.2063 0.0000 (  3490 PWs)   bands (ev):

   -38.9701   0.6947   4.2199   6.9315   6.9315  10.6811  13.6206  24.1132

          k = 0.8042-0.4021 1.2063 (  3503 PWs)   bands (ev):

   -38.9739  -0.4845   5.0288   6.6916   8.1263  14.5684  15.0061  17.9578

          k = 0.6031-0.2010 1.0052 (  3498 PWs)   bands (ev):

   -38.9713   0.6384   3.5312   6.2656   7.3581  14.4599  16.4095  18.8449

          k =-0.4021-1.2063 0.0000 (  3472 PWs)   bands (ev):

   -38.9701   1.0242   4.2281   5.2568   6.6638  13.9045  15.0899  20.2129

     the Fermi energy is     7.2565 ev

!    total energy              =     -22.57542933 Ry
     estimated scf accuracy    <          7.8E-11 Ry
     smearing contrib. (-TS)   =      -0.00013584 Ry
     internal energy E=F+TS    =     -22.57529348 Ry

     The total energy is F=E-TS. E is the sum of the following terms:
     one-electron contribution =      -4.29488039 Ry
     hartree contribution      =       3.70858479 Ry
     xc contribution           =      -6.61635238 Ry
     ewald contribution        =     -15.37264550 Ry

     convergence has been achieved in   9 iterations

     Forces acting on atoms (cartesian axes, Ry/au):

     atom    1 type  1   force =     0.00000000   -0.00000000    0.00000000
     atom    2 type  2   force =    -0.00000000    0.00000000   -0.00000000
     The non-local contrib.  to forces
     atom    1 type  1   force =     0.00000000    0.00000000    0.00000000
     atom    2 type  2   force =     0.00000000    0.00000000    0.00000000
     The ionic contribution  to forces
     atom    1 type  1   force =    -0.00000000   -0.00000000   -0.00000000
     atom    2 type  2   force =     0.00000000    0.00000000    0.00000000
     The local contribution  to forces
     atom    1 type  1   force =     0.00000000   -0.00000000   -0.00000000
     atom    2 type  2   force =    -0.00000000   -0.00000000    0.00000000
     The core correction contribution to forces
     atom    1 type  1   force =     0.00000000    0.00000000    0.00000000
     atom    2 type  2   force =     0.00000000    0.00000000   -0.00000000
     The Hubbard contrib.    to forces
     atom    1 type  1   force =     0.00000000    0.00000000    0.00000000
     atom    2 type  2   force =     0.00000000    0.00000000    0.00000000
     The SCF correction term to forces
     atom    1 type  1   force =     0.00000000   -0.00000000    0.00000000
     atom    2 type  2   force =     0.00000000    0.00000000    0.00000000

     Total force =     0.000000     Total SCF correction =     0.000000


     Computing stress (Cartesian axis) and pressure

          total   stress  (Ry/bohr**3)                   (kbar)     P=      457.90
   0.00311272  -0.00000000   0.00000000          457.90       -0.00        0.00
  -0.00000000   0.00311272  -0.00000000           -0.00      457.90       -0.00
   0.00000000  -0.00000000   0.00311272            0.00       -0.00      457.90

     Energy error            =      7.9E-03 Ry
     Gradient error          =      2.6E-31 Ry/Bohr
     Cell gradient error     =      4.2E+01 kbar

     number of scf cycles    =   4
     number of bfgs steps    =   3

     enthalpy           old  =     -22.0064118345 Ry
     enthalpy           new  =     -22.0142948124 Ry

     CASE: enthalpy          _new < enthalpy          _old

     new trust radius        =       0.0208103498 bohr
ibrav =      2
 celldm(1) =      8.63767585
Input lattice vectors:
    -0.41114901     0.00000000     0.41114901
    -0.00000000     0.41114901     0.41114901
    -0.41114901     0.41114901    -0.00000000
New lattice vectors in INITIAL alat:
    -0.41114901     0.00000000     0.41114901
     0.00000000     0.41114901     0.41114901
    -0.41114901     0.41114901     0.00000000
New lattice vectors in NEW alat (for information only):
    -0.50000000     0.00000000     0.50000000
     0.00000000     0.50000000     0.50000000
    -0.50000000     0.50000000     0.00000000
Discrepancy in bohr =     0.000000    0.000000    0.000000
     new conv_thr            =            1.0E-10 Ry

     new unit-cell volume =    161.11305 a.u.^3 (    23.87449 Ang^3 )
     density =      2.43619 g/cm^3

CELL_PARAMETERS (alat= 10.50431302)
  -0.411149013   0.000000000   0.411149013
   0.000000000   0.411149013   0.411149013
  -0.411149013   0.411149013   0.000000000

ATOMIC_POSITIONS (crystal)
Li            0.2500000000        1.2500000000       -0.7500000000
Si           -0.0000000000        0.0000000000        0.0000000000



     Writing config-only to output data dir ./output/LiSi.save/
     NEW-OLD atomic charge density approx. for the potential
     extrapolated charge    6.82727, renormalised to    7.00000

     total cpu time spent up to now is       10.6 secs

     Self-consistent Calculation

     iteration #  1     ecut=    80.00 Ry     beta= 0.70
     Davidson diagonalization with overlap
     ethr =  1.00E-06,  avg # of iterations =  4.1

     total cpu time spent up to now is       10.8 secs

     total energy              =     -22.56183442 Ry
     estimated scf accuracy    <       0.00018132 Ry

     iteration #  2     ecut=    80.00 Ry     beta= 0.70
     Davidson diagonalization with overlap
     ethr =  2.59E-06,  avg # of iterations =  2.9

     total cpu time spent up to now is       11.0 secs

     total energy              =     -22.56255279 Ry
     estimated scf accuracy    <       0.00017147 Ry

     iteration #  3     ecut=    80.00 Ry     beta= 0.70
     Davidson diagonalization with overlap
     ethr =  2.45E-06,  avg # of iterations =  1.0

     total cpu time spent up to now is       11.1 secs

     total energy              =     -22.56252179 Ry
     estimated scf accuracy    <       0.00005659 Ry

     iteration #  4     ecut=    80.00 Ry     beta= 0.70
     Davidson diagonalization with overlap
     ethr =  8.08E-07,  avg # of iterations =  1.2

     total cpu time spent up to now is       11.3 secs

     total energy              =     -22.56252689 Ry
     estimated scf accuracy    <       0.00000035 Ry

     iteration #  5     ecut=    80.00 Ry     beta= 0.70
     Davidson diagonalization with overlap
     ethr =  4.97E-09,  avg # of iterations =  2.1

     total cpu time spent up to now is       11.4 secs

     total energy              =     -22.56252703 Ry
     estimated scf accuracy    <          7.4E-09 Ry

     iteration #  6     ecut=    80.00 Ry     beta= 0.70
     Davidson diagonalization with overlap
     ethr =  1.05E-10,  avg # of iterations =  1.9

     total cpu time spent up to now is       11.6 secs

     total energy              =     -22.56252703 Ry
     estimated scf accuracy    <          6.6E-09 Ry

     iteration #  7     ecut=    80.00 Ry     beta= 0.70
     Davidson diagonalization with overlap
     ethr =  9.38E-11,  avg # of iterations =  1.0

     total cpu time spent up to now is       11.7 secs

     total energy              =     -22.56252703 Ry
     estimated scf accuracy    <          7.1E-10 Ry

     iteration #  8     ecut=    80.00 Ry     beta= 0.70
     Davidson diagonalization with overlap
     ethr =  1.02E-11,  avg # of iterations =  2.0

     total cpu time spent up to now is       11.9 secs

     total energy              =     -22.56252703 Ry
     estimated scf accuracy    <          5.0E-10 Ry

     iteration #  9     ecut=    80.00 Ry     beta= 0.70
     Davidson diagonalization with overlap
     ethr =  7.13E-12,  avg # of iterations =  1.8

     total cpu time spent up to now is       12.0 secs

     End of self-consistent calculation

          k = 0.0000 0.0000 0.0000 (  3479 PWs)   bands (ev):

   -38.8043  -3.0209  12.1389  12.1389  12.1389  14.3702  14.3702  14.3702

          k =-0.2027 0.2027-0.2027 (  3521 PWs)   bands (ev):

   -38.7999  -2.5949   8.9173  11.2758  11.2758  15.5002  15.5002  16.1184

          k =-0.4054 0.4054-0.4054 (  3488 PWs)   bands (ev):

   -38.7913  -1.3709   5.0913  10.4771  10.4771  15.1504  15.1504  16.8950

          k = 0.6081-0.6081 0.6081 (  3498 PWs)   bands (ev):

   -38.7870  -0.1705   2.9661  10.2334  10.2334  14.5715  14.5715  16.8782

          k =-0.0000 0.4054-0.0000 (  3515 PWs)   bands (ev):

   -38.7985  -2.4512   9.8286   9.8286  10.5699  13.9402  16.0883  17.5172

          k =-0.2027 0.6081-0.2027 (  3502 PWs)   bands (ev):

   -38.7913  -1.4770   6.4840   8.9741   9.7835  13.8349  15.8997  18.0408

          k = 0.8107-0.4054 0.8107 (  3513 PWs)   bands (ev):

   -38.7856   0.0004   3.5453   8.5870   9.0258  13.6511  16.8007  18.3962

          k = 0.6081-0.2027 0.6081 (  3500 PWs)   bands (ev):

   -38.7870  -0.4716   4.2746   7.9988   9.9297  14.4348  16.2096  18.7843

          k = 0.4054-0.0000 0.4054 (  3513 PWs)   bands (ev):

   -38.7942  -1.8921   7.3077   8.5599  11.2938  15.8045  15.8124  17.7980

          k =-0.0000 0.8107-0.0000 (  3519 PWs)   bands (ev):

   -38.7871  -0.7903   7.0813   7.8606   7.8606  12.0425  13.9748  21.6466

          k = 1.0134-0.2027 1.0134 (  3485 PWs)   bands (ev):

   -38.7828   0.5074   4.8003   6.4763   7.6714  12.5283  15.1478  21.0993

          k = 0.8107-0.0000 0.8107 (  3498 PWs)   bands (ev):

   -38.7828   0.8791   3.7877   5.9641   8.4367  13.3559  18.4889  19.9063

          k =-0.0000-1.2161-0.0000 (  3490 PWs)   bands (ev):

   -38.7814   0.9322   4.4269   7.1844   7.1844  10.9688  13.9535  24.5928

          k = 0.8107-0.4054 1.2161 (  3503 PWs)   bands (ev):

   -38.7856  -0.2860   5.2654   6.9404   8.4153  14.9141  15.3426  18.3527

          k = 0.6081-0.2027 1.0134 (  3498 PWs)   bands (ev):

   -38.7828   0.8801   3.7113   6.5012   7.6416  14.7930  16.7926  19.2444

          k =-0.4054-1.2161 0.0000 (  3472 PWs)   bands (ev):

   -38.7814   1.2835   4.4149   5.4522   6.9468  14.2599  15.4212  20.6568

     the Fermi energy is     7.5321 ev

!    total energy              =     -22.56252703 Ry
     estimated scf accuracy    <          8.2E-13 Ry
     smearing contrib. (-TS)   =      -0.00020077 Ry
     internal energy E=F+TS    =     -22.56232626 Ry

     The total energy is F=E-TS. E is the sum of the following terms:
     one-electron contribution =      -4.11333901 Ry
     hartree contribution      =       3.68434463 Ry
     xc contribution           =      -6.63517966 Ry
     ewald contribution        =     -15.49815222 Ry

     convergence has been achieved in   9 iterations

     Forces acting on atoms (cartesian axes, Ry/au):

     atom    1 type  1   force =     0.00000000    0.00000000    0.00000000
     atom    2 type  2   force =     0.00000000    0.00000000    0.00000000
     The non-local contrib.  to forces
     atom    1 type  1   force =    -0.00000000    0.00000000    0.00000000
     atom    2 type  2   force =    -0.00000000   -0.00000000    0.00000000
     The ionic contribution  to forces
     atom    1 type  1   force =    -0.00000000   -0.00000000   -0.00000000
     atom    2 type  2   force =    -0.00000000    0.00000000    0.00000000
     The local contribution  to forces
     atom    1 type  1   force =     0.00000000   -0.00000000   -0.00000000
     atom    2 type  2   force =    -0.00000000   -0.00000000   -0.00000000
     The core correction contribution to forces
     atom    1 type  1   force =     0.00000000    0.00000000    0.00000000
     atom    2 type  2   force =    -0.00000000    0.00000000   -0.00000000
     The Hubbard contrib.    to forces
     atom    1 type  1   force =     0.00000000    0.00000000    0.00000000
     atom    2 type  2   force =     0.00000000    0.00000000    0.00000000
     The SCF correction term to forces
     atom    1 type  1   force =     0.00000000    0.00000000    0.00000000
     atom    2 type  2   force =     0.00000000   -0.00000000    0.00000000

     Total force =     0.000000     Total SCF correction =     0.000000


     Computing stress (Cartesian axis) and pressure

          total   stress  (Ry/bohr**3)                   (kbar)     P=      496.81
   0.00337722   0.00000000   0.00000000          496.81        0.00        0.00
   0.00000000   0.00337722   0.00000000            0.00      496.81        0.00
   0.00000000  -0.00000000   0.00337722            0.00       -0.00      496.81

     Energy error            =      6.2E-04 Ry
     Gradient error          =      0.0E+00 Ry/Bohr
     Cell gradient error     =      3.2E+00 kbar

     number of scf cycles    =   5
     number of bfgs steps    =   4

     enthalpy           old  =     -22.0142948124 Ry
     enthalpy           new  =     -22.0149149070 Ry

     CASE: enthalpy          _new < enthalpy          _old

     new trust radius        =       0.0016712976 bohr
ibrav =      2
 celldm(1) =      8.63198921
Input lattice vectors:
    -0.41087833    -0.00000000     0.41087833
     0.00000000     0.41087833     0.41087833
    -0.41087833     0.41087833    -0.00000000
New lattice vectors in INITIAL alat:
    -0.41087833     0.00000000     0.41087833
     0.00000000     0.41087833     0.41087833
    -0.41087833     0.41087833     0.00000000
New lattice vectors in NEW alat (for information only):
    -0.50000000     0.00000000     0.50000000
     0.00000000     0.50000000     0.50000000
    -0.50000000     0.50000000     0.00000000
Discrepancy in bohr =     0.000000    0.000000    0.000000
     new conv_thr            =            1.0E-10 Ry

     new unit-cell volume =    160.79505 a.u.^3 (    23.82737 Ang^3 )
     density =      2.44101 g/cm^3

CELL_PARAMETERS (alat= 10.50431302)
  -0.410878332   0.000000000   0.410878332
   0.000000000   0.410878332   0.410878332
  -0.410878332   0.410878332   0.000000000

ATOMIC_POSITIONS (crystal)
Li            0.2500000000        1.2500000000       -0.7500000000
Si           -0.0000000000        0.0000000000        0.0000000000



     Writing config-only to output data dir ./output/LiSi.save/
     NEW-OLD atomic charge density approx. for the potential
     extrapolated charge    6.98617, renormalised to    7.00000

     total cpu time spent up to now is       13.0 secs

     Self-consistent Calculation

     iteration #  1     ecut=    80.00 Ry     beta= 0.70
     Davidson diagonalization with overlap
     ethr =  1.00E-06,  avg # of iterations =  2.0

     Threshold (ethr) on eigenvalues was too large:
     Diagonalizing with lowered threshold

     Davidson diagonalization with overlap
     ethr =  1.56E-08,  avg # of iterations =  2.0

     total cpu time spent up to now is       13.2 secs

     total energy              =     -22.56144517 Ry
     estimated scf accuracy    <       0.00000109 Ry

     iteration #  2     ecut=    80.00 Ry     beta= 0.70
     Davidson diagonalization with overlap
     ethr =  1.55E-08,  avg # of iterations =  2.6

     total cpu time spent up to now is       13.4 secs

     total energy              =     -22.56144973 Ry
     estimated scf accuracy    <       0.00000111 Ry

     iteration #  3     ecut=    80.00 Ry     beta= 0.70
     Davidson diagonalization with overlap
     ethr =  1.55E-08,  avg # of iterations =  1.0

     total cpu time spent up to now is       13.5 secs

     total energy              =     -22.56144953 Ry
     estimated scf accuracy    <       0.00000037 Ry

     iteration #  4     ecut=    80.00 Ry     beta= 0.70
     Davidson diagonalization with overlap
     ethr =  5.34E-09,  avg # of iterations =  1.0

     total cpu time spent up to now is       13.7 secs

     total energy              =     -22.56144956 Ry
     estimated scf accuracy    <          6.4E-09 Ry

     iteration #  5     ecut=    80.00 Ry     beta= 0.70
     Davidson diagonalization with overlap
     ethr =  9.08E-11,  avg # of iterations =  2.0

     total cpu time spent up to now is       13.8 secs

     End of self-consistent calculation

          k = 0.0000 0.0000 0.0000 (  3479 PWs)   bands (ev):

   -38.7892  -3.0086  12.1701  12.1701  12.1701  14.3956  14.3956  14.3956

          k =-0.2028 0.2028-0.2028 (  3521 PWs)   bands (ev):

   -38.7849  -2.5821   8.9419  11.3041  11.3041  15.5288  15.5288  16.1505

          k =-0.4056 0.4056-0.4056 (  3488 PWs)   bands (ev):

   -38.7761  -1.3566   5.1109  10.5043  10.5043  15.1764  15.1764  16.9291

          k = 0.6085-0.6085 0.6085 (  3498 PWs)   bands (ev):

   -38.7718  -0.1541   2.9823  10.2606  10.2606  14.5960  14.5960  16.9113

          k =-0.0000 0.4056-0.0000 (  3515 PWs)   bands (ev):

   -38.7834  -2.4382   9.8534   9.8534  10.6009  13.9656  16.1139  17.5501

          k =-0.2028 0.6085-0.2028 (  3502 PWs)   bands (ev):

   -38.7762  -1.4628   6.5054   8.9977   9.8107  13.8596  15.9276  18.0728

          k = 0.8113-0.4056 0.8113 (  3513 PWs)   bands (ev):

   -38.7704   0.0172   3.5618   8.6113   9.0498  13.6760  16.8298  18.4307

          k = 0.6085-0.2028 0.6085 (  3500 PWs)   bands (ev):

   -38.7718  -0.4558   4.2925   8.0219   9.9556  14.4610  16.2374  18.8210

          k = 0.4056-0.0000 0.4056 (  3513 PWs)   bands (ev):

   -38.7791  -1.8784   7.3304   8.5832  11.3230  15.8333  15.8401  17.8324

          k =-0.0000 0.8113-0.0000 (  3519 PWs)   bands (ev):

   -38.7719  -0.7751   7.1054   7.8823   7.8823  12.0662  14.0009  21.6848

          k = 1.0141-0.2028 1.0141 (  3485 PWs)   bands (ev):

   -38.7676   0.5256   4.8181   6.4966   7.6929  12.5543  15.1757  21.1346

          k = 0.8113-0.0000 0.8113 (  3498 PWs)   bands (ev):

   -38.7675   0.8989   3.8020   5.9847   8.4595  13.3822  18.5213  19.9410

          k =-0.0000-1.2169-0.0000 (  3490 PWs)   bands (ev):

   -38.7662   0.9516   4.4439   7.2051   7.2051  10.9925  13.9808  24.6320

          k = 0.8113-0.4056 1.2169 (  3503 PWs)   bands (ev):

   -38.7704  -0.2697   5.2848   6.9608   8.4391  14.9424  15.3702  18.3850

          k = 0.6085-0.2028 1.0141 (  3498 PWs)   bands (ev):

   -38.7675   0.8999   3.7261   6.5205   7.6649  14.8202  16.8240  19.2771

          k =-0.4056-1.2169-0.0000 (  3472 PWs)   bands (ev):

   -38.7661   1.3048   4.4302   5.4682   6.9700  14.2890  15.4484  20.6931

     the Fermi energy is     7.5547 ev

!    total energy              =     -22.56144956 Ry
     estimated scf accuracy    <          3.7E-11 Ry
     smearing contrib. (-TS)   =      -0.00020590 Ry
     internal energy E=F+TS    =     -22.56124366 Ry

     The total energy is F=E-TS. E is the sum of the following terms:
     one-electron contribution =      -4.09855152 Ry
     hartree contribution      =       3.68238989 Ry
     xc contribution           =      -6.63671984 Ry
     ewald contribution        =     -15.50836219 Ry

     convergence has been achieved in   5 iterations

     Forces acting on atoms (cartesian axes, Ry/au):

     atom    1 type  1   force =     0.00000000    0.00000000    0.00000000
     atom    2 type  2   force =     0.00000000   -0.00000000    0.00000000
     The non-local contrib.  to forces
     atom    1 type  1   force =    -0.00000000    0.00000000   -0.00000000
     atom    2 type  2   force =     0.00000000    0.00000000   -0.00000000
     The ionic contribution  to forces
     atom    1 type  1   force =    -0.00000000   -0.00000000   -0.00000000
     atom    2 type  2   force =     0.00000000    0.00000000    0.00000000
     The local contribution  to forces
     atom    1 type  1   force =     0.00000000   -0.00000000   -0.00000000
     atom    2 type  2   force =     0.00000000   -0.00000000    0.00000000
     The core correction contribution to forces
     atom    1 type  1   force =     0.00000000    0.00000000    0.00000000
     atom    2 type  2   force =    -0.00000000    0.00000000    0.00000000
     The Hubbard contrib.    to forces
     atom    1 type  1   force =     0.00000000    0.00000000    0.00000000
     atom    2 type  2   force =     0.00000000    0.00000000    0.00000000
     The SCF correction term to forces
     atom    1 type  1   force =     0.00000000   -0.00000000    0.00000000
     atom    2 type  2   force =    -0.00000000    0.00000000   -0.00000000

     Total force =     0.000000     Total SCF correction =     0.000000


     Computing stress (Cartesian axis) and pressure

          total   stress  (Ry/bohr**3)                   (kbar)     P=      500.07
   0.00339939   0.00000000  -0.00000000          500.07        0.00       -0.00
  -0.00000000   0.00339939  -0.00000000           -0.00      500.07       -0.00
  -0.00000000  -0.00000000   0.00339939           -0.00       -0.00      500.07

     Energy error            =      3.4E-06 Ry
     Gradient error          =      2.0E-32 Ry/Bohr
     Cell gradient error     =      6.8E-02 kbar
ibrav =      2
 celldm(1) =      8.63198921
Input lattice vectors:
    -0.41087833     0.00000000     0.41087833
     0.00000000     0.41087833     0.41087833
    -0.41087833     0.41087833     0.00000000
New lattice vectors in INITIAL alat:
    -0.41087833     0.00000000     0.41087833
     0.00000000     0.41087833     0.41087833
    -0.41087833     0.41087833     0.00000000
New lattice vectors in NEW alat (for information only):
    -0.50000000     0.00000000     0.50000000
     0.00000000     0.50000000     0.50000000
    -0.50000000     0.50000000     0.00000000
Discrepancy in bohr =     0.000000    0.000000    0.000000

     bfgs converged in   6 scf cycles and   5 bfgs steps
     (criteria: energy <  1.0E-04 Ry, force <  1.0E-03 Ry/Bohr, cell <  1.0E+00 kbar)

     End of BFGS Geometry Optimization

     Final enthalpy           =     -22.0149182909 Ry

     File ./output/LiSi.bfgs deleted, as requested
Begin final coordinates
     new unit-cell volume =    160.79505 a.u.^3 (    23.82737 Ang^3 )
     density =      2.44101 g/cm^3

CELL_PARAMETERS (alat= 10.50431302)
  -0.410878332   0.000000000   0.410878332
   0.000000000   0.410878332   0.410878332
  -0.410878332   0.410878332   0.000000000

ATOMIC_POSITIONS (crystal)
Li            0.2500000000        1.2500000000       -0.7500000000
Si           -0.0000000000        0.0000000000        0.0000000000
End final coordinates



     Writing config-only to output data dir ./output/LiSi.save/

     Final scf calculation at the relaxed structure.
     The G-vectors are recalculated for the final unit cell
     Results may differ from those at the preceding step.

     Parallelization info
     --------------------
     sticks:   dense  smooth     PW     G-vecs:    dense   smooth      PW
     Min         102     102     31                 1947     1947     329
     Max         103     103     32                 1950     1950     331
     Sum         823     823    253                15593    15593    2637

     Using Slab Decomposition



     bravais-lattice index     =            2
     lattice parameter (alat)  =      10.5043  a.u.
     unit-cell volume          =     160.7951 (a.u.)^3
     number of atoms/cell      =            2
     number of atomic types    =            2
     number of electrons       =         7.00
     number of Kohn-Sham states=            8
     kinetic-energy cutoff     =      80.0000  Ry
     charge density cutoff     =     320.0000  Ry
     scf convergence threshold =      1.0E-10
     mixing beta               =       0.7000
     number of iterations used =            8  plain     mixing
     press convergence thresh. =      1.0E+00
     Exchange-correlation= PBE
                           (   1   4   3   4   0   0   0)

     celldm(1)=  10.504313  celldm(2)=   0.000000  celldm(3)=   0.000000
     celldm(4)=   0.000000  celldm(5)=   0.000000  celldm(6)=   0.000000

     crystal axes: (cart. coord. in units of alat)
               a(1) = (  -0.410878   0.000000   0.410878 )  
               a(2) = (   0.000000   0.410878   0.410878 )  
               a(3) = (  -0.410878   0.410878   0.000000 )  

     reciprocal axes: (cart. coord. in units 2 pi/alat)
               b(1) = ( -1.216905 -1.216905  1.216905 )  
               b(2) = (  1.216905  1.216905  1.216905 )  
               b(3) = ( -1.216905  1.216905 -1.216905 )  


     PseudoPot. # 1 for Li read from file:
     ../pseudo/Li_ONCV_PBE_sr.upf
     MD5 check sum: 50ff420e78310ffa21704f3361e624a4
     Pseudo is Norm-conserving, Zval =  3.0
     Generated using ONCVPSP code by D. R. Hamann
     Using radial grid of 1944 points,  4 beta functions with: 
                l(1) =   0
                l(2) =   0
                l(3) =   1
                l(4) =   1

     PseudoPot. # 2 for Si read from file:
     ../pseudo/Si_ONCV_PBE_sr.upf
     MD5 check sum: e543d271109d17c80368dfa7c482276d
     Pseudo is Norm-conserving + core correction, Zval =  4.0
     Generated using ONCVPSP code by D. R. Hamann
     Using radial grid of 1510 points,  6 beta functions with: 
                l(1) =   0
                l(2) =   0
                l(3) =   1
                l(4) =   1
                l(5) =   2
                l(6) =   2

     atomic species   valence    mass     pseudopotential
        Li             3.00     6.94100     Li( 1.00)
        Si             4.00    28.08550     Si( 1.00)

     24 Sym. Ops. (no inversion) found



   Cartesian axes

     site n.     atom                  positions (alat units)
         1           Li  tau(   1) = (   0.2054392   0.2054392   0.6163175  )
         2           Si  tau(   2) = (  -0.0000000   0.0000000  -0.0000000  )

     number of k points=    16  Marzari-Vanderbilt smearing, width (Ry)=  0.0200
                       cart. coord. in units 2pi/alat
        k(    1) = (   0.0000000   0.0000000   0.0000000), wk =   0.0092593
        k(    2) = (  -0.2028175   0.2028175  -0.2028175), wk =   0.0740741
        k(    3) = (  -0.4056351   0.4056351  -0.4056351), wk =   0.0740741
        k(    4) = (   0.6084526  -0.6084526   0.6084526), wk =   0.0370370
        k(    5) = (  -0.0000000   0.4056351  -0.0000000), wk =   0.0555556
        k(    6) = (  -0.2028175   0.6084526  -0.2028175), wk =   0.2222222
        k(    7) = (   0.8112702  -0.4056351   0.8112702), wk =   0.2222222
        k(    8) = (   0.6084526  -0.2028175   0.6084526), wk =   0.2222222
        k(    9) = (   0.4056351  -0.0000000   0.4056351), wk =   0.1111111
        k(   10) = (  -0.0000000   0.8112702  -0.0000000), wk =   0.0555556
        k(   11) = (   1.0140877  -0.2028175   1.0140877), wk =   0.2222222
        k(   12) = (   0.8112702  -0.0000000   0.8112702), wk =   0.1111111
        k(   13) = (  -0.0000000  -1.2169053  -0.0000000), wk =   0.0277778
        k(   14) = (   0.8112702  -0.4056351   1.2169053), wk =   0.2222222
        k(   15) = (   0.6084526  -0.2028175   1.0140877), wk =   0.2222222
        k(   16) = (  -0.4056351  -1.2169053  -0.0000000), wk =   0.1111111

     Dense  grid:    15593 G-vectors     FFT dimensions: (  36,  36,  36)

     Estimated max dynamical RAM per process >      13.59 MB

     Estimated total dynamical RAM >     108.71 MB

     Initial potential from superposition of free atoms

     starting charge       6.9948, renormalised to       7.0000
     Starting wfcs are    6 randomized atomic wfcs +    2 random wfcs

     total cpu time spent up to now is       14.8 secs

     Self-consistent Calculation

     iteration #  1     ecut=    80.00 Ry     beta= 0.70
     Davidson diagonalization with overlap
     c_bands:  1 eigenvalues not converged
     c_bands:  1 eigenvalues not converged
     c_bands:  1 eigenvalues not converged
     c_bands:  1 eigenvalues not converged
     ethr =  1.00E-06,  avg # of iterations = 17.1

     total cpu time spent up to now is       15.1 secs

     total energy              =     -22.56137770 Ry
     estimated scf accuracy    <       0.00180466 Ry

     iteration #  2     ecut=    80.00 Ry     beta= 0.70
     Davidson diagonalization with overlap
     ethr =  2.58E-05,  avg # of iterations =  1.1

     total cpu time spent up to now is       15.2 secs

     total energy              =     -22.56142906 Ry
     estimated scf accuracy    <       0.00016203 Ry

     iteration #  3     ecut=    80.00 Ry     beta= 0.70
     Davidson diagonalization with overlap
     ethr =  2.31E-06,  avg # of iterations =  1.2

     total cpu time spent up to now is       15.2 secs

     total energy              =     -22.56143254 Ry
     estimated scf accuracy    <       0.00000054 Ry

     iteration #  4     ecut=    80.00 Ry     beta= 0.70
     Davidson diagonalization with overlap
     ethr =  7.75E-09,  avg # of iterations =  1.9

     total cpu time spent up to now is       15.3 secs

     total energy              =     -22.56143268 Ry
     estimated scf accuracy    <          3.1E-09 Ry

     iteration #  5     ecut=    80.00 Ry     beta= 0.70
     Davidson diagonalization with overlap
     ethr =  4.48E-11,  avg # of iterations =  3.4

     total cpu time spent up to now is       15.4 secs

     total energy              =     -22.56143268 Ry
     estimated scf accuracy    <          4.1E-10 Ry

     iteration #  6     ecut=    80.00 Ry     beta= 0.70
     Davidson diagonalization with overlap
     ethr =  5.90E-12,  avg # of iterations =  2.0

     total cpu time spent up to now is       15.5 secs

     total energy              =     -22.56143268 Ry
     estimated scf accuracy    <          1.1E-10 Ry

     iteration #  7     ecut=    80.00 Ry     beta= 0.70
     Davidson diagonalization with overlap
     ethr =  1.62E-12,  avg # of iterations =  1.0

     total cpu time spent up to now is       15.5 secs

     End of self-consistent calculation

          k = 0.0000 0.0000 0.0000 (  1917 PWs)   bands (ev):

   -38.7891  -3.0085  12.1701  12.1701  12.1701  14.3956  14.3956  14.3956

          k =-0.2028 0.2028-0.2028 (  1940 PWs)   bands (ev):

   -38.7847  -2.5821   8.9419  11.3042  11.3042  15.5288  15.5288  16.1506

          k =-0.4056 0.4056-0.4056 (  1940 PWs)   bands (ev):

   -38.7760  -1.3566   5.1109  10.5043  10.5043  15.1764  15.1764  16.9291

          k = 0.6085-0.6085 0.6085 (  1946 PWs)   bands (ev):

   -38.7716  -0.1541   2.9823  10.2606  10.2606  14.5960  14.5960  16.9113

          k =-0.0000 0.4056-0.0000 (  1960 PWs)   bands (ev):

   -38.7833  -2.4382   9.8535   9.8535  10.6009  13.9656  16.1139  17.5502

          k =-0.2028 0.6085-0.2028 (  1955 PWs)   bands (ev):

   -38.7760  -1.4628   6.5054   8.9977   9.8107  13.8597  15.9276  18.0728

          k = 0.8113-0.4056 0.8113 (  1942 PWs)   bands (ev):

   -38.7702   0.0173   3.5619   8.6113   9.0498  13.6760  16.8298  18.4308

          k = 0.6085-0.2028 0.6085 (  1943 PWs)   bands (ev):

   -38.7717  -0.4557   4.2925   8.0219   9.9556  14.4610  16.2374  18.8210

          k = 0.4056-0.0000 0.4056 (  1943 PWs)   bands (ev):

   -38.7789  -1.8784   7.3304   8.5832  11.3230  15.8334  15.8401  17.7268

          k =-0.0000 0.8113-0.0000 (  1948 PWs)   bands (ev):

   -38.7717  -0.7750   7.1054   7.8823   7.8823  12.0662  14.0009  21.6849

          k = 1.0141-0.2028 1.0141 (  1941 PWs)   bands (ev):

   -38.7674   0.5256   4.8181   6.4966   7.6929  12.5544  15.1757  21.1346

          k = 0.8113-0.0000 0.8113 (  1935 PWs)   bands (ev):

   -38.7674   0.8989   3.8020   5.9847   8.4595  13.3823  18.5213  19.9410

          k =-0.0000-1.2169-0.0000 (  1964 PWs)   bands (ev):

   -38.7660   0.9517   4.4440   7.2052   7.2052  10.9925  13.9808  24.6321

          k = 0.8113-0.4056 1.2169 (  1938 PWs)   bands (ev):

   -38.7703  -0.2697   5.2848   6.9608   8.4391  14.9424  15.3702  18.3851

          k = 0.6085-0.2028 1.0141 (  1944 PWs)   bands (ev):

   -38.7674   0.8999   3.7261   6.5205   7.6649  14.8202  16.8241  19.2772

          k =-0.4056-1.2169-0.0000 (  1940 PWs)   bands (ev):

   -38.7660   1.3048   4.4302   5.4682   6.9701  14.2890  15.4484  20.6932

     the Fermi energy is     7.5547 ev

!    total energy              =     -22.56143268 Ry
     estimated scf accuracy    <          6.4E-12 Ry
     smearing contrib. (-TS)   =      -0.00020587 Ry
     internal energy E=F+TS    =     -22.56122681 Ry

     The total energy is F=E-TS. E is the sum of the following terms:
     one-electron contribution =      -4.09854707 Ry
     hartree contribution      =       3.68239641 Ry
     xc contribution           =      -6.63671396 Ry
     ewald contribution        =     -15.50836219 Ry

     convergence has been achieved in   7 iterations

     Forces acting on atoms (cartesian axes, Ry/au):

     atom    1 type  1   force =     0.00000000    0.00000000    0.00000000
     atom    2 type  2   force =     0.00000000    0.00000000   -0.00000000
     The non-local contrib.  to forces
     atom    1 type  1   force =     0.00000000   -0.00000000    0.00000000
     atom    2 type  2   force =     0.00000000   -0.00000000    0.00000000
     The ionic contribution  to forces
     atom    1 type  1   force =     0.00000000   -0.00000000    0.00000000
     atom    2 type  2   force =     0.00000000    0.00000000    0.00000000
     The local contribution  to forces
     atom    1 type  1   force =    -0.00000000   -0.00000000   -0.00000000
     atom    2 type  2   force =    -0.00000000   -0.00000000   -0.00000000
     The core correction contribution to forces
     atom    1 type  1   force =     0.00000000    0.00000000    0.00000000
     atom    2 type  2   force =    -0.00000000    0.00000000   -0.00000000
     The Hubbard contrib.    to forces
     atom    1 type  1   force =     0.00000000    0.00000000    0.00000000
     atom    2 type  2   force =     0.00000000    0.00000000    0.00000000
     The SCF correction term to forces
     atom    1 type  1   force =    -0.00000000    0.00000000    0.00000000
     atom    2 type  2   force =     0.00000000   -0.00000000    0.00000000

     Total force =     0.000000     Total SCF correction =     0.000000


     Computing stress (Cartesian axis) and pressure

          total   stress  (Ry/bohr**3)                   (kbar)     P=      500.06
   0.00339933   0.00000000   0.00000000          500.06        0.00        0.00
   0.00000000   0.00339933   0.00000000            0.00      500.06        0.00
  -0.00000000   0.00000000   0.00339933           -0.00        0.00      500.06


     Writing all to output data dir ./output/LiSi.save/

     init_run     :      0.73s CPU      0.92s WALL (       2 calls)
     electrons    :      7.50s CPU      8.94s WALL (       7 calls)
     update_pot   :      1.53s CPU      1.57s WALL (       5 calls)
     forces       :      1.06s CPU      1.11s WALL (       7 calls)
     stress       :      2.69s CPU      2.97s WALL (       7 calls)

     Called by init_run:
     wfcinit      :      0.07s CPU      0.08s WALL (       2 calls)
     potinit      :      0.21s CPU      0.33s WALL (       2 calls)
     hinit0       :      0.43s CPU      0.47s WALL (       2 calls)

     Called by electrons:
     c_bands      :      6.03s CPU      6.95s WALL (      52 calls)
     sum_band     :      1.02s CPU      1.10s WALL (      52 calls)
     v_of_rho     :      0.50s CPU      0.97s WALL (      57 calls)
     mix_rho      :      0.02s CPU      0.03s WALL (      52 calls)

     Called by c_bands:
     init_us_2    :      0.18s CPU      0.20s WALL (    1920 calls)
     init_us_2:cp :      0.18s CPU      0.20s WALL (    1920 calls)
     cegterg      :      5.70s CPU      5.96s WALL (     832 calls)

     Called by *egterg:
     cdiaghg      :      0.27s CPU      0.30s WALL (    3091 calls)
     h_psi        :      5.09s CPU      5.30s WALL (    3235 calls)
     g_psi        :      0.02s CPU      0.02s WALL (    2371 calls)

     Called by h_psi:
     h_psi:calbec :      0.19s CPU      0.20s WALL (    3235 calls)
     vloc_psi     :      4.78s CPU      4.97s WALL (    3235 calls)
     add_vuspsi   :      0.10s CPU      0.11s WALL (    3235 calls)

     General routines
     calbec       :      0.25s CPU      0.26s WALL (    3795 calls)
     fft          :      0.69s CPU      1.29s WALL (     745 calls)
     ffts         :      0.03s CPU      0.05s WALL (      52 calls)
     fftw         :      5.03s CPU      5.22s WALL (   45374 calls)

     Parallel routines

     PWSCF        :     13.73s CPU     15.97s WALL


   This run was terminated on:  22:48: 9  11Feb2025            

=------------------------------------------------------------------------------=
   JOB DONE.
=------------------------------------------------------------------------------=
