
     Program PWSCF v.7.2 starts on 11Feb2025 at 21:41:26 

     This program is part of the open-source Quantum ESPRESSO suite
     for quantum simulation of materials; please cite
         "P. Giannozzi et al., J. Phys.:Condens. Matter 21 395502 (2009);
         "P. Giannozzi et al., J. Phys.:Condens. Matter 29 465901 (2017);
         "P. Giannozzi et al., J. Chem. Phys. 152 154105 (2020);
          URL http://www.quantum-espresso.org", 
     in publications or presentations arising from this work. More details at
     http://www.quantum-espresso.org/quote

     Parallel version (MPI & OpenMP), running on       8 processor cores
     Number of MPI processes:                 8
     Threads/MPI process:                     1

     MPI processes distributed on     1 nodes
     482357 MiB available memory on the printing compute node when the environment starts

     Waiting for input...
     Reading input from standard input

     Current dimensions of program PWSCF are:
     Max number of different atomic species (ntypx) = 10
     Max number of k-points (npk) =  40000
     Max angular momentum in pseudopotentials (lmaxx) =  4

     R & G space division:  proc/nbgrp/npool/nimage =       8
     Subspace diagonalization in iterative solution of the eigenvalue problem:
     a serial algorithm will be used


     Parallelization info
     --------------------
     sticks:   dense  smooth     PW     G-vecs:    dense   smooth      PW
     Min         173     173     50                 9389     9389    1436
     Max         174     174     51                 9394     9394    1441
     Sum        1389    1389    401                75133    75133   11507

     Using Slab Decomposition



     bravais-lattice index     =            6
     lattice parameter (alat)  =       7.3980  a.u.
     unit-cell volume          =     777.7050 (a.u.)^3
     number of atoms/cell      =            4
     number of atomic types    =            2
     number of electrons       =        14.00
     number of Kohn-Sham states=           11
     kinetic-energy cutoff     =      80.0000  Ry
     charge density cutoff     =     320.0000  Ry
     scf convergence threshold =      1.0E-08
     mixing beta               =       0.7000
     number of iterations used =            8  plain     mixing
     energy convergence thresh.=      1.0E-04
     force convergence thresh. =      1.0E-03
     press convergence thresh. =      1.0E+00
     Exchange-correlation= PBE
                           (   1   4   3   4   0   0   0)
     nstep                     =           50


     celldm(1)=   7.398024  celldm(2)=   0.000000  celldm(3)=   1.920736
     celldm(4)=   0.000000  celldm(5)=   0.000000  celldm(6)=   0.000000

     crystal axes: (cart. coord. in units of alat)
               a(1) = (   1.000000   0.000000   0.000000 )  
               a(2) = (   0.000000   1.000000   0.000000 )  
               a(3) = (   0.000000   0.000000   1.920736 )  

     reciprocal axes: (cart. coord. in units 2 pi/alat)
               b(1) = (  1.000000  0.000000  0.000000 )  
               b(2) = (  0.000000  1.000000  0.000000 )  
               b(3) = (  0.000000  0.000000  0.520634 )  


     PseudoPot. # 1 for Li read from file:
     ../pseudo/Li_ONCV_PBE_sr.upf
     MD5 check sum: 50ff420e78310ffa21704f3361e624a4
     Pseudo is Norm-conserving, Zval =  3.0
     Generated using ONCVPSP code by D. R. Hamann
     Using radial grid of 1944 points,  4 beta functions with: 
                l(1) =   0
                l(2) =   0
                l(3) =   1
                l(4) =   1

     PseudoPot. # 2 for Si read from file:
     ../pseudo/Si_ONCV_PBE_sr.upf
     MD5 check sum: e543d271109d17c80368dfa7c482276d
     Pseudo is Norm-conserving + core correction, Zval =  4.0
     Generated using ONCVPSP code by D. R. Hamann
     Using radial grid of 1510 points,  6 beta functions with: 
                l(1) =   0
                l(2) =   0
                l(3) =   1
                l(4) =   1
                l(5) =   2
                l(6) =   2

     atomic species   valence    mass     pseudopotential
        Li             3.00     6.94100     Li( 1.00)
        Si             4.00    28.08550     Si( 1.00)

     16 Sym. Ops., with inversion, found ( 8 have fractional translation)



   Cartesian axes

     site n.     atom                  positions (alat units)
         1           Li  tau(   1) = (   0.0000000   0.5000000   0.0000000  )
         2           Li  tau(   2) = (   0.5000000   0.0000000   0.9603682  )
         3           Si  tau(   3) = (   0.0000000   0.0000000   0.4801841  )
         4           Si  tau(   4) = (   0.0000000   0.0000000   1.4405523  )

     number of k points=    63  Marzari-Vanderbilt smearing, width (Ry)=  0.0200
                       cart. coord. in units 2pi/alat
        k(    1) = (   0.0000000   0.0000000   0.0000000), wk =   0.0040000
        k(    2) = (   0.0000000   0.0000000   0.1041267), wk =   0.0080000
        k(    3) = (   0.0000000   0.0000000   0.2082535), wk =   0.0080000
        k(    4) = (   0.0000000   0.1000000   0.0000000), wk =   0.0160000
        k(    5) = (   0.0000000   0.1000000   0.1041267), wk =   0.0320000
        k(    6) = (   0.0000000   0.1000000   0.2082535), wk =   0.0320000
        k(    7) = (   0.0000000   0.2000000   0.0000000), wk =   0.0160000
        k(    8) = (   0.0000000   0.2000000   0.1041267), wk =   0.0320000
        k(    9) = (   0.0000000   0.2000000   0.2082535), wk =   0.0320000
        k(   10) = (   0.0000000   0.3000000   0.0000000), wk =   0.0160000
        k(   11) = (   0.0000000   0.3000000   0.1041267), wk =   0.0320000
        k(   12) = (   0.0000000   0.3000000   0.2082535), wk =   0.0320000
        k(   13) = (   0.0000000   0.4000000   0.0000000), wk =   0.0160000
        k(   14) = (   0.0000000   0.4000000   0.1041267), wk =   0.0320000
        k(   15) = (   0.0000000   0.4000000   0.2082535), wk =   0.0320000
        k(   16) = (   0.0000000  -0.5000000   0.0000000), wk =   0.0080000
        k(   17) = (   0.0000000  -0.5000000   0.1041267), wk =   0.0160000
        k(   18) = (   0.0000000  -0.5000000   0.2082535), wk =   0.0160000
        k(   19) = (   0.1000000   0.1000000   0.0000000), wk =   0.0160000
        k(   20) = (   0.1000000   0.1000000   0.1041267), wk =   0.0320000
        k(   21) = (   0.1000000   0.1000000   0.2082535), wk =   0.0320000
        k(   22) = (   0.1000000   0.2000000   0.0000000), wk =   0.0320000
        k(   23) = (   0.1000000   0.2000000   0.1041267), wk =   0.0640000
        k(   24) = (   0.1000000   0.2000000   0.2082535), wk =   0.0640000
        k(   25) = (   0.1000000   0.3000000   0.0000000), wk =   0.0320000
        k(   26) = (   0.1000000   0.3000000   0.1041267), wk =   0.0640000
        k(   27) = (   0.1000000   0.3000000   0.2082535), wk =   0.0640000
        k(   28) = (   0.1000000   0.4000000   0.0000000), wk =   0.0320000
        k(   29) = (   0.1000000   0.4000000   0.1041267), wk =   0.0640000
        k(   30) = (   0.1000000   0.4000000   0.2082535), wk =   0.0640000
        k(   31) = (   0.1000000  -0.5000000   0.0000000), wk =   0.0160000
        k(   32) = (   0.1000000  -0.5000000   0.1041267), wk =   0.0320000
        k(   33) = (   0.1000000  -0.5000000   0.2082535), wk =   0.0320000
        k(   34) = (   0.2000000   0.2000000   0.0000000), wk =   0.0160000
        k(   35) = (   0.2000000   0.2000000   0.1041267), wk =   0.0320000
        k(   36) = (   0.2000000   0.2000000   0.2082535), wk =   0.0320000
        k(   37) = (   0.2000000   0.3000000   0.0000000), wk =   0.0320000
        k(   38) = (   0.2000000   0.3000000   0.1041267), wk =   0.0640000
        k(   39) = (   0.2000000   0.3000000   0.2082535), wk =   0.0640000
        k(   40) = (   0.2000000   0.4000000   0.0000000), wk =   0.0320000
        k(   41) = (   0.2000000   0.4000000   0.1041267), wk =   0.0640000
        k(   42) = (   0.2000000   0.4000000   0.2082535), wk =   0.0640000
        k(   43) = (   0.2000000  -0.5000000   0.0000000), wk =   0.0160000
        k(   44) = (   0.2000000  -0.5000000   0.1041267), wk =   0.0320000
        k(   45) = (   0.2000000  -0.5000000   0.2082535), wk =   0.0320000
        k(   46) = (   0.3000000   0.3000000   0.0000000), wk =   0.0160000
        k(   47) = (   0.3000000   0.3000000   0.1041267), wk =   0.0320000
        k(   48) = (   0.3000000   0.3000000   0.2082535), wk =   0.0320000
        k(   49) = (   0.3000000   0.4000000   0.0000000), wk =   0.0320000
        k(   50) = (   0.3000000   0.4000000   0.1041267), wk =   0.0640000
        k(   51) = (   0.3000000   0.4000000   0.2082535), wk =   0.0640000
        k(   52) = (   0.3000000  -0.5000000   0.0000000), wk =   0.0160000
        k(   53) = (   0.3000000  -0.5000000   0.1041267), wk =   0.0320000
        k(   54) = (   0.3000000  -0.5000000   0.2082535), wk =   0.0320000
        k(   55) = (   0.4000000   0.4000000   0.0000000), wk =   0.0160000
        k(   56) = (   0.4000000   0.4000000   0.1041267), wk =   0.0320000
        k(   57) = (   0.4000000   0.4000000   0.2082535), wk =   0.0320000
        k(   58) = (   0.4000000  -0.5000000   0.0000000), wk =   0.0160000
        k(   59) = (   0.4000000  -0.5000000   0.1041267), wk =   0.0320000
        k(   60) = (   0.4000000  -0.5000000   0.2082535), wk =   0.0320000
        k(   61) = (  -0.5000000  -0.5000000   0.0000000), wk =   0.0040000
        k(   62) = (  -0.5000000  -0.5000000   0.1041267), wk =   0.0080000
        k(   63) = (  -0.5000000  -0.5000000   0.2082535), wk =   0.0080000

     Dense  grid:    75133 G-vectors     FFT dimensions: (  45,  45,  90)

     Estimated max dynamical RAM per process >      31.71 MB

     Estimated total dynamical RAM >     253.70 MB

     Initial potential from superposition of free atoms

     starting charge      13.9897, renormalised to      14.0000
     Starting wfcs are   12 randomized atomic wfcs

     total cpu time spent up to now is        4.2 secs

     Self-consistent Calculation

     iteration #  1     ecut=    80.00 Ry     beta= 0.70
     Davidson diagonalization with overlap
     ethr =  1.00E-02,  avg # of iterations =  4.9

     Threshold (ethr) on eigenvalues was too large:
     Diagonalizing with lowered threshold

     Davidson diagonalization with overlap
     ethr =  1.06E-04,  avg # of iterations =  5.4

     total cpu time spent up to now is        8.8 secs

     total energy              =     -45.48835921 Ry
     estimated scf accuracy    <       0.01593336 Ry

     iteration #  2     ecut=    80.00 Ry     beta= 0.70
     Davidson diagonalization with overlap
     ethr =  1.14E-04,  avg # of iterations =  1.1

     total cpu time spent up to now is       10.4 secs

     total energy              =     -45.48925685 Ry
     estimated scf accuracy    <       0.00116715 Ry

     iteration #  3     ecut=    80.00 Ry     beta= 0.70
     Davidson diagonalization with overlap
     ethr =  8.34E-06,  avg # of iterations =  4.1

     total cpu time spent up to now is       12.2 secs

     total energy              =     -45.48935042 Ry
     estimated scf accuracy    <       0.00003256 Ry

     iteration #  4     ecut=    80.00 Ry     beta= 0.70
     Davidson diagonalization with overlap
     ethr =  2.33E-07,  avg # of iterations =  3.3

     total cpu time spent up to now is       14.3 secs

     total energy              =     -45.48936146 Ry
     estimated scf accuracy    <       0.00000049 Ry

     iteration #  5     ecut=    80.00 Ry     beta= 0.70
     Davidson diagonalization with overlap
     ethr =  3.49E-09,  avg # of iterations =  3.9

     total cpu time spent up to now is       16.4 secs

     total energy              =     -45.48936195 Ry
     estimated scf accuracy    <       0.00000002 Ry

     iteration #  6     ecut=    80.00 Ry     beta= 0.70
     Davidson diagonalization with overlap
     ethr =  1.15E-10,  avg # of iterations =  3.2

     total cpu time spent up to now is       18.4 secs

     End of self-consistent calculation

          k = 0.0000 0.0000 0.0000 (  9413 PWs)   bands (ev):

   -45.0842 -45.0841  -6.5596  -5.6850  -1.3395   2.1535   2.1535   2.3449
     3.2201   3.2201   5.0340

          k = 0.0000 0.0000 0.1041 (  9397 PWs)   bands (ev):

   -45.0842 -45.0841  -6.4954  -5.7976  -1.0602   1.7839   2.2211   2.2211
     3.0836   3.0837   5.1796

          k = 0.0000 0.0000 0.2083 (  9436 PWs)   bands (ev):

   -45.0842 -45.0842  -6.3135  -6.0525  -0.3162   0.7110   2.3964   2.3964
     2.8076   2.8076   5.4928

          k = 0.0000 0.1000 0.0000 (  9377 PWs)   bands (ev):

   -45.0842 -45.0841  -6.5062  -5.6274  -1.2936   1.6203   2.2004   2.2969
     2.7920   3.2580   5.3384

          k = 0.0000 0.1000 0.1041 (  9399 PWs)   bands (ev):

   -45.0842 -45.0841  -6.4418  -5.7407  -1.0135   1.6898   1.8121   2.2672
     2.5569   3.1242   5.5213

          k = 0.0000 0.1000 0.2083 (  9424 PWs)   bands (ev):

   -45.0842 -45.0841  -6.2593  -5.9969  -0.2679   0.7593   1.8858   2.2254
     2.4390   2.8541   5.8065

          k = 0.0000 0.2000 0.0000 (  9429 PWs)   bands (ev):

   -45.0841 -45.0840  -6.3568  -5.4654  -1.1652   0.6334   1.5639   2.3303
     2.6632   3.3614   5.0644

          k = 0.0000 0.2000 0.1041 (  9426 PWs)   bands (ev):

   -45.0841 -45.0840  -6.2918  -5.5807  -0.8828   0.7020   1.4258   2.0677
     2.3944   3.2357   5.3927

          k = 0.0000 0.2000 0.2083 (  9400 PWs)   bands (ev):

   -45.0841 -45.0841  -6.1078  -5.8402  -0.1348   0.8780   0.9054   1.2183
     2.5557   2.9833   5.9212

          k = 0.0000 0.3000 0.0000 (  9425 PWs)   bands (ev):

   -45.0840 -45.0840  -6.1474  -5.2370  -0.9872  -0.2841   0.6377   2.5078
     2.8351   3.4994   4.2337

          k = 0.0000 0.3000 0.1041 (  9394 PWs)   bands (ev):

   -45.0840 -45.0840  -6.0817  -5.3548  -0.7027  -0.2202   0.5170   2.2291
     2.5675   3.3861   4.5377

          k = 0.0000 0.3000 0.2083 (  9394 PWs)   bands (ev):

   -45.0840 -45.0840  -5.8972  -5.6176  -0.0456   0.0451   0.2568   1.1334
     2.7121   3.1613   5.1268

          k = 0.0000 0.4000 0.0000 (  9419 PWs)   bands (ev):

   -45.0840 -45.0839  -5.9505  -5.0200  -0.9580  -0.7922  -0.0349   2.6691
     3.0116   3.6207   3.6485

          k = 0.0000 0.4000 0.1041 (  9388 PWs)   bands (ev):

   -45.0840 -45.0839  -5.8844  -5.1399  -0.8858  -0.5204  -0.1479   2.4246
     2.7238   3.5207   3.9141

          k = 0.0000 0.4000 0.2083 (  9400 PWs)   bands (ev):

   -45.0840 -45.0839  -5.7013  -5.4035  -0.7242  -0.3850   0.2069   1.3586
     2.8506   3.3251   4.4557

          k = 0.0000-0.5000 0.0000 (  9394 PWs)   bands (ev):

   -45.0840 -45.0839  -5.8664  -4.9266  -1.1817  -0.7339  -0.2842   2.7359
     3.0870   3.4355   3.6698

          k = 0.0000-0.5000 0.1041 (  9398 PWs)   bands (ev):

   -45.0840 -45.0839  -5.8003  -5.0472  -1.1240  -0.4498  -0.3938   2.5196
     2.7881   3.5760   3.6729

          k = 0.0000-0.5000 0.2083 (  9370 PWs)   bands (ev):

   -45.0840 -45.0839  -5.6185  -5.3103  -0.9763  -0.6188   0.2726   1.4686
     2.9068   3.3936   4.1878

          k = 0.1000 0.1000 0.0000 (  9401 PWs)   bands (ev):

   -45.0842 -45.0841  -6.4532  -5.5698  -1.2484   1.5731   1.7842   2.2838
     2.7100   2.9249   5.6172

          k = 0.1000 0.1000 0.1041 (  9419 PWs)   bands (ev):

   -45.0842 -45.0841  -6.3885  -5.6839  -0.9674   1.6476   1.8408   1.8474
     2.5491   2.6552   5.8894

          k = 0.1000 0.1000 0.2083 (  9420 PWs)   bands (ev):

   -45.0841 -45.0841  -6.2052  -5.9417  -0.2200   0.8065   1.8591   2.0104
     2.2306   2.3333   6.2401

          k = 0.1000 0.2000 0.0000 (  9400 PWs)   bands (ev):

   -45.0841 -45.0840  -6.3046  -5.4081  -1.1222   0.6832   1.6128   1.8503
     2.5750   2.9924   5.0969

          k = 0.1000 0.2000 0.1041 (  9410 PWs)   bands (ev):

   -45.0841 -45.0840  -6.2393  -5.5243  -0.8387   0.7522   1.4764   1.9148
     2.0868   2.7385   5.4207

          k = 0.1000 0.2000 0.2083 (  9400 PWs)   bands (ev):

   -45.0841 -45.0840  -6.0541  -5.7859  -0.0877   0.9174   0.9618   1.2694
     2.0903   2.4296   6.0293

          k = 0.1000 0.3000 0.0000 (  9402 PWs)   bands (ev):

   -45.0840 -45.0839  -6.0968  -5.1800  -0.9476  -0.2226   0.6901   2.0521
     2.7433   3.1537   4.2922

          k = 0.1000 0.3000 0.1041 (  9398 PWs)   bands (ev):

   -45.0840 -45.0839  -6.0306  -5.2991  -0.6614  -0.1590   0.5716   2.1095
     2.2504   2.9120   4.5930

          k = 0.1000 0.3000 0.2083 (  9405 PWs)   bands (ev):

   -45.0840 -45.0839  -5.8442  -5.5648   0.0155   0.0899   0.3152   1.1716
     2.2757   2.6302   5.1852

          k = 0.1000 0.4000 0.0000 (  9413 PWs)   bands (ev):

   -45.0840 -45.0839  -5.9015  -4.9634  -0.8922  -0.7558   0.0193   2.2442
     2.9118   3.3029   3.7254

          k = 0.1000 0.4000 0.1041 (  9405 PWs)   bands (ev):

   -45.0840 -45.0839  -5.8349  -5.0849  -0.8181  -0.4842  -0.0911   2.2880
     2.4531   3.0720   3.9835

          k = 0.1000 0.4000 0.2083 (  9406 PWs)   bands (ev):

   -45.0840 -45.0839  -5.6493  -5.3525  -0.6583  -0.3243   0.2508   1.3883
     2.4505   2.8231   4.5050

          k = 0.1000-0.5000 0.0000 (  9410 PWs)   bands (ev):

   -45.0839 -45.0838  -5.8183  -4.8701  -1.1115  -0.7021  -0.2295   2.3262
     2.9826   3.3652   3.5186

          k = 0.1000-0.5000 0.1041 (  9400 PWs)   bands (ev):

   -45.0839 -45.0838  -5.7515  -4.9926  -1.0545  -0.4154  -0.3364   2.3625
     2.5524   3.1393   3.7466

          k = 0.1000-0.5000 0.2083 (  9404 PWs)   bands (ev):

   -45.0839 -45.0838  -5.5670  -5.2602  -0.9089  -0.5567   0.3152   1.4931
     2.5260   2.9071   4.2331

          k = 0.2000 0.2000 0.0000 (  9401 PWs)   bands (ev):

   -45.0840 -45.0840  -6.1589  -5.2470  -1.0028   0.6884   1.0703   1.7008
     1.8137   2.9582   4.9745

          k = 0.2000 0.2000 0.1041 (  9396 PWs)   bands (ev):

   -45.0840 -45.0840  -6.0926  -5.3659  -0.7161   0.7628   1.1254   1.5954
     1.6496   2.3449   5.2702

          k = 0.2000 0.2000 0.2083 (  9406 PWs)   bands (ev):

   -45.0840 -45.0840  -5.9044  -5.6330   0.0412   0.9530   1.0758   1.2817
     1.3107   1.5533   5.9240

          k = 0.2000 0.3000 0.0000 (  9398 PWs)   bands (ev):

   -45.0839 -45.0839  -5.9555  -5.0199  -0.8386  -0.0517   0.8363   1.1591
     1.9468   3.1285   4.4348

          k = 0.2000 0.3000 0.1041 (  9403 PWs)   bands (ev):

   -45.0839 -45.0839  -5.8881  -5.1427  -0.5480   0.0113   0.7250   1.2164
     1.8209   2.5049   4.7068

          k = 0.2000 0.3000 0.2083 (  9404 PWs)   bands (ev):

   -45.0839 -45.0839  -5.6969  -5.4165   0.1814   0.2137   0.4822   1.2442
     1.4098   1.6779   5.2427

          k = 0.2000 0.4000 0.0000 (  9390 PWs)   bands (ev):

   -45.0839 -45.0838  -5.7654  -4.8043  -0.7191  -0.6397   0.1706   1.3840
     2.1196   3.2964   3.9481

          k = 0.2000 0.4000 0.1041 (  9396 PWs)   bands (ev):

   -45.0839 -45.0838  -5.6971  -4.9308  -0.6241  -0.3852   0.0688   1.4366
     2.0127   2.6900   4.1707

          k = 0.2000 0.4000 0.2083 (  9396 PWs)   bands (ev):

   -45.0839 -45.0838  -5.5047  -5.2094  -0.4705  -0.1521   0.3699   1.4195
     1.6546   1.8937   4.5880

          k = 0.2000-0.5000 0.0000 (  9388 PWs)   bands (ev):

   -45.0838 -45.0838  -5.6847  -4.7116  -0.9093  -0.6152  -0.0764   1.4868
     2.1920   3.3674   3.7635

          k = 0.2000-0.5000 0.1041 (  9390 PWs)   bands (ev):

   -45.0838 -45.0838  -5.6160  -4.8395  -0.8546  -0.3213  -0.1747   1.5359
     2.0971   2.7773   3.9539

          k = 0.2000-0.5000 0.2083 (  9396 PWs)   bands (ev):

   -45.0838 -45.0838  -5.4238  -5.1197  -0.7159  -0.3795   0.4295   1.4993
     1.7707   1.9918   4.3212

          k = 0.3000 0.3000 0.0000 (  9381 PWs)   bands (ev):

   -45.0838 -45.0838  -5.7595  -4.7944  -0.6914   0.0781   0.4290   1.0232
     1.0562   3.2970   4.5074

          k = 0.3000 0.3000 0.1041 (  9400 PWs)   bands (ev):

   -45.0838 -45.0838  -5.6904  -4.9226  -0.3950   0.1439   0.4746   0.9292
     0.9547   2.6500   4.7172

          k = 0.3000 0.3000 0.2083 (  9400 PWs)   bands (ev):

   -45.0838 -45.0838  -5.4934  -5.2074   0.3276   0.3467   0.6037   0.6903
     0.7930   1.4999   5.0917

          k = 0.3000 0.4000 0.0000 (  9393 PWs)   bands (ev):

   -45.0838 -45.0837  -5.5776  -4.5805  -0.5607  -0.3842   0.3812   0.5493
     1.2275   3.4626   4.2033

          k = 0.3000 0.4000 0.1041 (  9386 PWs)   bands (ev):

   -45.0838 -45.0837  -5.5069  -4.7142  -0.3398  -0.2514   0.2948   0.5975
     1.1487   2.8231   4.3107

          k = 0.3000 0.4000 0.2083 (  9381 PWs)   bands (ev):

   -45.0838 -45.0837  -5.3058  -5.0084  -0.1975   0.0933   0.5146   0.7389
     0.9876   1.6755   4.4765

          k = 0.3000-0.5000 0.0000 (  9378 PWs)   bands (ev):

   -45.0837 -45.0837  -5.5009  -4.4886  -0.6066  -0.4997   0.1370   0.6647
     1.3065   3.5325   3.9832

          k = 0.3000-0.5000 0.1041 (  9372 PWs)   bands (ev):

   -45.0837 -45.0837  -5.4295  -4.6247  -0.5569  -0.1957   0.0537   0.7105
     1.2380   2.9056   4.0567

          k = 0.3000-0.5000 0.2083 (  9372 PWs)   bands (ev):

   -45.0837 -45.0837  -5.2272  -4.9226  -0.4326  -0.1221   0.5607   0.8438
     1.0994   1.7630   4.2074

          k = 0.4000 0.4000 0.0000 (  9355 PWs)   bands (ev):

   -45.0837 -45.0837  -5.4047  -4.3684  -0.4456  -0.1425   0.0104   0.5749
     0.5804   3.5828   3.6242

          k = 0.4000 0.4000 0.1041 (  9361 PWs)   bands (ev):

   -45.0837 -45.0837  -5.3319  -4.5097  -0.1365  -0.0928   0.0483   0.5074
     0.5153   2.9783   3.6795

          k = 0.4000 0.4000 0.2083 (  9376 PWs)   bands (ev):

   -45.0837 -45.0837  -5.1235  -4.8183   0.0391   0.1265   0.3185   0.3793
     0.7164   1.8104   3.9333

          k = 0.4000-0.5000 0.0000 (  9380 PWs)   bands (ev):

   -45.0837 -45.0837  -5.3323  -4.2773  -0.3977  -0.2889   0.0788   0.3364
     0.6608   3.2885   3.6921

          k = 0.4000-0.5000 0.1041 (  9344 PWs)   bands (ev):

   -45.0837 -45.0837  -5.2585  -4.4221  -0.2470  -0.0825   0.1180   0.2718
     0.6046   3.0525   3.3840

          k = 0.4000-0.5000 0.2083 (  9360 PWs)   bands (ev):

   -45.0837 -45.0837  -5.0475  -4.7368  -0.1457   0.1352   0.2130   0.4488
     0.7712   1.8768   3.6652

          k =-0.5000-0.5000 0.0000 (  9348 PWs)   bands (ev):

   -45.0836 -45.0836  -5.2618  -4.1867  -0.3547  -0.1371  -0.1371   0.4209
     0.4209   2.9787   3.7592

          k =-0.5000-0.5000 0.1041 (  9380 PWs)   bands (ev):

   -45.0836 -45.0836  -5.1870  -4.3354  -0.1005  -0.1005  -0.0316   0.3663
     0.3663   3.0834   3.1172

          k =-0.5000-0.5000 0.2083 (  9344 PWs)   bands (ev):

   -45.0836 -45.0836  -4.9728  -4.6572  -0.0144  -0.0144   0.2518   0.2518
     0.8037   1.9320   3.3976

     the Fermi energy is     0.8997 ev

!    total energy              =     -45.48936196 Ry
     estimated scf accuracy    <          2.5E-09 Ry
     smearing contrib. (-TS)   =       0.00079375 Ry
     internal energy E=F+TS    =     -45.49015571 Ry

     The total energy is F=E-TS. E is the sum of the following terms:
     one-electron contribution =     -19.33525657 Ry
     hartree contribution      =       9.38080454 Ry
     xc contribution           =     -12.30283801 Ry
     ewald contribution        =     -23.23286566 Ry

     convergence has been achieved in   6 iterations

     Forces acting on atoms (cartesian axes, Ry/au):

     atom    1 type  1   force =     0.00000000    0.00000000    0.00000000
     atom    2 type  1   force =     0.00000000    0.00000000    0.00000000
     atom    3 type  2   force =     0.00000000    0.00000000    0.00000000
     atom    4 type  2   force =     0.00000000    0.00000000    0.00000000
     The non-local contrib.  to forces
     atom    1 type  1   force =     0.00000000    0.00000000    0.00000000
     atom    2 type  1   force =     0.00000000    0.00000000    0.00000000
     atom    3 type  2   force =     0.00000000    0.00000000    0.00000000
     atom    4 type  2   force =     0.00000000    0.00000000    0.00000000
     The ionic contribution  to forces
     atom    1 type  1   force =    -0.00000000    0.00000000   -0.00000000
     atom    2 type  1   force =     0.00000000   -0.00000000   -0.00000000
     atom    3 type  2   force =     0.00000000    0.00000000    0.00000000
     atom    4 type  2   force =     0.00000000    0.00000000    0.00000000
     The local contribution  to forces
     atom    1 type  1   force =     0.00000000    0.00000000   -0.00000000
     atom    2 type  1   force =     0.00000000    0.00000000    0.00000000
     atom    3 type  2   force =    -0.00000000   -0.00000000   -0.00000000
     atom    4 type  2   force =     0.00000000    0.00000000    0.00000000
     The core correction contribution to forces
     atom    1 type  1   force =     0.00000000    0.00000000    0.00000000
     atom    2 type  1   force =     0.00000000    0.00000000    0.00000000
     atom    3 type  2   force =     0.00000000   -0.00000000   -0.00000000
     atom    4 type  2   force =     0.00000000    0.00000000   -0.00000000
     The Hubbard contrib.    to forces
     atom    1 type  1   force =     0.00000000    0.00000000    0.00000000
     atom    2 type  1   force =     0.00000000    0.00000000    0.00000000
     atom    3 type  2   force =     0.00000000    0.00000000    0.00000000
     atom    4 type  2   force =     0.00000000    0.00000000    0.00000000
     The SCF correction term to forces
     atom    1 type  1   force =     0.00000000   -0.00000000    0.00000000
     atom    2 type  1   force =    -0.00000000    0.00000000   -0.00000000
     atom    3 type  2   force =    -0.00000000   -0.00000000    0.00000000
     atom    4 type  2   force =     0.00000000   -0.00000000   -0.00000000

     Total force =     0.000000     Total SCF correction =     0.000000


     Computing stress (Cartesian axis) and pressure

          total   stress  (Ry/bohr**3)                   (kbar)     P=      -51.11
  -0.00037355   0.00000000   0.00000000          -54.95        0.00        0.00
   0.00000000  -0.00037355   0.00000000            0.00      -54.95        0.00
   0.00000000   0.00000000  -0.00029523            0.00        0.00      -43.43


     BFGS Geometry Optimization
     Energy error            =      0.0E+00 Ry
     Gradient error          =      3.2E-32 Ry/Bohr
     Cell gradient error     =      5.5E+02 kbar

     number of scf cycles    =   1
     number of bfgs steps    =   0

     enthalpy           new  =     -42.8459962981 Ry

     new trust radius        =       0.5000000000 bohr
ibrav =      6
 celldm(1) =      6.73481787
 celldm(3) =      1.92466337
Input lattice vectors:
     0.91035366     0.00000000     0.00000000
     0.00000000     0.91035366     0.00000000
     0.00000000     0.00000000     1.75212434
New lattice vectors in INITIAL alat:
     0.91035366     0.00000000     0.00000000
     0.00000000     0.91035366     0.00000000
     0.00000000     0.00000000     1.75212434
New lattice vectors in NEW alat (for information only):
     1.00000000     0.00000000     0.00000000
     0.00000000     1.00000000     0.00000000
     0.00000000     0.00000000     1.92466337
Discrepancy in bohr =     0.000000    0.000000    0.000000
     new conv_thr            =       0.0000000100 Ry

     new unit-cell volume =    587.93911 a.u.^3 (    87.12359 Ang^3 )
     density =      1.33518 g/cm^3

CELL_PARAMETERS (alat=  7.39802360)
   0.910353662   0.000000000   0.000000000
   0.000000000   0.910353662   0.000000000
   0.000000000   0.000000000   1.752124343

ATOMIC_POSITIONS (crystal)
Li            0.0000000000        0.5000000000        0.0000000000
Li            0.5000000000        0.0000000000        0.5000000000
Si            0.0000000000        0.0000000000        0.2500000000
Si            0.0000000000        0.0000000000        0.7500000000



     Writing config-only to output data dir ./output/LiSi.save/
     NEW-OLD atomic charge density approx. for the potential
     extrapolated charge    9.48464, renormalised to   14.00000

     total cpu time spent up to now is       22.2 secs

     Self-consistent Calculation

     iteration #  1     ecut=    80.00 Ry     beta= 0.70
     Davidson diagonalization with overlap
     c_bands:  1 eigenvalues not converged
     c_bands:  1 eigenvalues not converged
     c_bands:  1 eigenvalues not converged
     c_bands:  1 eigenvalues not converged
     c_bands:  1 eigenvalues not converged
     c_bands:  1 eigenvalues not converged
     ethr =  1.00E-06,  avg # of iterations = 12.1

     total cpu time spent up to now is       27.5 secs

     total energy              =     -45.28455242 Ry
     estimated scf accuracy    <       0.19715977 Ry

     iteration #  2     ecut=    80.00 Ry     beta= 0.70
     Davidson diagonalization with overlap
     ethr =  1.41E-03,  avg # of iterations =  2.4

     total cpu time spent up to now is       29.6 secs

     total energy              =     -45.54324117 Ry
     estimated scf accuracy    <       0.04301981 Ry

     iteration #  3     ecut=    80.00 Ry     beta= 0.70
     Davidson diagonalization with overlap
     ethr =  3.07E-04,  avg # of iterations =  1.3

     total cpu time spent up to now is       31.1 secs

     total energy              =     -45.54084155 Ry
     estimated scf accuracy    <       0.00898221 Ry

     iteration #  4     ecut=    80.00 Ry     beta= 0.70
     Davidson diagonalization with overlap
     ethr =  6.42E-05,  avg # of iterations =  2.3

     total cpu time spent up to now is       32.7 secs

     total energy              =     -45.54160799 Ry
     estimated scf accuracy    <       0.00005026 Ry

     iteration #  5     ecut=    80.00 Ry     beta= 0.70
     Davidson diagonalization with overlap
     c_bands:  1 eigenvalues not converged
     ethr =  3.59E-07,  avg # of iterations =  5.3

     total cpu time spent up to now is       35.1 secs

     total energy              =     -45.54166318 Ry
     estimated scf accuracy    <       0.00001399 Ry

     iteration #  6     ecut=    80.00 Ry     beta= 0.70
     Davidson diagonalization with overlap
     ethr =  9.99E-08,  avg # of iterations =  1.9

     total cpu time spent up to now is       36.6 secs

     total energy              =     -45.54166465 Ry
     estimated scf accuracy    <       0.00000041 Ry

     iteration #  7     ecut=    80.00 Ry     beta= 0.70
     Davidson diagonalization with overlap
     ethr =  2.90E-09,  avg # of iterations =  3.2

     total cpu time spent up to now is       38.4 secs

     total energy              =     -45.54166479 Ry
     estimated scf accuracy    <       0.00000011 Ry

     iteration #  8     ecut=    80.00 Ry     beta= 0.70
     Davidson diagonalization with overlap
     ethr =  8.16E-10,  avg # of iterations =  2.0

     total cpu time spent up to now is       40.0 secs

     End of self-consistent calculation

          k = 0.0000 0.0000 0.0000 (  9413 PWs)   bands (ev):

   -43.1891 -43.1886  -5.8155  -4.5688  -0.4354   4.0560   4.0560   4.2915
     5.6269   5.6269   7.5866

          k = 0.0000 0.0000 0.1141 (  9397 PWs)   bands (ev):

   -43.1891 -43.1886  -5.7304  -4.7457  -0.0557   3.5741   4.1472   4.1472
     5.3959   5.3959   7.7184

          k = 0.0000 0.0000 0.2283 (  9436 PWs)   bands (ev):

   -43.1889 -43.1888  -5.4857  -5.1222   0.9171   2.2205   4.3881   4.3881
     4.9663   4.9663   8.0302

          k = 0.0000 0.1098 0.0000 (  9377 PWs)   bands (ev):

   -43.1890 -43.1885  -5.7396  -4.4821  -0.3825   3.3396   4.1229   4.2244
     5.0056   5.6836   7.9638

          k = 0.0000 0.1098 0.1141 (  9399 PWs)   bands (ev):

   -43.1890 -43.1885  -5.6540  -4.6612  -0.0006   3.4080   3.6353   4.2132
     4.6354   5.4566   8.0853

          k = 0.0000 0.1098 0.2283 (  9424 PWs)   bands (ev):

   -43.1888 -43.1887  -5.4079  -5.0413   0.9755   2.2784   3.7019   4.1475
     4.4497   5.0349   8.2740

          k = 0.0000 0.2197 0.0000 (  9429 PWs)   bands (ev):

   -43.1887 -43.1882  -5.5228  -4.2326  -0.2355   2.0551   3.2857   4.3109
     4.7827   5.8408   6.8638

          k = 0.0000 0.2197 0.1141 (  9426 PWs)   bands (ev):

   -43.1887 -43.1883  -5.4361  -4.4182   0.1524   2.1353   3.1093   3.9613
     4.3980   5.6264   7.3328

          k = 0.0000 0.2197 0.2283 (  9400 PWs)   bands (ev):

   -43.1886 -43.1884  -5.1873  -4.8074   1.1327   2.2754   2.5808   2.8088
     4.6209   5.2288   8.0470

          k = 0.0000 0.3295 0.0000 (  9425 PWs)   bands (ev):

   -43.1883 -43.1879  -5.2068  -3.8615  -0.0426   0.8718   2.0378   4.5753
     5.0303   5.8481   6.0565

          k = 0.0000 0.3295 0.1141 (  9394 PWs)   bands (ev):

   -43.1883 -43.1879  -5.1189  -4.0567   0.3449   0.9486   1.8913   4.1796
     4.6567   5.8631   6.2850

          k = 0.0000 0.3295 0.2283 (  9394 PWs)   bands (ev):

   -43.1883 -43.1879  -4.8707  -4.4555   1.0890   1.2959   1.6614   2.7958
     4.8564   5.5065   7.0014

          k = 0.0000 0.4394 0.0000 (  9419 PWs)   bands (ev):

   -43.1881 -43.1876  -4.8901  -3.4759  -0.1307   0.2871   1.0827   4.8254
     5.1501   5.3045   6.2535

          k = 0.0000 0.4394 0.1141 (  9388 PWs)   bands (ev):

   -43.1881 -43.1876  -4.8020  -3.6803  -0.0261   0.6296   0.9712   4.4688
     4.8994   5.5109   6.0849

          k = 0.0000 0.4394 0.2283 (  9400 PWs)   bands (ev):

   -43.1881 -43.1876  -4.5616  -4.0819   0.1463   0.6848   1.6049   3.1364
     5.0720   5.7768   6.1074

          k = 0.0000-0.5492 0.0000 (  9394 PWs)   bands (ev):

   -43.1880 -43.1875  -4.7464  -3.2937  -0.4144   0.3249   0.7063   4.8962
     4.9326   5.4274   6.3354

          k = 0.0000-0.5492 0.1141 (  9398 PWs)   bands (ev):

   -43.1880 -43.1875  -4.6587  -3.5018  -0.3582   0.5895   0.7293   4.6541
     5.0028   5.1646   6.1796

          k = 0.0000-0.5492 0.2283 (  9370 PWs)   bands (ev):

   -43.1880 -43.1875  -4.4251  -3.9015  -0.2325   0.3737   1.6762   3.3239
     5.1619   5.7251   5.8958

          k = 0.1098 0.1098 0.0000 (  9401 PWs)   bands (ev):

   -43.1889 -43.1884  -5.6639  -4.3954  -0.3302   3.2921   3.5430   4.1890
     4.9700   5.1367   7.8961

          k = 0.1098 0.1098 0.1141 (  9419 PWs)   bands (ev):

   -43.1888 -43.1884  -5.5778  -4.5768   0.0540   3.3578   3.6239   3.6840
     4.6949   4.7105   8.3352

          k = 0.1098 0.1098 0.2283 (  9420 PWs)   bands (ev):

   -43.1887 -43.1886  -5.3300  -4.9609   1.0338   2.3328   3.7023   3.8459
     4.1928   4.2494   8.9967

          k = 0.1098 0.2197 0.0000 (  9400 PWs)   bands (ev):

   -43.1886 -43.1881  -5.4481  -4.1458  -0.1851   2.1213   3.3476   3.6484
     4.7025   5.2657   6.8862

          k = 0.1098 0.2197 0.1141 (  9410 PWs)   bands (ev):

   -43.1885 -43.1882  -5.3607  -4.3342   0.2056   2.2016   3.1766   3.7141
     4.0249   4.8936   7.3676

          k = 0.1098 0.2197 0.2283 (  9400 PWs)   bands (ev):

   -43.1884 -43.1883  -5.1093  -4.7287   1.1905   2.3224   2.6584   2.8851
     3.9820   4.4302   8.2343

          k = 0.1098 0.3295 0.0000 (  9402 PWs)   bands (ev):

   -43.1882 -43.1878  -5.1338  -3.7744   0.0070   0.9472   2.1100   3.9393
     4.9374   5.5156   5.9159

          k = 0.1098 0.3295 0.1141 (  9398 PWs)   bands (ev):

   -43.1882 -43.1878  -5.0449  -3.9733   0.3996   1.0222   1.9671   3.9694
     4.2704   5.1642   6.3597

          k = 0.1098 0.3295 0.2283 (  9405 PWs)   bands (ev):

   -43.1882 -43.1879  -4.7927  -4.3795   1.1714   1.3486   1.7421   2.8374
     4.2656   4.7364   7.1102

          k = 0.1098 0.4394 0.0000 (  9413 PWs)   bands (ev):

   -43.1879 -43.1875  -4.8193  -3.3883  -0.0453   0.3279   1.1569   4.2286
     5.2013   5.2410   5.7533

          k = 0.1098 0.4394 0.1141 (  9405 PWs)   bands (ev):

   -43.1879 -43.1875  -4.7298  -3.5978   0.0630   0.6716   1.0482   4.2239
     4.5917   5.4239   5.6046

          k = 0.1098 0.4394 0.2283 (  9406 PWs)   bands (ev):

   -43.1879 -43.1875  -4.4838  -4.0094   0.2330   0.7645   1.6623   3.1548
     4.5514   5.0531   6.1904

          k = 0.1098-0.5492 0.0000 (  9410 PWs)   bands (ev):

   -43.1878 -43.1874  -4.6769  -3.2057  -0.3225   0.3589   0.7808   4.3576
     4.9950   5.3183   5.8555

          k = 0.1098-0.5492 0.1141 (  9400 PWs)   bands (ev):

   -43.1878 -43.1874  -4.5876  -3.4198  -0.2671   0.6670   0.7695   4.3410
     4.7903   5.2533   5.5477

          k = 0.1098-0.5492 0.2283 (  9404 PWs)   bands (ev):

   -43.1878 -43.1874  -4.3475  -3.8310  -0.1434   0.4562   1.7308   3.3254
     4.6927   5.2050   5.7857

          k = 0.2197 0.2197 0.0000 (  9401 PWs)   bands (ev):

   -43.1883 -43.1879  -5.2353  -3.8958  -0.0453   2.1382   2.6113   3.3746
     3.8071   5.1870   6.7229

          k = 0.2197 0.2197 0.1141 (  9396 PWs)   bands (ev):

   -43.1882 -43.1879  -5.1460  -4.0926   0.3529   2.2249   2.6736   3.2682
     3.5413   4.3282   7.1708

          k = 0.2197 0.2197 0.2283 (  9406 PWs)   bands (ev):

   -43.1881 -43.1880  -4.8883  -4.5015   1.3441   2.3458   2.8491   2.8873
     3.0575   3.1760   8.1247

          k = 0.2197 0.3295 0.0000 (  9398 PWs)   bands (ev):

   -43.1879 -43.1876  -4.9263  -3.5235   0.1420   1.1610   2.3111   2.7533
     3.8942   5.4448   6.0796

          k = 0.2197 0.3295 0.1141 (  9403 PWs)   bands (ev):

   -43.1879 -43.1876  -4.8348  -3.7336   0.5472   1.2327   2.1818   2.8138
     3.7046   4.5754   6.4807

          k = 0.2197 0.3295 0.2283 (  9404 PWs)   bands (ev):

   -43.1878 -43.1876  -4.5717  -4.1608   1.4026   1.4879   1.9751   2.8066
     3.2602   3.4517   7.2126

          k = 0.2197 0.4394 0.0000 (  9390 PWs)   bands (ev):

   -43.1876 -43.1873  -4.6189  -3.1356   0.1916   0.4515   1.3667   3.0824
     4.1536   5.5060   5.7107

          k = 0.2197 0.4394 0.1141 (  9396 PWs)   bands (ev):

   -43.1876 -43.1873  -4.5257  -3.3606   0.3212   0.7869   1.2680   3.1301
     4.0071   4.8744   5.8115

          k = 0.2197 0.4394 0.2283 (  9396 PWs)   bands (ev):

   -43.1876 -43.1873  -4.2637  -3.8016   0.4828   0.9924   1.8151   3.0391
     3.6711   3.8060   6.3110

          k = 0.2197-0.5492 0.0000 (  9388 PWs)   bands (ev):

   -43.1875 -43.1872  -4.4805  -2.9519  -0.0543   0.4518   0.9915   3.2407
     4.2694   5.2894   5.8280

          k = 0.2197-0.5492 0.1141 (  9390 PWs)   bands (ev):

   -43.1875 -43.1872  -4.3869  -3.1841  -0.0018   0.8800   0.8879   3.2793
     4.1564   5.0468   5.5048

          k = 0.2197-0.5492 0.2283 (  9396 PWs)   bands (ev):

   -43.1875 -43.1872  -4.1283  -3.6295   0.1142   0.6949   1.8720   3.1545
     3.8933   3.9802   5.9082

          k = 0.3295 0.3295 0.0000 (  9381 PWs)   bands (ev):

   -43.1875 -43.1873  -4.6269  -3.1490   0.3199   1.3225   1.8031   2.4845
     2.7704   5.6996   6.1464

          k = 0.3295 0.3295 0.1141 (  9400 PWs)   bands (ev):

   -43.1875 -43.1873  -4.5318  -3.3777   0.7399   1.3998   1.8414   2.4147
     2.6013   4.7880   6.4510

          k = 0.3295 0.3295 0.2283 (  9400 PWs)   bands (ev):

   -43.1874 -43.1873  -4.2556  -3.8351   1.6037   1.6235   1.9606   2.2517
     2.4008   3.3363   6.9894

          k = 0.3295 0.4394 0.0000 (  9393 PWs)   bands (ev):

   -43.1872 -43.1870  -4.3321  -2.7575   0.4608   0.7110   1.6656   1.9847
     2.9220   5.8269   5.9631

          k = 0.3295 0.4394 0.1141 (  9386 PWs)   bands (ev):

   -43.1872 -43.1870  -4.2337  -3.0087   0.7102   0.9446   1.5868   2.0294
     2.8348   5.0585   5.9844

          k = 0.3295 0.4394 0.2283 (  9381 PWs)   bands (ev):

   -43.1872 -43.1870  -3.9496  -3.4947   0.8541   1.3236   1.9530   2.1726
     2.7228   3.6263   6.1472

          k = 0.3295-0.5492 0.0000 (  9378 PWs)   bands (ev):

   -43.1871 -43.1869  -4.2007  -2.5713   0.3592   0.5760   1.2926   2.1607
     3.0423   5.5252   5.8544

          k = 0.3295-0.5492 0.1141 (  9372 PWs)   bands (ev):

   -43.1871 -43.1869  -4.1010  -2.8346   0.4046   1.0316   1.2095   2.2000
     2.9803   5.2338   5.5936

          k = 0.3295-0.5492 0.2283 (  9372 PWs)   bands (ev):

   -43.1871 -43.1869  -3.8158  -3.3330   0.5017   1.0544   1.9844   2.3321
     2.9060   3.7997   5.7428

          k = 0.4394 0.4394 0.0000 (  9355 PWs)   bands (ev):

   -43.1868 -43.1868  -4.0533  -2.3600   0.6195   1.0241   1.2693   1.9086
     2.0201   4.9228   6.2219

          k = 0.4394 0.4394 0.1141 (  9361 PWs)   bands (ev):

   -43.1868 -43.1868  -3.9498  -2.6445   1.0734   1.0766   1.2890   1.8575
     1.9820   4.9891   5.3872

          k = 0.4394 0.4394 0.2283 (  9376 PWs)   bands (ev):

   -43.1868 -43.1868  -3.6473  -3.1778   1.1968   1.2958   1.6559   1.7477
     2.4369   3.8162   5.3553

          k = 0.4394-0.5492 0.0000 (  9380 PWs)   bands (ev):

   -43.1867 -43.1867  -3.9306  -2.1695   0.6908   0.8210   1.3702   1.5844
     2.0929   4.5101   6.3356

          k = 0.4394-0.5492 0.1141 (  9344 PWs)   bands (ev):

   -43.1867 -43.1867  -3.8249  -2.4732   0.8517   1.1846   1.3941   1.5323
     2.0706   4.6240   5.4615

          k = 0.4394-0.5492 0.2283 (  9360 PWs)   bands (ev):

   -43.1867 -43.1867  -3.5160  -3.0290   0.9125   1.4378   1.4400   1.8496
     2.5033   3.9344   4.9592

          k =-0.5492-0.5492 0.0000 (  9348 PWs)   bands (ev):

   -43.1866 -43.1866  -3.8125  -1.9761   0.7502   1.0606   1.0606   1.7124
     1.7124   4.0708   6.4481

          k =-0.5492-0.5492 0.1141 (  9380 PWs)   bands (ev):

   -43.1866 -43.1866  -3.7042  -2.3032   1.0782   1.0782   1.2908   1.6807
     1.6807   4.1969   5.5717

          k =-0.5492-0.5492 0.2283 (  9344 PWs)   bands (ev):

   -43.1866 -43.1866  -3.3863  -2.8870   1.1108   1.1108   1.6258   1.6258
     2.5056   4.0143   4.5753

     the Fermi energy is     2.4347 ev

!    total energy              =     -45.54166481 Ry
     estimated scf accuracy    <          5.3E-09 Ry
     smearing contrib. (-TS)   =       0.00128552 Ry
     internal energy E=F+TS    =     -45.54295033 Ry

     The total energy is F=E-TS. E is the sum of the following terms:
     one-electron contribution =     -16.18077626 Ry
     hartree contribution      =       8.69738774 Ry
     xc contribution           =     -12.55020882 Ry
     ewald contribution        =     -25.50935298 Ry

     convergence has been achieved in   8 iterations

     Forces acting on atoms (cartesian axes, Ry/au):

     atom    1 type  1   force =     0.00000000    0.00000000    0.00000000
     atom    2 type  1   force =     0.00000000    0.00000000    0.00000000
     atom    3 type  2   force =     0.00000000    0.00000000    0.00000000
     atom    4 type  2   force =     0.00000000    0.00000000    0.00000000
     The non-local contrib.  to forces
     atom    1 type  1   force =     0.00000000    0.00000000    0.00000000
     atom    2 type  1   force =     0.00000000    0.00000000    0.00000000
     atom    3 type  2   force =     0.00000000    0.00000000    0.00000000
     atom    4 type  2   force =     0.00000000    0.00000000    0.00000000
     The ionic contribution  to forces
     atom    1 type  1   force =    -0.00000000    0.00000000   -0.00000000
     atom    2 type  1   force =    -0.00000000   -0.00000000   -0.00000000
     atom    3 type  2   force =    -0.00000000   -0.00000000    0.00000000
     atom    4 type  2   force =    -0.00000000   -0.00000000   -0.00000000
     The local contribution  to forces
     atom    1 type  1   force =     0.00000000    0.00000000    0.00000000
     atom    2 type  1   force =     0.00000000    0.00000000    0.00000000
     atom    3 type  2   force =     0.00000000    0.00000000   -0.00000000
     atom    4 type  2   force =    -0.00000000   -0.00000000    0.00000000
     The core correction contribution to forces
     atom    1 type  1   force =     0.00000000    0.00000000    0.00000000
     atom    2 type  1   force =     0.00000000    0.00000000    0.00000000
     atom    3 type  2   force =     0.00000000    0.00000000   -0.00000000
     atom    4 type  2   force =     0.00000000    0.00000000   -0.00000000
     The Hubbard contrib.    to forces
     atom    1 type  1   force =     0.00000000    0.00000000    0.00000000
     atom    2 type  1   force =     0.00000000    0.00000000    0.00000000
     atom    3 type  2   force =     0.00000000    0.00000000    0.00000000
     atom    4 type  2   force =     0.00000000    0.00000000    0.00000000
     The SCF correction term to forces
     atom    1 type  1   force =     0.00000000   -0.00000000   -0.00000000
     atom    2 type  1   force =     0.00000000    0.00000000    0.00000000
     atom    3 type  2   force =     0.00000000   -0.00000000   -0.00000000
     atom    4 type  2   force =    -0.00000000   -0.00000000   -0.00000000

     Total force =     0.000000     Total SCF correction =     0.000000


     Computing stress (Cartesian axis) and pressure

          total   stress  (Ry/bohr**3)                   (kbar)     P=      -21.13
  -0.00026228   0.00000000   0.00000000          -38.58        0.00        0.00
   0.00000000  -0.00026228   0.00000000            0.00      -38.58        0.00
   0.00000000   0.00000000   0.00009367            0.00        0.00       13.78

     Energy error            =      7.0E-01 Ry
     Gradient error          =      1.4E-31 Ry/Bohr
     Cell gradient error     =      5.4E+02 kbar

     number of scf cycles    =   2
     number of bfgs steps    =   1

     enthalpy           old  =     -42.8459962981 Ry
     enthalpy           new  =     -43.5433004011 Ry

     CASE: enthalpy          _new < enthalpy          _old

     new trust radius        =       0.7163245587 bohr
ibrav =      6
 celldm(1) =      5.74000928
 celldm(3) =      1.95948952
Input lattice vectors:
     0.77588415     0.00000000     0.00000000
     0.00000000     0.77588415     0.00000000
     0.00000000     0.00000000     1.52033687
New lattice vectors in INITIAL alat:
     0.77588415     0.00000000     0.00000000
     0.00000000     0.77588415     0.00000000
     0.00000000     0.00000000     1.52033687
New lattice vectors in NEW alat (for information only):
     1.00000000     0.00000000     0.00000000
     0.00000000     1.00000000     0.00000000
     0.00000000     0.00000000     1.95948952
Discrepancy in bohr =     0.000000    0.000000    0.000000
     new conv_thr            =            1.0E-10 Ry

     new unit-cell volume =    370.57893 a.u.^3 (    54.91413 Ang^3 )
     density =      2.11832 g/cm^3

CELL_PARAMETERS (alat=  7.39802360)
   0.775884154   0.000000000   0.000000000
   0.000000000   0.775884154   0.000000000
   0.000000000   0.000000000   1.520336865

ATOMIC_POSITIONS (crystal)
Li            0.0000000000        0.5000000000        0.0000000000
Li            0.5000000000        0.0000000000        0.5000000000
Si            0.0000000000        0.0000000000        0.2500000000
Si            0.0000000000        0.0000000000        0.7500000000



     Writing config-only to output data dir ./output/LiSi.save/
     NEW-OLD atomic charge density approx. for the potential

     negative rho (up, down):  7.162E-02 0.000E+00
     extrapolated charge    5.79448, renormalised to   14.00000

     total cpu time spent up to now is       43.8 secs

     Self-consistent Calculation

     iteration #  1     ecut=    80.00 Ry     beta= 0.70
     Davidson diagonalization with overlap
     c_bands:  1 eigenvalues not converged
     c_bands:  1 eigenvalues not converged
     c_bands:  1 eigenvalues not converged
     ethr =  1.00E-06,  avg # of iterations = 13.2

     total cpu time spent up to now is       49.5 secs

     total energy              =     -44.65784582 Ry
     estimated scf accuracy    <       1.47164853 Ry

     iteration #  2     ecut=    80.00 Ry     beta= 0.70
     Davidson diagonalization with overlap
     ethr =  1.00E-02,  avg # of iterations =  2.0

     total cpu time spent up to now is       51.3 secs

     total energy              =     -45.45094307 Ry
     estimated scf accuracy    <       0.22717122 Ry

     iteration #  3     ecut=    80.00 Ry     beta= 0.70
     Davidson diagonalization with overlap
     ethr =  1.62E-03,  avg # of iterations =  1.3

     total cpu time spent up to now is       52.6 secs

     total energy              =     -45.45608002 Ry
     estimated scf accuracy    <       0.02045723 Ry

     iteration #  4     ecut=    80.00 Ry     beta= 0.70
     Davidson diagonalization with overlap
     ethr =  1.46E-04,  avg # of iterations =  2.6

     total cpu time spent up to now is       54.2 secs

     total energy              =     -45.45941700 Ry
     estimated scf accuracy    <       0.00027002 Ry

     iteration #  5     ecut=    80.00 Ry     beta= 0.70
     Davidson diagonalization with overlap
     c_bands:  1 eigenvalues not converged
     c_bands:  1 eigenvalues not converged
     ethr =  1.93E-06,  avg # of iterations =  6.1

     total cpu time spent up to now is       56.3 secs

     total energy              =     -45.45950527 Ry
     estimated scf accuracy    <       0.00000524 Ry

     iteration #  6     ecut=    80.00 Ry     beta= 0.70
     Davidson diagonalization with overlap
     ethr =  3.74E-08,  avg # of iterations =  3.0

     total cpu time spent up to now is       57.9 secs

     total energy              =     -45.45950734 Ry
     estimated scf accuracy    <       0.00000016 Ry

     iteration #  7     ecut=    80.00 Ry     beta= 0.70
     Davidson diagonalization with overlap
     ethr =  1.18E-09,  avg # of iterations =  2.8

     total cpu time spent up to now is       59.6 secs

     total energy              =     -45.45950740 Ry
     estimated scf accuracy    <       0.00000004 Ry

     iteration #  8     ecut=    80.00 Ry     beta= 0.70
     Davidson diagonalization with overlap
     ethr =  2.90E-10,  avg # of iterations =  2.0

     total cpu time spent up to now is       61.1 secs

     total energy              =     -45.45950740 Ry
     estimated scf accuracy    <          1.3E-09 Ry

     iteration #  9     ecut=    80.00 Ry     beta= 0.70
     Davidson diagonalization with overlap
     ethr =  9.30E-12,  avg # of iterations =  2.3

     total cpu time spent up to now is       62.6 secs

     End of self-consistent calculation

          k = 0.0000 0.0000 0.0000 (  9413 PWs)   bands (ev):

   -39.6064 -39.6009  -3.9906  -2.2325   1.9814   8.5357   8.6423   8.6423
    11.4328  11.4328  11.7837

          k = 0.0000 0.0000 0.1315 (  9397 PWs)   bands (ev):

   -39.6059 -39.6014  -3.8794  -2.5093   2.5261   7.4708   8.7772   8.7772
    10.8657  10.8657  12.3439

          k = 0.0000 0.0000 0.2631 (  9436 PWs)   bands (ev):

   -39.6045 -39.6028  -3.5549  -3.0570   3.8638   5.6172   9.1405   9.1405
    10.0571  10.0571  12.7693

          k = 0.0000 0.1289 0.0000 (  9377 PWs)   bands (ev):

   -39.6054 -39.6002  -3.8718  -2.0873   2.0385   7.4666   8.4558   8.7561
    10.1923  11.5374  12.0195

          k = 0.0000 0.1289 0.1315 (  9399 PWs)   bands (ev):

   -39.6049 -39.6006  -3.7597  -2.3709   2.5894   7.3048   7.8664   8.8898
     9.4311  10.9772  12.8508

          k = 0.0000 0.1289 0.2631 (  9424 PWs)   bands (ev):

   -39.6036 -39.6019  -3.4326  -2.9277   3.9320   5.6760   8.0659   8.6590
     9.2472  10.1783  13.1022

          k = 0.0000 0.2578 0.0000 (  9429 PWs)   bands (ev):

   -39.6027 -39.5981  -3.5248  -1.6574   2.1856   5.5889   7.3136   9.0837
     9.5622  10.7573  11.8371

          k = 0.0000 0.2578 0.1315 (  9426 PWs)   bands (ev):

   -39.6023 -39.5985  -3.4108  -1.9621   2.7524   5.6609   7.1094   8.1171
     9.2132  11.2991  11.6778

          k = 0.0000 0.2578 0.2631 (  9400 PWs)   bands (ev):

   -39.6014 -39.5994  -3.0812  -2.5413   4.0822   5.6051   6.4344   6.7366
     9.5510  10.5322  12.5822

          k = 0.0000 0.3867 0.0000 (  9425 PWs)   bands (ev):

   -39.5996 -39.5954  -2.9881  -0.9679   2.2932   3.9711   5.4567   9.4472
     9.5711   9.9588  12.2782

          k = 0.0000 0.3867 0.1315 (  9394 PWs)   bands (ev):

   -39.5994 -39.5956  -2.8744  -1.3083   2.8420   4.0523   5.3198   8.3266
     9.6920  10.3915  11.7838

          k = 0.0000 0.3867 0.2631 (  9394 PWs)   bands (ev):

   -39.5990 -39.5961  -2.5599  -1.9055   3.8476   4.2134   5.3130   6.5632
     9.9917  11.0800  11.1806

          k = 0.0000 0.5155 0.0000 (  9419 PWs)   bands (ev):

   -39.5972 -39.5931  -2.3840  -0.1135   1.8898   3.2583   3.8246   8.5446
    10.0775  10.5196  12.7271

          k = 0.0000 0.5155 0.1315 (  9388 PWs)   bands (ev):

   -39.5971 -39.5932  -2.2783  -0.4948   2.1230   3.3867   4.0334   8.5120
     9.6305  10.1840  12.3053

          k = 0.0000 0.5155 0.2631 (  9400 PWs)   bands (ev):

   -39.5970 -39.5933  -2.0176  -1.0749   2.3681   3.2840   5.0950   7.1731
     9.8039  10.4283  11.6997

          k = 0.0000-0.6444 0.0000 (  9394 PWs)   bands (ev):

   -39.5963 -39.5922  -2.0665   0.4290   1.4621   3.0163   3.2209   8.2165
    10.3164  10.8118  12.9340

          k = 0.0000-0.6444 0.1315 (  9398 PWs)   bands (ev):

   -39.5963 -39.5922  -1.9715   0.0513   1.4822   2.9484   3.8607   8.4844
     9.4794  10.4129  12.5672

          k = 0.0000-0.6444 0.2631 (  9370 PWs)   bands (ev):

   -39.5963 -39.5922  -1.7591  -0.4913   1.5176   2.8401   5.1331   7.6922
     9.0182  10.6238  12.0285

          k = 0.1289 0.1289 0.0000 (  9401 PWs)   bands (ev):

   -39.6044 -39.5994  -3.7530  -1.9420   2.0972   7.3692   7.8041   8.3792
    10.1809  10.5258  12.1876

          k = 0.1289 0.1289 0.1315 (  9419 PWs)   bands (ev):

   -39.6039 -39.5999  -3.6399  -2.2329   2.6545   7.2037   7.9053   7.9758
     9.3678   9.8088  13.1411

          k = 0.1289 0.1289 0.2631 (  9420 PWs)   bands (ev):

   -39.6026 -39.6011  -3.3094  -2.7997   4.0030   5.7251   8.1629   8.1950
     8.6875   8.8771  14.1134

          k = 0.1289 0.2578 0.0000 (  9400 PWs)   bands (ev):

   -39.6017 -39.5974  -3.4060  -1.5120   2.2502   5.6678   7.3660   7.9499
     9.6174  10.6814  10.8378

          k = 0.1289 0.2578 0.1315 (  9410 PWs)   bands (ev):

   -39.6013 -39.5978  -3.2907  -1.8251   2.8241   5.7367   7.1862   7.8657
     8.4897   9.9432  11.8775

          k = 0.1289 0.2578 0.2631 (  9400 PWs)   bands (ev):

   -39.6004 -39.5987  -2.9553  -2.4172   4.1633   5.6366   6.5572   6.8480
     8.5170   9.1303  13.1589

          k = 0.1289 0.3867 0.0000 (  9402 PWs)   bands (ev):

   -39.5986 -39.5947  -2.8697  -0.8221   2.3783   4.0444   5.5651   8.4120
     9.5684   9.9668  11.1689

          k = 0.1289 0.3867 0.1315 (  9398 PWs)   bands (ev):

   -39.5983 -39.5950  -2.7539  -1.1732   2.9413   4.1220   5.4337   8.1262
     8.8926  10.2282  10.8664

          k = 0.1289 0.3867 0.2631 (  9405 PWs)   bands (ev):

   -39.5979 -39.5954  -2.4299  -1.7880   3.9724   4.2909   5.4116   6.5947
     9.0060   9.6586  11.6140

          k = 0.1289 0.5155 0.0000 (  9413 PWs)   bands (ev):

   -39.5962 -39.5925  -2.2669   0.0341   2.0207   3.2889   3.9446   8.6272
     8.9917  10.5149  11.6881

          k = 0.1289 0.5155 0.1315 (  9405 PWs)   bands (ev):

   -39.5961 -39.5925  -2.1579  -0.3633   2.2585   3.4628   4.1193   8.4445
     9.0764  10.0196  11.1747

          k = 0.1289 0.5155 0.2631 (  9406 PWs)   bands (ev):

   -39.5960 -39.5926  -1.8845  -0.9666   2.4951   3.4025   5.1709   7.1349
     9.3702  10.1366  10.6103

          k = 0.1289-0.6444 0.0000 (  9410 PWs)   bands (ev):

   -39.5953 -39.5915  -1.9507   0.5797   1.6000   3.1361   3.2446   8.3416
     9.2142  10.8033  11.9377

          k = 0.1289-0.6444 0.1315 (  9400 PWs)   bands (ev):

   -39.5953 -39.5915  -1.8513   0.1781   1.6196   3.0702   3.9048   8.6023
     8.8982  10.2023  11.4739

          k = 0.1289-0.6444 0.2631 (  9404 PWs)   bands (ev):

   -39.5953 -39.5915  -1.6250  -0.3936   1.6541   2.9650   5.2038   7.5560
     9.1189  10.1230  10.8664

          k = 0.2578 0.2578 0.0000 (  9401 PWs)   bands (ev):

   -39.5990 -39.5954  -3.0593  -1.0815   2.4214   5.6166   6.4423   7.1934
     8.9075  10.1703  10.6214

          k = 0.2578 0.2578 0.1315 (  9396 PWs)   bands (ev):

   -39.5987 -39.5958  -2.9407  -1.4205   3.0148   5.6908   6.4909   7.1296
     8.2339   8.7524  11.5858

          k = 0.2578 0.2578 0.2631 (  9406 PWs)   bands (ev):

   -39.5978 -39.5967  -2.5923  -2.0473   4.3559   5.5982   6.6253   6.9704
     7.1844   7.4146  13.2363

          k = 0.2578 0.3867 0.0000 (  9398 PWs)   bands (ev):

   -39.5958 -39.5929  -2.5250  -0.3899   2.6034   4.2569   5.8460   6.6179
     8.8371   9.7660  10.6563

          k = 0.2578 0.3867 0.1315 (  9403 PWs)   bands (ev):

   -39.5956 -39.5931  -2.4035  -0.7751   3.2064   4.3273   5.7405   6.6370
     8.2863   9.2035  10.6733

          k = 0.2578 0.3867 0.2631 (  9404 PWs)   bands (ev):

   -39.5951 -39.5936  -2.0533  -1.4411   4.3225   4.4874   5.6737   6.4151
     7.6885   7.8012  11.8898

          k = 0.2578 0.5155 0.0000 (  9390 PWs)   bands (ev):

   -39.5934 -39.5907  -1.9275   0.4725   2.3989   3.3787   4.2889   7.1617
     9.0147   9.3147  11.2252

          k = 0.2578 0.5155 0.1315 (  9396 PWs)   bands (ev):

   -39.5933 -39.5908  -1.8090   0.0227   2.6574   3.6531   4.3910   7.1364
     8.7481   9.6057  10.0803

          k = 0.2578 0.5155 0.2631 (  9396 PWs)   bands (ev):

   -39.5932 -39.5909  -1.4967  -0.6519   2.8646   3.7466   5.3499   6.7668
     8.4810   8.5331  10.4823

          k = 0.2578-0.6444 0.0000 (  9388 PWs)   bands (ev):

   -39.5925 -39.5898  -1.6164   1.0294   2.0089   3.3089   3.4817   7.4773
     8.7155   9.5845  10.9801

          k = 0.2578-0.6444 0.1315 (  9390 PWs)   bands (ev):

   -39.5925 -39.5898  -1.5044   0.5493   2.0256   3.4247   4.0296   7.4206
     8.9402   9.4544  10.4307

          k = 0.2578-0.6444 0.2631 (  9396 PWs)   bands (ev):

   -39.5925 -39.5898  -1.2341  -0.1121   2.0547   3.3337   5.3600   7.0049
     9.0442   9.3521   9.3772

          k = 0.3867 0.3867 0.0000 (  9381 PWs)   bands (ev):

   -39.5925 -39.5906  -1.9967   0.3066   2.8707   4.3442   5.2915   5.9007
     7.3990   9.8072  11.1227

          k = 0.3867 0.3867 0.1315 (  9400 PWs)   bands (ev):

   -39.5923 -39.5908  -1.8682  -0.1427   3.5223   4.4328   5.2704   5.8644
     7.0605   9.4421  10.4514

          k = 0.3867 0.3867 0.2631 (  9400 PWs)   bands (ev):

   -39.5918 -39.5913  -1.4883  -0.8818   4.6013   4.6504   5.3032   5.7275
     6.7979   7.6725  11.5516

          k = 0.3867 0.5155 0.0000 (  9393 PWs)   bands (ev):

   -39.5900 -39.5886  -1.4132   1.1841   2.9409   3.5505   4.7868   5.5307
     7.4339   9.5043   9.5975

          k = 0.3867 0.5155 0.1315 (  9386 PWs)   bands (ev):

   -39.5899 -39.5886  -1.2808   0.6309   3.2842   3.8787   4.8313   5.5321
     7.3232   9.4528   9.8316

          k = 0.3867 0.5155 0.2631 (  9381 PWs)   bands (ev):

   -39.5898 -39.5887  -0.9051  -0.1635   3.4289   4.2605   5.3442   5.6586
     7.2768   8.2618  10.2799

          k = 0.3867-0.6444 0.0000 (  9378 PWs)   bands (ev):

   -39.5891 -39.5877  -1.1147   1.7679   2.6674   3.3973   3.9981   5.8650
     7.6629   8.9158   9.3778

          k = 0.3867-0.6444 0.1315 (  9372 PWs)   bands (ev):

   -39.5891 -39.5877  -0.9833   1.1281   2.6731   3.9682   4.2222   5.8568
     7.6851   9.0686   9.3960

          k = 0.3867-0.6444 0.2631 (  9372 PWs)   bands (ev):

   -39.5891 -39.5877  -0.6351   0.3145   2.6823   3.9215   5.3273   5.9587
     7.7705   9.0545   9.1914

          k = 0.5155 0.5155 0.0000 (  9355 PWs)   bands (ev):

   -39.5873 -39.5868  -0.8581   2.1021   3.3196   3.8384   4.4575   5.0753
     6.0174   8.0203  10.0323

          k = 0.5155 0.5155 0.1315 (  9361 PWs)   bands (ev):

   -39.5872 -39.5868  -0.7120   1.3598   3.8720   4.1209   4.3611   5.0875
     6.2195   8.1390   9.7568

          k = 0.5155 0.5155 0.2631 (  9376 PWs)   bands (ev):

   -39.5871 -39.5869  -0.2777   0.4295   3.9761   4.1498   4.9091   5.0935
     7.0660   8.2272   9.2339

          k = 0.5155-0.6444 0.0000 (  9380 PWs)   bands (ev):

   -39.5864 -39.5860  -0.5828   2.7607   3.4906   3.5045   4.5386   4.6062
     5.9062   7.2859  10.2169

          k = 0.5155-0.6444 0.1315 (  9344 PWs)   bands (ev):

   -39.5864 -39.5860  -0.4312   1.8090   3.4581   4.4706   4.5771   4.5906
     6.1886   7.4407   9.4409

          k = 0.5155-0.6444 0.2631 (  9360 PWs)   bands (ev):

   -39.5864 -39.5860   0.0118   0.8087   3.4091   4.4255   4.6384   5.3124
     7.2990   7.8693   8.5473

          k =-0.6444-0.6444 0.0000 (  9348 PWs)   bands (ev):

   -39.5853 -39.5853  -0.3252   3.6115   3.6261   4.0205   4.0205   4.7958
     4.7958   6.4787  12.8531

          k =-0.6444-0.6444 0.1315 (  9380 PWs)   bands (ev):

   -39.5853 -39.5853  -0.1643   2.2180   3.9252   3.9252   4.9190   4.9190
     5.2994   6.6464  11.5521

          k =-0.6444-0.6444 0.2631 (  9344 PWs)   bands (ev):

   -39.5853 -39.5853   0.3168   1.1135   3.8080   3.8080   5.0822   5.0822
     7.1489   7.2344   9.3725

     the Fermi energy is     6.1528 ev

!    total energy              =     -45.45950740 Ry
     estimated scf accuracy    <          4.6E-12 Ry
     smearing contrib. (-TS)   =       0.00189892 Ry
     internal energy E=F+TS    =     -45.46140632 Ry

     The total energy is F=E-TS. E is the sum of the following terms:
     one-electron contribution =     -10.21608071 Ry
     hartree contribution      =       7.68461416 Ry
     xc contribution           =     -13.11644600 Ry
     ewald contribution        =     -29.81349378 Ry

     convergence has been achieved in   9 iterations

     Forces acting on atoms (cartesian axes, Ry/au):

     atom    1 type  1   force =     0.00000000    0.00000000    0.00000000
     atom    2 type  1   force =     0.00000000    0.00000000    0.00000000
     atom    3 type  2   force =     0.00000000    0.00000000   -0.00000000
     atom    4 type  2   force =     0.00000000    0.00000000    0.00000000
     The non-local contrib.  to forces
     atom    1 type  1   force =     0.00000000    0.00000000    0.00000000
     atom    2 type  1   force =     0.00000000    0.00000000    0.00000000
     atom    3 type  2   force =     0.00000000    0.00000000    0.00000000
     atom    4 type  2   force =     0.00000000    0.00000000    0.00000000
     The ionic contribution  to forces
     atom    1 type  1   force =    -0.00000000   -0.00000000   -0.00000000
     atom    2 type  1   force =    -0.00000000   -0.00000000   -0.00000000
     atom    3 type  2   force =    -0.00000000   -0.00000000   -0.00000000
     atom    4 type  2   force =    -0.00000000   -0.00000000   -0.00000000
     The local contribution  to forces
     atom    1 type  1   force =     0.00000000    0.00000000   -0.00000000
     atom    2 type  1   force =     0.00000000    0.00000000    0.00000000
     atom    3 type  2   force =     0.00000000    0.00000000    0.00000000
     atom    4 type  2   force =     0.00000000   -0.00000000   -0.00000000
     The core correction contribution to forces
     atom    1 type  1   force =     0.00000000    0.00000000    0.00000000
     atom    2 type  1   force =     0.00000000    0.00000000    0.00000000
     atom    3 type  2   force =     0.00000000    0.00000000    0.00000000
     atom    4 type  2   force =     0.00000000    0.00000000   -0.00000000
     The Hubbard contrib.    to forces
     atom    1 type  1   force =     0.00000000    0.00000000    0.00000000
     atom    2 type  1   force =     0.00000000    0.00000000    0.00000000
     atom    3 type  2   force =     0.00000000    0.00000000    0.00000000
     atom    4 type  2   force =     0.00000000    0.00000000    0.00000000
     The SCF correction term to forces
     atom    1 type  1   force =     0.00000000    0.00000000   -0.00000000
     atom    2 type  1   force =    -0.00000000   -0.00000000    0.00000000
     atom    3 type  2   force =     0.00000000    0.00000000   -0.00000000
     atom    4 type  2   force =     0.00000000   -0.00000000    0.00000000

     Total force =     0.000000     Total SCF correction =     0.000000


     Computing stress (Cartesian axis) and pressure

          total   stress  (Ry/bohr**3)                   (kbar)     P=      216.70
   0.00090847   0.00000000   0.00000000          133.64        0.00        0.00
   0.00000000   0.00090847   0.00000000            0.00      133.64        0.00
   0.00000000   0.00000000   0.00260244            0.00        0.00      382.83

     Energy error            =      6.6E-01 Ry
     Gradient error          =      1.3E-31 Ry/Bohr
     Cell gradient error     =      3.7E+02 kbar

     number of scf cycles    =   3
     number of bfgs steps    =   2

     enthalpy           old  =     -43.5433004011 Ry
     enthalpy           new  =     -44.1999352065 Ry

     CASE: enthalpy          _new < enthalpy          _old

     new trust radius        =       0.5448357282 bohr
ibrav =      6
 celldm(1) =      4.92772544
 celldm(3) =      2.10713628
Input lattice vectors:
     0.66608674     0.00000000     0.00000000
     0.00000000     0.66608674     0.00000000
     0.00000000     0.00000000     1.40353554
New lattice vectors in INITIAL alat:
     0.66608674     0.00000000     0.00000000
     0.00000000     0.66608674     0.00000000
     0.00000000     0.00000000     1.40353554
New lattice vectors in NEW alat (for information only):
     1.00000000     0.00000000     0.00000000
     0.00000000     1.00000000     0.00000000
     0.00000000     0.00000000     2.10713628
Discrepancy in bohr =     0.000000    0.000000    0.000000
     new conv_thr            =            1.0E-10 Ry

     new unit-cell volume =    252.13442 a.u.^3 (    37.36247 Ang^3 )
     density =      3.11344 g/cm^3

CELL_PARAMETERS (alat=  7.39802360)
   0.666086742   0.000000000   0.000000000
   0.000000000   0.666086742   0.000000000
   0.000000000   0.000000000   1.403535540

ATOMIC_POSITIONS (crystal)
Li            0.0000000000        0.5000000000        0.0000000000
Li            0.5000000000        0.0000000000        0.5000000000
Si            0.0000000000        0.0000000000        0.2500000000
Si            0.0000000000        0.0000000000        0.7500000000



     Writing config-only to output data dir ./output/LiSi.save/
     NEW-OLD atomic charge density approx. for the potential

     negative rho (up, down):  1.014E-03 0.000E+00
     extrapolated charge    7.42812, renormalised to   14.00000

     total cpu time spent up to now is       66.3 secs

     Self-consistent Calculation

     iteration #  1     ecut=    80.00 Ry     beta= 0.70
     Davidson diagonalization with overlap
     c_bands:  1 eigenvalues not converged
     c_bands:  1 eigenvalues not converged
     c_bands:  1 eigenvalues not converged
     c_bands:  1 eigenvalues not converged
     ethr =  1.00E-06,  avg # of iterations = 13.5

     total cpu time spent up to now is       71.4 secs

     total energy              =     -44.58565668 Ry
     estimated scf accuracy    <       0.51453655 Ry

     iteration #  2     ecut=    80.00 Ry     beta= 0.70
     Davidson diagonalization with overlap
     ethr =  3.68E-03,  avg # of iterations =  2.4

     total cpu time spent up to now is       73.2 secs

     total energy              =     -45.12688225 Ry
     estimated scf accuracy    <       0.13469842 Ry

     iteration #  3     ecut=    80.00 Ry     beta= 0.70
     Davidson diagonalization with overlap
     ethr =  9.62E-04,  avg # of iterations =  1.1

     total cpu time spent up to now is       74.4 secs

     total energy              =     -45.12006671 Ry
     estimated scf accuracy    <       0.02232307 Ry

     iteration #  4     ecut=    80.00 Ry     beta= 0.70
     Davidson diagonalization with overlap
     ethr =  1.59E-04,  avg # of iterations =  2.5

     total cpu time spent up to now is       75.9 secs

     total energy              =     -45.12328349 Ry
     estimated scf accuracy    <       0.00018018 Ry

     iteration #  5     ecut=    80.00 Ry     beta= 0.70
     Davidson diagonalization with overlap
     c_bands:  1 eigenvalues not converged
     ethr =  1.29E-06,  avg # of iterations =  6.0

     total cpu time spent up to now is       78.0 secs

     total energy              =     -45.12334248 Ry
     estimated scf accuracy    <       0.00000223 Ry

     iteration #  6     ecut=    80.00 Ry     beta= 0.70
     Davidson diagonalization with overlap
     ethr =  1.60E-08,  avg # of iterations =  3.1

     total cpu time spent up to now is       79.6 secs

     total energy              =     -45.12334333 Ry
     estimated scf accuracy    <       0.00000025 Ry

     iteration #  7     ecut=    80.00 Ry     beta= 0.70
     Davidson diagonalization with overlap
     ethr =  1.79E-09,  avg # of iterations =  2.2

     total cpu time spent up to now is       81.0 secs

     total energy              =     -45.12334345 Ry
     estimated scf accuracy    <          1.3E-09 Ry

     iteration #  8     ecut=    80.00 Ry     beta= 0.70
     Davidson diagonalization with overlap
     ethr =  9.19E-12,  avg # of iterations =  3.8

     total cpu time spent up to now is       82.7 secs

     total energy              =     -45.12334345 Ry
     estimated scf accuracy    <          2.9E-10 Ry

     iteration #  9     ecut=    80.00 Ry     beta= 0.70
     Davidson diagonalization with overlap
     ethr =  2.08E-12,  avg # of iterations =  2.0

     total cpu time spent up to now is       84.2 secs

     End of self-consistent calculation

          k = 0.0000 0.0000 0.0000 (  9413 PWs)   bands (ev):

   -36.0765 -36.0531  -1.5930  -0.0654   5.2282  12.2922  15.0176  15.0176
    16.1152  19.8772  19.8772

          k = 0.0000 0.0000 0.1425 (  9397 PWs)   bands (ev):

   -36.0743 -36.0554  -1.4931  -0.2910   5.7628  11.0727  15.1773  15.1773
    16.8673  17.8009  17.8009

          k = 0.0000 0.0000 0.2850 (  9436 PWs)   bands (ev):

   -36.0684 -36.0612  -1.2023  -0.7607   7.1411   9.0226  15.6137  15.6137
    16.7103  16.7103  17.5698

          k = 0.0000 0.1501 0.0000 (  9377 PWs)   bands (ev):

   -36.0713 -36.0490  -1.4303   0.1427   5.2783  12.3435  13.0006  15.1904
    16.0125  16.4678  18.5753

          k = 0.0000 0.1501 0.1425 (  9399 PWs)   bands (ev):

   -36.0692 -36.0512  -1.3286  -0.0931   5.8233  11.1257  13.3293  15.0087
    15.3489  17.9738  18.0620

          k = 0.0000 0.1501 0.2850 (  9424 PWs)   bands (ev):

   -36.0637 -36.0566  -1.0325  -0.5785   7.2155   9.1100  13.7484  14.3159
    15.7791  16.8921  18.5098

          k = 0.0000 0.3003 0.0000 (  9429 PWs)   bands (ev):

   -36.0577 -36.0381  -0.9480   0.7639   5.3755  10.4883  11.7944  14.2030
    15.1983  15.6987  17.9644

          k = 0.0000 0.3003 0.1425 (  9426 PWs)   bands (ev):

   -36.0560 -36.0398  -0.8427   0.4957   5.9492  10.4129  11.6319  12.4011
    15.8528  16.8079  18.3305

          k = 0.0000 0.3003 0.2850 (  9400 PWs)   bands (ev):

   -36.0520 -36.0439  -0.5386  -0.0308   7.3430   9.3507  11.1096  11.6826
    16.2613  17.4341  17.8008

          k = 0.0000 0.4504 0.0000 (  9425 PWs)   bands (ev):

   -36.0415 -36.0241  -0.1715   1.7878   5.2666   8.5260   9.6044  13.5694
    14.5179  16.4994  21.2572

          k = 0.0000 0.4504 0.1425 (  9394 PWs)   bands (ev):

   -36.0405 -36.0251  -0.0668   1.4565   5.8585   8.5126   9.5813  12.1392
    15.2552  16.6428  19.3043

          k = 0.0000 0.4504 0.2850 (  9394 PWs)   bands (ev):

   -36.0386 -36.0270   0.2193   0.8851   7.0735   8.3985   9.5681  10.4092
    16.0062  17.0026  18.3222

          k = 0.0000 0.6005 0.0000 (  9419 PWs)   bands (ev):

   -36.0288 -36.0122   0.8049   3.1871   4.4821   7.2450   7.6747  12.3943
    15.5161  17.4408  17.8692

          k = 0.0000 0.6005 0.1425 (  9388 PWs)   bands (ev):

   -36.0285 -36.0125   0.8860   2.7226   5.0184   6.8726   8.2385  12.1807
    14.5453  17.5588  20.3387

          k = 0.0000 0.6005 0.2850 (  9400 PWs)   bands (ev):

   -36.0281 -36.0130   1.0721   2.1678   5.7256   6.4607   9.2024  11.1444
    14.1356  17.8227  19.5047

          k = 0.0000-0.7507 0.0000 (  9394 PWs)   bands (ev):

   -36.0241 -36.0075   1.4536   3.7629   4.5619   5.5333   7.5637  11.9586
    16.2158  17.8690  17.9726

          k = 0.0000-0.7507 0.1425 (  9398 PWs)   bands (ev):

   -36.0241 -36.0075   1.4806   3.7047   4.3311   5.6160   8.1040  12.0643
    14.4916  18.0619  21.1825

          k = 0.0000-0.7507 0.2850 (  9370 PWs)   bands (ev):

   -36.0241 -36.0075   1.5281   3.6198   4.0270   5.7403   9.1631  12.2629
    12.6720  18.2411  20.4688

          k = 0.1501 0.1501 0.0000 (  9401 PWs)   bands (ev):

   -36.0661 -36.0450  -1.2666   0.3504   5.3379  12.3780  12.7732  13.5529
    15.5818  17.2513  17.6719

          k = 0.1501 0.1501 0.1425 (  9419 PWs)   bands (ev):

   -36.0641 -36.0470  -1.1631   0.1042   5.8933  11.1604  13.2988  13.6222
    14.7372  16.1231  19.1334

          k = 0.1501 0.1501 0.2850 (  9420 PWs)   bands (ev):

   -36.0588 -36.0523  -0.8608  -0.3975   7.3019   9.1870  13.8155  13.9045
    14.2269  14.9052  20.0484

          k = 0.1501 0.3003 0.0000 (  9400 PWs)   bands (ev):

   -36.0526 -36.0343  -0.7816   0.9705   5.4651  10.5436  11.8265  13.5874
    14.3768  15.6307  18.0309

          k = 0.1501 0.3003 0.1425 (  9410 PWs)   bands (ev):

   -36.0509 -36.0359  -0.6742   0.6914   6.0494  10.4484  11.7182  12.4767
    14.0548  15.8190  17.7357

          k = 0.1501 0.3003 0.2850 (  9400 PWs)   bands (ev):

   -36.0469 -36.0400  -0.3614   0.1463   7.4664   9.3848  11.2765  11.8048
    14.3329  14.9897  19.1580

          k = 0.1501 0.4504 0.0000 (  9402 PWs)   bands (ev):

   -36.0363 -36.0205  -0.0008   1.9925   5.4130   8.5618   9.7395  13.4919
    14.5854  14.6794  18.3272

          k = 0.1501 0.4504 0.1425 (  9398 PWs)   bands (ev):

   -36.0354 -36.0214   0.1067   1.6491   6.0169   8.5614   9.7156  12.1899
    14.6266  15.2562  17.6210

          k = 0.1501 0.4504 0.2850 (  9405 PWs)   bands (ev):

   -36.0334 -36.0234   0.4050   1.0567   7.2474   8.5041   9.6537  10.5124
    14.7199  15.5070  17.6308

          k = 0.1501 0.6005 0.0000 (  9413 PWs)   bands (ev):

   -36.0237 -36.0087   0.9810   3.3888   4.6726   7.4187   7.6784  12.5112
    15.0515  15.6639  19.0645

          k = 0.1501 0.6005 0.1425 (  9405 PWs)   bands (ev):

   -36.0235 -36.0090   1.0666   2.9105   5.2096   7.0075   8.2962  12.2801
    14.2198  16.0075  18.4754

          k = 0.1501 0.6005 0.2850 (  9406 PWs)   bands (ev):

   -36.0230 -36.0095   1.2666   2.3355   5.8930   6.6195   9.2999  11.1773
    13.8735  16.3750  17.5350

          k = 0.1501-0.7507 0.0000 (  9410 PWs)   bands (ev):

   -36.0191 -36.0041   1.6335   3.9550   4.7654   5.7133   7.5658  12.1031
    15.3717  16.3627  20.0995

          k = 0.1501-0.7507 0.1425 (  9400 PWs)   bands (ev):

   -36.0191 -36.0041   1.6672   3.8984   4.4984   5.7925   8.1419  12.2157
    14.0773  16.9439  19.3689

          k = 0.1501-0.7507 0.2850 (  9404 PWs)   bands (ev):

   -36.0191 -36.0041   1.7273   3.8156   4.1545   5.9118   9.2627  12.4215
    12.4281  17.4827  18.4813

          k = 0.3003 0.3003 0.0000 (  9401 PWs)   bands (ev):

   -36.0391 -36.0240  -0.2888   1.5871   5.6853  10.3041  11.5592  11.6167
    14.8169  15.4285  15.5202

          k = 0.3003 0.3003 0.1425 (  9396 PWs)   bands (ev):

   -36.0377 -36.0255  -0.1763   1.2730   6.3000  10.2325  11.6033  11.6407
    13.1685  13.9342  17.3580

          k = 0.3003 0.3003 0.2850 (  9406 PWs)   bands (ev):

   -36.0339 -36.0292   0.1556   0.6773   7.7550   9.4265  11.5857  11.7276
    12.0953  12.7778  19.5069

          k = 0.3003 0.4504 0.0000 (  9398 PWs)   bands (ev):

   -36.0229 -36.0109   0.5041   2.6026   5.8113   8.6457  10.0522  11.6793
    14.1830  14.9372  15.8869

          k = 0.3003 0.4504 0.1425 (  9403 PWs)   bands (ev):

   -36.0220 -36.0118   0.6193   2.2204   6.4541   8.6761  10.0476  11.4856
    13.2488  14.2170  16.2588

          k = 0.3003 0.4504 0.2850 (  9404 PWs)   bands (ev):

   -36.0200 -36.0138   0.9513   1.5660   7.7367   8.7274   9.8858  10.7006
    12.7200  13.0673  17.7986

          k = 0.3003 0.6005 0.0000 (  9390 PWs)   bands (ev):

   -36.0105 -35.9996   1.5005   3.9890   5.2351   7.6781   7.9159  12.2573
    13.2160  15.7672  16.7306

          k = 0.3003 0.6005 0.1425 (  9396 PWs)   bands (ev):

   -36.0102 -35.9998   1.5995   3.4655   5.7762   7.3522   8.4864  11.9890
    13.2043  15.1254  16.2053

          k = 0.3003 0.6005 0.2850 (  9396 PWs)   bands (ev):

   -36.0097 -36.0003   1.8430   2.8257   6.3771   7.0843   9.5214  11.0602
    13.1797  14.2147  16.5816

          k = 0.3003-0.7507 0.0000 (  9388 PWs)   bands (ev):

   -36.0059 -35.9950   2.1619   4.5292   5.3694   6.2415   7.5631  12.5204
    12.9848  16.1008  16.4873

          k = 0.3003-0.7507 0.1425 (  9390 PWs)   bands (ev):

   -36.0059 -35.9950   2.2163   4.4755   4.9801   6.3142   8.2422  12.6332
    12.6460  16.0372  16.4113

          k = 0.3003-0.7507 0.2850 (  9396 PWs)   bands (ev):

   -36.0059 -35.9950   2.3183   4.3967   4.5158   6.4238   9.4796  11.6936
    12.8728  15.7552  16.5992

          k = 0.4504 0.4504 0.0000 (  9381 PWs)   bands (ev):

   -36.0066 -35.9987   1.3148   3.6056   6.2745   8.4473   9.9768  10.0325
    13.6780  14.1482  15.9600

          k = 0.4504 0.4504 0.1425 (  9400 PWs)   bands (ev):

   -36.0059 -35.9995   1.4382   3.1466   6.9782   8.5355   9.9240  10.0289
    12.5706  13.9501  15.6644

          k = 0.4504 0.4504 0.2850 (  9400 PWs)   bands (ev):

   -36.0039 -36.0015   1.8065   2.4039   8.2625   8.7097   9.7518  10.0170
    11.8003  12.1308  17.6496

          k = 0.4504 0.6005 0.0000 (  9393 PWs)   bands (ev):

   -35.9941 -35.9882   2.3284   4.9698   6.1229   7.6435   8.6101  10.2177
    13.5929  13.8054  14.3609

          k = 0.4504 0.6005 0.1425 (  9386 PWs)   bands (ev):

   -35.9938 -35.9885   2.4477   4.3532   6.6851   7.6924   8.8488  10.1491
    12.8719  14.0612  14.7426

          k = 0.4504 0.6005 0.2850 (  9381 PWs)   bands (ev):

   -35.9933 -35.9890   2.7707   3.5930   7.1002   7.8074   9.5482  10.0573
    12.4287  12.8720  15.6536

          k = 0.4504-0.7507 0.0000 (  9378 PWs)   bands (ev):

   -35.9896 -35.9838   2.9938   5.4754   6.3483   7.0674   7.5462  10.8122
    12.8131  13.7947  14.4631

          k = 0.4504-0.7507 0.1425 (  9372 PWs)   bands (ev):

   -35.9896 -35.9838   3.0846   5.4185   5.6987   7.1461   8.3901  10.7227
    13.0680  13.5743  14.5258

          k = 0.4504-0.7507 0.2850 (  9372 PWs)   bands (ev):

   -35.9896 -35.9838   3.2739   5.0411   5.3355   7.2658   9.4744  10.5703
    13.1556  13.8309  14.1284

          k = 0.6005 0.6005 0.0000 (  9355 PWs)   bands (ev):

   -35.9809 -35.9788   3.3438   6.2844   7.0173   7.4888   8.7917   8.9030
    12.0938  12.2902  14.1858

          k = 0.6005 0.6005 0.1425 (  9361 PWs)   bands (ev):

   -35.9807 -35.9790   3.4837   5.4701   7.5390   7.8899   8.5988   8.9925
    12.1672  12.2248  14.3425

          k = 0.6005 0.6005 0.2850 (  9376 PWs)   bands (ev):

   -35.9802 -35.9795   3.8981   4.5716   7.7194   8.0486   8.9464   9.1525
    12.0284  12.2899  14.6946

          k = 0.6005-0.7507 0.0000 (  9380 PWs)   bands (ev):

   -35.9764 -35.9748   3.9806   6.7539   7.5531   7.6137   8.0190   8.9706
    10.8367  12.2264  14.3563

          k = 0.6005-0.7507 0.1425 (  9344 PWs)   bands (ev):

   -35.9764 -35.9748   4.1238   6.4831   6.6527   8.1684   8.5179   8.9995
    11.0462  12.7362  13.1262

          k = 0.6005-0.7507 0.2850 (  9360 PWs)   bands (ev):

   -35.9764 -35.9748   4.4903   5.6064   6.5187   8.3980   8.4662   9.6731
    11.5107  12.1874  13.8011

          k =-0.7507-0.7507 0.0000 (  9348 PWs)   bands (ev):

   -35.9713 -35.9713   4.5542   7.8011   7.8567   7.8567   8.5366   8.5366
     9.3895  10.9693  17.1651

          k =-0.7507-0.7507 0.1425 (  9380 PWs)   bands (ev):

   -35.9713 -35.9713   4.7335   7.1477   7.5615   7.5615   8.9486   8.9486
     9.5856  11.9331  12.4769

          k =-0.7507-0.7507 0.2850 (  9344 PWs)   bands (ev):

   -35.9713 -35.9713   5.2629   6.1080   7.2965   7.2965   9.4210   9.4210
    10.1725  11.1449  13.8923

     the Fermi energy is    10.7059 ev

!    total energy              =     -45.12334345 Ry
     estimated scf accuracy    <          4.2E-11 Ry
[...]
     Starting wfcs are   12 randomized atomic wfcs

     total cpu time spent up to now is      220.5 secs

     Self-consistent Calculation

     iteration #  1     ecut=    80.00 Ry     beta= 0.70
     Davidson diagonalization with overlap
     c_bands:  3 eigenvalues not converged
     c_bands:  2 eigenvalues not converged
     c_bands:  1 eigenvalues not converged
     c_bands:  1 eigenvalues not converged
     c_bands:  1 eigenvalues not converged
     c_bands:  1 eigenvalues not converged
     c_bands:  1 eigenvalues not converged
     c_bands:  1 eigenvalues not converged
     c_bands:  1 eigenvalues not converged
     c_bands:  1 eigenvalues not converged
     c_bands:  1 eigenvalues not converged
     c_bands:  1 eigenvalues not converged
     c_bands:  1 eigenvalues not converged
     c_bands:  1 eigenvalues not converged
     c_bands:  2 eigenvalues not converged
     c_bands:  1 eigenvalues not converged
     c_bands:  1 eigenvalues not converged
     c_bands:  1 eigenvalues not converged
     c_bands:  1 eigenvalues not converged
     c_bands:  1 eigenvalues not converged
     c_bands:  1 eigenvalues not converged
     c_bands:  1 eigenvalues not converged
     c_bands:  3 eigenvalues not converged
     c_bands:  2 eigenvalues not converged
     ethr =  1.00E-06,  avg # of iterations = 18.0

     total cpu time spent up to now is      222.2 secs

     total energy              =     -45.55655077 Ry
     estimated scf accuracy    <       0.01743984 Ry

     iteration #  2     ecut=    80.00 Ry     beta= 0.70
     Davidson diagonalization with overlap
     ethr =  1.25E-04,  avg # of iterations =  1.2

     total cpu time spent up to now is      222.5 secs

     total energy              =     -45.55691806 Ry
     estimated scf accuracy    <       0.00200996 Ry

     iteration #  3     ecut=    80.00 Ry     beta= 0.70
     Davidson diagonalization with overlap
     ethr =  1.44E-05,  avg # of iterations =  2.0

     total cpu time spent up to now is      223.0 secs

     total energy              =     -45.55717534 Ry
     estimated scf accuracy    <       0.00059281 Ry

     iteration #  4     ecut=    80.00 Ry     beta= 0.70
     Davidson diagonalization with overlap
     ethr =  4.23E-06,  avg # of iterations =  2.0

     total cpu time spent up to now is      223.4 secs

     total energy              =     -45.55727105 Ry
     estimated scf accuracy    <       0.00000108 Ry

     iteration #  5     ecut=    80.00 Ry     beta= 0.70
     Davidson diagonalization with overlap
     ethr =  7.74E-09,  avg # of iterations =  3.9

     total cpu time spent up to now is      223.9 secs

     total energy              =     -45.55727235 Ry
     estimated scf accuracy    <       0.00000020 Ry

     iteration #  6     ecut=    80.00 Ry     beta= 0.70
     Davidson diagonalization with overlap
     ethr =  1.45E-09,  avg # of iterations =  2.0

     total cpu time spent up to now is      224.3 secs

     total energy              =     -45.55727239 Ry
     estimated scf accuracy    <          5.6E-10 Ry

     iteration #  7     ecut=    80.00 Ry     beta= 0.70
     Davidson diagonalization with overlap
     ethr =  4.03E-12,  avg # of iterations =  4.0

     total cpu time spent up to now is      224.9 secs

     total energy              =     -45.55727239 Ry
     estimated scf accuracy    <          2.1E-10 Ry

     iteration #  8     ecut=    80.00 Ry     beta= 0.70
     Davidson diagonalization with overlap
     ethr =  1.50E-12,  avg # of iterations =  2.0

     total cpu time spent up to now is      225.3 secs

     End of self-consistent calculation

          k = 0.0000 0.0000 0.0000 (  3347 PWs)   bands (ev):

   -36.4360 -36.4346  -3.7075  -3.6401   3.3784   4.6512  10.8032  16.0642
    18.3815  18.9574  20.2338

          k = 0.0000 0.0000 0.0998 (  3322 PWs)   bands (ev):

   -36.4358 -36.4347  -3.7013  -3.6469   3.4749   4.4923  11.1695  15.0796
    18.8681  18.9811  20.8356

          k = 0.0000 0.0000 0.1996 (  3338 PWs)   bands (ev):

   -36.4355 -36.4350  -3.6850  -3.6642   3.7454   4.1271  12.1512  13.5324
    19.0365  19.0645  21.4997

          k = 0.0000 0.1717 0.0000 (  3313 PWs)   bands (ev):

   -36.4235 -36.4220  -3.4444  -3.3635   3.5731   4.9134  10.8690  15.9243
    16.1744  17.0036  19.7937

          k = 0.0000 0.1717 0.0998 (  3327 PWs)   bands (ev):

   -36.4234 -36.4221  -3.4370  -3.3716   3.6739   4.7443  11.2386  15.0205
    16.3702  16.9114  20.5964

          k = 0.0000 0.1717 0.1996 (  3325 PWs)   bands (ev):

   -36.4232 -36.4224  -3.4175  -3.3924   3.9568   4.3585  12.2141  13.5823
    16.4301  16.8583  21.7240

          k = 0.0000 0.3434 0.0000 (  3300 PWs)   bands (ev):

   -36.3915 -36.3886  -2.6587  -2.5370   4.1463   5.6951  10.8854  12.6894
    12.7908  17.2425  18.8444

          k = 0.0000 0.3434 0.0998 (  3313 PWs)   bands (ev):

   -36.3915 -36.3887  -2.6479  -2.5493   4.2597   5.4943  11.1591  12.6547
    12.9138  16.3108  18.9771

          k = 0.0000 0.3434 0.1996 (  3325 PWs)   bands (ev):

   -36.3914 -36.3887  -2.6194  -2.5801   4.5759   5.0492  11.6129  12.6270
    13.3058  14.9730  19.1215

          k = 0.0000 0.5150 0.0000 (  3306 PWs)   bands (ev):

   -36.3520 -36.3468  -1.3616  -1.1715   5.0279   6.9511   8.8223   9.2932
    11.2740  16.4174  17.5202

          k = 0.0000 0.5150 0.0998 (  3319 PWs)   bands (ev):

   -36.3520 -36.3469  -1.3455  -1.1909   5.1623   6.7085   8.8138   9.1648
    11.8733  16.3577  17.0881

          k = 0.0000 0.5150 0.1996 (  3320 PWs)   bands (ev):

   -36.3520 -36.3469  -1.3035  -1.2380   5.5227   6.1843   8.7998   9.0518
    13.1751  15.0200  16.6791

          k = 0.0000 0.6867 0.0000 (  3332 PWs)   bands (ev):

   -36.3200 -36.3128   0.4266   0.7150   5.0768   5.9093   6.9576   8.8429
    10.3424  14.5941  15.3981

          k = 0.0000 0.6867 0.0998 (  3320 PWs)   bands (ev):

   -36.3200 -36.3128   0.4486   0.6844   5.1835   5.8881   6.9746   8.3340
    10.9838  14.3071  15.5697

          k = 0.0000 0.6867 0.1996 (  3309 PWs)   bands (ev):

   -36.3200 -36.3128   0.5049   0.6141   5.4149   5.8086   7.0416   7.7293
    11.9089  13.7498  15.9332

          k = 0.0000-0.8584 0.0000 (  3328 PWs)   bands (ev):

   -36.3077 -36.2998   2.5566   2.7801   3.0796   3.1103   7.6651   9.3277
    10.3043  12.6002  15.4475

          k = 0.0000-0.8584 0.0998 (  3326 PWs)   bands (ev):

   -36.3077 -36.2998   2.5265   2.7407   3.1273   3.1525   7.6378   9.2780
    10.2851  12.6523  15.6510

          k = 0.0000-0.8584 0.1996 (  3318 PWs)   bands (ev):

   -36.3077 -36.2998   2.4849   2.6923   3.1893   3.2142   7.5932   9.2005
    10.2558  12.7323  16.0392

          k = 0.1717 0.1717 0.0000 (  3303 PWs)   bands (ev):

   -36.4111 -36.4099  -3.1815  -3.0874   3.7704   5.1754  10.9544  15.5425
    15.8518  16.2534  18.5591

          k = 0.1717 0.1717 0.0998 (  3322 PWs)   bands (ev):

   -36.4110 -36.4100  -3.1730  -3.0968   3.8753   4.9961  11.3293  14.9580
    15.8702  16.0944  18.6373

          k = 0.1717 0.1717 0.1996 (  3316 PWs)   bands (ev):

   -36.4107 -36.4103  -3.1502  -3.1212   4.1705   4.5898  12.3111  13.6339
    15.9200  15.9904  18.8655

          k = 0.1717 0.3434 0.0000 (  3319 PWs)   bands (ev):

   -36.3792 -36.3770  -2.3966  -2.2626   4.3516   5.9564  11.0397  12.7756
    12.8948  16.9283  17.9972

          k = 0.1717 0.3434 0.0998 (  3305 PWs)   bands (ev):

   -36.3792 -36.3771  -2.3847  -2.2762   4.4687   5.7456  11.3295  12.7431
    13.0102  16.1930  18.0118

          k = 0.1717 0.3434 0.1996 (  3316 PWs)   bands (ev):

   -36.3791 -36.3772  -2.3529  -2.3107   4.7971   5.2802  11.8137  12.7113
    13.4031  14.9490  18.0302

          k = 0.1717 0.5150 0.0000 (  3316 PWs)   bands (ev):

   -36.3402 -36.3358  -1.1005  -0.9001   5.2495   7.2097   9.0364   9.5074
    11.4812  16.3006  17.6063

          k = 0.1717 0.5150 0.0998 (  3315 PWs)   bands (ev):

   -36.3402 -36.3358  -1.0835  -0.9207   5.3868   6.9581   9.0323   9.3799
    12.0815  16.2759  17.0537

          k = 0.1717 0.5150 0.1996 (  3321 PWs)   bands (ev):

   -36.3402 -36.3358  -1.0385  -0.9713   5.7581   6.4154   9.0256   9.2667
    13.3879  15.1775  16.4438

          k = 0.1717 0.6867 0.0000 (  3325 PWs)   bands (ev):

   -36.3085 -36.3021   0.6863   0.9818   5.3372   6.1545   7.1623   9.1021
    10.6080  14.8517  15.3107

          k = 0.1717 0.6867 0.0998 (  3319 PWs)   bands (ev):

   -36.3085 -36.3021   0.7090   0.9501   5.4428   6.1327   7.1871   8.5878
    11.2434  14.5124  15.5430

          k = 0.1717 0.6867 0.1996 (  3328 PWs)   bands (ev):

   -36.3085 -36.3021   0.7680   0.8769   5.6702   6.0544   7.2772   7.9634
    12.1493  13.9542  15.9938

          k = 0.1717-0.8584 0.0000 (  3332 PWs)   bands (ev):

   -36.2964 -36.2892   2.8186   3.0343   3.3330   3.3755   7.8857   9.5888
    10.5585  12.8651  15.3620

          k = 0.1717-0.8584 0.0998 (  3326 PWs)   bands (ev):

   -36.2964 -36.2892   2.7915   2.9965   3.3788   3.4132   7.8708   9.5443
    10.5104  12.8970  15.6214

          k = 0.1717-0.8584 0.1996 (  3326 PWs)   bands (ev):

   -36.2964 -36.2892   2.7534   2.9495   3.4386   3.4687   7.8462   9.4745
    10.4377  12.9454  16.1450

          k = 0.3434 0.3434 0.0000 (  3321 PWs)   bands (ev):

   -36.3472 -36.3464  -1.6138  -1.4431   4.9572   6.7348  11.4017  12.3680
    12.5246  15.2873  15.5673

          k = 0.3434 0.3434 0.0998 (  3319 PWs)   bands (ev):

   -36.3471 -36.3465  -1.5987  -1.4607   5.0853   6.4931  11.6643  12.3320
    12.6955  15.2273  15.4109

          k = 0.3434 0.3434 0.1996 (  3312 PWs)   bands (ev):

   -36.3469 -36.3467  -1.5580  -1.5054   5.4472   5.9689  12.0339  12.2269
    13.3777  14.3942  15.8101

          k = 0.3434 0.5150 0.0000 (  3328 PWs)   bands (ev):

   -36.3091 -36.3066  -0.3212  -0.0898   5.9031   7.9761   9.6464  10.0668
    11.9468  14.9981  15.8870

          k = 0.3434 0.5150 0.0998 (  3328 PWs)   bands (ev):

   -36.3091 -36.3066  -0.3013  -0.1141   6.0492   7.6981   9.6464   9.9441
    12.5307  15.0020  15.5843

          k = 0.3434 0.5150 0.1996 (  3332 PWs)   bands (ev):

   -36.3091 -36.3067  -0.2479  -0.1747   6.4533   7.1003   9.6467   9.8396
    13.7299  14.8193  15.1883

          k = 0.3434 0.6867 0.0000 (  3328 PWs)   bands (ev):

   -36.2785 -36.2740   1.4609   1.7772   6.1092   6.8693   7.7651   9.8769
    11.3832  14.7061  15.6032

          k = 0.3434 0.6867 0.0998 (  3328 PWs)   bands (ev):

   -36.2785 -36.2740   1.4859   1.7425   6.2111   6.8468   7.8119   9.3403
    12.0061  14.6148  15.5462

          k = 0.3434 0.6867 0.1996 (  3337 PWs)   bands (ev):

   -36.2785 -36.2740   1.5521   1.6609   6.4252   6.7733   7.9704   8.6541
    12.8369  14.3661  15.7147

          k = 0.3434-0.8584 0.0000 (  3336 PWs)   bands (ev):

   -36.2667 -36.2615   3.5963   3.7940   4.0887   4.1593   8.5325  10.3670
    11.3200  13.6468  14.8211

          k = 0.3434-0.8584 0.0998 (  3326 PWs)   bands (ev):

   -36.2667 -36.2615   3.5775   3.7601   4.1294   4.1841   8.5541  10.3373
    11.1697  13.6084  15.2036

          k = 0.3434-0.8584 0.1996 (  3322 PWs)   bands (ev):

   -36.2667 -36.2615   3.5499   3.7173   4.1832   4.2215   8.5921  10.2898
    10.9513  13.5540  16.0729

          k = 0.5150 0.5150 0.0000 (  3331 PWs)   bands (ev):

   -36.2707 -36.2703   0.9652   1.2465   6.9326   9.1284  10.1034  10.2934
    11.4251  13.6352  13.7423

          k = 0.5150 0.5150 0.0998 (  3336 PWs)   bands (ev):

   -36.2707 -36.2703   0.9891   1.2162   7.0932   8.8666  10.0718  10.0772
    11.7853  13.3374  14.1730

          k = 0.5150 0.5150 0.1996 (  3342 PWs)   bands (ev):

   -36.2706 -36.2705   1.0543   1.1407   7.5475   8.2091   9.9748  10.0163
    12.2940  12.8079  15.2952

          k = 0.5150 0.6867 0.0000 (  3335 PWs)   bands (ev):

   -36.2411 -36.2391   2.7370   3.0837   7.3415   7.9349   8.7255  11.1544
    12.1222  13.1103  14.2162

          k = 0.5150 0.6867 0.0998 (  3333 PWs)   bands (ev):

   -36.2411 -36.2391   2.7649   3.0448   7.4340   7.9190   8.7997  10.5201
    12.5960  13.1958  14.1583

          k = 0.5150 0.6867 0.1996 (  3338 PWs)   bands (ev):

   -36.2411 -36.2392   2.8410   2.9513   7.6164   7.8686   9.0545   9.7304
    12.8553  13.2442  14.4974

          k = 0.5150-0.8584 0.0000 (  3346 PWs)   bands (ev):

   -36.2299 -36.2271   4.8615   5.0451   5.3234   5.4174   9.5469  11.6421
    12.5830  13.3158  14.8652

          k = 0.5150-0.8584 0.0998 (  3342 PWs)   bands (ev):

   -36.2299 -36.2271   4.8541   5.0150   5.3591   5.4245   9.6176  11.6280
    12.0843  13.9032  14.5350

          k = 0.5150-0.8584 0.1996 (  3334 PWs)   bands (ev):

   -36.2299 -36.2271   4.8426   4.9763   5.4067   5.4356   9.7549  11.5973
    11.6047  14.3016  14.6934

          k = 0.6867 0.6867 0.0000 (  3334 PWs)   bands (ev):

   -36.2109 -36.2108   4.4862   4.8596   8.4363   8.5453   9.9076  10.3043
    12.1934  12.8871  13.6465

          k = 0.6867 0.6867 0.0998 (  3343 PWs)   bands (ev):

   -36.2109 -36.2108   4.5159   4.8163   8.4861   8.5591   9.9667  10.3367
    11.9690  12.2835  14.2326

          k = 0.6867 0.6867 0.1996 (  3349 PWs)   bands (ev):

   -36.2108 -36.2108   4.5986   4.7124   8.5639   8.5817  10.1588  10.3447
    11.6499  11.6932  14.8796

          k = 0.6867-0.8584 0.0000 (  3352 PWs)   bands (ev):

   -36.2000 -36.1992   6.5474   6.7230   6.9288   7.0029  10.7420  11.1432
    12.3142  13.1981  13.3658

          k = 0.6867-0.8584 0.0998 (  3352 PWs)   bands (ev):

   -36.2000 -36.1992   6.5431   6.6826   6.9758   7.0076  10.7477  11.1437
    12.3470  12.9087  13.2761

          k = 0.6867-0.8584 0.1996 (  3342 PWs)   bands (ev):

   -36.2000 -36.1992   6.5363   6.6364   7.0149   7.0328  10.7417  11.1705
    12.4014  12.6702  13.3726

          k =-0.8584-0.8584 0.0000 (  3368 PWs)   bands (ev):

   -36.1885 -36.1885   8.0782   8.0782   8.0971   8.0971   9.3743  10.4908
    11.4310  11.6231  11.7441

          k =-0.8584-0.8584 0.0998 (  3352 PWs)   bands (ev):

   -36.1885 -36.1885   7.9620   7.9620   8.2230   8.2230   9.4648  10.5664
    10.7928  11.4572  12.5270

          k =-0.8584-0.8584 0.1996 (  3340 PWs)   bands (ev):

   -36.1885 -36.1885   7.8888   7.8888   8.3120   8.3120   9.7348  10.1807
    10.7846  11.1119  13.5598

     the Fermi energy is     9.7651 ev

!    total energy              =     -45.55727239 Ry
     estimated scf accuracy    <          5.6E-13 Ry
     smearing contrib. (-TS)   =      -0.00020387 Ry
     internal energy E=F+TS    =     -45.55706852 Ry

     The total energy is F=E-TS. E is the sum of the following terms:
     one-electron contribution =      -3.66743481 Ry
     hartree contribution      =       6.11637979 Ry
     xc contribution           =     -13.59150707 Ry
     ewald contribution        =     -34.41450642 Ry

     convergence has been achieved in   8 iterations

     Forces acting on atoms (cartesian axes, Ry/au):

     atom    1 type  1   force =     0.00000000    0.00000000    0.00000000
     atom    2 type  1   force =     0.00000000    0.00000000    0.00000000
     atom    3 type  2   force =     0.00000000    0.00000000    0.00000000
     atom    4 type  2   force =     0.00000000    0.00000000    0.00000000
     The non-local contrib.  to forces
     atom    1 type  1   force =     0.00000000    0.00000000    0.00000000
     atom    2 type  1   force =     0.00000000    0.00000000    0.00000000
     atom    3 type  2   force =     0.00000000    0.00000000   -0.00000000
     atom    4 type  2   force =     0.00000000    0.00000000    0.00000000
     The ionic contribution  to forces
     atom    1 type  1   force =    -0.00000000    0.00000000   -0.00000000
     atom    2 type  1   force =     0.00000000   -0.00000000    0.00000000
     atom    3 type  2   force =    -0.00000000   -0.00000000   -0.00000000
     atom    4 type  2   force =    -0.00000000   -0.00000000    0.00000000
     The local contribution  to forces
     atom    1 type  1   force =     0.00000000    0.00000000   -0.00000000
     atom    2 type  1   force =     0.00000000   -0.00000000    0.00000000
     atom    3 type  2   force =    -0.00000000   -0.00000000   -0.00000000
     atom    4 type  2   force =    -0.00000000   -0.00000000    0.00000000
     The core correction contribution to forces
     atom    1 type  1   force =     0.00000000    0.00000000    0.00000000
     atom    2 type  1   force =     0.00000000    0.00000000    0.00000000
     atom    3 type  2   force =    -0.00000000    0.00000000   -0.00000000
     atom    4 type  2   force =    -0.00000000   -0.00000000   -0.00000000
     The Hubbard contrib.    to forces
     atom    1 type  1   force =     0.00000000    0.00000000    0.00000000
     atom    2 type  1   force =     0.00000000    0.00000000    0.00000000
     atom    3 type  2   force =     0.00000000    0.00000000    0.00000000
     atom    4 type  2   force =     0.00000000    0.00000000    0.00000000
     The SCF correction term to forces
     atom    1 type  1   force =     0.00000000   -0.00000000    0.00000000
     atom    2 type  1   force =     0.00000000    0.00000000    0.00000000
     atom    3 type  2   force =    -0.00000000    0.00000000    0.00000000
     atom    4 type  2   force =    -0.00000000   -0.00000000    0.00000000

     Total force =     0.000000     Total SCF correction =     0.000000


     Computing stress (Cartesian axis) and pressure

          total   stress  (Ry/bohr**3)                   (kbar)     P=      500.19
   0.00340126   0.00000000   0.00000000          500.34        0.00        0.00
   0.00000000   0.00340126   0.00000000            0.00      500.34        0.00
   0.00000000   0.00000000   0.00339824            0.00        0.00      499.90


     Writing all to output data dir ./output/LiSi.save/

     init_run     :      2.12s CPU      4.40s WALL (       2 calls)
     electrons    :    158.44s CPU    179.87s WALL (      13 calls)
     update_pot   :      8.14s CPU      8.22s WALL (      11 calls)
     forces       :      6.06s CPU      6.17s WALL (      13 calls)
     stress       :     25.79s CPU     26.93s WALL (      13 calls)

     Called by init_run:
     wfcinit      :      1.13s CPU      2.88s WALL (       2 calls)
     potinit      :      0.47s CPU      0.72s WALL (       2 calls)
     hinit0       :      0.43s CPU      0.63s WALL (       2 calls)

     Called by electrons:
     c_bands      :    138.10s CPU    156.36s WALL (     107 calls)
     sum_band     :     18.82s CPU     21.21s WALL (     107 calls)
     v_of_rho     :      1.49s CPU      2.17s WALL (     118 calls)
     mix_rho      :      0.13s CPU      0.19s WALL (     107 calls)

     Called by c_bands:
     init_us_2    :      4.01s CPU      4.44s WALL (   15246 calls)
     init_us_2:cp :      3.99s CPU      4.42s WALL (   15246 calls)
     cegterg      :    128.58s CPU    142.88s WALL (    6741 calls)

     Called by *egterg:
     cdiaghg      :      3.94s CPU      4.26s WALL (   28502 calls)
     h_psi        :    114.22s CPU    129.38s WALL (   29447 calls)
     g_psi        :      0.57s CPU      0.59s WALL (   22580 calls)

     Called by h_psi:
     h_psi:calbec :      5.81s CPU      6.46s WALL (   29447 calls)
     vloc_psi     :    102.97s CPU    117.07s WALL (   29447 calls)
     add_vuspsi   :      5.06s CPU      5.43s WALL (   29447 calls)

     General routines
     calbec       :      6.98s CPU      7.66s WALL (   33542 calls)
     fft          :      1.02s CPU      1.98s WALL (    1505 calls)
     ffts         :      0.06s CPU      0.09s WALL (     107 calls)
     fftw         :    107.68s CPU    122.38s WALL (  529695 calls)

     Parallel routines

     PWSCF        :   3m20.93s CPU   3m46.47s WALL


   This run was terminated on:  21:45:12  11Feb2025            

=------------------------------------------------------------------------------=
   JOB DONE.
=------------------------------------------------------------------------------=
