
     Program PWSCF v.7.2 starts on 29Nov2024 at  0: 5:50 

     This program is part of the open-source Quantum ESPRESSO suite
     for quantum simulation of materials; please cite
         "P. Giannozzi et al., J. Phys.:Condens. Matter 21 395502 (2009);
         "P. Giannozzi et al., J. Phys.:Condens. Matter 29 465901 (2017);
         "P. Giannozzi et al., J. Chem. Phys. 152 154105 (2020);
          URL http://www.quantum-espresso.org", 
     in publications or presentations arising from this work. More details at
     http://www.quantum-espresso.org/quote

     Parallel version (MPI & OpenMP), running on       8 processor cores
     Number of MPI processes:                 8
     Threads/MPI process:                     1

     MPI processes distributed on     1 nodes
     482852 MiB available memory on the printing compute node when the environment starts

     Waiting for input...
     Reading input from standard input

     Current dimensions of program PWSCF are:
     Max number of different atomic species (ntypx) = 10
     Max number of k-points (npk) =  40000
     Max angular momentum in pseudopotentials (lmaxx) =  4

     R & G space division:  proc/nbgrp/npool/nimage =       8
     Subspace diagonalization in iterative solution of the eigenvalue problem:
     a serial algorithm will be used


     Parallelization info
     --------------------
     sticks:   dense  smooth     PW     G-vecs:    dense   smooth      PW
     Min         133     133     38                 9253     9253    1396
     Max         134     134     40                 9266     9266    1399
     Sum        1069    1069    313                74083    74083   11179

     Using Slab Decomposition



     bravais-lattice index     =            4
     lattice parameter (alat)  =       6.9895  a.u.
     unit-cell volume          =     766.4078 (a.u.)^3
     number of atoms/cell      =            4
     number of atomic types    =            2
     number of electrons       =        14.00
     number of Kohn-Sham states=           11
     kinetic-energy cutoff     =      80.0000  Ry
     charge density cutoff     =     320.0000  Ry
     scf convergence threshold =      1.0E-08
     mixing beta               =       0.7000
     number of iterations used =            8  plain     mixing
     energy convergence thresh.=      1.0E-04
     force convergence thresh. =      1.0E-03
     press convergence thresh. =      1.0E+00
     Exchange-correlation= PBE
                           (   1   4   3   4   0   0   0)
     nstep                     =           50


     celldm(1)=   6.989491  celldm(2)=   0.000000  celldm(3)=   2.591747
     celldm(4)=   0.000000  celldm(5)=   0.000000  celldm(6)=   0.000000

     crystal axes: (cart. coord. in units of alat)
               a(1) = (   1.000000   0.000000   0.000000 )  
               a(2) = (  -0.500000   0.866025   0.000000 )  
               a(3) = (   0.000000   0.000000   2.591747 )  

     reciprocal axes: (cart. coord. in units 2 pi/alat)
               b(1) = (  1.000000  0.577350 -0.000000 )  
               b(2) = (  0.000000  1.154701  0.000000 )  
               b(3) = (  0.000000 -0.000000  0.385840 )  


     PseudoPot. # 1 for Li read from file:
     ../pseudo/Li_ONCV_PBE_sr.upf
     MD5 check sum: 50ff420e78310ffa21704f3361e624a4
     Pseudo is Norm-conserving, Zval =  3.0
     Generated using ONCVPSP code by D. R. Hamann
     Using radial grid of 1944 points,  4 beta functions with: 
                l(1) =   0
                l(2) =   0
                l(3) =   1
                l(4) =   1

     PseudoPot. # 2 for Si read from file:
     ../pseudo/Si_ONCV_PBE_sr.upf
     MD5 check sum: e543d271109d17c80368dfa7c482276d
     Pseudo is Norm-conserving + core correction, Zval =  4.0
     Generated using ONCVPSP code by D. R. Hamann
     Using radial grid of 1510 points,  6 beta functions with: 
                l(1) =   0
                l(2) =   0
                l(3) =   1
                l(4) =   1
                l(5) =   2
                l(6) =   2

     atomic species   valence    mass     pseudopotential
        Li             3.00     6.94100     Li( 1.00)
        Si             4.00    28.08550     Si( 1.00)

     12 Sym. Ops., with inversion, found



   Cartesian axes

     site n.     atom                  positions (alat units)
         1           Li  tau(   1) = (  -0.0000000   0.5773503   0.0944951  )
         2           Li  tau(   2) = (   0.5000000   0.2886751   2.4972524  )
         3           Si  tau(   3) = (  -0.0000000   0.5773503   0.8244971  )
         4           Si  tau(   4) = (   0.5000000   0.2886751   1.7672504  )

     number of k points=    50  Marzari-Vanderbilt smearing, width (Ry)=  0.0200
                       cart. coord. in units 2pi/alat
        k(    1) = (   0.0000000   0.0000000   0.0000000), wk =   0.0050000
        k(    2) = (   0.0000000   0.0000000   0.0964600), wk =   0.0100000
        k(    3) = (   0.0000000   0.0000000  -0.1929200), wk =   0.0050000
        k(    4) = (   0.0000000   0.1154701   0.0000000), wk =   0.0300000
        k(    5) = (   0.0000000   0.1154701   0.0964600), wk =   0.0300000
        k(    6) = (   0.0000000   0.1154701  -0.1929200), wk =   0.0300000
        k(    7) = (   0.0000000   0.2309401   0.0000000), wk =   0.0300000
        k(    8) = (   0.0000000   0.2309401   0.0964600), wk =   0.0300000
        k(    9) = (   0.0000000   0.2309401  -0.1929200), wk =   0.0300000
        k(   10) = (   0.0000000   0.3464102   0.0000000), wk =   0.0300000
        k(   11) = (   0.0000000   0.3464102   0.0964600), wk =   0.0300000
        k(   12) = (   0.0000000   0.3464102  -0.1929200), wk =   0.0300000
        k(   13) = (   0.0000000   0.4618802   0.0000000), wk =   0.0300000
        k(   14) = (   0.0000000   0.4618802   0.0964600), wk =   0.0300000
        k(   15) = (   0.0000000   0.4618802  -0.1929200), wk =   0.0300000
        k(   16) = (   0.0000000  -0.5773503   0.0000000), wk =   0.0150000
        k(   17) = (   0.0000000  -0.5773503   0.0964600), wk =   0.0300000
        k(   18) = (   0.0000000  -0.5773503  -0.1929200), wk =   0.0150000
        k(   19) = (   0.1000000   0.1732051   0.0000000), wk =   0.0300000
        k(   20) = (   0.1000000   0.1732051   0.0964600), wk =   0.0600000
        k(   21) = (   0.1000000   0.1732051  -0.1929200), wk =   0.0300000
        k(   22) = (   0.1000000   0.2886751   0.0000000), wk =   0.0600000
        k(   23) = (   0.1000000   0.2886751   0.0964600), wk =   0.0600000
        k(   24) = (   0.1000000   0.2886751  -0.1929200), wk =   0.0600000
        k(   25) = (   0.1000000   0.4041452   0.0000000), wk =   0.0600000
        k(   26) = (   0.1000000   0.4041452   0.0964600), wk =   0.0600000
        k(   27) = (   0.1000000   0.4041452  -0.1929200), wk =   0.0600000
        k(   28) = (   0.1000000   0.5196152   0.0000000), wk =   0.0600000
        k(   29) = (   0.1000000   0.5196152   0.0964600), wk =   0.0600000
        k(   30) = (   0.1000000   0.5196152  -0.1929200), wk =   0.0600000
        k(   31) = (   0.2000000   0.3464102   0.0000000), wk =   0.0300000
        k(   32) = (   0.2000000   0.3464102   0.0964600), wk =   0.0600000
        k(   33) = (   0.2000000   0.3464102  -0.1929200), wk =   0.0300000
        k(   34) = (   0.2000000   0.4618802   0.0000000), wk =   0.0600000
        k(   35) = (   0.2000000   0.4618802   0.0964600), wk =   0.0600000
        k(   36) = (   0.2000000   0.4618802  -0.1929200), wk =   0.0600000
        k(   37) = (   0.2000000   0.5773503   0.0000000), wk =   0.0300000
        k(   38) = (   0.2000000   0.5773503   0.0964600), wk =   0.0600000
        k(   39) = (   0.2000000   0.5773503  -0.1929200), wk =   0.0300000
        k(   40) = (   0.3000000   0.5196152   0.0000000), wk =   0.0300000
        k(   41) = (   0.3000000   0.5196152   0.0964600), wk =   0.0600000
        k(   42) = (   0.3000000   0.5196152  -0.1929200), wk =   0.0300000
        k(   43) = (   0.0000000   0.1154701  -0.0964600), wk =   0.0300000
        k(   44) = (   0.0000000   0.2309401  -0.0964600), wk =   0.0300000
        k(   45) = (   0.0000000   0.3464102  -0.0964600), wk =   0.0300000
        k(   46) = (   0.0000000   0.4618802  -0.0964600), wk =   0.0300000
        k(   47) = (  -0.1000000   0.2886751  -0.0964600), wk =   0.0600000
        k(   48) = (  -0.1000000   0.4041452  -0.0964600), wk =   0.0600000
        k(   49) = (  -0.1000000   0.5196152  -0.0964600), wk =   0.0600000
        k(   50) = (  -0.2000000   0.4618802  -0.0964600), wk =   0.0600000

     Dense  grid:    74083 G-vectors     FFT dimensions: (  40,  40, 108)

     Estimated max dynamical RAM per process >      28.79 MB

     Estimated total dynamical RAM >     230.34 MB

     Initial potential from superposition of free atoms

     starting charge      13.9897, renormalised to      14.0000
     Starting wfcs are   12 randomized atomic wfcs

     total cpu time spent up to now is        5.4 secs

     Self-consistent Calculation

     iteration #  1     ecut=    80.00 Ry     beta= 0.70
     Davidson diagonalization with overlap
     ethr =  1.00E-02,  avg # of iterations =  3.4

     total cpu time spent up to now is        7.5 secs

     total energy              =     -45.20790687 Ry
     estimated scf accuracy    <       0.15442302 Ry

     iteration #  2     ecut=    80.00 Ry     beta= 0.70
     Davidson diagonalization with overlap
     ethr =  1.10E-03,  avg # of iterations =  3.6

     total cpu time spent up to now is        9.0 secs

     total energy              =     -45.11443568 Ry
     estimated scf accuracy    <       1.82204250 Ry

     iteration #  3     ecut=    80.00 Ry     beta= 0.70
     Davidson diagonalization with overlap
     ethr =  1.10E-03,  avg # of iterations =  3.3

     total cpu time spent up to now is       10.3 secs

     total energy              =     -45.31652402 Ry
     estimated scf accuracy    <       0.00416707 Ry

     iteration #  4     ecut=    80.00 Ry     beta= 0.70
     Davidson diagonalization with overlap
     ethr =  2.98E-05,  avg # of iterations =  4.7

     total cpu time spent up to now is       11.7 secs

     total energy              =     -45.31725777 Ry
     estimated scf accuracy    <       0.00160130 Ry

     iteration #  5     ecut=    80.00 Ry     beta= 0.70
     Davidson diagonalization with overlap
     ethr =  1.14E-05,  avg # of iterations =  1.8

     total cpu time spent up to now is       12.8 secs

     total energy              =     -45.31749982 Ry
     estimated scf accuracy    <       0.00018345 Ry

     iteration #  6     ecut=    80.00 Ry     beta= 0.70
     Davidson diagonalization with overlap
     ethr =  1.31E-06,  avg # of iterations =  2.6

     total cpu time spent up to now is       13.8 secs

     total energy              =     -45.31752585 Ry
     estimated scf accuracy    <       0.00000773 Ry

     iteration #  7     ecut=    80.00 Ry     beta= 0.70
     Davidson diagonalization with overlap
     ethr =  5.52E-08,  avg # of iterations =  3.0

     total cpu time spent up to now is       15.0 secs

     total energy              =     -45.31752686 Ry
     estimated scf accuracy    <       0.00000139 Ry

     iteration #  8     ecut=    80.00 Ry     beta= 0.70
     Davidson diagonalization with overlap
     ethr =  9.96E-09,  avg # of iterations =  2.7

     total cpu time spent up to now is       16.1 secs

     total energy              =     -45.31752719 Ry
     estimated scf accuracy    <       0.00000012 Ry

     iteration #  9     ecut=    80.00 Ry     beta= 0.70
     Davidson diagonalization with overlap
     ethr =  8.42E-10,  avg # of iterations =  3.1

     total cpu time spent up to now is       17.3 secs

     total energy              =     -45.31752720 Ry
     estimated scf accuracy    <       0.00000004 Ry

     iteration # 10     ecut=    80.00 Ry     beta= 0.70
     Davidson diagonalization with overlap
     ethr =  2.73E-10,  avg # of iterations =  2.0

     total cpu time spent up to now is       18.4 secs

     End of self-consistent calculation

          k = 0.0000 0.0000 0.0000 (  9267 PWs)   bands (ev):

   -46.1193 -45.9324  -6.4884  -5.9887  -1.5445   0.5849   1.5683   4.6939
     4.6939   4.9034   4.9034

          k = 0.0000 0.0000 0.0965 (  9226 PWs)   bands (ev):

   -46.1193 -45.9324  -6.4815  -6.0006  -1.3627  -0.0727   2.3564   4.7141
     4.7141   4.8795   4.8795

          k = 0.0000 0.0000-0.1929 (  9220 PWs)   bands (ev):

   -46.1193 -45.9324  -6.4743  -6.0128  -0.8582  -0.8332   3.1166   4.7428
     4.7428   4.8470   4.8470

          k = 0.0000 0.1155 0.0000 (  9215 PWs)   bands (ev):

   -46.1152 -45.9364  -6.3756  -5.8816  -1.4337   0.6850   1.6136   3.9380
     4.2619   4.4811   4.7691

          k = 0.0000 0.1155 0.0965 (  9217 PWs)   bands (ev):

   -46.1152 -45.9364  -6.3687  -5.8933  -1.2536   0.0259   2.3954   3.9640
     4.1987   4.5080   4.7339

          k = 0.0000 0.1155-0.1929 (  9220 PWs)   bands (ev):

   -46.1152 -45.9364  -6.3615  -5.9054  -0.7663  -0.7151   3.1257   3.9957
     4.0879   4.5483   4.6853

          k = 0.0000 0.2309 0.0000 (  9227 PWs)   bands (ev):

   -46.1034 -45.9478  -6.0468  -5.5732  -1.1048   0.9534   1.6385   2.5343
     3.0465   4.0427   4.4322

          k = 0.0000 0.2309 0.0965 (  9238 PWs)   bands (ev):

   -46.1034 -45.9478  -6.0403  -5.5841  -0.9337   0.2972   2.3534   2.5729
     2.9559   4.0793   4.3781

          k = 0.0000 0.2309-0.1929 (  9232 PWs)   bands (ev):

   -46.1034 -45.9478  -6.0332  -5.5957  -0.5050  -0.3682   2.5470   2.6612
     3.2084   4.1371   4.3032

          k = 0.0000 0.3464 0.0000 (  9253 PWs)   bands (ev):

   -46.0858 -45.9650  -5.5410  -5.1152  -0.5764   0.7698   1.1102   1.6352
     2.4590   3.6201   4.0723

          k = 0.0000 0.3464 0.0965 (  9250 PWs)   bands (ev):

   -46.0858 -45.9650  -5.5358  -5.1233  -0.4559   0.5087   1.2779   1.4280
     2.6327   3.6634   4.0033

          k = 0.0000 0.3464-0.1929 (  9244 PWs)   bands (ev):

   -46.0858 -45.9650  -5.5291  -5.1337  -0.1824   0.1715   1.1365   1.3871
     3.0388   3.7347   3.9072

          k = 0.0000 0.4619 0.0000 (  9278 PWs)   bands (ev):

   -46.0666 -45.9839  -4.9692  -4.6517  -0.3573   0.0963   0.2733   1.7818
     2.3347   3.3340   3.5491

          k = 0.0000 0.4619 0.0965 (  9269 PWs)   bands (ev):

   -46.0666 -45.9839  -4.9678  -4.6534  -0.4491   0.0690   0.5700   1.6321
     2.1191   3.3810   3.7403

          k = 0.0000 0.4619-0.1929 (  9268 PWs)   bands (ev):

   -46.0666 -45.9839  -4.9626  -4.6606  -0.3856  -0.0534   0.8950   1.1069
     2.5217   3.4605   3.6315

          k = 0.0000-0.5774 0.0000 (  9268 PWs)   bands (ev):

   -46.0563 -45.9941  -4.6495  -4.4633  -0.7528  -0.3558   1.0813   1.0906
     2.4236   3.2341   3.5029

          k = 0.0000-0.5774 0.0965 (  9266 PWs)   bands (ev):

   -46.0563 -45.9941  -4.6506  -4.4615  -0.7239  -0.4585   1.1957   1.2973
     2.1884   3.2664   3.2825

          k = 0.0000-0.5774-0.1929 (  9264 PWs)   bands (ev):

   -46.0563 -45.9941  -4.6517  -4.4598  -0.6319  -0.6146   1.3448   1.6421
     1.8197   2.9976   3.3645

          k = 0.1000 0.1732 0.0000 (  9246 PWs)   bands (ev):

   -46.1072 -45.9441  -6.1545  -5.6735  -1.2137   0.8724   1.6615   3.0232
     3.3744   4.0993   4.3354

          k = 0.1000 0.1732 0.0965 (  9232 PWs)   bands (ev):

   -46.1072 -45.9441  -6.1478  -5.6849  -1.0383   0.2154   2.3902   3.0395
     3.3517   4.1005   4.2957

          k = 0.1000 0.1732-0.1929 (  9238 PWs)   bands (ev):

   -46.1072 -45.9441  -6.1408  -5.6965  -0.5887  -0.4824   2.9907   3.1180
     3.2431   4.1152   4.2465

          k = 0.1000 0.2887 0.0000 (  9252 PWs)   bands (ev):

   -46.0924 -45.9585  -5.7349  -5.2870  -0.7824   1.1015   1.4154   1.8891
     2.6101   3.4102   3.7733

          k = 0.1000 0.2887 0.0965 (  9257 PWs)   bands (ev):

   -46.0924 -45.9585  -5.7289  -5.2968  -0.6280   0.5132   1.8328   1.8567
     2.7452   3.4210   3.7417

          k = 0.1000 0.2887-0.1929 (  9254 PWs)   bands (ev):

   -46.0924 -45.9585  -5.7221  -5.3075  -0.2760  -0.0351   1.7967   1.9227
     3.0764   3.4688   3.6807

          k = 0.1000 0.4041 0.0000 (  9275 PWs)   bands (ev):

   -46.0733 -45.9772  -5.1834  -4.8106  -0.2059   0.3293   0.6128   1.7982
     2.4446   2.9010   3.3024

          k = 0.1000 0.4041 0.0965 (  9266 PWs)   bands (ev):

   -46.0733 -45.9772  -5.1797  -4.8161  -0.2236   0.4040   0.7206   1.4733
     2.4244   2.9539   3.2855

          k = 0.1000 0.4041-0.1929 (  9258 PWs)   bands (ev):

   -46.0733 -45.9772  -5.1738  -4.8247  -0.1277   0.4237   0.7217   1.1212
     2.7216   3.0061   3.2602

          k = 0.1000 0.5196 0.0000 (  9264 PWs)   bands (ev):

   -46.0563 -45.9940  -4.6880  -4.4635  -0.5542  -0.1511   0.7203   1.5592
     2.3989   2.6697   3.0147

          k = 0.1000 0.5196 0.0965 (  9272 PWs)   bands (ev):

   -46.0563 -45.9940  -4.6890  -4.4618  -0.5824  -0.2044   0.9603   1.7225
     1.9483   2.7061   3.0041

          k = 0.1000 0.5196-0.1929 (  9270 PWs)   bands (ev):

   -46.0563 -45.9940  -4.6863  -4.4651  -0.5052  -0.3461   1.2724   1.4186
     2.1250   2.7493   2.9745

          k = 0.2000 0.3464 0.0000 (  9266 PWs)   bands (ev):

   -46.0757 -45.9749  -5.2618  -4.8717  -0.2696   0.7762   0.8224   1.8233
     2.3962   2.6041   2.7877

          k = 0.2000 0.3464 0.0965 (  9282 PWs)   bands (ev):

   -46.0757 -45.9749  -5.2566  -4.8795  -0.1735   0.6176   0.9403   1.5721
     2.4457   2.5129   2.9915

          k = 0.2000 0.3464-0.1929 (  9288 PWs)   bands (ev):

   -46.0757 -45.9749  -5.2512  -4.8875  -0.0354   0.4589   1.0538   1.3426
     2.4297   2.4787   3.1585

          k = 0.2000 0.4619 0.0000 (  9271 PWs)   bands (ev):

   -46.0563 -45.9940  -4.7414  -4.4708  -0.0672   0.2441   0.5579   1.6618
     1.9820   2.2124   2.4726

          k = 0.2000 0.4619 0.0965 (  9279 PWs)   bands (ev):

   -46.0563 -45.9940  -4.7395  -4.4731  -0.1667   0.2647   0.8275   1.6105
     1.8158   2.0534   2.5229

          k = 0.2000 0.4619-0.1929 (  9282 PWs)   bands (ev):

   -46.0563 -45.9940  -4.7357  -4.4780  -0.1455   0.1787   1.1544   1.3786
     1.7257   1.9411   2.7572

          k = 0.2000 0.5774 0.0000 (  9264 PWs)   bands (ev):

   -46.0443 -46.0059  -4.4566  -4.3216  -0.3838  -0.0022   1.1563   1.3575
     1.6962   1.9118   2.4715

          k = 0.2000 0.5774 0.0965 (  9259 PWs)   bands (ev):

   -46.0443 -46.0059  -4.4571  -4.3208  -0.3536  -0.0974   1.2430   1.4872
     1.6755   1.9141   2.4236

          k = 0.2000 0.5774-0.1929 (  9290 PWs)   bands (ev):

   -46.0443 -46.0059  -4.4575  -4.3201  -0.2618  -0.2456   1.4123   1.4599
     1.6643   2.1445   2.2160

          k = 0.3000 0.5196 0.0000 (  9276 PWs)   bands (ev):

   -46.0370 -46.0132  -4.3755  -4.2658   0.0030   0.2477   0.7123   1.1675
     1.3677   2.0058   2.2136

          k = 0.3000 0.5196 0.0965 (  9273 PWs)   bands (ev):

   -46.0370 -46.0132  -4.3748  -4.2665   0.0249   0.2062   0.7238   1.0188
     1.5363   2.0388   2.3343

          k = 0.3000 0.5196-0.1929 (  9310 PWs)   bands (ev):

   -46.0370 -46.0132  -4.3740  -4.2672   0.0514   0.1655   0.8039   0.8257
     1.7917   1.9669   2.4364

          k = 0.0000 0.1155-0.0965 (  9217 PWs)   bands (ev):

   -46.1152 -45.9364  -6.3687  -5.8934  -1.2535   0.0270   2.3860   3.9537
     4.2293   4.5088   4.7329

          k = 0.0000 0.2309-0.0965 (  9238 PWs)   bands (ev):

   -46.1034 -45.9478  -6.0400  -5.5845  -0.9315   0.3070   2.1998   2.5747
     3.1434   4.0802   4.3769

          k = 0.0000 0.3464-0.0965 (  9250 PWs)   bands (ev):

   -46.0858 -45.9650  -5.5345  -5.1253  -0.4223   0.5795   0.9471   1.5305
     2.9168   3.6641   4.0022

          k = 0.0000 0.4619-0.0965 (  9269 PWs)   bands (ev):

   -46.0666 -45.9839  -4.9640  -4.6589  -0.2064  -0.1617   0.4601   1.5004
     2.6976   3.3227   3.3814

          k =-0.1000 0.2887-0.0965 (  9257 PWs)   bands (ev):

   -46.0924 -45.9585  -5.7284  -5.2975  -0.6212   0.5304   1.6156   1.9567
     2.9139   3.4383   3.7046

          k =-0.1000 0.4041-0.0965 (  9266 PWs)   bands (ev):

   -46.0733 -45.9772  -5.1777  -4.8191  -0.0945   0.3694   0.4971   1.4721
     2.8243   2.9578   3.2565

          k =-0.1000 0.5196-0.0965 (  9272 PWs)   bands (ev):

   -46.0563 -45.9940  -4.6852  -4.4667  -0.4701  -0.3140   0.8787   1.5572
     2.4138   2.7124   3.0049

          k =-0.2000 0.4619-0.0965 (  9279 PWs)   bands (ev):

   -46.0563 -45.9940  -4.7377  -4.4755   0.0014   0.0827   0.7448   1.7037
     1.8341   1.9956   2.7738

     the Fermi energy is     1.4486 ev

!    total energy              =     -45.31752720 Ry
     estimated scf accuracy    <          1.6E-09 Ry
     smearing contrib. (-TS)   =      -0.00129620 Ry
     internal energy E=F+TS    =     -45.31623100 Ry

     The total energy is F=E-TS. E is the sum of the following terms:
     one-electron contribution =     -20.70147183 Ry
     hartree contribution      =       9.95901365 Ry
     xc contribution           =     -12.15658518 Ry
     ewald contribution        =     -22.41718764 Ry

     convergence has been achieved in  10 iterations

     Forces acting on atoms (cartesian axes, Ry/au):

     atom    1 type  1   force =     0.00000000    0.00000000    0.02936931
     atom    2 type  1   force =     0.00000000    0.00000000   -0.02936931
     atom    3 type  2   force =    -0.00000000   -0.00000000    0.00345992
     atom    4 type  2   force =    -0.00000000   -0.00000000   -0.00345992
     The non-local contrib.  to forces
     atom    1 type  1   force =    -0.00000000   -0.00000000   -0.06269670
     atom    2 type  1   force =     0.00000000    0.00000000    0.06269670
     atom    3 type  2   force =     0.00000000    0.00000000    0.00329649
     atom    4 type  2   force =     0.00000000    0.00000000   -0.00329649
     The ionic contribution  to forces
     atom    1 type  1   force =     0.00000003   -0.00000002    0.41612465
     atom    2 type  1   force =    -0.00000003    0.00000002   -0.41612465
     atom    3 type  2   force =     0.00000000   -0.00000000    1.40955499
     atom    4 type  2   force =    -0.00000000    0.00000000   -1.40955499
     The local contribution  to forces
     atom    1 type  1   force =     0.00000069   -0.00000040   -0.32407561
     atom    2 type  1   force =    -0.00000069    0.00000040    0.32407561
     atom    3 type  2   force =     0.00000003   -0.00000002   -1.40883303
     atom    4 type  2   force =    -0.00000003    0.00000002    1.40883303
     The core correction contribution to forces
     atom    1 type  1   force =     0.00000000    0.00000000    0.00000000
     atom    2 type  1   force =     0.00000000    0.00000000    0.00000000
     atom    3 type  2   force =    -0.00000000    0.00000000   -0.00053873
     atom    4 type  2   force =     0.00000000   -0.00000000    0.00053873
     The Hubbard contrib.    to forces
     atom    1 type  1   force =     0.00000000    0.00000000    0.00000000
     atom    2 type  1   force =     0.00000000    0.00000000    0.00000000
     atom    3 type  2   force =     0.00000000    0.00000000    0.00000000
     atom    4 type  2   force =     0.00000000    0.00000000    0.00000000
     The SCF correction term to forces
     atom    1 type  1   force =     0.00000000   -0.00000000    0.00001697
     atom    2 type  1   force =    -0.00000000    0.00000000   -0.00001697
     atom    3 type  2   force =     0.00000000   -0.00000000   -0.00001981
     atom    4 type  2   force =    -0.00000000    0.00000000    0.00001981

     Total force =     0.041822     Total SCF correction =     0.000037


     Computing stress (Cartesian axis) and pressure

          total   stress  (Ry/bohr**3)                   (kbar)     P=      -53.04
  -0.00032459  -0.00000000   0.00000000          -47.75       -0.00        0.00
  -0.00000000  -0.00032459   0.00000000           -0.00      -47.75        0.00
   0.00000000   0.00000000  -0.00043245            0.00        0.00      -63.62


     BFGS Geometry Optimization
     Energy error            =      0.0E+00 Ry
     Gradient error          =      2.9E-02 Ry/Bohr
     Cell gradient error     =      5.6E+02 kbar

     number of scf cycles    =   1
     number of bfgs steps    =   0

     enthalpy           new  =     -42.7125600010 Ry

     new trust radius        =       0.5000000000 bohr
ibrav =      4
 celldm(1) =      6.37607537
 celldm(3) =      2.58452513
Input lattice vectors:
     0.91223747     0.00000000     0.00000000
    -0.45611873     0.79002082     0.00000000
     0.00000000     0.00000000     2.35770066
New lattice vectors in INITIAL alat:
     0.91223747     0.00000000     0.00000000
    -0.45611873     0.79002082     0.00000000
     0.00000000     0.00000000     2.35770066
New lattice vectors in NEW alat (for information only):
     1.00000000     0.00000000     0.00000000
    -0.50000000     0.86602540     0.00000000
     0.00000000     0.00000000     2.58452513
Discrepancy in bohr =     0.000000    0.000000    0.000000
     new conv_thr            =       0.0000000100 Ry

     new unit-cell volume =    580.19197 a.u.^3 (    85.97558 Ang^3 )
     density =      1.35301 g/cm^3

CELL_PARAMETERS (alat=  6.98949076)
   0.912237470   0.000000000   0.000000000
  -0.456118735   0.790020823   0.000000000
   0.000000000   0.000000000   2.357700665

ATOMIC_POSITIONS (crystal)
Li            0.3333333300        0.6666666700        0.0379885173
Li            0.6666666700        0.3333333300        0.9620114827
Si            0.3333333300        0.6666666700        0.3183040705
Si            0.6666666700        0.3333333300        0.6816959295



     Writing config-only to output data dir ./output/LiSi.save/
     NEW-OLD atomic charge density approx. for the potential
     extrapolated charge    9.50994, renormalised to   14.00000

     total cpu time spent up to now is       21.9 secs

     Self-consistent Calculation

     iteration #  1     ecut=    80.00 Ry     beta= 0.70
     Davidson diagonalization with overlap
     c_bands:  1 eigenvalues not converged
     c_bands:  1 eigenvalues not converged
     c_bands:  2 eigenvalues not converged
     c_bands:  2 eigenvalues not converged
     c_bands:  1 eigenvalues not converged
     c_bands:  1 eigenvalues not converged
     c_bands:  1 eigenvalues not converged
     c_bands:  1 eigenvalues not converged
     c_bands:  1 eigenvalues not converged
     ethr =  1.00E-06,  avg # of iterations = 17.0

     total cpu time spent up to now is       26.4 secs

     total energy              =     -31.42129360 Ry
     estimated scf accuracy    <      14.28363024 Ry

     iteration #  2     ecut=    80.00 Ry     beta= 0.70
     Davidson diagonalization with overlap
     ethr =  1.00E-02,  avg # of iterations = 10.3

     total cpu time spent up to now is       29.0 secs

     total energy              =     -35.11191216 Ry
     estimated scf accuracy    <      99.32763671 Ry

     iteration #  3     ecut=    80.00 Ry     beta= 0.70
     Davidson diagonalization with overlap
     ethr =  1.00E-02,  avg # of iterations =  5.8

     total cpu time spent up to now is       30.8 secs

     total energy              =     -46.71075115 Ry
     estimated scf accuracy    <       7.88003628 Ry

     iteration #  4     ecut=    80.00 Ry     beta= 0.70
     Davidson diagonalization with overlap
     ethr =  1.00E-02,  avg # of iterations =  1.5

     total cpu time spent up to now is       31.8 secs

     total energy              =     -45.83298198 Ry
     estimated scf accuracy    <       4.80654676 Ry

     iteration #  5     ecut=    80.00 Ry     beta= 0.70
     Davidson diagonalization with overlap
     ethr =  1.00E-02,  avg # of iterations =  2.1

     total cpu time spent up to now is       32.7 secs

     total energy              =     -45.34307352 Ry
     estimated scf accuracy    <       2.60609981 Ry

     iteration #  6     ecut=    80.00 Ry     beta= 0.70
     Davidson diagonalization with overlap
     ethr =  1.00E-02,  avg # of iterations =  2.0

     total cpu time spent up to now is       33.7 secs

     total energy              =     -45.42395202 Ry
     estimated scf accuracy    <       0.67067352 Ry

     iteration #  7     ecut=    80.00 Ry     beta= 0.70
     Davidson diagonalization with overlap
     ethr =  4.79E-03,  avg # of iterations =  1.1

     total cpu time spent up to now is       34.6 secs

     total energy              =     -45.28591317 Ry
     estimated scf accuracy    <       0.51380232 Ry

     iteration #  8     ecut=    80.00 Ry     beta= 0.70
     Davidson diagonalization with overlap
     ethr =  3.67E-03,  avg # of iterations =  2.3

     total cpu time spent up to now is       35.7 secs

     total energy              =     -45.38256805 Ry
     estimated scf accuracy    <       0.06319679 Ry

     iteration #  9     ecut=    80.00 Ry     beta= 0.70
     Davidson diagonalization with overlap
     ethr =  4.51E-04,  avg # of iterations =  2.3

     total cpu time spent up to now is       36.7 secs

     total energy              =     -45.37067935 Ry
     estimated scf accuracy    <       0.03595083 Ry

     iteration # 10     ecut=    80.00 Ry     beta= 0.70
     Davidson diagonalization with overlap
     ethr =  2.57E-04,  avg # of iterations =  4.1

     total cpu time spent up to now is       38.2 secs

     total energy              =     -45.32067104 Ry
     estimated scf accuracy    <       1.58601697 Ry

     iteration # 11     ecut=    80.00 Ry     beta= 0.70
     Davidson diagonalization with overlap
     ethr =  2.57E-04,  avg # of iterations =  3.3

     total cpu time spent up to now is       39.5 secs

     total energy              =     -45.37686284 Ry
     estimated scf accuracy    <       0.17954822 Ry

     iteration # 12     ecut=    80.00 Ry     beta= 0.70
     Davidson diagonalization with overlap
     ethr =  2.57E-04,  avg # of iterations =  2.1

     total cpu time spent up to now is       40.5 secs

     total energy              =     -45.38170577 Ry
     estimated scf accuracy    <       0.02989988 Ry

     iteration # 13     ecut=    80.00 Ry     beta= 0.70
     Davidson diagonalization with overlap
     ethr =  2.14E-04,  avg # of iterations =  1.0

     total cpu time spent up to now is       41.4 secs

     total energy              =     -45.37758790 Ry
     estimated scf accuracy    <       0.01286251 Ry

     iteration # 14     ecut=    80.00 Ry     beta= 0.70
     Davidson diagonalization with overlap
     ethr =  9.19E-05,  avg # of iterations =  3.8

     total cpu time spent up to now is       42.5 secs

     total energy              =     -45.38098231 Ry
     estimated scf accuracy    <       0.01007877 Ry

     iteration # 15     ecut=    80.00 Ry     beta= 0.70
     Davidson diagonalization with overlap
     ethr =  7.20E-05,  avg # of iterations =  1.0

     total cpu time spent up to now is       43.4 secs

     total energy              =     -45.38107121 Ry
     estimated scf accuracy    <       0.00156511 Ry

     iteration # 16     ecut=    80.00 Ry     beta= 0.70
     Davidson diagonalization with overlap
     ethr =  1.12E-05,  avg # of iterations =  2.7

     total cpu time spent up to now is       44.4 secs

     total energy              =     -45.38127648 Ry
     estimated scf accuracy    <       0.00000479 Ry

     iteration # 17     ecut=    80.00 Ry     beta= 0.70
     Davidson diagonalization with overlap
     c_bands:  1 eigenvalues not converged
     ethr =  3.42E-08,  avg # of iterations =  5.8

     total cpu time spent up to now is       45.7 secs

     total energy              =     -45.38127673 Ry
     estimated scf accuracy    <       0.00003353 Ry

     iteration # 18     ecut=    80.00 Ry     beta= 0.70
     Davidson diagonalization with overlap
     ethr =  3.42E-08,  avg # of iterations =  2.5

     total cpu time spent up to now is       46.8 secs

     total energy              =     -45.38128292 Ry
     estimated scf accuracy    <       0.00000793 Ry

     iteration # 19     ecut=    80.00 Ry     beta= 0.70
     Davidson diagonalization with overlap
     ethr =  3.42E-08,  avg # of iterations =  1.0

     total cpu time spent up to now is       47.6 secs

     total energy              =     -45.38128297 Ry
     estimated scf accuracy    <       0.00000122 Ry

     iteration # 20     ecut=    80.00 Ry     beta= 0.70
     Davidson diagonalization with overlap
     ethr =  8.68E-09,  avg # of iterations =  2.0

     total cpu time spent up to now is       48.6 secs

     End of self-consistent calculation

          k = 0.0000 0.0000 0.0000 (  9267 PWs)   bands (ev):

   -44.5336 -44.1472  -5.8231  -5.0442  -0.5659   2.0715   3.5150   7.6411
     7.6411   7.9959   7.9959

          k = 0.0000 0.0000 0.1060 (  9226 PWs)   bands (ev):

   -44.5336 -44.1472  -5.8178  -5.0571  -0.3703   1.3631   4.4395   7.6800
     7.6800   7.9458   7.9458

          k = 0.0000 0.0000-0.2121 (  9220 PWs)   bands (ev):

   -44.5336 -44.1472  -5.8123  -5.0701  -0.0306   0.7281   5.4613   7.1660
     7.7439   7.7439   7.8710

          k = 0.0000 0.1266 0.0000 (  9215 PWs)   bands (ev):

   -44.5250 -44.1554  -5.6697  -4.8948  -0.4303   2.2048   3.5644   6.5465
     7.0760   7.2719   7.7807

          k = 0.0000 0.1266 0.1060 (  9217 PWs)   bands (ev):

   -44.5250 -44.1554  -5.6641  -4.9081  -0.2320   1.4811   4.4898   6.5880
     6.9974   7.3213   7.7048

          k = 0.0000 0.1266-0.2121 (  9220 PWs)   bands (ev):

   -44.5250 -44.1554  -5.6584  -4.9215   0.1184   0.8355   5.4485   6.6700
     6.8638   7.3172   7.4101

          k = 0.0000 0.2532 0.0000 (  9227 PWs)   bands (ev):

   -44.5004 -44.1788  -5.2156  -4.4557  -0.0276   2.5817   3.5931   4.6065
     5.3682   6.5923   7.2553

          k = 0.0000 0.2532 0.1060 (  9238 PWs)   bands (ev):

   -44.5004 -44.1788  -5.2096  -4.4698   0.1769   1.8059   4.4285   4.7790
     5.1919   6.6553   7.1408

          k = 0.0000 0.2532-0.2121 (  9232 PWs)   bands (ev):

   -44.5004 -44.1788  -5.2032  -4.4842   0.5591   1.1402   4.6316   4.8998
     5.6210   6.7723   6.9748

          k = 0.0000 0.3797 0.0000 (  9253 PWs)   bands (ev):

   -44.4638 -44.2141  -4.4868  -3.7662   0.6219   2.3607   2.9450   3.3239
     4.3970   5.9874   6.4476

          k = 0.0000 0.3797 0.1060 (  9250 PWs)   bands (ev):

   -44.4638 -44.2141  -4.4810  -3.7791   0.8110   1.9993   2.9971   3.1791
     4.6844   6.0583   6.5898

          k = 0.0000 0.3797-0.2121 (  9244 PWs)   bands (ev):

   -44.4638 -44.2141  -4.4737  -3.7947   1.2620   1.4795   2.7718   3.1299
     5.2781   6.1940   6.3913

          k = 0.0000 0.5063 0.0000 (  9278 PWs)   bands (ev):

   -44.4237 -44.2530  -3.5732  -2.9756   0.7288   1.4150   1.5977   3.6349
     4.1514   5.5941   5.7676

          k = 0.0000 0.5063 0.1060 (  9269 PWs)   bands (ev):

   -44.4237 -44.2530  -3.5718  -2.9778   0.6487   1.3381   1.9827   3.2852
     4.0514   5.6689   6.2201

          k = 0.0000 0.5063-0.2121 (  9268 PWs)   bands (ev):

   -44.4237 -44.2530  -3.5642  -2.9923   0.7530   1.1974   2.2215   2.8033
     4.5616   5.6051   5.8155

          k = 0.0000-0.6329 0.0000 (  9268 PWs)   bands (ev):

   -44.4023 -44.2740  -2.9384  -2.6181   0.0679   0.5975   2.5360   2.7515
     4.4369   5.4590   5.7353

          k = 0.0000-0.6329 0.1060 (  9266 PWs)   bands (ev):

   -44.4023 -44.2740  -2.9443  -2.6087   0.1102   0.4670   2.7698   2.8823
     4.2144   5.2914   5.5354

          k = 0.0000-0.6329-0.2121 (  9264 PWs)   bands (ev):

   -44.4023 -44.2740  -2.9500  -2.5995   0.2183   0.2826   2.8796   3.2859
     3.8852   4.8630   5.8699

          k = 0.1096 0.1899 0.0000 (  9246 PWs)   bands (ev):

   -44.5084 -44.1712  -5.3658  -4.6003  -0.1610   2.4624   3.6199   5.3288
     5.8154   6.6485   7.0273

          k = 0.1096 0.1899 0.1060 (  9232 PWs)   bands (ev):

   -44.5084 -44.1712  -5.3598  -4.6143   0.0407   1.7126   4.5027   5.3670
     5.8003   6.6286   6.9451

          k = 0.1096 0.1899-0.2121 (  9238 PWs)   bands (ev):

   -44.5084 -44.1712  -5.3537  -4.6283   0.4134   1.0428   5.2018   5.6161
     5.6765   6.6253   6.8463

          k = 0.1096 0.3164 0.0000 (  9252 PWs)   bands (ev):

   -44.4775 -44.2008  -4.7725  -4.0328   0.3677   2.8610   3.3176   3.7107
     4.6883   5.5708   6.1782

          k = 0.1096 0.3164 0.1060 (  9257 PWs)   bands (ev):

   -44.4775 -44.2008  -4.7662  -4.0470   0.5710   2.0715   3.6656   3.9573
     4.8058   5.5827   6.1278

          k = 0.1096 0.3164-0.2121 (  9254 PWs)   bands (ev):

   -44.4775 -44.2008  -4.7594  -4.0619   0.9884   1.4028   3.6739   3.9418
     5.2998   5.6582   6.0466

          k = 0.1096 0.4430 0.0000 (  9275 PWs)   bands (ev):

   -44.4378 -44.2393  -3.9380  -3.2691   1.0832   1.6772   2.1925   3.6443
     4.2928   4.8837   5.5222

          k = 0.1096 0.4430 0.1060 (  9266 PWs)   bands (ev):

   -44.4378 -44.2393  -3.9333  -3.2788   1.1313   1.7005   2.3273   3.1363
     4.3599   4.9647   5.4835

          k = 0.1096 0.4430-0.2121 (  9258 PWs)   bands (ev):

   -44.4378 -44.2393  -3.9258  -3.2940   1.3516   1.7252   2.1440   2.7551
     4.7684   5.0390   5.4612

          k = 0.1096 0.5696 0.0000 (  9264 PWs)   bands (ev):

   -44.4024 -44.2739  -3.0559  -2.6191   0.3568   0.9378   2.1695   3.2710
     4.3423   4.5994   5.1481

          k = 0.1096 0.5696 0.1060 (  9272 PWs)   bands (ev):

   -44.4024 -44.2739  -3.0602  -2.6108   0.3213   0.8775   2.4893   3.2989
     3.9484   4.6256   5.0970

          k = 0.1096 0.5696-0.2121 (  9270 PWs)   bands (ev):

   -44.4024 -44.2739  -3.0556  -2.6184   0.4256   0.7034   2.7434   3.1657
     4.1011   4.6527   5.0438

          k = 0.2192 0.3797 0.0000 (  9266 PWs)   bands (ev):

   -44.4427 -44.2345  -4.0665  -3.3783   1.0025   2.4106   2.5176   3.6098
     4.1619   4.5509   4.7254

          k = 0.2192 0.3797 0.1060 (  9282 PWs)   bands (ev):

   -44.4427 -44.2345  -4.0601  -3.3918   1.1777   2.1423   2.6599   3.2942
     4.1927   4.3260   5.1542

          k = 0.2192 0.3797-0.2121 (  9288 PWs)   bands (ev):

   -44.4427 -44.2345  -4.0535  -3.4053   1.6081   1.6580   2.8324   2.9869
     4.2081   4.2232   5.4076

          k = 0.2192 0.5063 0.0000 (  9271 PWs)   bands (ev):

   -44.4025 -44.2739  -3.1972  -2.6559   1.1195   1.5836   1.9356   3.2026
     3.7165   4.1315   4.3485

          k = 0.2192 0.5063 0.1060 (  9279 PWs)   bands (ev):

   -44.4025 -44.2739  -3.1947  -2.6598   1.0076   1.6149   2.2678   3.1752
     3.4267   3.8422   4.4870

          k = 0.2192 0.5063-0.2121 (  9282 PWs)   bands (ev):

   -44.4025 -44.2739  -3.1888  -2.6703   1.0607   1.5009   2.5876   3.0342
     3.2523   3.6622   4.8074

          k = 0.2192 0.6329 0.0000 (  9264 PWs)   bands (ev):

   -44.3777 -44.2983  -2.6100  -2.3573   0.5254   1.0413   2.5621   3.0811
     3.2453   3.6273   4.4931

          k = 0.2192 0.6329 0.1060 (  9259 PWs)   bands (ev):

   -44.3777 -44.2983  -2.6139  -2.3514   0.5696   0.9183   2.7045   3.1310
     3.2640   3.6805   4.4042

          k = 0.2192 0.6329-0.2121 (  9290 PWs)   bands (ev):

   -44.3777 -44.2983  -2.6177  -2.3457   0.6820   0.7378   2.9471   2.9480
     3.3817   3.9572   4.1240

          k = 0.3289 0.5696 0.0000 (  9276 PWs)   bands (ev):

   -44.3625 -44.3134  -2.4820  -2.2355   1.0764   1.3290   1.9267   2.5378
     2.9932   3.9027   4.0142

          k = 0.3289 0.5696 0.1060 (  9273 PWs)   bands (ev):

   -44.3625 -44.3134  -2.4815  -2.2359   1.0989   1.3137   1.9420   2.3131
     3.2263   3.9289   4.1609

          k = 0.3289 0.5696-0.2121 (  9310 PWs)   bands (ev):

   -44.3625 -44.3134  -2.4810  -2.2363   1.1215   1.3018   2.0385   2.0622
     3.5009   3.8424   4.3062

          k = 0.0000 0.1266-0.1060 (  9217 PWs)   bands (ev):

   -44.5250 -44.1554  -5.6641  -4.9082  -0.2326   1.4841   4.4760   6.5849
     7.0252   7.3258   7.6981

          k = 0.0000 0.2532-0.1060 (  9238 PWs)   bands (ev):

   -44.5004 -44.1788  -5.2094  -4.4701   0.1737   1.8329   4.3010   4.6285
     5.5037   6.6586   7.1354

          k = 0.0000 0.3797-0.1060 (  9250 PWs)   bands (ev):

   -44.4638 -44.2141  -4.4797  -3.7816   0.8252   2.1882   2.5679   3.2295
     5.0800   6.0602   6.5864

          k = 0.0000 0.5063-0.1060 (  9269 PWs)   bands (ev):

   -44.4237 -44.2530  -3.5656  -2.9900   0.8866   1.1491   1.7852   3.2461
     4.7473   5.3540   5.6698

          k =-0.1096 0.3164-0.1060 (  9257 PWs)   bands (ev):

   -44.4775 -44.2008  -4.7659  -4.0477   0.5707   2.1178   3.5354   3.8516
     5.1075   5.6178   6.0586

          k =-0.1096 0.4430-0.1060 (  9266 PWs)   bands (ev):

   -44.4378 -44.2393  -3.9307  -3.2841   1.2918   1.7222   1.9634   3.1632
     4.8767   4.9960   5.4740

          k =-0.1096 0.5696-0.1060 (  9272 PWs)   bands (ev):

   -44.4024 -44.2739  -3.0512  -2.6268   0.4735   0.7344   2.3369   3.3010
     4.4118   4.6692   5.0746

          k =-0.2192 0.5063-0.1060 (  9279 PWs)   bands (ev):

   -44.4025 -44.2739  -3.1913  -2.6663   1.2445   1.3654   2.1314   3.2547
     3.6191   3.6937   4.8447

     the Fermi energy is     3.1216 ev

!    total energy              =     -45.38128313 Ry
     estimated scf accuracy    <          5.9E-09 Ry
     smearing contrib. (-TS)   =      -0.00145307 Ry
     internal energy E=F+TS    =     -45.37983006 Ry

     The total energy is F=E-TS. E is the sum of the following terms:
     one-electron contribution =     -17.72170215 Ry
     hartree contribution      =       9.37860382 Ry
     xc contribution           =     -12.39787545 Ry
     ewald contribution        =     -24.63885628 Ry

     convergence has been achieved in  20 iterations

     Forces acting on atoms (cartesian axes, Ry/au):

     atom    1 type  1   force =     0.00000000    0.00000000    0.02216779
     atom    2 type  1   force =    -0.00000000   -0.00000000   -0.02216779
     atom    3 type  2   force =     0.00000000    0.00000000    0.02727838
     atom    4 type  2   force =     0.00000000    0.00000000   -0.02727838
     The non-local contrib.  to forces
     atom    1 type  1   force =    -0.00000000    0.00000000   -0.08751431
     atom    2 type  1   force =     0.00000000    0.00000000    0.08751431
     atom    3 type  2   force =     0.00000000    0.00000000    0.05244813
     atom    4 type  2   force =     0.00000000   -0.00000000   -0.05244813
     The ionic contribution  to forces
     atom    1 type  1   force =     0.00000004   -0.00000002    0.50265958
     atom    2 type  1   force =    -0.00000004    0.00000002   -0.50265958
     atom    3 type  2   force =     0.00000000   -0.00000000    1.69281228
     atom    4 type  2   force =    -0.00000000    0.00000000   -1.69281228
     The local contribution  to forces
     atom    1 type  1   force =     0.00000063   -0.00000036   -0.39295455
     atom    2 type  1   force =    -0.00000063    0.00000036    0.39295455
     atom    3 type  2   force =     0.00000002   -0.00000001   -1.71419803
     atom    4 type  2   force =    -0.00000002    0.00000001    1.71419803
     The core correction contribution to forces
     atom    1 type  1   force =     0.00000000    0.00000000    0.00000000
     atom    2 type  1   force =     0.00000000    0.00000000    0.00000000
     atom    3 type  2   force =    -0.00000000    0.00000000   -0.00370384
     atom    4 type  2   force =     0.00000000   -0.00000000    0.00370384
     The Hubbard contrib.    to forces
     atom    1 type  1   force =     0.00000000    0.00000000    0.00000000
     atom    2 type  1   force =     0.00000000    0.00000000    0.00000000
     atom    3 type  2   force =     0.00000000    0.00000000    0.00000000
     atom    4 type  2   force =     0.00000000    0.00000000    0.00000000
     The SCF correction term to forces
     atom    1 type  1   force =     0.00000000   -0.00000000   -0.00002293
     atom    2 type  1   force =    -0.00000000    0.00000000    0.00002293
     atom    3 type  2   force =    -0.00000000    0.00000000   -0.00008017
     atom    4 type  2   force =     0.00000000   -0.00000000    0.00008017

     Total force =     0.049710     Total SCF correction =     0.000118


     Computing stress (Cartesian axis) and pressure

          total   stress  (Ry/bohr**3)                   (kbar)     P=      -39.48
  -0.00028699   0.00000000   0.00000000          -42.22        0.00        0.00
   0.00000000  -0.00028699   0.00000000            0.00      -42.22        0.00
   0.00000000   0.00000000  -0.00023117            0.00        0.00      -34.01

     Energy error            =      7.0E-01 Ry
     Gradient error          =      2.7E-02 Ry/Bohr
     Cell gradient error     =      5.4E+02 kbar

     number of scf cycles    =   2
     number of bfgs steps    =   1

     enthalpy           old  =     -42.7125600010 Ry
     enthalpy           new  =     -43.4092506877 Ry

     CASE: enthalpy          _new < enthalpy          _old

     new trust radius        =       0.7173336096 bohr
ibrav =      4
 celldm(1) =      5.42665451
 celldm(3) =      2.58980444
Input lattice vectors:
     0.77640199     0.00000000     0.00000000
    -0.38820099     0.67238384     0.00000000
     0.00000000     0.00000000     2.01072931
New lattice vectors in INITIAL alat:
     0.77640199     0.00000000     0.00000000
    -0.38820099     0.67238384     0.00000000
     0.00000000     0.00000000     2.01072931
New lattice vectors in NEW alat (for information only):
     1.00000000     0.00000000     0.00000000
    -0.50000000     0.86602540     0.00000000
     0.00000000     0.00000000     2.58980444
Discrepancy in bohr =     0.000000    0.000000    0.000000
     new conv_thr            =       0.0000000027 Ry

     new unit-cell volume =    358.42156 a.u.^3 (    53.11259 Ang^3 )
     density =      2.19017 g/cm^3

CELL_PARAMETERS (alat=  6.98949076)
   0.776401987   0.000000000   0.000000000
  -0.388200993   0.672383844   0.000000000
   0.000000000   0.000000000   2.010729312

ATOMIC_POSITIONS (crystal)
Li            0.3333333300        0.6666666700        0.0399468073
Li            0.6666666700        0.3333333300        0.9600531927
Si            0.3333333300        0.6666666700        0.3208436607
Si            0.6666666700        0.3333333300        0.6791563393



     Writing config-only to output data dir ./output/LiSi.save/
     NEW-OLD atomic charge density approx. for the potential

     negative rho (up, down):  1.360E-01 0.000E+00
     extrapolated charge    5.34402, renormalised to   14.00000

     total cpu time spent up to now is       52.1 secs

     Self-consistent Calculation

     iteration #  1     ecut=    80.00 Ry     beta= 0.70
     Davidson diagonalization with overlap
     c_bands:  2 eigenvalues not converged
     c_bands:  1 eigenvalues not converged
     c_bands:  1 eigenvalues not converged
     c_bands:  1 eigenvalues not converged
     c_bands:  2 eigenvalues not converged
     c_bands:  1 eigenvalues not converged
     c_bands:  1 eigenvalues not converged
     c_bands:  1 eigenvalues not converged
     c_bands:  1 eigenvalues not converged
     c_bands:  1 eigenvalues not converged
     c_bands:  1 eigenvalues not converged
     c_bands:  1 eigenvalues not converged
     c_bands:  1 eigenvalues not converged
     c_bands:  1 eigenvalues not converged
     c_bands:  1 eigenvalues not converged
     c_bands:  2 eigenvalues not converged
     c_bands:  2 eigenvalues not converged
     c_bands:  1 eigenvalues not converged
     c_bands:  2 eigenvalues not converged
     c_bands:  1 eigenvalues not converged
     c_bands:  1 eigenvalues not converged
     c_bands:  1 eigenvalues not converged
     c_bands:  1 eigenvalues not converged
     c_bands:  1 eigenvalues not converged
     c_bands:  2 eigenvalues not converged
     ethr =  1.00E-06,  avg # of iterations = 18.4

     negative rho (up, down):  5.947E-02 0.000E+00

     total cpu time spent up to now is       56.8 secs

     total energy              =     -14.87634833 Ry
     estimated scf accuracy    <      31.26230724 Ry

     iteration #  2     ecut=    80.00 Ry     beta= 0.70
     Davidson diagonalization with overlap
     ethr =  1.00E-02,  avg # of iterations = 12.1

     total cpu time spent up to now is       60.1 secs

     total energy              =     -39.39020796 Ry
     estimated scf accuracy    <     142.94902573 Ry

     iteration #  3     ecut=    80.00 Ry     beta= 0.70
     Davidson diagonalization with overlap
     ethr =  1.00E-02,  avg # of iterations =  8.1

     total cpu time spent up to now is       62.4 secs

     total energy              =     -48.50730205 Ry
     estimated scf accuracy    <      13.26424108 Ry

     iteration #  4     ecut=    80.00 Ry     beta= 0.70
     Davidson diagonalization with overlap
     ethr =  1.00E-02,  avg # of iterations =  1.4

     total cpu time spent up to now is       63.2 secs

     total energy              =     -45.34005483 Ry
     estimated scf accuracy    <       8.93499773 Ry

     iteration #  5     ecut=    80.00 Ry     beta= 0.70
     Davidson diagonalization with overlap
     ethr =  1.00E-02,  avg # of iterations =  2.7

     total cpu time spent up to now is       64.3 secs

     total energy              =     -45.16784631 Ry
     estimated scf accuracy    <       1.91287475 Ry

     iteration #  6     ecut=    80.00 Ry     beta= 0.70
     Davidson diagonalization with overlap
     ethr =  1.00E-02,  avg # of iterations =  2.0

     total cpu time spent up to now is       65.2 secs

     total energy              =     -45.36218732 Ry
     estimated scf accuracy    <       0.06379230 Ry

     iteration #  7     ecut=    80.00 Ry     beta= 0.70
     Davidson diagonalization with overlap
     ethr =  4.56E-04,  avg # of iterations =  2.8

     total cpu time spent up to now is       66.2 secs

     total energy              =     -45.38833488 Ry
     estimated scf accuracy    <       0.01647461 Ry

     iteration #  8     ecut=    80.00 Ry     beta= 0.70
     Davidson diagonalization with overlap
     ethr =  1.18E-04,  avg # of iterations =  3.5

     total cpu time spent up to now is       67.4 secs

     total energy              =     -45.30369731 Ry
     estimated scf accuracy    <       0.44416389 Ry

     iteration #  9     ecut=    80.00 Ry     beta= 0.70
     Davidson diagonalization with overlap
     ethr =  1.18E-04,  avg # of iterations =  3.9

     total cpu time spent up to now is       68.7 secs

     total energy              =     -45.37065065 Ry
     estimated scf accuracy    <       0.01172511 Ry

     iteration # 10     ecut=    80.00 Ry     beta= 0.70
     Davidson diagonalization with overlap
     ethr =  8.38E-05,  avg # of iterations =  2.3

     total cpu time spent up to now is       69.6 secs

     total energy              =     -45.36225882 Ry
     estimated scf accuracy    <       0.03570819 Ry

     iteration # 11     ecut=    80.00 Ry     beta= 0.70
     Davidson diagonalization with overlap
     ethr =  8.38E-05,  avg # of iterations =  1.9

     total cpu time spent up to now is       70.6 secs

     total energy              =     -45.36677928 Ry
     estimated scf accuracy    <       0.00026804 Ry

     iteration # 12     ecut=    80.00 Ry     beta= 0.70
     Davidson diagonalization with overlap
     ethr =  1.91E-06,  avg # of iterations =  5.2

     total cpu time spent up to now is       71.8 secs

     total energy              =     -45.36682697 Ry
     estimated scf accuracy    <       0.00044205 Ry

     iteration # 13     ecut=    80.00 Ry     beta= 0.70
     Davidson diagonalization with overlap
     ethr =  1.91E-06,  avg # of iterations =  1.0

     total cpu time spent up to now is       72.6 secs

     total energy              =     -45.36671716 Ry
     estimated scf accuracy    <       0.00041388 Ry

     iteration # 14     ecut=    80.00 Ry     beta= 0.70
     Davidson diagonalization with overlap
     ethr =  1.91E-06,  avg # of iterations =  2.1

     total cpu time spent up to now is       73.5 secs

     total energy              =     -45.36677299 Ry
     estimated scf accuracy    <       0.00000823 Ry

     iteration # 15     ecut=    80.00 Ry     beta= 0.70
     Davidson diagonalization with overlap
     ethr =  5.88E-08,  avg # of iterations =  1.6

     total cpu time spent up to now is       74.4 secs

     total energy              =     -45.36677328 Ry
     estimated scf accuracy    <       0.00000532 Ry

     iteration # 16     ecut=    80.00 Ry     beta= 0.70
     Davidson diagonalization with overlap
     ethr =  3.80E-08,  avg # of iterations =  1.2

     total cpu time spent up to now is       75.2 secs

     total energy              =     -45.36677227 Ry
     estimated scf accuracy    <       0.00000415 Ry

     iteration # 17     ecut=    80.00 Ry     beta= 0.70
     Davidson diagonalization with overlap
     ethr =  2.97E-08,  avg # of iterations =  1.6

     total cpu time spent up to now is       76.1 secs

     total energy              =     -45.36677281 Ry
     estimated scf accuracy    <       0.00000004 Ry

     iteration # 18     ecut=    80.00 Ry     beta= 0.70
     Davidson diagonalization with overlap
     ethr =  2.97E-10,  avg # of iterations =  2.8

     total cpu time spent up to now is       77.1 secs

     End of self-consistent calculation

          k = 0.0000 0.0000 0.0000 (  9267 PWs)   bands (ev):

   -41.3127 -40.1128  -4.4660  -2.9611   1.8401   5.7242   8.4276  15.7313
    15.7313  16.3278  16.6430

          k = 0.0000 0.0000 0.1243 (  9226 PWs)   bands (ev):

   -41.3127 -40.1128  -4.4788  -2.9393   1.9105   5.2036   9.4628  14.0655
    14.9581  14.9582  15.5693

          k = 0.0000 0.0000-0.2487 (  9220 PWs)   bands (ev):

   -41.3127 -40.1128  -4.4912  -2.9178   1.9910   4.8058  11.1570  12.0245
    15.2233  15.2233  18.7720

          k = 0.0000 0.1487 0.0000 (  9215 PWs)   bands (ev):

   -41.2854 -40.1377  -4.2361  -2.7333   2.0293   5.9224   8.4591  12.8390
    13.9189  13.9241  15.2492

          k = 0.0000 0.1487 0.1243 (  9217 PWs)   bands (ev):

   -41.2854 -40.1377  -4.2480  -2.7138   2.1117   5.3587   9.5155  12.8455
    13.7007  14.0273  14.2858

          k = 0.0000 0.1487-0.2487 (  9220 PWs)   bands (ev):

   -41.2854 -40.1377  -4.2598  -2.6942   2.2043   4.9407  11.0539  12.1172
    13.2005  13.6738  14.3201

          k = 0.0000 0.2974 0.0000 (  9227 PWs)   bands (ev):

   -41.2075 -40.2094  -3.5487  -2.0523   2.5893   6.5055   8.4365   9.7255
    11.1118  12.6337  14.1630

          k = 0.0000 0.2974 0.1243 (  9238 PWs)   bands (ev):

   -41.2075 -40.2094  -3.5579  -2.0408   2.7135   5.7824   9.3628  10.0339
    10.9018  12.7582  13.7624

          k = 0.0000 0.2974-0.2487 (  9232 PWs)   bands (ev):

   -41.2075 -40.2094  -3.5679  -2.0265   2.8412   5.3227   9.6666  10.3192
    11.6171  12.5148  13.0749

          k = 0.0000 0.4462 0.0000 (  9253 PWs)   bands (ev):

   -41.0919 -40.3175  -2.4119  -0.9286   3.4858   6.4988   7.2876   7.8856
     8.9222  11.6357  11.8427

          k = 0.0000 0.4462 0.1243 (  9250 PWs)   bands (ev):

   -41.0919 -40.3175  -2.4161  -0.9318   3.6910   6.0770   6.9197   7.8851
     9.7220  11.7676  12.7951

          k = 0.0000 0.4462-0.2487 (  9244 PWs)   bands (ev):

   -41.0919 -40.3175  -2.4233  -0.9261   3.8860   5.7652   6.7074   7.7438
    10.7339  12.1050  12.2563

          k = 0.0000 0.5949 0.0000 (  9278 PWs)   bands (ev):

   -40.9658 -40.4374  -0.8467   0.5994   3.6393   4.8345   5.1174   7.8786
     8.7198  10.9240  11.0208

          k = 0.0000 0.5949 0.1243 (  9269 PWs)   bands (ev):

   -40.9658 -40.4374  -0.8456   0.5823   3.6452   4.8163   5.4826   6.9899
     9.0197  11.1565  11.5660

          k = 0.0000 0.5949-0.2487 (  9268 PWs)   bands (ev):

   -40.9658 -40.4374  -0.8488   0.5732   3.7833   4.8166   5.2868   6.9606
     9.4115  10.7653  11.5084

          k = 0.0000-0.7436 0.0000 (  9268 PWs)   bands (ev):

   -40.8984 -40.5024   0.8264   1.3555   2.4620   3.1550   5.8420   6.7885
     9.4995  10.7153  13.1556

          k = 0.0000-0.7436 0.1243 (  9266 PWs)   bands (ev):

   -40.8984 -40.5024   0.7972   1.4097   2.5378   2.9516   6.2268   6.7948
     9.1072  10.1609  10.9514

          k = 0.0000-0.7436-0.2487 (  9264 PWs)   bands (ev):

   -40.8984 -40.5024   0.7702   1.4708   2.6710   2.7071   6.3676   7.4479
     8.0809  10.0308  11.3080

          k = 0.1288 0.2231 0.0000 (  9246 PWs)   bands (ev):

   -41.2327 -40.1861  -3.7774  -2.2788   2.4041   6.3144   8.4827  11.1254
    11.6036  12.6761  13.3315

          k = 0.1288 0.2231 0.1243 (  9232 PWs)   bands (ev):

   -41.2327 -40.1861  -3.7879  -2.2635   2.5072   5.6717   9.5090  11.2233
    11.6195  12.5283  13.1010

          k = 0.1288 0.2231-0.2487 (  9238 PWs)   bands (ev):

   -41.2327 -40.1861  -3.7981  -2.2485   2.6296   5.2003  10.5844  11.6092
    11.6145  12.2278  12.8503

          k = 0.1288 0.3718 0.0000 (  9252 PWs)   bands (ev):

   -41.1352 -40.2768  -2.8650  -1.3759   3.1357   7.0636   7.9752   8.5601
     9.8219  10.5021  11.8894

          k = 0.1288 0.3718 0.1243 (  9257 PWs)   bands (ev):

   -41.1352 -40.2768  -2.8717  -1.3716   3.2967   6.1713   8.2014   9.4036
     9.7193  10.5199  11.8306

          k = 0.1288 0.3718-0.2487 (  9254 PWs)   bands (ev):

   -41.1352 -40.2768  -2.8795  -1.3640   3.4723   5.6585   8.2693   9.1178
    10.5840  10.7383  11.7884

          k = 0.1288 0.5205 0.0000 (  9275 PWs)   bands (ev):

   -41.0102 -40.3948  -1.5117  -0.0429   4.1256   5.3097   6.4958   8.2316
     8.4953   9.5790  10.8976

          k = 0.1288 0.5205 0.1243 (  9266 PWs)   bands (ev):

   -41.0102 -40.3948  -1.5127  -0.0556   4.3695   5.2193   6.6473   6.9929
     9.2883   9.6511  10.7982

          k = 0.1288 0.5205-0.2487 (  9258 PWs)   bands (ev):

   -41.0102 -40.3948  -1.5168  -0.0592   4.6989   5.2095   5.9654   6.9950
     9.6909   9.9501  10.7329

          k = 0.1288 0.6693 0.0000 (  9264 PWs)   bands (ev):

   -40.8988 -40.5019   0.2365   1.5643   2.7343   4.0974   5.5361   7.3214
     9.1124   9.3422  10.2498

          k = 0.1288 0.6693 0.1243 (  9272 PWs)   bands (ev):

   -40.8988 -40.5019   0.2345   1.5795   2.6838   4.0303   6.0742   6.9124
     8.9991   9.1645  10.1934

          k = 0.1288 0.6693-0.2487 (  9270 PWs)   bands (ev):

   -40.8988 -40.5019   0.2336   1.5453   2.8109   3.8497   6.1408   7.2852
     8.6969   9.2359  10.0275

          k = 0.2576 0.4462 0.0000 (  9266 PWs)   bands (ev):

   -41.0257 -40.3800  -1.7350  -0.2608   4.0034   6.8693   7.0883   7.8790
     8.3063   9.1543   9.3324

          k = 0.2576 0.4462 0.1243 (  9282 PWs)   bands (ev):

   -41.0257 -40.3800  -1.7382  -0.2671   4.2102   6.5032   7.0181   7.6804
     8.3776   8.6064  10.4167

          k = 0.2576 0.4462-0.2487 (  9288 PWs)   bands (ev):

   -41.0257 -40.3800  -1.7413  -0.2732   4.5054   5.9771   7.0537   7.5431
     8.3857   8.5219  10.8993

          k = 0.2576 0.5949 0.0000 (  9271 PWs)   bands (ev):

   -40.8995 -40.5012  -0.1808   1.2486   4.2537   5.2329   5.6288   6.8240
     7.9012   8.4351   9.3397

          k = 0.2576 0.5949 0.1243 (  9279 PWs)   bands (ev):

   -40.8995 -40.5012  -0.1788   1.2288   4.2365   5.3417   5.9270   6.7568
     7.2950   8.1589   9.5285

          k = 0.2576 0.5949-0.2487 (  9282 PWs)   bands (ev):

   -40.8995 -40.5012  -0.1778   1.2079   4.3707   5.3297   5.8932   6.8478
     7.0099   8.0834   9.7508

          k = 0.2576 0.7436 0.0000 (  9264 PWs)   bands (ev):

   -40.8219 -40.5768   1.4809   1.9709   3.1061   3.7979   5.8819   6.8621
     7.2616   7.9023   9.6048

          k = 0.2576 0.7436 0.1243 (  9259 PWs)   bands (ev):

   -40.8219 -40.5768   1.4536   2.0249   3.1741   3.5814   6.2190   6.8088
     7.3000   7.9285   9.2314

          k = 0.2576 0.7436-0.2487 (  9290 PWs)   bands (ev):

   -40.8219 -40.5768   1.4285   2.0852   3.3074   3.3229   6.5716   6.6801
     7.4412   8.1992   8.4752

          k = 0.3864 0.6693 0.0000 (  9276 PWs)   bands (ev):

   -40.7750 -40.6230   1.5188   2.6581   4.0048   4.0278   5.1637   5.8875
     6.5447   8.0888   8.8924

          k = 0.3864 0.6693 0.1243 (  9273 PWs)   bands (ev):

   -40.7750 -40.6230   1.5190   2.6484   3.8640   4.2658   5.1910   5.4452
     7.0744   8.0189   8.8875

          k = 0.3864 0.6693-0.2487 (  9310 PWs)   bands (ev):

   -40.7750 -40.6230   1.5190   2.6401   3.8182   4.4393   5.1157   5.2552
     7.3962   7.9985   8.8825

          k = 0.0000 0.1487-0.1243 (  9217 PWs)   bands (ev):

   -41.2854 -40.1377  -4.2482  -2.7134   2.1093   5.3671   9.4884  12.9247
    13.5859  14.0534  14.4200

          k = 0.0000 0.2974-0.1243 (  9238 PWs)   bands (ev):

   -41.2075 -40.2094  -3.5589  -2.0379   2.6936   5.8549   9.2868   9.7348
    11.2591  12.7703  13.7320

          k = 0.0000 0.4462-0.1243 (  9250 PWs)   bands (ev):

   -41.0919 -40.3175  -2.4191  -0.9229   3.6268   6.5105   6.6363   7.6295
    10.1763  11.7574  11.7734

          k = 0.0000 0.5949-0.1243 (  9269 PWs)   bands (ev):

   -40.9658 -40.4374  -0.8498   0.5899   3.8173   4.6255   5.1555   7.5791
     9.6165  10.0113  11.1590

          k =-0.1288 0.3718-0.1243 (  9257 PWs)   bands (ev):

   -41.1352 -40.2768  -2.8729  -1.3682   3.2719   6.2767   8.2567   8.7263
    10.4029  10.6255  11.6411

          k =-0.1288 0.5205-0.1243 (  9266 PWs)   bands (ev):

   -41.0102 -40.3948  -1.5158  -0.0467   4.3336   5.3248   6.1894   7.3899
     9.6280   9.9503  10.7804

          k =-0.1288 0.6693-0.1243 (  9272 PWs)   bands (ev):

   -40.8988 -40.5019   0.2358   1.5295   2.8838   3.8495   5.7329   7.5076
     9.1213   9.5096   9.7555

          k =-0.2576 0.5949-0.1243 (  9279 PWs)   bands (ev):

   -40.8995 -40.5012  -0.1797   1.2270   4.4432   5.0694   5.6824   6.8442
     7.8551   8.0057   9.9279

     the Fermi energy is     7.0449 ev

!    total energy              =     -45.36677282 Ry
     estimated scf accuracy    <          2.7E-10 Ry
     smearing contrib. (-TS)   =      -0.00056599 Ry
     internal energy E=F+TS    =     -45.36620683 Ry

     The total energy is F=E-TS. E is the sum of the following terms:
     one-electron contribution =     -11.74559219 Ry
     hartree contribution      =       8.49508473 Ry
     xc contribution           =     -12.99053285 Ry
     ewald contribution        =     -29.12516652 Ry

     convergence has been achieved in  18 iterations

     Forces acting on atoms (cartesian axes, Ry/au):

     atom    1 type  1   force =     0.00000000   -0.00000000   -0.01463321
     atom    2 type  1   force =    -0.00000000    0.00000000    0.01463321
     atom    3 type  2   force =    -0.00000000    0.00000000    0.10480984
     atom    4 type  2   force =     0.00000000   -0.00000000   -0.10480984
     The non-local contrib.  to forces
     atom    1 type  1   force =     0.00000000   -0.00000000   -0.13708366
     atom    2 type  1   force =     0.00000000    0.00000000    0.13708366
     atom    3 type  2   force =     0.00000000   -0.00000000    0.16386302
     atom    4 type  2   force =     0.00000000    0.00000000   -0.16386302
     The ionic contribution  to forces
     atom    1 type  1   force =     0.00000005   -0.00000003    0.72190025
     atom    2 type  1   force =    -0.00000005    0.00000003   -0.72190025
     atom    3 type  2   force =     0.00000000   -0.00000000    2.19687080
     atom    4 type  2   force =    -0.00000000    0.00000000   -2.19687080
     The local contribution  to forces
     atom    1 type  1   force =     0.00000052   -0.00000030   -0.59944289
     atom    2 type  1   force =    -0.00000052    0.00000030    0.59944289
     atom    3 type  2   force =     0.00000001   -0.00000000   -2.24514330
     atom    4 type  2   force =    -0.00000001    0.00000000    2.24514330
     The core correction contribution to forces
     atom    1 type  1   force =     0.00000000    0.00000000    0.00000000
     atom    2 type  1   force =     0.00000000    0.00000000    0.00000000
     atom    3 type  2   force =    -0.00000000    0.00000000   -0.01076603
     atom    4 type  2   force =     0.00000000   -0.00000000    0.01076603
     The Hubbard contrib.    to forces
     atom    1 type  1   force =     0.00000000    0.00000000    0.00000000
     atom    2 type  1   force =     0.00000000    0.00000000    0.00000000
     atom    3 type  2   force =     0.00000000    0.00000000    0.00000000
     atom    4 type  2   force =     0.00000000    0.00000000    0.00000000
     The SCF correction term to forces
     atom    1 type  1   force =     0.00000000   -0.00000000   -0.00000690
     atom    2 type  1   force =    -0.00000000    0.00000000    0.00000690
     atom    3 type  2   force =    -0.00000000    0.00000000   -0.00001466
     atom    4 type  2   force =     0.00000000   -0.00000000    0.00001466

     Total force =     0.149661     Total SCF correction =     0.000023


     Computing stress (Cartesian axis) and pressure

          total   stress  (Ry/bohr**3)                   (kbar)     P=      126.72
   0.00054644   0.00000000  -0.00000000           80.38        0.00       -0.00
   0.00000000   0.00054644  -0.00000000            0.00       80.38       -0.00
   0.00000000   0.00000000   0.00149138            0.00        0.00      219.39

     Energy error            =      7.4E-01 Ry
     Gradient error          =      1.0E-01 Ry/Bohr
     Cell gradient error     =      4.2E+02 kbar

     number of scf cycles    =   3
     number of bfgs steps    =   2

     enthalpy           old  =     -43.4092506877 Ry
     enthalpy           new  =     -44.1485227087 Ry

     CASE: enthalpy          _new < enthalpy          _old

     new trust radius        =       0.7642007450 bohr
ibrav =      4
 celldm(1) =      4.33140625
 celldm(3) =      2.71391953
Input lattice vectors:
     0.61970269     0.00000000     0.00000000
    -0.30985135     0.53667828     0.00000000
    -0.00000000    -0.00000000     1.68182324
New lattice vectors in INITIAL alat:
     0.61970269     0.00000000     0.00000000
    -0.30985135     0.53667828     0.00000000
     0.00000000     0.00000000     1.68182324
New lattice vectors in NEW alat (for information only):
     1.00000000     0.00000000     0.00000000
    -0.50000000     0.86602540     0.00000000
     0.00000000     0.00000000     2.71391953
Discrepancy in bohr =     0.000000    0.000000    0.000000
     new conv_thr            =       0.0000000100 Ry

     new unit-cell volume =    190.99164 a.u.^3 (    28.30204 Ang^3 )
     density =      4.11015 g/cm^3

CELL_PARAMETERS (alat=  6.98949076)
   0.619702693   0.000000000   0.000000000
  -0.309851347   0.536678275   0.000000000
   0.000000000   0.000000000   1.681823240

ATOMIC_POSITIONS (crystal)
Li            0.3333333300        0.6666666700        0.0396799561
Li            0.6666666700        0.3333333300        0.9603200439
Si            0.3333333300        0.6666666700        0.3312348991
Si            0.6666666700        0.3333333300        0.6687651009



     Writing config-only to output data dir ./output/LiSi.save/
     NEW-OLD atomic charge density approx. for the potential

     negative rho (up, down):  1.219E+00 0.000E+00
     extrapolated charge    1.73618, renormalised to   14.00000

     total cpu time spent up to now is       80.2 secs

     Self-consistent Calculation

     iteration #  1     ecut=    80.00 Ry     beta= 0.70
     Davidson diagonalization with overlap
     c_bands:  2 eigenvalues not converged
     c_bands:  1 eigenvalues not converged
     c_bands:  1 eigenvalues not converged
     c_bands:  4 eigenvalues not converged
     c_bands:  1 eigenvalues not converged
     c_bands:  1 eigenvalues not converged
     c_bands:  1 eigenvalues not converged
     c_bands:  1 eigenvalues not converged
     c_bands:  1 eigenvalues not converged
     c_bands:  1 eigenvalues not converged
     c_bands:  2 eigenvalues not converged
     c_bands:  3 eigenvalues not converged
     c_bands:  2 eigenvalues not converged
     c_bands:  1 eigenvalues not converged
     c_bands:  1 eigenvalues not converged
     c_bands:  2 eigenvalues not converged
     c_bands:  2 eigenvalues not converged
     c_bands:  2 eigenvalues not converged
     c_bands:  1 eigenvalues not converged
     c_bands:  1 eigenvalues not converged
     c_bands:  1 eigenvalues not converged
     c_bands:  1 eigenvalues not converged
     c_bands:  1 eigenvalues not converged
     c_bands:  3 eigenvalues not converged
     c_bands:  1 eigenvalues not converged
     c_bands:  4 eigenvalues not converged
     c_bands:  2 eigenvalues not converged
     ethr =  1.00E-06,  avg # of iterations = 19.2
     Minimization algorithm failed to find Fermi energy: reverting to bisection
     Possible cause: smearing is larger than the electronic band-gap.

     negative rho (up, down):  1.863E+00 0.000E+00

     total cpu time spent up to now is       84.7 secs

     total energy              =       3.54074784 Ry
     estimated scf accuracy    <      90.29429080 Ry

     iteration #  2     ecut=    80.00 Ry     beta= 0.70
     Davidson diagonalization with overlap
     ethr =  1.00E-02,  avg # of iterations = 13.5

     negative rho (up, down):  6.766E-01 0.000E+00

     total cpu time spent up to now is       88.0 secs

     total energy              =     -31.04266889 Ry
     estimated scf accuracy    <     186.44729876 Ry

     iteration #  3     ecut=    80.00 Ry     beta= 0.70
     Davidson diagonalization with overlap
     ethr =  1.00E-02,  avg # of iterations =  7.5

     negative rho (up, down):  6.412E-03 0.000E+00

     total cpu time spent up to now is       90.1 secs

     total energy              =     -43.63308953 Ry
     estimated scf accuracy    <      12.45932468 Ry

     iteration #  4     ecut=    80.00 Ry     beta= 0.70
     Davidson diagonalization with overlap
     ethr =  1.00E-02,  avg # of iterations =  3.2

     total cpu time spent up to now is       91.3 secs

     total energy              =     -44.78758041 Ry
     estimated scf accuracy    <       0.37311390 Ry

     iteration #  5     ecut=    80.00 Ry     beta= 0.70
     Davidson diagonalization with overlap
     ethr =  2.67E-03,  avg # of iterations =  3.4

     total cpu time spent up to now is       92.3 secs

     total energy              =     -44.78205991 Ry
     estimated scf accuracy    <       0.32828404 Ry

     iteration #  6     ecut=    80.00 Ry     beta= 0.70
     Davidson diagonalization with overlap
     ethr =  2.34E-03,  avg # of iterations =  1.9

     total cpu time spent up to now is       93.1 secs

     total energy              =     -44.83235567 Ry
     estimated scf accuracy    <       0.00771157 Ry

     iteration #  7     ecut=    80.00 Ry     beta= 0.70
     Davidson diagonalization with overlap
     ethr =  5.51E-05,  avg # of iterations =  4.4

     total cpu time spent up to now is       94.2 secs

     total energy              =     -44.83373243 Ry
     estimated scf accuracy    <       0.00116069 Ry

     iteration #  8     ecut=    80.00 Ry     beta= 0.70
     Davidson diagonalization with overlap
     ethr =  8.29E-06,  avg # of iterations =  5.0

     total cpu time spent up to now is       95.3 secs

     total energy              =     -44.83193950 Ry
     estimated scf accuracy    <       0.00649305 Ry

     iteration #  9     ecut=    80.00 Ry     beta= 0.70
     Davidson diagonalization with overlap
     ethr =  8.29E-06,  avg # of iterations =  4.4

     total cpu time spent up to now is       96.5 secs

     total energy              =     -44.83356529 Ry
     estimated scf accuracy    <       0.00466045 Ry

     iteration # 10     ecut=    80.00 Ry     beta= 0.70
     Davidson diagonalization with overlap
     ethr =  8.29E-06,  avg # of iterations =  2.4

     total cpu time spent up to now is       97.4 secs

     total energy              =     -44.83394409 Ry
     estimated scf accuracy    <       0.00012751 Ry

     iteration # 11     ecut=    80.00 Ry     beta= 0.70
     Davidson diagonalization with overlap
     ethr =  9.11E-07,  avg # of iterations =  2.8

     total cpu time spent up to now is       98.3 secs

     total energy              =     -44.83396935 Ry
     estimated scf accuracy    <       0.00000310 Ry

     iteration # 12     ecut=    80.00 Ry     beta= 0.70
     Davidson diagonalization with overlap
     ethr =  2.21E-08,  avg # of iterations =  2.9

     total cpu time spent up to now is       99.2 secs

     total energy              =     -44.83396993 Ry
     estimated scf accuracy    <       0.00000185 Ry

     iteration # 13     ecut=    80.00 Ry     beta= 0.70
     Davidson diagonalization with overlap
     ethr =  1.32E-08,  avg # of iterations =  1.2

     total cpu time spent up to now is      100.0 secs

     total energy              =     -44.83396984 Ry
     estimated scf accuracy    <       0.00000059 Ry

     iteration # 14     ecut=    80.00 Ry     beta= 0.70
     Davidson diagonalization with overlap
     ethr =  4.21E-09,  avg # of iterations =  1.6

     total cpu time spent up to now is      100.8 secs

     End of self-consistent calculation

          k = 0.0000 0.0000 0.0000 (  9267 PWs)   bands (ev):

   -36.6236 -32.1316  -2.0041   1.1461   6.9657  12.5476  18.6514  26.9489
    29.5538  29.7612  29.9494

          k = 0.0000 0.0000 0.1486 (  9226 PWs)   bands (ev):

   -36.6236 -32.1316  -2.0495   1.3115   6.6140  12.8736  19.1522  24.5721
    29.8427  29.8435  30.0667

          k = 0.0000 0.0000-0.2973 (  9220 PWs)   bands (ev):

   -36.6236 -32.1316  -2.0924   1.4864   6.2766  13.1655  20.0501  22.6754
    29.9208  30.4634  30.4669

          k = 0.0000 0.1863 0.0000 (  9215 PWs)   bands (ev):

   -36.5195 -32.2222  -1.6430   1.4952   7.2575  12.8335  18.5709  24.9854
    26.6657  27.3324  28.0525

          k = 0.0000 0.1863 0.1486 (  9217 PWs)   bands (ev):

   -36.5195 -32.2222  -1.6877   1.6567   6.9255  13.0925  19.1828  23.8736
    26.0385  27.2775  27.5062

          k = 0.0000 0.1863-0.2973 (  9220 PWs)   bands (ev):

   -36.5195 -32.2222  -1.7304   1.8294   6.5979  13.3392  20.2372  22.2771
    25.7438  27.0403  27.9249

          k = 0.0000 0.3727 0.0000 (  9227 PWs)   bands (ev):

   -36.2222 -32.4841  -0.5663   2.5361   8.1142  13.6623  18.1754  20.0246
    22.5874  25.2123  25.4435

          k = 0.0000 0.3727 0.1486 (  9238 PWs)   bands (ev):

   -36.2222 -32.4841  -0.6074   2.6786   7.8681  13.6392  19.1253  19.8743
    22.5998  23.9882  25.3995

          k = 0.0000 0.3727-0.2973 (  9232 PWs)   bands (ev):

   -36.2222 -32.4841  -0.6497   2.8460   7.5639  13.7751  19.5203  20.9269
    21.5309  23.3708  25.9383

          k = 0.0000 0.5590 0.0000 (  9253 PWs)   bands (ev):

   -35.7796 -32.8825   1.2058   4.2448   9.4531  14.4773  15.5141  17.6098
    18.0687  23.0420  23.6592

          k = 0.0000 0.5590 0.1486 (  9250 PWs)   bands (ev):

   -35.7796 -32.8825   1.1747   4.3335   9.4377  14.1665  15.0612  17.5295
    19.7022  22.8424  23.8516

          k = 0.0000 0.5590-0.2973 (  9244 PWs)   bands (ev):

   -35.7796 -32.8825   1.1328   4.4918   9.1706  14.0829  15.1412  17.5879
    21.2388  22.2116  23.4175

          k = 0.0000 0.7453 0.0000 (  9278 PWs)   bands (ev):

   -35.2949 -33.3312   3.6292   6.5131  10.4672  11.4448  13.5718  15.8746
    17.9154  20.8177  23.2373

          k = 0.0000 0.7453 0.1486 (  9269 PWs)   bands (ev):

   -35.2949 -33.3312   3.6236   6.4603  10.7469  11.7384  13.5804  14.2726
    18.9045  21.9574  22.9054

          k = 0.0000 0.7453-0.2973 (  9268 PWs)   bands (ev):

   -35.2949 -33.3312   3.5814   6.6089  10.7507  11.3671  13.2466  15.2365
    18.5032  21.3411  23.3689

          k = 0.0000-0.9317 0.0000 (  9268 PWs)   bands (ev):

   -35.0337 -33.5786   6.2729   6.8561   9.7731  10.2216  12.3996  15.2789
    19.1038  20.0368  21.5814

          k = 0.0000-0.9317 0.1486 (  9266 PWs)   bands (ev):

   -35.0337 -33.5786   6.3343   6.7667   9.4454  10.5413  13.0717  14.7499
    17.6359  20.6011  22.5884

          k = 0.0000-0.9317-0.2973 (  9264 PWs)   bands (ev):

   -35.0337 -33.5786   6.4241   6.6552   9.1996  10.8997  13.5134  14.9531
    15.9631  21.3333  23.8953

          k = 0.1614 0.2795 0.0000 (  9246 PWs)   bands (ev):

   -36.3185 -32.3987  -0.9241   2.1903   7.8321  13.3953  18.3368  22.3441
    23.0409  24.7791  25.8344

          k = 0.1614 0.2795 0.1486 (  9232 PWs)   bands (ev):

   -36.3185 -32.3987  -0.9678   2.3458   7.5341  13.5317  19.0446  22.2131
    23.0565  24.0332  25.4343

          k = 0.1614 0.2795-0.2973 (  9238 PWs)   bands (ev):

   -36.3185 -32.3987  -1.0091   2.5093   7.2421  13.6453  20.4537  21.3575
    23.0854  23.1771  25.1906

          k = 0.1614 0.4658 0.0000 (  9252 PWs)   bands (ev):

   -35.9458 -32.7314   0.5005   3.5671   8.9353  14.4282  17.3880  18.1055
    19.9262  21.7561  23.7392

          k = 0.1614 0.4658 0.1486 (  9257 PWs)   bands (ev):

   -35.9458 -32.7314   0.4629   3.6905   8.7783  14.1160  17.5444  18.7763
    19.9976  22.0836  23.1599

          k = 0.1614 0.4658-0.2973 (  9254 PWs)   bands (ev):

   -35.9458 -32.7314   0.4228   3.8424   8.5333  14.0574  17.5742  19.3965
    20.4741  21.5662  23.0972

          k = 0.1614 0.6522 0.0000 (  9275 PWs)   bands (ev):

   -35.4674 -33.1692   2.6011   5.5813  10.3836  13.0751  15.3067  16.3655
    17.3496  20.2106  21.8392

          k = 0.1614 0.6522 0.1486 (  9266 PWs)   bands (ev):

   -35.4674 -33.1692   2.5796   5.6176  10.6044  13.1198  14.3769  15.7203
    18.9570  20.5051  21.8739

          k = 0.1614 0.6522-0.2973 (  9258 PWs)   bands (ev):

   -35.4674 -33.1692   2.5410   5.7518  10.4508  12.9808  14.1406  16.1810
    19.4842  20.5785  21.3534

          k = 0.1614 0.8385 0.0000 (  9264 PWs)   bands (ev):

   -35.0390 -33.5724   5.2968   7.6965   9.5436  11.6100  12.3907  15.6389
    18.3636  19.6550  20.1620

          k = 0.1614 0.8385 0.1486 (  9272 PWs)   bands (ev):

   -35.0390 -33.5724   5.3215   7.5101   9.6404  11.9191  12.9681  14.3117
    18.3032  19.1825  20.9831

          k = 0.1614 0.8385-0.2973 (  9270 PWs)   bands (ev):

   -35.0390 -33.5724   5.2827   7.6504   9.4702  11.8032  13.0805  15.1182
    16.9408  19.0508  21.0376

          k = 0.3227 0.5590 0.0000 (  9266 PWs)   bands (ev):

   -35.5282 -33.1122   2.2549   5.2591  10.1838  15.3131  15.4587  16.5450
    17.1220  19.4846  19.9880

          k = 0.3227 0.5590 0.1486 (  9282 PWs)   bands (ev):

   -35.5282 -33.1122   2.2226   5.3535  10.1711  14.5018  15.6705  16.4937
    17.5022  19.5187  21.1248

          k = 0.3227 0.5590-0.2973 (  9288 PWs)   bands (ev):

   -35.5282 -33.1122   2.1916   5.4492  10.1552  14.0875  15.5471  16.4256
    17.9677  19.5797  22.3002

          k = 0.3227 0.7453 0.0000 (  9271 PWs)   bands (ev):

   -35.0473 -33.5626   4.6504   7.5080  11.0930  12.2650  13.8762  15.5187
    16.6492  17.6329  19.5806

          k = 0.3227 0.7453 0.1486 (  9279 PWs)   bands (ev):

   -35.0473 -33.5626   4.6446   7.4510  11.5942  12.1969  13.6521  15.1086
    16.0731  18.0642  19.9428

          k = 0.3227 0.7453-0.2973 (  9282 PWs)   bands (ev):

   -35.0473 -33.5626   4.6202   7.5077  11.6061  12.3849  13.2217  15.2606
    16.1597  18.2066  19.1589

          k = 0.3227 0.9317 0.0000 (  9264 PWs)   bands (ev):

   -34.7512 -33.8469   7.2572   7.8432  10.7457  10.9572  12.5030  15.4265
    16.0506  17.5908  19.4234

          k = 0.3227 0.9317 0.1486 (  9259 PWs)   bands (ev):

   -34.7512 -33.8469   7.3345   7.7658  10.2191  11.1967  13.4744  15.2747
    15.6882  17.7278  17.9498

          k = 0.3227 0.9317-0.2973 (  9290 PWs)   bands (ev):

   -34.7512 -33.8469   7.4423   7.6684   9.8640  11.4574  14.5251  15.3510
    15.6240  15.9779  18.0274

          k = 0.4841 0.8385 0.0000 (  9276 PWs)   bands (ev):

   -34.5791 -34.0136   7.2577   9.5527  10.1865  11.7494  12.9843  14.0665
    14.7893  16.9383  18.6403

          k = 0.4841 0.8385 0.1486 (  9273 PWs)   bands (ev):

[...]
        k(   45) = (   0.0000000   0.5521396  -0.1078532), wk =   0.0300000
        k(   46) = (   0.0000000   0.7361861  -0.1078532), wk =   0.0300000
        k(   47) = (  -0.1593890   0.4601163  -0.1078532), wk =   0.0600000
        k(   48) = (  -0.1593890   0.6441629  -0.1078532), wk =   0.0600000
        k(   49) = (  -0.1593890   0.8282094  -0.1078532), wk =   0.0600000
        k(   50) = (  -0.3187780   0.7361861  -0.1078532), wk =   0.0600000

     Dense  grid:    26121 G-vectors     FFT dimensions: (  25,  25,  96)

     Estimated max dynamical RAM per process >      17.72 MB

     Estimated total dynamical RAM >     141.74 MB

     Initial potential from superposition of free atoms

     starting charge      13.9897, renormalised to      14.0000
     Starting wfcs are   12 randomized atomic wfcs

     total cpu time spent up to now is      351.9 secs

     Self-consistent Calculation

     iteration #  1     ecut=    80.00 Ry     beta= 0.70
     Davidson diagonalization with overlap
     c_bands:  2 eigenvalues not converged
     c_bands:  2 eigenvalues not converged
     c_bands:  1 eigenvalues not converged
     c_bands:  1 eigenvalues not converged
     c_bands:  1 eigenvalues not converged
     c_bands:  1 eigenvalues not converged
     c_bands:  1 eigenvalues not converged
     c_bands:  1 eigenvalues not converged
     c_bands:  1 eigenvalues not converged
     c_bands:  1 eigenvalues not converged
     c_bands:  1 eigenvalues not converged
     c_bands:  1 eigenvalues not converged
     c_bands:  2 eigenvalues not converged
     c_bands:  1 eigenvalues not converged
     c_bands:  2 eigenvalues not converged
     c_bands:  1 eigenvalues not converged
     c_bands:  1 eigenvalues not converged
     c_bands:  2 eigenvalues not converged
     c_bands:  1 eigenvalues not converged
     c_bands:  1 eigenvalues not converged
     c_bands:  1 eigenvalues not converged
     c_bands:  1 eigenvalues not converged
     c_bands:  1 eigenvalues not converged
     c_bands:  1 eigenvalues not converged
     c_bands:  1 eigenvalues not converged
     c_bands:  1 eigenvalues not converged
     c_bands:  1 eigenvalues not converged
     c_bands:  2 eigenvalues not converged
     ethr =  1.00E-06,  avg # of iterations = 19.1

     total cpu time spent up to now is      353.2 secs

     total energy              =     -44.78328096 Ry
     estimated scf accuracy    <       0.89802605 Ry

     iteration #  2     ecut=    80.00 Ry     beta= 0.70
     Davidson diagonalization with overlap
     ethr =  6.41E-03,  avg # of iterations =  4.7

     total cpu time spent up to now is      353.7 secs

     total energy              =     -44.81969045 Ry
     estimated scf accuracy    <      10.89010714 Ry

     iteration #  3     ecut=    80.00 Ry     beta= 0.70
     Davidson diagonalization with overlap
     ethr =  6.41E-03,  avg # of iterations =  3.5

     total cpu time spent up to now is      354.2 secs

     total energy              =     -45.41061783 Ry
     estimated scf accuracy    <       0.78485359 Ry

     iteration #  4     ecut=    80.00 Ry     beta= 0.70
     Davidson diagonalization with overlap
     ethr =  5.61E-03,  avg # of iterations =  1.3

     total cpu time spent up to now is      354.5 secs

     total energy              =     -45.45364113 Ry
     estimated scf accuracy    <       0.02727356 Ry

     iteration #  5     ecut=    80.00 Ry     beta= 0.70
     Davidson diagonalization with overlap
     ethr =  1.95E-04,  avg # of iterations =  4.4

     total cpu time spent up to now is      354.9 secs

     total energy              =     -45.45896276 Ry
     estimated scf accuracy    <       0.00136191 Ry

     iteration #  6     ecut=    80.00 Ry     beta= 0.70
     Davidson diagonalization with overlap
     ethr =  9.73E-06,  avg # of iterations =  4.1

     total cpu time spent up to now is      355.2 secs

     total energy              =     -45.45900634 Ry
     estimated scf accuracy    <       0.00025421 Ry

     iteration #  7     ecut=    80.00 Ry     beta= 0.70
     Davidson diagonalization with overlap
     ethr =  1.82E-06,  avg # of iterations =  2.0

     total cpu time spent up to now is      355.6 secs

     total energy              =     -45.45904543 Ry
     estimated scf accuracy    <       0.00001699 Ry

     iteration #  8     ecut=    80.00 Ry     beta= 0.70
     Davidson diagonalization with overlap
     ethr =  1.21E-07,  avg # of iterations =  1.6

     total cpu time spent up to now is      355.9 secs

     total energy              =     -45.45904438 Ry
     estimated scf accuracy    <       0.00000800 Ry

     iteration #  9     ecut=    80.00 Ry     beta= 0.70
     Davidson diagonalization with overlap
     ethr =  5.72E-08,  avg # of iterations =  1.2

     total cpu time spent up to now is      356.2 secs

     total energy              =     -45.45904534 Ry
     estimated scf accuracy    <       0.00000007 Ry

     iteration # 10     ecut=    80.00 Ry     beta= 0.70
     Davidson diagonalization with overlap
     ethr =  5.13E-10,  avg # of iterations =  3.6

     total cpu time spent up to now is      356.5 secs

     total energy              =     -45.45904538 Ry
     estimated scf accuracy    <          2.1E-09 Ry

     iteration # 11     ecut=    80.00 Ry     beta= 0.70
     Davidson diagonalization with overlap
     ethr =  1.48E-11,  avg # of iterations =  2.7

     total cpu time spent up to now is      356.8 secs

     total energy              =     -45.45904538 Ry
     estimated scf accuracy    <          5.4E-09 Ry

     iteration # 12     ecut=    80.00 Ry     beta= 0.70
     Davidson diagonalization with overlap
     ethr =  1.48E-11,  avg # of iterations =  1.3

     total cpu time spent up to now is      357.1 secs

     End of self-consistent calculation

          k = 0.0000 0.0000 0.0000 (  3287 PWs)   bands (ev):

   -35.7242 -35.5749  -6.3918  -3.2520   2.2856   7.3052   7.4823  14.0099
    17.0975  25.0465  25.0469

          k = 0.0000 0.0000 0.1079 (  3256 PWs)   bands (ev):

   -35.7242 -35.5749  -6.3919  -3.2514   2.2870   6.8628   8.0803  13.3147
    18.2793  23.1768  25.0470

          k = 0.0000 0.0000-0.2157 (  3286 PWs)   bands (ev):

   -35.7242 -35.5749  -6.3919  -3.2509   2.2883   6.6745   8.4502  12.7615
    20.3728  20.7430  25.0473

          k = 0.0000 0.1840 0.0000 (  3273 PWs)   bands (ev):

   -35.7009 -35.5585  -6.0357  -2.9023   2.6102   7.5194   7.7624  14.2800
    17.0806  20.6877  22.7789

          k = 0.0000 0.1840 0.1079 (  3269 PWs)   bands (ev):

   -35.7009 -35.5585  -6.0358  -2.9017   2.6128   7.0745   8.3765  13.5179
    18.2871  20.7071  22.6335

          k = 0.0000 0.1840-0.2157 (  3270 PWs)   bands (ev):

   -35.7009 -35.5585  -6.0359  -2.9011   2.6151   6.8777   8.7753  12.9216
    20.1444  20.5807  21.0815

          k = 0.0000 0.3681 0.0000 (  3251 PWs)   bands (ev):

   -35.6388 -35.5160  -4.9729  -1.8612   3.5798   8.1616   8.5784  14.6549
    15.7619  17.0634  18.1006

          k = 0.0000 0.3681 0.1079 (  3248 PWs)   bands (ev):

   -35.6388 -35.5160  -4.9731  -1.8606   3.5881   7.6998   9.2457  13.9201
    15.6832  17.3537  18.9710

          k = 0.0000 0.3681-0.2157 (  3276 PWs)   bands (ev):

   -35.6388 -35.5160  -4.9732  -1.8597   3.5936   7.4841   9.7251  13.3158
    15.4706  17.6639  20.5274

          k = 0.0000 0.5521 0.0000 (  3257 PWs)   bands (ev):

   -35.5593 -35.4656  -3.2200  -0.1557   5.1758   9.2084   9.6051  10.7757
    13.1070  16.4416  16.8963

          k = 0.0000 0.5521 0.1079 (  3256 PWs)   bands (ev):

   -35.5593 -35.4656  -3.2201  -0.1557   5.2016   8.6940  10.0505  11.0950
    13.1107  15.1254  18.2512

          k = 0.0000 0.5521-0.2157 (  3268 PWs)   bands (ev):

   -35.5593 -35.4656  -3.2204  -0.1542   5.2135   8.4719  10.1423  11.6390
    13.2697  13.9668  18.5626

          k = 0.0000 0.7362 0.0000 (  3267 PWs)   bands (ev):

   -35.4906 -35.4287  -0.8105   2.1145   6.1574   7.4134   8.9545  10.6580
    11.5279  14.0659  16.9028

          k = 0.0000 0.7362 0.1079 (  3267 PWs)   bands (ev):

   -35.4906 -35.4287  -0.8104   2.1123   6.1589   7.4957   8.9947   9.9620
    12.3358  14.3925  15.8998

          k = 0.0000 0.7362-0.2157 (  3272 PWs)   bands (ev):

   -35.4906 -35.4287  -0.8110   2.1151   6.1621   7.5047   8.9885   9.7749
    13.2035  13.9457  15.2042

          k = 0.0000-0.9202 0.0000 (  3248 PWs)   bands (ev):

   -35.4615 -35.4173   1.9566   2.3203   5.0688   5.9609   9.7088  10.2930
    12.3980  12.5860  16.1215

          k = 0.0000-0.9202 0.1079 (  3260 PWs)   bands (ev):

   -35.4615 -35.4173   1.9574   2.3185   5.0660   5.9709   9.7748  10.2726
    11.7603  13.2735  16.1118

          k = 0.0000-0.9202-0.2157 (  3268 PWs)   bands (ev):

   -35.4615 -35.4173   1.9583   2.3166   5.0633   5.9809   9.8627  10.2362
    11.4548  13.6309  16.1030

          k = 0.1594 0.2761 0.0000 (  3251 PWs)   bands (ev):

   -35.6582 -35.5290  -5.3263  -2.2068   3.2575   7.9490   8.3124  14.7547
    16.9896  17.9984  18.3671

          k = 0.1594 0.2761 0.1079 (  3240 PWs)   bands (ev):

   -35.6582 -35.5290  -5.3264  -2.2061   3.2626   7.4979   8.9596  13.8802
    17.7359  18.2900  18.5128

          k = 0.1594 0.2761-0.2157 (  3256 PWs)   bands (ev):

   -35.6582 -35.5290  -5.3266  -2.2054   3.2679   7.2836   9.4167  13.2153
    17.8422  18.3408  19.6763

          k = 0.1594 0.4601 0.0000 (  3261 PWs)   bands (ev):

   -35.5873 -35.4826  -3.9183  -0.8324   4.5423   8.8103   9.3473  12.9908
    15.1004  15.7198  16.7656

          k = 0.1594 0.4601 0.1079 (  3256 PWs)   bands (ev):

   -35.5873 -35.4826  -3.9185  -0.8319   4.5578   8.3275  10.0582  12.9211
    14.9081  15.1669  16.6715

          k = 0.1594 0.4601-0.2157 (  3252 PWs)   bands (ev):

   -35.5873 -35.4826  -3.9187  -0.8309   4.5691   8.0935  10.5879  12.9838
    13.9687  15.1804  17.0154

          k = 0.1594 0.6442 0.0000 (  3262 PWs)   bands (ev):

   -35.5128 -35.4393  -1.8353   1.1748   6.4218   8.4072  10.0109  10.8893
    11.3325  15.0648  15.7712

          k = 0.1594 0.6442 0.1079 (  3271 PWs)   bands (ev):

   -35.5128 -35.4393  -1.8354   1.1741   6.4664   8.4074   9.5410  11.1113
    11.7939  15.1734  15.4563

          k = 0.1594 0.6442-0.2157 (  3260 PWs)   bands (ev):

   -35.5128 -35.4393  -1.8358   1.1758   6.4875   8.4068   9.3095  11.0507
    12.7043  14.2142  15.4208

          k = 0.1594 0.8282 0.0000 (  3270 PWs)   bands (ev):

   -35.4621 -35.4169   0.8654   3.3202   4.9518   7.3882   8.9136  11.1578
    12.2290  13.1785  14.3499

          k = 0.1594 0.8282 0.1079 (  3272 PWs)   bands (ev):

   -35.4621 -35.4169   0.8658   3.3158   4.9522   7.4132   9.0446  10.5320
    12.6813  13.5554  14.2267

          k = 0.1594 0.8282-0.2157 (  3274 PWs)   bands (ev):

   -35.4621 -35.4169   0.8651   3.3188   4.9526   7.4085   9.0395  10.5501
    12.4637  13.9492  14.2082

          k = 0.3188 0.5521 0.0000 (  3262 PWs)   bands (ev):

   -35.5212 -35.4435  -2.1795   0.8502   6.1267   9.9082  10.3738  10.9510
    11.7739  14.3320  14.5827

          k = 0.3188 0.5521 0.1079 (  3269 PWs)   bands (ev):

   -35.5212 -35.4435  -2.1797   0.8507   6.1548   9.3924  10.8713  10.9853
    11.9896  14.3341  14.6283

          k = 0.3188 0.5521-0.2157 (  3250 PWs)   bands (ev):

   -35.5212 -35.4435  -2.1799   0.8513   6.1845   9.1202  10.9312  11.1366
    12.3664  14.3147  14.9676

          k = 0.3188 0.7362 0.0000 (  3260 PWs)   bands (ev):

   -35.4631 -35.4162   0.2087   3.0851   7.0519   8.3597   9.2761  10.9939
    11.5039  12.6371  13.7342

          k = 0.3188 0.7362 0.1079 (  3254 PWs)   bands (ev):

   -35.4631 -35.4162   0.2087   3.0835   7.0562   8.4316   9.2883  10.6958
    11.3189  13.0411  13.9915

          k = 0.3188 0.7362-0.2157 (  3258 PWs)   bands (ev):

   -35.4631 -35.4162   0.2083   3.0847   7.0578   8.4739   9.2774  10.5615
    11.2016  13.3771  14.3475

          k = 0.3188 0.9202 0.0000 (  3254 PWs)   bands (ev):

   -35.4371 -35.4095   2.9526   3.3041   5.9973   6.6504  10.2854  11.0618
    11.2166  12.7910  13.5676

          k = 0.3188 0.9202 0.1079 (  3257 PWs)   bands (ev):

   -35.4371 -35.4095   2.9536   3.3024   5.9918   6.6578  10.3740  10.9845
    11.2774  12.6525  13.1630

          k = 0.3188 0.9202-0.2157 (  3254 PWs)   bands (ev):

   -35.4371 -35.4095   2.9545   3.3008   5.9863   6.6653  10.4853  10.8828
    11.3909  12.3292  13.1371

          k = 0.4782 0.8282 0.0000 (  3256 PWs)   bands (ev):

   -35.4260 -35.4083   2.8475   5.1129   5.9444   6.9727   9.5681  10.2303
    10.9337  13.0040  13.7490

          k = 0.4782 0.8282 0.1079 (  3248 PWs)   bands (ev):

   -35.4260 -35.4083   2.8475   5.1118   5.9457   6.9661   9.5792  10.2944
    10.9760  12.5465  13.8611

          k = 0.4782 0.8282-0.2157 (  3250 PWs)   bands (ev):

   -35.4260 -35.4083   2.8475   5.1106   5.9471   6.9594   9.5927  10.3609
    11.0280  12.2303  13.8800

          k = 0.0000 0.1840-0.1079 (  3269 PWs)   bands (ev):

   -35.7009 -35.5585  -6.0358  -2.9017   2.6125   7.0759   8.3758  13.5157
    18.2898  20.6651  22.6203

          k = 0.0000 0.3681-0.1079 (  3248 PWs)   bands (ev):

   -35.6388 -35.5160  -4.9731  -1.8602   3.5852   7.7126   9.2367  14.0014
    15.3784  17.7992  18.7605

          k = 0.0000 0.5521-0.1079 (  3256 PWs)   bands (ev):

   -35.5593 -35.4656  -3.2204  -0.1542   5.1871   8.7532   9.9836  11.1486
    13.1704  14.8471  18.0252

          k = 0.0000 0.7362-0.1079 (  3267 PWs)   bands (ev):

   -35.4906 -35.4287  -0.8111   2.1173   6.1607   7.4195   8.9465  10.2539
    12.3982  13.7274  16.1518

          k =-0.1594 0.4601-0.1079 (  3256 PWs)   bands (ev):

   -35.5873 -35.4826  -3.9185  -0.8314   4.5533   8.3465  10.0358  13.0675
    14.4581  15.2270  17.3346

          k =-0.1594 0.6442-0.1079 (  3271 PWs)   bands (ev):

   -35.5128 -35.4393  -1.8357   1.1764   6.4411   8.4066   9.6205  10.9588
    12.0641  14.5411  15.5656

          k =-0.1594 0.8282-0.1079 (  3272 PWs)   bands (ev):

   -35.4621 -35.4169   0.8646   3.3232   4.9522   7.3834   8.9105  11.2231
    11.9814  13.4588  14.3734

          k =-0.3188 0.7362-0.1079 (  3254 PWs)   bands (ev):

   -35.4631 -35.4162   0.2083   3.0862   7.0537   8.3948   9.2678  10.9580
    11.1493  13.2799  13.8702

     the Fermi energy is    10.3705 ev

!    total energy              =     -45.45904538 Ry
     estimated scf accuracy    <          3.2E-11 Ry
     smearing contrib. (-TS)   =      -0.00024726 Ry
     internal energy E=F+TS    =     -45.45879813 Ry

     The total energy is F=E-TS. E is the sum of the following terms:
     one-electron contribution =      -3.42815120 Ry
     hartree contribution      =       6.17651625 Ry
     xc contribution           =     -13.66553325 Ry
     ewald contribution        =     -34.54162992 Ry

     convergence has been achieved in  12 iterations

     Forces acting on atoms (cartesian axes, Ry/au):

     atom    1 type  1   force =     0.00000000    0.00000000    0.00017708
     atom    2 type  1   force =     0.00000000    0.00000000   -0.00017708
     atom    3 type  2   force =     0.00000000    0.00000000   -0.00004292
     atom    4 type  2   force =     0.00000000    0.00000000    0.00004292
     The non-local contrib.  to forces
     atom    1 type  1   force =     0.00000000   -0.00000000    0.05572279
     atom    2 type  1   force =     0.00000000    0.00000000   -0.05572279
     atom    3 type  2   force =     0.00000000    0.00000000    0.04871292
     atom    4 type  2   force =     0.00000000   -0.00000000   -0.04871292
     The ionic contribution  to forces
     atom    1 type  1   force =     0.00000000   -0.00000000   -0.40417646
     atom    2 type  1   force =    -0.00000000    0.00000000    0.40417646
     atom    3 type  2   force =     0.00000000   -0.00000000   -0.97824633
     atom    4 type  2   force =    -0.00000000    0.00000000    0.97824633
     The local contribution  to forces
     atom    1 type  1   force =     0.00000043   -0.00000025    0.34862763
     atom    2 type  1   force =    -0.00000043    0.00000025   -0.34862763
     atom    3 type  2   force =    -0.00000001    0.00000001    0.93104442
     atom    4 type  2   force =     0.00000001   -0.00000001   -0.93104442
     The core correction contribution to forces
     atom    1 type  1   force =     0.00000000    0.00000000    0.00000000
     atom    2 type  1   force =     0.00000000    0.00000000    0.00000000
     atom    3 type  2   force =    -0.00000000    0.00000000   -0.00156378
     atom    4 type  2   force =     0.00000000   -0.00000000    0.00156378
     The Hubbard contrib.    to forces
     atom    1 type  1   force =     0.00000000    0.00000000    0.00000000
     atom    2 type  1   force =     0.00000000    0.00000000    0.00000000
     atom    3 type  2   force =     0.00000000    0.00000000    0.00000000
     atom    4 type  2   force =     0.00000000    0.00000000    0.00000000
     The SCF correction term to forces
     atom    1 type  1   force =    -0.00000000    0.00000000    0.00000312
     atom    2 type  1   force =     0.00000000   -0.00000000   -0.00000312
     atom    3 type  2   force =    -0.00000000    0.00000000    0.00000984
     atom    4 type  2   force =     0.00000000   -0.00000000   -0.00000984

     Total force =     0.000258     Total SCF correction =     0.000015


     Computing stress (Cartesian axis) and pressure

          total   stress  (Ry/bohr**3)                   (kbar)     P=      499.64
   0.00339661   0.00000000   0.00000000          499.66        0.00        0.00
   0.00000000   0.00339661   0.00000000            0.00      499.66        0.00
   0.00000000   0.00000000   0.00339628            0.00        0.00      499.61


     Writing all to output data dir ./output/LiSi.save/

     init_run     :      2.20s CPU      5.59s WALL (       2 calls)
     electrons    :    244.28s CPU    281.39s WALL (      24 calls)
     update_pot   :     15.71s CPU     15.88s WALL (      22 calls)
     forces       :     10.57s CPU     10.76s WALL (      24 calls)
     stress       :     41.50s CPU     43.34s WALL (      24 calls)

     Called by init_run:
     wfcinit      :      1.01s CPU      3.88s WALL (       2 calls)
     potinit      :      0.47s CPU      0.85s WALL (       2 calls)
     hinit0       :      0.65s CPU      0.74s WALL (       2 calls)

     Called by electrons:
     c_bands      :    212.93s CPU    244.11s WALL (     254 calls)
     sum_band     :     28.05s CPU     32.48s WALL (     254 calls)
     v_of_rho     :      3.18s CPU      4.41s WALL (     277 calls)
     mix_rho      :      0.29s CPU      0.46s WALL (     254 calls)

     Called by c_bands:
     init_us_2    :      7.06s CPU      7.92s WALL (   27900 calls)
     init_us_2:cp :      7.03s CPU      7.90s WALL (   27900 calls)
     cegterg      :    195.98s CPU    222.59s WALL (   12700 calls)

     Called by *egterg:
     cdiaghg      :      7.43s CPU      7.99s WALL (   56168 calls)
     h_psi        :    167.95s CPU    195.72s WALL (   57418 calls)
     g_psi        :      1.06s CPU      1.10s WALL (   44618 calls)

     Called by h_psi:
     h_psi:calbec :     10.94s CPU     12.32s WALL (   57418 calls)
     vloc_psi     :    147.13s CPU    172.54s WALL (   57418 calls)
     add_vuspsi   :      9.21s CPU     10.14s WALL (   57418 calls)

     General routines
     calbec       :     12.93s CPU     14.34s WALL (   63418 calls)
     fft          :      1.96s CPU      3.46s WALL (    3369 calls)
     ffts         :      0.10s CPU      0.15s WALL (     254 calls)
     fftw         :    150.64s CPU    176.60s WALL (  990600 calls)

     Parallel routines

     PWSCF        :   5m14.72s CPU   5m58.21s WALL


   This run was terminated on:   0:11:48  29Nov2024            

=------------------------------------------------------------------------------=
   JOB DONE.
=------------------------------------------------------------------------------=
