
     Program PWSCF v.7.2 starts on 11Feb2025 at 21:41:25 

     This program is part of the open-source Quantum ESPRESSO suite
     for quantum simulation of materials; please cite
         "P. Giannozzi et al., J. Phys.:Condens. Matter 21 395502 (2009);
         "P. Giannozzi et al., J. Phys.:Condens. Matter 29 465901 (2017);
         "P. Giannozzi et al., J. Chem. Phys. 152 154105 (2020);
          URL http://www.quantum-espresso.org", 
     in publications or presentations arising from this work. More details at
     http://www.quantum-espresso.org/quote

     Parallel version (MPI & OpenMP), running on       8 processor cores
     Number of MPI processes:                 8
     Threads/MPI process:                     1

     MPI processes distributed on     1 nodes
     481207 MiB available memory on the printing compute node when the environment starts

     Waiting for input...
     Reading input from standard input

     Current dimensions of program PWSCF are:
     Max number of different atomic species (ntypx) = 10
     Max number of k-points (npk) =  40000
     Max angular momentum in pseudopotentials (lmaxx) =  4

     R & G space division:  proc/nbgrp/npool/nimage =       8
     Subspace diagonalization in iterative solution of the eigenvalue problem:
     a serial algorithm will be used


     Parallelization info
     --------------------
     sticks:   dense  smooth     PW     G-vecs:    dense   smooth      PW
     Min          90      90     27                 2083     2083     349
     Max          92      92     28                 2086     2086     352
     Sum         725     725    221                16679    16679    2807

     Using Slab Decomposition



     bravais-lattice index     =            6
     lattice parameter (alat)  =       5.3222  a.u.
     unit-cell volume          =     172.8193 (a.u.)^3
     number of atoms/cell      =            2
     number of atomic types    =            2
     number of electrons       =         7.00
     number of Kohn-Sham states=            8
     kinetic-energy cutoff     =      80.0000  Ry
     charge density cutoff     =     320.0000  Ry
     scf convergence threshold =      1.0E-08
     mixing beta               =       0.7000
     number of iterations used =            8  plain     mixing
     energy convergence thresh.=      1.0E-04
     force convergence thresh. =      1.0E-03
     press convergence thresh. =      1.0E+00
     Exchange-correlation= PBE
                           (   1   4   3   4   0   0   0)
     nstep                     =           50


     celldm(1)=   5.322229  celldm(2)=   0.000000  celldm(3)=   1.146335
     celldm(4)=   0.000000  celldm(5)=   0.000000  celldm(6)=   0.000000

     crystal axes: (cart. coord. in units of alat)
               a(1) = (   1.000000   0.000000   0.000000 )  
               a(2) = (   0.000000   1.000000   0.000000 )  
               a(3) = (   0.000000   0.000000   1.146335 )  

     reciprocal axes: (cart. coord. in units 2 pi/alat)
               b(1) = (  1.000000  0.000000  0.000000 )  
               b(2) = (  0.000000  1.000000  0.000000 )  
               b(3) = (  0.000000  0.000000  0.872345 )  


     PseudoPot. # 1 for Li read from file:
     ../pseudo/Li_ONCV_PBE_sr.upf
     MD5 check sum: 50ff420e78310ffa21704f3361e624a4
     Pseudo is Norm-conserving, Zval =  3.0
     Generated using ONCVPSP code by D. R. Hamann
     Using radial grid of 1944 points,  4 beta functions with: 
                l(1) =   0
                l(2) =   0
                l(3) =   1
                l(4) =   1

     PseudoPot. # 2 for Si read from file:
     ../pseudo/Si_ONCV_PBE_sr.upf
     MD5 check sum: e543d271109d17c80368dfa7c482276d
     Pseudo is Norm-conserving + core correction, Zval =  4.0
     Generated using ONCVPSP code by D. R. Hamann
     Using radial grid of 1510 points,  6 beta functions with: 
                l(1) =   0
                l(2) =   0
                l(3) =   1
                l(4) =   1
                l(5) =   2
                l(6) =   2

     atomic species   valence    mass     pseudopotential
        Li             3.00     6.94100     Li( 1.00)
        Si             4.00    28.08550     Si( 1.00)

     16 Sym. Ops., with inversion, found



   Cartesian axes

     site n.     atom                  positions (alat units)
         1           Li  tau(   1) = (   0.0000000   0.0000000   0.5731675  )
         2           Si  tau(   2) = (   0.5000000   0.5000000   0.0000000  )

     number of k points=    75  Marzari-Vanderbilt smearing, width (Ry)=  0.0200
                       cart. coord. in units 2pi/alat
        k(    1) = (   0.0000000   0.0000000   0.0000000), wk =   0.0030864
        k(    2) = (   0.0000000   0.0000000   0.1090432), wk =   0.0061728
        k(    3) = (   0.0000000   0.0000000   0.2180863), wk =   0.0061728
        k(    4) = (   0.0000000   0.0000000   0.3271295), wk =   0.0061728
        k(    5) = (   0.0000000   0.0000000  -0.4361727), wk =   0.0030864
        k(    6) = (   0.0000000   0.1111111   0.0000000), wk =   0.0123457
        k(    7) = (   0.0000000   0.1111111   0.1090432), wk =   0.0246914
        k(    8) = (   0.0000000   0.1111111   0.2180863), wk =   0.0246914
        k(    9) = (   0.0000000   0.1111111   0.3271295), wk =   0.0246914
        k(   10) = (   0.0000000   0.1111111  -0.4361727), wk =   0.0123457
        k(   11) = (   0.0000000   0.2222222   0.0000000), wk =   0.0123457
        k(   12) = (   0.0000000   0.2222222   0.1090432), wk =   0.0246914
        k(   13) = (   0.0000000   0.2222222   0.2180863), wk =   0.0246914
        k(   14) = (   0.0000000   0.2222222   0.3271295), wk =   0.0246914
        k(   15) = (   0.0000000   0.2222222  -0.4361727), wk =   0.0123457
        k(   16) = (   0.0000000   0.3333333   0.0000000), wk =   0.0123457
        k(   17) = (   0.0000000   0.3333333   0.1090432), wk =   0.0246914
        k(   18) = (   0.0000000   0.3333333   0.2180863), wk =   0.0246914
        k(   19) = (   0.0000000   0.3333333   0.3271295), wk =   0.0246914
        k(   20) = (   0.0000000   0.3333333  -0.4361727), wk =   0.0123457
        k(   21) = (   0.0000000   0.4444444   0.0000000), wk =   0.0123457
        k(   22) = (   0.0000000   0.4444444   0.1090432), wk =   0.0246914
        k(   23) = (   0.0000000   0.4444444   0.2180863), wk =   0.0246914
        k(   24) = (   0.0000000   0.4444444   0.3271295), wk =   0.0246914
        k(   25) = (   0.0000000   0.4444444  -0.4361727), wk =   0.0123457
        k(   26) = (   0.1111111   0.1111111   0.0000000), wk =   0.0123457
        k(   27) = (   0.1111111   0.1111111   0.1090432), wk =   0.0246914
        k(   28) = (   0.1111111   0.1111111   0.2180863), wk =   0.0246914
        k(   29) = (   0.1111111   0.1111111   0.3271295), wk =   0.0246914
        k(   30) = (   0.1111111   0.1111111  -0.4361727), wk =   0.0123457
        k(   31) = (   0.1111111   0.2222222   0.0000000), wk =   0.0246914
        k(   32) = (   0.1111111   0.2222222   0.1090432), wk =   0.0493827
        k(   33) = (   0.1111111   0.2222222   0.2180863), wk =   0.0493827
        k(   34) = (   0.1111111   0.2222222   0.3271295), wk =   0.0493827
        k(   35) = (   0.1111111   0.2222222  -0.4361727), wk =   0.0246914
        k(   36) = (   0.1111111   0.3333333   0.0000000), wk =   0.0246914
        k(   37) = (   0.1111111   0.3333333   0.1090432), wk =   0.0493827
        k(   38) = (   0.1111111   0.3333333   0.2180863), wk =   0.0493827
        k(   39) = (   0.1111111   0.3333333   0.3271295), wk =   0.0493827
        k(   40) = (   0.1111111   0.3333333  -0.4361727), wk =   0.0246914
        k(   41) = (   0.1111111   0.4444444   0.0000000), wk =   0.0246914
        k(   42) = (   0.1111111   0.4444444   0.1090432), wk =   0.0493827
        k(   43) = (   0.1111111   0.4444444   0.2180863), wk =   0.0493827
        k(   44) = (   0.1111111   0.4444444   0.3271295), wk =   0.0493827
        k(   45) = (   0.1111111   0.4444444  -0.4361727), wk =   0.0246914
        k(   46) = (   0.2222222   0.2222222   0.0000000), wk =   0.0123457
        k(   47) = (   0.2222222   0.2222222   0.1090432), wk =   0.0246914
        k(   48) = (   0.2222222   0.2222222   0.2180863), wk =   0.0246914
        k(   49) = (   0.2222222   0.2222222   0.3271295), wk =   0.0246914
        k(   50) = (   0.2222222   0.2222222  -0.4361727), wk =   0.0123457
        k(   51) = (   0.2222222   0.3333333   0.0000000), wk =   0.0246914
        k(   52) = (   0.2222222   0.3333333   0.1090432), wk =   0.0493827
        k(   53) = (   0.2222222   0.3333333   0.2180863), wk =   0.0493827
        k(   54) = (   0.2222222   0.3333333   0.3271295), wk =   0.0493827
        k(   55) = (   0.2222222   0.3333333  -0.4361727), wk =   0.0246914
        k(   56) = (   0.2222222   0.4444444   0.0000000), wk =   0.0246914
        k(   57) = (   0.2222222   0.4444444   0.1090432), wk =   0.0493827
        k(   58) = (   0.2222222   0.4444444   0.2180863), wk =   0.0493827
        k(   59) = (   0.2222222   0.4444444   0.3271295), wk =   0.0493827
        k(   60) = (   0.2222222   0.4444444  -0.4361727), wk =   0.0246914
        k(   61) = (   0.3333333   0.3333333   0.0000000), wk =   0.0123457
        k(   62) = (   0.3333333   0.3333333   0.1090432), wk =   0.0246914
        k(   63) = (   0.3333333   0.3333333   0.2180863), wk =   0.0246914
        k(   64) = (   0.3333333   0.3333333   0.3271295), wk =   0.0246914
        k(   65) = (   0.3333333   0.3333333  -0.4361727), wk =   0.0123457
        k(   66) = (   0.3333333   0.4444444   0.0000000), wk =   0.0246914
        k(   67) = (   0.3333333   0.4444444   0.1090432), wk =   0.0493827
        k(   68) = (   0.3333333   0.4444444   0.2180863), wk =   0.0493827
        k(   69) = (   0.3333333   0.4444444   0.3271295), wk =   0.0493827
        k(   70) = (   0.3333333   0.4444444  -0.4361727), wk =   0.0246914
        k(   71) = (   0.4444444   0.4444444   0.0000000), wk =   0.0123457
        k(   72) = (   0.4444444   0.4444444   0.1090432), wk =   0.0246914
        k(   73) = (   0.4444444   0.4444444   0.2180863), wk =   0.0246914
        k(   74) = (   0.4444444   0.4444444   0.3271295), wk =   0.0246914
        k(   75) = (   0.4444444   0.4444444  -0.4361727), wk =   0.0123457

     Dense  grid:    16679 G-vectors     FFT dimensions: (  32,  32,  36)

     Estimated max dynamical RAM per process >      15.44 MB

     Estimated total dynamical RAM >     123.51 MB

     Initial potential from superposition of free atoms

     starting charge       6.9948, renormalised to       7.0000
     Starting wfcs are    6 randomized atomic wfcs +    2 random wfcs

     total cpu time spent up to now is        0.7 secs

     Self-consistent Calculation

     iteration #  1     ecut=    80.00 Ry     beta= 0.70
     Davidson diagonalization with overlap
     ethr =  1.00E-02,  avg # of iterations =  6.1

     Threshold (ethr) on eigenvalues was too large:
     Diagonalizing with lowered threshold

     Davidson diagonalization with overlap
     ethr =  8.59E-05,  avg # of iterations =  4.3

     total cpu time spent up to now is        1.4 secs

     total energy              =     -22.87202989 Ry
     estimated scf accuracy    <       0.00595686 Ry

     iteration #  2     ecut=    80.00 Ry     beta= 0.70
     Davidson diagonalization with overlap
     ethr =  8.51E-05,  avg # of iterations =  1.1

     total cpu time spent up to now is        1.7 secs

     total energy              =     -22.87224038 Ry
     estimated scf accuracy    <       0.00032419 Ry

     iteration #  3     ecut=    80.00 Ry     beta= 0.70
     Davidson diagonalization with overlap
     c_bands:  1 eigenvalues not converged
     ethr =  4.63E-06,  avg # of iterations =  2.9

     total cpu time spent up to now is        2.0 secs

     total energy              =     -22.87225890 Ry
     estimated scf accuracy    <       0.00000539 Ry

     iteration #  4     ecut=    80.00 Ry     beta= 0.70
     Davidson diagonalization with overlap
     ethr =  7.70E-08,  avg # of iterations =  2.2

     total cpu time spent up to now is        2.3 secs

     total energy              =     -22.87225989 Ry
     estimated scf accuracy    <       0.00000008 Ry

     iteration #  5     ecut=    80.00 Ry     beta= 0.70
     Davidson diagonalization with overlap
     ethr =  1.18E-09,  avg # of iterations =  2.6

     total cpu time spent up to now is        2.6 secs

     End of self-consistent calculation

          k = 0.0000 0.0000 0.0000 (  2121 PWs)   bands (ev):

   -38.4723  -3.8617   7.8011  11.6016  11.6693  11.6693  13.4815  19.6762

          k = 0.0000 0.0000 0.1090 (  2093 PWs)   bands (ev):

   -38.4715  -3.7187   6.3738  11.8473  11.8473  13.3991  13.6481  19.6231

          k = 0.0000 0.0000 0.2181 (  2093 PWs)   bands (ev):

   -38.4696  -3.3202   4.3280  12.3613  12.3613  14.1112  16.3861  19.4806

          k = 0.0000 0.0000 0.3271 (  2094 PWs)   bands (ev):

   -38.4677  -2.7999   2.7429  13.1038  13.1038  14.7120  17.6069  17.6069

          k = 0.0000 0.0000-0.4362 (  2098 PWs)   bands (ev):

   -38.4669  -2.5188   2.1002  13.5829  13.5829  15.0336  16.7466  16.7466

          k = 0.0000 0.1111 0.0000 (  2097 PWs)   bands (ev):

   -38.4700  -3.6708   8.0064   9.2382  11.8660  12.0408  15.4132  20.2853

          k = 0.0000 0.1111 0.1090 (  2104 PWs)   bands (ev):

   -38.4693  -3.5254   6.5195   9.5984  12.0430  13.6284  15.6565  19.4790

          k = 0.0000 0.1111 0.2181 (  2105 PWs)   bands (ev):

   -38.4674  -3.1195   4.4721  10.1219  12.5534  15.5075  17.2718  17.5206

          k = 0.0000 0.1111 0.3271 (  2082 PWs)   bands (ev):

   -38.4655  -2.5868   2.8800  10.7768  13.2876  15.8246  16.1607  17.8176

          k = 0.0000 0.1111-0.4362 (  2086 PWs)   bands (ev):

   -38.4648  -2.2968   2.2300  11.1541  13.7572  15.0903  16.4227  16.9716

          k = 0.0000 0.2222 0.0000 (  2099 PWs)   bands (ev):

   -38.4644  -3.1090   6.4874   8.6161  12.4487  12.5608  17.0201  18.4027

          k = 0.0000 0.2222 0.1090 (  2108 PWs)   bands (ev):

   -38.4636  -2.9562   6.2973   7.5982  12.6221  14.1766  16.7293  17.5939

          k = 0.0000 0.2222 0.2181 (  2096 PWs)   bands (ev):

   -38.4619  -2.5269   4.8168   7.4497  13.1200  14.8924  16.3780  18.7413

          k = 0.0000 0.2222 0.3271 (  2081 PWs)   bands (ev):

   -38.4601  -1.9543   3.2634   7.9070  13.3426  13.8262  17.1724  18.4373

          k = 0.0000 0.2222-0.4362 (  2086 PWs)   bands (ev):

   -38.4594  -1.6347   2.5983   8.1797  12.7042  14.2652  17.3834  17.6451

          k = 0.0000 0.3333 0.0000 (  2097 PWs)   bands (ev):

   -38.4579  -2.2289   4.0878   9.5969  13.3044  13.3790  15.8175  17.7039

          k = 0.0000 0.3333 0.1090 (  2098 PWs)   bands (ev):

   -38.4572  -2.0616   4.1713   8.1674  13.5442  14.3617  15.2139  18.1196

          k = 0.0000 0.3333 0.2181 (  2086 PWs)   bands (ev):

   -38.4556  -1.5867   4.2911   6.2217  12.6629  14.0134  17.2991  19.5037

          k = 0.0000 0.3333 0.3271 (  2077 PWs)   bands (ev):

   -38.4539  -0.9336   3.7171   5.4492  11.2768  14.6580  18.1892  19.3574

          k = 0.0000 0.3333-0.4362 (  2076 PWs)   bands (ev):

   -38.4532  -0.5493   3.1185   5.4895  10.7404  15.0361  18.4603  18.7622

          k = 0.0000 0.4444 0.0000 (  2080 PWs)   bands (ev):

   -38.4537  -1.2817   2.3704  10.7505  13.8465  13.9624  14.4445  17.5820

          k = 0.0000 0.4444 0.1090 (  2098 PWs)   bands (ev):

   -38.4531  -1.0878   2.4555   9.0545  12.7938  14.5900  15.9064  17.7834

          k = 0.0000 0.4444 0.2181 (  2096 PWs)   bands (ev):

   -38.4515  -0.5252   2.6836   6.6857  11.1989  14.9938  18.1625  18.3774

          k = 0.0000 0.4444 0.3271 (  2086 PWs)   bands (ev):

   -38.4499   0.3024   2.9741   4.6771  10.0070  15.5153  19.2206  19.3059

          k = 0.0000 0.4444-0.4362 (  2082 PWs)   bands (ev):

   -38.4492   0.8601   3.2661   3.5590   9.5648  15.7929  19.7262  20.2716

          k = 0.1111 0.1111 0.0000 (  2097 PWs)   bands (ev):

   -38.4678  -3.4787   8.2113   9.0314   9.8766  13.0425  16.9162  20.7031

          k = 0.1111 0.1111 0.1090 (  2104 PWs)   bands (ev):

   -38.4671  -3.3312   6.6803   9.2123  10.5397  14.4412  17.0680  19.7282

          k = 0.1111 0.1111 0.2181 (  2097 PWs)   bands (ev):

   -38.4652  -2.9183   4.6242   9.7315  11.1253  17.1813  17.4113  17.7186

          k = 0.1111 0.1111 0.3271 (  2087 PWs)   bands (ev):

   -38.4634  -2.3737   3.0232  10.4676  11.6646  15.3952  16.8087  18.1390

          k = 0.1111 0.1111-0.4362 (  2102 PWs)   bands (ev):

   -38.4627  -2.0750   2.3656  10.9243  11.9365  14.5407  16.2516  18.4408

          k = 0.1111 0.2222 0.0000 (  2107 PWs)   bands (ev):

   -38.4622  -2.9132   6.6140   8.8191  10.1854  13.5629  18.5528  18.7095

          k = 0.1111 0.2222 0.1090 (  2098 PWs)   bands (ev):

   -38.4615  -2.7586   6.4912   7.6302  10.6995  14.9899  17.2173  18.8551

          k = 0.1111 0.2222 0.2181 (  2095 PWs)   bands (ev):

   -38.4598  -2.3238   4.9994   7.5153  11.2170  15.0298  18.0225  18.3352

          k = 0.1111 0.2222 0.3271 (  2089 PWs)   bands (ev):

   -38.4580  -1.7412   3.4256   8.0405  11.7576  13.3807  16.9603  19.4834

          k = 0.1111 0.2222-0.4362 (  2088 PWs)   bands (ev):

   -38.4573  -1.4136   2.7511   8.3522  12.1171  12.5986  16.3873  19.6749

          k = 0.1111 0.3333 0.0000 (  2095 PWs)   bands (ev):

   -38.4558  -2.0255   4.2416   9.7958  11.1114  14.1064  16.0176  17.5248

          k = 0.1111 0.3333 0.1090 (  2095 PWs)   bands (ev):

   -38.4552  -1.8573   4.3361   8.3016  11.5203  14.5469  15.9273  17.8377

          k = 0.1111 0.3333 0.2181 (  2093 PWs)   bands (ev):

   -38.4535  -1.3792   4.4902   6.3520  11.8929  12.9187  18.2879  18.7372

          k = 0.1111 0.3333 0.3271 (  2085 PWs)   bands (ev):

   -38.4519  -0.7197   3.9146   5.6171  11.2283  12.7273  17.6361  18.7563

          k = 0.1111 0.3333-0.4362 (  2078 PWs)   bands (ev):

   -38.4512  -0.3293   3.2993   5.6910  10.7111  12.9910  17.0254  18.9171

          k = 0.1111 0.4444 0.0000 (  2086 PWs)   bands (ev):

   -38.4517  -1.0633   2.5186  10.9385  12.1503  14.0667  14.5318  15.7180

          k = 0.1111 0.4444 0.1090 (  2085 PWs)   bands (ev):

   -38.4510  -0.8696   2.6110   9.2346  12.4200  12.9206  16.1238  16.4719

          k = 0.1111 0.4444 0.2181 (  2085 PWs)   bands (ev):

   -38.4494  -0.3073   2.8593   6.8818  11.1990  12.9872  16.6843  19.1111

          k = 0.1111 0.4444 0.3271 (  2087 PWs)   bands (ev):

   -38.4479   0.5206   3.1748   4.8812   9.9907  13.6115  17.1251  18.3009

          k = 0.1111 0.4444-0.4362 (  2082 PWs)   bands (ev):

   -38.4472   1.0796   3.4745   3.7696   9.5383  13.9748  17.3304  17.6507

          k = 0.2222 0.2222 0.0000 (  2101 PWs)   bands (ev):

   -38.4568  -2.3358   6.4869   8.1835   9.4209  14.0690  17.4118  18.5392

          k = 0.2222 0.2222 0.1090 (  2097 PWs)   bands (ev):

   -38.4561  -2.1757   6.6718   7.3363   9.1661  15.6212  17.2350  17.4250

          k = 0.2222 0.2222 0.2181 (  2089 PWs)   bands (ev):

   -38.4544  -1.7230   5.4958   7.2045   9.2855  14.8486  16.2488  18.1459

          k = 0.2222 0.2222 0.3271 (  2095 PWs)   bands (ev):

   -38.4527  -1.1081   3.8877   7.9680   9.5425  12.8479  15.3061  18.4131

          k = 0.2222 0.2222-0.4362 (  2098 PWs)   bands (ev):

   -38.4520  -0.7542   3.1890   8.4521   9.6723  11.9501  14.9256  18.5294

          k = 0.2222 0.3333 0.0000 (  2085 PWs)   bands (ev):

   -38.4506  -1.4239   4.6453   8.4849  10.3831  14.3578  15.2955  16.5871

          k = 0.2222 0.3333 0.1090 (  2076 PWs)   bands (ev):

   -38.4499  -1.2527   4.7770   8.1738   9.4779  14.6277  15.5615  16.6144

          k = 0.2222 0.3333 0.2181 (  2083 PWs)   bands (ev):

   -38.4483  -0.7645   5.0590   6.6412   9.3836  12.9986  15.3930  16.8987

          k = 0.2222 0.3333 0.3271 (  2089 PWs)   bands (ev):

   -38.4467  -0.0839   4.4926   6.0721   9.7753  11.4034  14.8817  16.2328

          k = 0.2222 0.3333-0.4362 (  2100 PWs)   bands (ev):

   -38.4461   0.3267   3.8251   6.2714  10.1394  10.5791  14.5350  16.1198

          k = 0.2222 0.4444 0.0000 (  2071 PWs)   bands (ev):

   -38.4465  -0.4131   2.9408   9.3218  11.4893  13.2011  14.7233  15.1861

          k = 0.2222 0.4444 0.1090 (  2077 PWs)   bands (ev):

   -38.4459  -0.2197   3.0553   9.2850  10.0958  12.6422  14.3950  16.9177

          k = 0.2222 0.4444 0.2181 (  2085 PWs)   bands (ev):

   -38.4443   0.3419   3.3666   7.4409  10.0663  11.2754  14.2295  17.0049

          k = 0.2222 0.4444 0.3271 (  2080 PWs)   bands (ev):

   -38.4428   1.1706   3.7639   5.4824   9.9018  10.8747  14.1611  15.4090

          k = 0.2222 0.4444-0.4362 (  2094 PWs)   bands (ev):

   -38.4422   1.7342   4.0908   4.3946   9.4659  11.2290  14.2396  14.5560

          k = 0.3333 0.3333 0.0000 (  2085 PWs)   bands (ev):

   -38.4445  -0.4640   4.7671   6.6452  11.3118  12.5922  15.5571  17.0597

          k = 0.3333 0.3333 0.1090 (  2070 PWs)   bands (ev):

   -38.4439  -0.2864   4.9545   6.6898   9.8931  12.7098  15.7183  16.4905

          k = 0.3333 0.3333 0.2181 (  2085 PWs)   bands (ev):

   -38.4424   0.2234   5.4960   6.5123   8.2024  12.6281  13.1082  15.2752

          k = 0.3333 0.3333 0.3271 (  2089 PWs)   bands (ev):

   -38.4409   0.9480   5.3575   6.2793   7.8955  11.0753  12.5826  14.1082

          k = 0.3333 0.3333-0.4362 (  2106 PWs)   bands (ev):

   -38.4402   1.4024   4.6202   6.7854   7.9707  10.1515  12.6486  13.5524

          k = 0.3333 0.4444 0.0000 (  2084 PWs)   bands (ev):

   -38.4406   0.6471   3.5378   6.7194  11.1324  12.3396  15.7919  16.1880

          k = 0.3333 0.4444 0.1090 (  2078 PWs)   bands (ev):

   -38.4400   0.8402   3.6897   6.8814  10.6547  11.2122  14.5020  16.5400

          k = 0.3333 0.4444 0.2181 (  2076 PWs)   bands (ev):

   -38.4385   1.4017   4.1135   7.2778   8.6098  10.7018  12.6309  14.6418

          k = 0.3333 0.4444 0.3271 (  2092 PWs)   bands (ev):

   -38.4370   2.2346   4.6757   6.4084   8.2276   9.9456  11.5896  12.8577

          k = 0.3333 0.4444-0.4362 (  2088 PWs)   bands (ev):

   -38.4364   2.8093   5.0674   5.3993   8.6642   9.3708  11.5697  11.8660

          k = 0.4444 0.4444 0.0000 (  2092 PWs)   bands (ev):

   -38.4368   1.9953   3.9039   4.7478   9.8511  13.2127  16.9814  17.3806

          k = 0.4444 0.4444 0.1090 (  2080 PWs)   bands (ev):

   -38.4362   2.1909   4.0925   4.9256   9.7477  11.8898  14.8498  15.1267

          k = 0.4444 0.4444 0.2181 (  2073 PWs)   bands (ev):

   -38.4347   2.7619   4.6383   5.4333   9.4002   9.8405  12.2269  12.8507

          k = 0.4444 0.4444 0.3271 (  2080 PWs)   bands (ev):

   -38.4333   3.6213   5.4315   6.1414   7.7157   9.4425  10.1796  10.9430

          k = 0.4444 0.4444-0.4362 (  2086 PWs)   bands (ev):

   -38.4327   4.2395   5.9494   6.5760   6.7249   9.2428   9.5824   9.9015

     the Fermi energy is     7.3738 ev

!    total energy              =     -22.87225992 Ry
     estimated scf accuracy    <          6.6E-10 Ry
     smearing contrib. (-TS)   =      -0.00024935 Ry
     internal energy E=F+TS    =     -22.87201057 Ry

     The total energy is F=E-TS. E is the sum of the following terms:
     one-electron contribution =      -3.28943481 Ry
     hartree contribution      =       3.12863563 Ry
     xc contribution           =      -6.52685700 Ry
     ewald contribution        =     -16.18435439 Ry

     convergence has been achieved in   5 iterations

     Forces acting on atoms (cartesian axes, Ry/au):

     atom    1 type  1   force =     0.00000000    0.00000000    0.00000000
     atom    2 type  2   force =     0.00000000    0.00000000    0.00000000
     The non-local contrib.  to forces
     atom    1 type  1   force =     0.00000000    0.00000000    0.00000000
     atom    2 type  2   force =     0.00000000    0.00000000    0.00000000
     The ionic contribution  to forces
     atom    1 type  1   force =    -0.00000000   -0.00000000    0.00000000
     atom    2 type  2   force =     0.00000000    0.00000000   -0.00000000
     The local contribution  to forces
     atom    1 type  1   force =     0.00000000   -0.00000000    0.00000000
     atom    2 type  2   force =    -0.00000000    0.00000000   -0.00000000
     The core correction contribution to forces
     atom    1 type  1   force =     0.00000000    0.00000000    0.00000000
     atom    2 type  2   force =    -0.00000000   -0.00000000    0.00000000
     The Hubbard contrib.    to forces
     atom    1 type  1   force =     0.00000000    0.00000000    0.00000000
     atom    2 type  2   force =     0.00000000    0.00000000    0.00000000
     The SCF correction term to forces
     atom    1 type  1   force =     0.00000000    0.00000000   -0.00000000
     atom    2 type  2   force =    -0.00000000    0.00000000   -0.00000000

     Total force =     0.000000     Total SCF correction =     0.000000


     Computing stress (Cartesian axis) and pressure

          total   stress  (Ry/bohr**3)                   (kbar)     P=       45.87
   0.00025125   0.00000000   0.00000000           36.96        0.00        0.00
   0.00000000   0.00025125   0.00000000            0.00       36.96        0.00
   0.00000000   0.00000000   0.00043300            0.00        0.00       63.70


     BFGS Geometry Optimization
     Energy error            =      0.0E+00 Ry
     Gradient error          =      0.0E+00 Ry/Bohr
     Cell gradient error     =      4.6E+02 kbar

     number of scf cycles    =   1
     number of bfgs steps    =   0

     enthalpy           new  =     -22.2848589532 Ry

     new trust radius        =       0.2068981495 bohr
ibrav =      6
 celldm(1) =      4.90341272
 celldm(3) =      1.15198857
Input lattice vectors:
     0.92130802     0.00000000     0.00000000
     0.00000000     0.92130802     0.00000000
     0.00000000     0.00000000     1.06133631
New lattice vectors in INITIAL alat:
     0.92130802     0.00000000     0.00000000
     0.00000000     0.92130802     0.00000000
     0.00000000     0.00000000     1.06133631
New lattice vectors in NEW alat (for information only):
     1.00000000     0.00000000     0.00000000
     0.00000000     1.00000000     0.00000000
     0.00000000     0.00000000     1.15198857
Discrepancy in bohr =     0.000000    0.000000    0.000000
     new conv_thr            =       0.0000000100 Ry

     new unit-cell volume =    135.81368 a.u.^3 (    20.12551 Ang^3 )
     density =      2.89001 g/cm^3

CELL_PARAMETERS (alat=  5.32222948)
   0.921308024   0.000000000   0.000000000
   0.000000000   0.921308024   0.000000000
   0.000000000   0.000000000   1.061336311

ATOMIC_POSITIONS (crystal)
Li            0.0000000000        0.0000000000        0.5000000000
Si            0.5000000000        0.5000000000        0.0000000000



     Writing config-only to output data dir ./output/LiSi.save/
     NEW-OLD atomic charge density approx. for the potential
     extrapolated charge    5.09409, renormalised to    7.00000

     total cpu time spent up to now is        3.3 secs

     Self-consistent Calculation

     iteration #  1     ecut=    80.00 Ry     beta= 0.70
     Davidson diagonalization with overlap
     ethr =  1.00E-06,  avg # of iterations =  8.8

     total cpu time spent up to now is        4.1 secs

     total energy              =     -22.78539742 Ry
     estimated scf accuracy    <       0.02788007 Ry

     iteration #  2     ecut=    80.00 Ry     beta= 0.70
     Davidson diagonalization with overlap
     ethr =  3.98E-04,  avg # of iterations =  2.5

     total cpu time spent up to now is        4.6 secs

     total energy              =     -22.83289463 Ry
     estimated scf accuracy    <       0.00903806 Ry

     iteration #  3     ecut=    80.00 Ry     beta= 0.70
     Davidson diagonalization with overlap
     ethr =  1.29E-04,  avg # of iterations =  1.1

     total cpu time spent up to now is        5.0 secs

     total energy              =     -22.83241487 Ry
     estimated scf accuracy    <       0.00134448 Ry

     iteration #  4     ecut=    80.00 Ry     beta= 0.70
     Davidson diagonalization with overlap
     ethr =  1.92E-05,  avg # of iterations =  2.1

     total cpu time spent up to now is        5.5 secs

     total energy              =     -22.83259165 Ry
     estimated scf accuracy    <       0.00000923 Ry

     iteration #  5     ecut=    80.00 Ry     beta= 0.70
     Davidson diagonalization with overlap
     ethr =  1.32E-07,  avg # of iterations =  2.7

     total cpu time spent up to now is        6.1 secs

     total energy              =     -22.83259417 Ry
     estimated scf accuracy    <       0.00000030 Ry

     iteration #  6     ecut=    80.00 Ry     beta= 0.70
     Davidson diagonalization with overlap
     ethr =  4.25E-09,  avg # of iterations =  2.2

     total cpu time spent up to now is        6.6 secs

     total energy              =     -22.83259428 Ry
     estimated scf accuracy    <       0.00000002 Ry

     iteration #  7     ecut=    80.00 Ry     beta= 0.70
     Davidson diagonalization with overlap
     ethr =  2.52E-10,  avg # of iterations =  1.8

     total cpu time spent up to now is        7.1 secs

     End of self-consistent calculation

          k = 0.0000 0.0000 0.0000 (  2121 PWs)   bands (ev):

   -35.8825  -2.5644  10.5199  14.1874  15.4714  15.4714  16.3275  26.5598

          k = 0.0000 0.0000 0.1178 (  2093 PWs)   bands (ev):

   -35.8802  -2.4090   8.7663  15.6912  15.6912  16.3833  16.5208  26.3116

          k = 0.0000 0.0000 0.2356 (  2093 PWs)   bands (ev):

   -35.8747  -1.9747   6.4104  16.3398  16.3398  17.0574  19.9636  23.9962

          k = 0.0000 0.0000 0.3533 (  2094 PWs)   bands (ev):

   -35.8692  -1.4038   4.6189  17.3491  17.3491  17.7511  21.6726  21.6726

          k = 0.0000 0.0000-0.4711 (  2098 PWs)   bands (ev):

   -35.8669  -1.0928   3.8955  18.1207  18.1483  18.1483  20.4300  20.4300

          k = 0.0000 0.1206 0.0000 (  2097 PWs)   bands (ev):

   -35.8768  -2.3471  10.7655  12.0744  14.8429  15.7081  19.2321  26.8477

          k = 0.0000 0.1206 0.1178 (  2104 PWs)   bands (ev):

   -35.8746  -2.1881   8.9099  12.6729  15.9273  16.6358  19.5279  24.1499

          k = 0.0000 0.1206 0.2356 (  2105 PWs)   bands (ev):

   -35.8692  -1.7423   6.5575  13.3547  16.5736  19.0284  21.1682  21.6238

          k = 0.0000 0.1206 0.3533 (  2082 PWs)   bands (ev):

   -35.8638  -1.1525   4.7587  14.2124  17.5762  19.3821  20.1232  21.9220

          k = 0.0000 0.1206-0.4711 (  2086 PWs)   bands (ev):

   -35.8616  -0.8279   4.0252  14.7468  18.3617  18.4962  20.4066  20.6960

          k = 0.0000 0.2412 0.0000 (  2099 PWs)   bands (ev):

   -35.8624  -1.7055   8.9323  11.4999  15.4351  16.4161  21.8119  22.6777

          k = 0.0000 0.2412 0.1178 (  2108 PWs)   bands (ev):

   -35.8603  -1.5351   8.5654  10.4721  16.6333  17.2812  20.9232  22.2121

          k = 0.0000 0.2412 0.2356 (  2096 PWs)   bands (ev):

   -35.8553  -1.0543   6.8668  10.3680  17.2716  18.4310  20.0954  23.4494

          k = 0.0000 0.2412 0.3533 (  2081 PWs)   bands (ev):

   -35.8502  -0.4054   5.1415  10.9340  16.5820  18.2521  21.3495  22.6632

          k = 0.0000 0.2412-0.4711 (  2086 PWs)   bands (ev):

   -35.8482  -0.0361   4.3915  11.2975  15.7820  18.9958  21.4921  21.6712

          k = 0.0000 0.3618 0.0000 (  2097 PWs)   bands (ev):

   -35.8459  -0.6882   6.1850  12.7106  16.3532  17.5838  19.5614  22.9457

          k = 0.0000 0.3618 0.1178 (  2098 PWs)   bands (ev):

   -35.8440  -0.4967   6.2445  11.0712  17.5945  17.7962  18.8304  23.4849

          k = 0.0000 0.3618 0.2356 (  2086 PWs)   bands (ev):

   -35.8394   0.0494   6.2403   8.9973  15.8081  18.4167  21.1772  24.7057

          k = 0.0000 0.3618 0.3533 (  2077 PWs)   bands (ev):

   -35.8347   0.8115   5.5389   8.1605  14.2170  19.3499  22.6032  23.8305

          k = 0.0000 0.3618-0.4711 (  2076 PWs)   bands (ev):

   -35.8328   1.2737   4.9023   8.1432  13.5990  20.0162  22.8117  22.9992

          k = 0.0000 0.4824 0.0000 (  2080 PWs)   bands (ev):

   -35.8351   0.4512   4.1708  14.2981  17.0060  17.2012  19.1271  21.6319

          k = 0.0000 0.4824 0.1178 (  2098 PWs)   bands (ev):

   -35.8333   0.6831   4.2457  12.2275  15.7658  19.3243  19.5721  21.8594

          k = 0.0000 0.4824 0.2356 (  2096 PWs)   bands (ev):

   -35.8290   1.3602   4.4491   9.4491  14.0463  19.8912  22.2447  22.5300

          k = 0.0000 0.4824 0.3533 (  2086 PWs)   bands (ev):

   -35.8246   2.3752   4.7393   7.0396  12.7847  20.6998  23.5690  23.8486

          k = 0.0000 0.4824-0.4711 (  2082 PWs)   bands (ev):

   -35.8228   3.0844   5.3257   5.3957  12.3258  21.2095  24.5261  24.5321

          k = 0.1206 0.1206 0.0000 (  2097 PWs)   bands (ev):

   -35.8712  -2.1283  11.0108  11.8650  12.7330  16.8555  20.8565  25.9139

          k = 0.1206 0.1206 0.1178 (  2104 PWs)   bands (ev):

   -35.8690  -1.9658   9.0821  12.0833  14.0241  18.1167  21.0035  24.5684

          k = 0.1206 0.1206 0.2356 (  2097 PWs)   bands (ev):

   -35.8638  -1.5094   6.7191  12.7170  15.0189  20.8036  21.2504  22.1575

          k = 0.1206 0.1206 0.3533 (  2087 PWs)   bands (ev):

   -35.8585  -0.9015   4.9087  13.6482  15.8183  18.8173  20.7982  22.5258

          k = 0.1206 0.1206-0.4711 (  2102 PWs)   bands (ev):

   -35.8564  -0.5635   4.1641  14.2729  16.2429  17.7510  20.0505  22.8924

          k = 0.1206 0.2412 0.0000 (  2107 PWs)   bands (ev):

   -35.8570  -1.4814   9.0692  11.7442  13.1838  17.5402  22.8952  23.3249

          k = 0.1206 0.2412 0.1178 (  2098 PWs)   bands (ev):

   -35.8549  -1.3084   8.8025  10.3963  14.2246  18.7842  21.3017  23.4395

          k = 0.1206 0.2412 0.2356 (  2095 PWs)   bands (ev):

   -35.8500  -0.8192   7.0796  10.3441  15.0650  18.5232  22.0951  22.5736

          k = 0.1206 0.2412 0.3533 (  2089 PWs)   bands (ev):

   -35.8451  -0.1549   5.3225  11.0225  15.7157  16.6365  20.9516  24.2292

          k = 0.1206 0.2412-0.4711 (  2088 PWs)   bands (ev):

   -35.8431   0.2269   4.5574  11.4608  15.5678  16.2808  20.2489  24.6333

          k = 0.1206 0.3618 0.0000 (  2095 PWs)   bands (ev):

   -35.8407  -0.4538   6.3575  12.9525  14.3453  18.2130  19.8045  21.5787

          k = 0.1206 0.3618 0.1178 (  2095 PWs)   bands (ev):

   -35.8389  -0.2610   6.4361  11.1613  15.2605  17.8927  20.1784  22.0243

          k = 0.1206 0.3618 0.2356 (  2093 PWs)   bands (ev):

   -35.8343   0.2896   6.4816   9.0946  15.5365  16.4033  22.5003  23.1812

          k = 0.1206 0.3618 0.3533 (  2085 PWs)   bands (ev):

   -35.8298   1.0617   5.7721   8.3335  14.1275  16.9395  21.7302  23.3823

          k = 0.1206 0.3618-0.4711 (  2078 PWs)   bands (ev):

   -35.8279   1.5341   5.1101   8.3736  13.4959  17.3484  20.9958  23.6294

          k = 0.1206 0.4824 0.0000 (  2086 PWs)   bands (ev):

   -35.8301   0.7071   4.3358  14.5311  15.7453  17.2626  18.7217  19.2702

          k = 0.1206 0.4824 0.1178 (  2085 PWs)   bands (ev):

   -35.8283   0.9387   4.4222  12.4026  15.8232  16.5839  19.8548  20.7631

          k = 0.1206 0.4824 0.2356 (  2085 PWs)   bands (ev):

   -35.8241   1.6146   4.6565   9.6636  14.0039  17.3391  20.5412  23.8419

          k = 0.1206 0.4824 0.3533 (  2087 PWs)   bands (ev):

   -35.8198   2.6289   4.9816   7.2738  12.7067  18.2272  21.0739  22.7408

          k = 0.1206 0.4824-0.4711 (  2082 PWs)   bands (ev):

   -35.8180   3.3409   5.5747   5.6436  12.2334  18.7986  21.3884  21.7372

          k = 0.2412 0.2412 0.0000 (  2101 PWs)   bands (ev):

   -35.8433  -0.8184   8.8492  11.0878  12.4743  18.2630  21.4627  23.1406

          k = 0.2412 0.2412 0.1178 (  2097 PWs)   bands (ev):

   -35.8413  -0.6372   9.0723   9.7669  12.7909  19.6816  21.2399  21.3227

          k = 0.2412 0.2412 0.2356 (  2089 PWs)   bands (ev):

   -35.8367  -0.1218   7.6427   9.7227  13.1422  18.2284  20.0649  22.7626

          k = 0.2412 0.2412 0.3533 (  2095 PWs)   bands (ev):

   -35.8321   0.5903   5.8329  10.6921  13.4631  15.8237  19.1506  23.0597

          k = 0.2412 0.2412-0.4711 (  2098 PWs)   bands (ev):

   -35.8301   1.0128   5.0313  11.3641  13.6097  14.6712  18.7637  23.2008

          k = 0.2412 0.3618 0.0000 (  2085 PWs)   bands (ev):

   -35.8276   0.2406   6.7912  11.5262  13.6740  18.3893  19.0377  20.5188

          k = 0.2412 0.3618 0.1178 (  2076 PWs)   bands (ev):

   -35.8259   0.4376   6.9341  10.8329  13.1860  18.0126  19.4100  20.9227

          k = 0.2412 0.3618 0.2356 (  2083 PWs)   bands (ev):

   -35.8215   1.0026   7.1780   9.1903  13.1612  16.1284  19.0169  21.3616

          k = 0.2412 0.3618 0.3533 (  2089 PWs)   bands (ev):

   -35.8172   1.8060   6.4566   8.7521  13.3472  14.4370  18.4789  20.5765

          k = 0.2412 0.3618-0.4711 (  2100 PWs)   bands (ev):

   -35.8154   2.3120   5.7139   9.0161  13.1682  13.9894  18.2147  20.3142

          k = 0.2412 0.4824 0.0000 (  2071 PWs)   bands (ev):

   -35.8174   1.4682   4.8057  12.7165  15.2234  16.3048  18.0295  19.3228

          k = 0.2412 0.4824 0.1178 (  2077 PWs)   bands (ev):

   -35.8157   1.6985   4.9268  12.3371  14.0041  15.5202  17.8580  21.4253

          k = 0.2412 0.4824 0.2356 (  2085 PWs)   bands (ev):

   -35.8116   2.3712   5.2569  10.2325  13.5993  14.3658  17.7265  21.4070

          k = 0.2412 0.4824 0.3533 (  2080 PWs)   bands (ev):

   -35.8075   3.3838   5.6981   7.9545  12.4819  14.9783  17.5630  19.4188

          k = 0.2412 0.4824-0.4711 (  2094 PWs)   bands (ev):

   -35.8058   4.1052   6.3163   6.3768  11.9946  15.4978  17.8366  18.1004

          k = 0.3618 0.3618 0.0000 (  2085 PWs)   bands (ev):

   -35.8127   1.3571   6.8319   9.6442  14.8535  15.7706  19.7831  21.3168

          k = 0.3618 0.3618 0.1178 (  2070 PWs)   bands (ev):

   -35.8110   1.5628   7.0578   9.5547  13.4325  15.8769  19.2404  20.6998

          k = 0.3618 0.3618 0.2356 (  2085 PWs)   bands (ev):

   -35.8069   2.1569   7.7186   8.8899  12.0013  15.7022  16.1842  19.5466

          k = 0.3618 0.3618 0.3533 (  2089 PWs)   bands (ev):

   -35.8028   3.0214   7.4773   8.7140  11.6687  13.7372  15.7425  18.1062

          k = 0.3618 0.3618-0.4711 (  2106 PWs)   bands (ev):

   -35.8012   3.5954   6.6258   9.4240  11.6653  12.5419  16.0048  17.2877

          k = 0.3618 0.4824 0.0000 (  2084 PWs)   bands (ev):

   -35.8030   2.7072   5.4645   9.7915  13.8893  16.3413  19.2867  20.4532

          k = 0.3618 0.4824 0.1178 (  2078 PWs)   bands (ev):

   -35.8013   2.9356   5.6426   9.9427  13.5796  14.7178  17.9047  20.8437

          k = 0.3618 0.4824 0.2356 (  2076 PWs)   bands (ev):

   -35.7974   3.6036   6.1425  10.1181  12.2246  13.2566  15.7914  18.6211

          k = 0.3618 0.4824 0.3533 (  2092 PWs)   bands (ev):

   -35.7935   4.6155   6.8249   8.9250  11.8140  12.5896  14.4722  16.4412

          k = 0.3618 0.4824-0.4711 (  2088 PWs)   bands (ev):

   -35.7918   5.3577   7.5203   7.5325  11.7120  12.5143  14.7130  14.9112

          k = 0.4824 0.4824 0.0000 (  2092 PWs)   bands (ev):

   -35.7935   4.3026   5.8225   7.5690  12.3969  17.6794  20.7213  21.7508

          k = 0.4824 0.4824 0.1178 (  2080 PWs)   bands (ev):

   -35.7919   4.5320   6.0497   7.7826  12.2143  15.9875  18.2176  18.9577

          k = 0.4824 0.4824 0.2356 (  2073 PWs)   bands (ev):

   -35.7881   5.2047   6.7154   8.3849  11.8143  13.4051  15.1489  16.3925

          k = 0.4824 0.4824 0.3533 (  2080 PWs)   bands (ev):

   -35.7843   6.2357   7.7239   9.0972  11.1344  11.7544  12.6845  14.0703

          k = 0.4824 0.4824-0.4711 (  2086 PWs)   bands (ev):

   -35.7827   7.0285   8.4546   8.9909  10.6169  11.4672  12.1463  12.4983

     the Fermi energy is    10.1899 ev

!    total energy              =     -22.83259428 Ry
     estimated scf accuracy    <          3.2E-10 Ry
     smearing contrib. (-TS)   =      -0.00005656 Ry
     internal energy E=F+TS    =     -22.83253772 Ry

     The total energy is F=E-TS. E is the sum of the following terms:
     one-electron contribution =      -1.50789034 Ry
     hartree contribution      =       2.94233112 Ry
     xc contribution           =      -6.72938087 Ry
     ewald contribution        =     -17.53759762 Ry

     convergence has been achieved in   7 iterations

     Forces acting on atoms (cartesian axes, Ry/au):

     atom    1 type  1   force =     0.00000000    0.00000000    0.00000000
     atom    2 type  2   force =     0.00000000    0.00000000    0.00000000
     The non-local contrib.  to forces
     atom    1 type  1   force =     0.00000000    0.00000000    0.00000000
     atom    2 type  2   force =     0.00000000    0.00000000    0.00000000
     The ionic contribution  to forces
     atom    1 type  1   force =    -0.00000000   -0.00000000    0.00000000
     atom    2 type  2   force =     0.00000000   -0.00000000   -0.00000000
     The local contribution  to forces
     atom    1 type  1   force =    -0.00000000    0.00000000    0.00000000
     atom    2 type  2   force =     0.00000000   -0.00000000   -0.00000000
     The core correction contribution to forces
     atom    1 type  1   force =     0.00000000    0.00000000    0.00000000
     atom    2 type  2   force =    -0.00000000   -0.00000000    0.00000000
     The Hubbard contrib.    to forces
     atom    1 type  1   force =     0.00000000    0.00000000    0.00000000
     atom    2 type  2   force =     0.00000000    0.00000000    0.00000000
     The SCF correction term to forces
     atom    1 type  1   force =    -0.00000000    0.00000000    0.00000000
     atom    2 type  2   force =    -0.00000000    0.00000000    0.00000000

     Total force =     0.000000     Total SCF correction =     0.000000


     Computing stress (Cartesian axis) and pressure

          total   stress  (Ry/bohr**3)                   (kbar)     P=      318.40
   0.00216461   0.00000000   0.00000000          318.43        0.00        0.00
   0.00000000   0.00216461   0.00000000            0.00      318.43        0.00
   0.00000000   0.00000000   0.00216408            0.00        0.00      318.35

     Energy error            =      8.6E-02 Ry
     Gradient error          =      0.0E+00 Ry/Bohr
     Cell gradient error     =      1.8E+02 kbar

     number of scf cycles    =   2
     number of bfgs steps    =   1

     enthalpy           old  =     -22.2848589532 Ry
     enthalpy           new  =     -22.3709729603 Ry

     CASE: enthalpy          _new < enthalpy          _old

     new trust radius        =       0.1009752422 bohr
ibrav =      6
 celldm(1) =      4.69098480
 celldm(3) =      1.15247784
Input lattice vectors:
     0.88139469     0.00000000     0.00000000
     0.00000000     0.88139469     0.00000000
     0.00000000     0.00000000     1.01578785
New lattice vectors in INITIAL alat:
     0.88139469     0.00000000     0.00000000
     0.00000000     0.88139469     0.00000000
     0.00000000     0.00000000     1.01578785
New lattice vectors in NEW alat (for information only):
     1.00000000     0.00000000     0.00000000
     0.00000000     1.00000000     0.00000000
     0.00000000     0.00000000     1.15247784
Discrepancy in bohr =     0.000000    0.000000    0.000000
     new conv_thr            =            1.0E-10 Ry

     new unit-cell volume =    118.96649 a.u.^3 (    17.62902 Ang^3 )
     density =      3.29927 g/cm^3

CELL_PARAMETERS (alat=  5.32222948)
   0.881394690   0.000000000   0.000000000
   0.000000000   0.881394690   0.000000000
   0.000000000   0.000000000   1.015787853

ATOMIC_POSITIONS (crystal)
Li            0.0000000000        0.0000000000        0.5000000000
Si            0.5000000000        0.5000000000        0.0000000000



     Writing config-only to output data dir ./output/LiSi.save/
     NEW-OLD atomic charge density approx. for the potential
     extrapolated charge    6.00944, renormalised to    7.00000

     total cpu time spent up to now is        7.8 secs

     Self-consistent Calculation

     iteration #  1     ecut=    80.00 Ry     beta= 0.70
     Davidson diagonalization with overlap
     ethr =  1.00E-06,  avg # of iterations =  7.3

     total cpu time spent up to now is        8.6 secs

     total energy              =     -22.76815302 Ry
     estimated scf accuracy    <       0.00484545 Ry

     iteration #  2     ecut=    80.00 Ry     beta= 0.70
     Davidson diagonalization with overlap
     ethr =  6.92E-05,  avg # of iterations =  2.7

     total cpu time spent up to now is        9.1 secs

     total energy              =     -22.78183314 Ry
     estimated scf accuracy    <       0.00278806 Ry

     iteration #  3     ecut=    80.00 Ry     beta= 0.70
     Davidson diagonalization with overlap
     ethr =  3.98E-05,  avg # of iterations =  1.0

     total cpu time spent up to now is        9.5 secs

     total energy              =     -22.78148725 Ry
     estimated scf accuracy    <       0.00065806 Ry

     iteration #  4     ecut=    80.00 Ry     beta= 0.70
     Davidson diagonalization with overlap
     ethr =  9.40E-06,  avg # of iterations =  1.7

     total cpu time spent up to now is       10.0 secs

     total energy              =     -22.78154757 Ry
     estimated scf accuracy    <       0.00001315 Ry

     iteration #  5     ecut=    80.00 Ry     beta= 0.70
     Davidson diagonalization with overlap
     ethr =  1.88E-07,  avg # of iterations =  2.3

     total cpu time spent up to now is       10.5 secs

     total energy              =     -22.78154963 Ry
     estimated scf accuracy    <       0.00000044 Ry

     iteration #  6     ecut=    80.00 Ry     beta= 0.70
     Davidson diagonalization with overlap
     ethr =  6.23E-09,  avg # of iterations =  2.2

     total cpu time spent up to now is       11.0 secs

     total energy              =     -22.78154976 Ry
     estimated scf accuracy    <       0.00000002 Ry

     iteration #  7     ecut=    80.00 Ry     beta= 0.70
     Davidson diagonalization with overlap
     ethr =  3.03E-10,  avg # of iterations =  1.7

     total cpu time spent up to now is       11.4 secs

     total energy              =     -22.78154976 Ry
     estimated scf accuracy    <          5.3E-10 Ry

     iteration #  8     ecut=    80.00 Ry     beta= 0.70
     Davidson diagonalization with overlap
     ethr =  7.56E-12,  avg # of iterations =  2.5

     total cpu time spent up to now is       11.9 secs

     End of self-consistent calculation

          k = 0.0000 0.0000 0.0000 (  2121 PWs)   bands (ev):

   -34.3759  -1.6416  12.3038  15.8208  17.8553  17.8553  18.1131  31.0317

          k = 0.0000 0.0000 0.1231 (  2093 PWs)   bands (ev):

   -34.3719  -1.4834  10.3238  18.0989  18.0989  18.2973  18.3248  30.5813

          k = 0.0000 0.0000 0.2461 (  2093 PWs)   bands (ev):

   -34.3622  -1.0410   7.7839  18.8238  18.8238  18.9129  22.2422  26.8627

          k = 0.0000 0.0000 0.3692 (  2094 PWs)   bands (ev):

   -34.3525  -0.4602   5.8840  19.6741  19.9925  19.9925  24.2724  24.2724

          k = 0.0000 0.0000-0.4922 (  2098 PWs)   bands (ev):

   -34.3485  -0.1446   5.1239  20.0803  21.0761  21.0761  22.7084  22.7084

          k = 0.0000 0.1261 0.0000 (  2097 PWs)   bands (ev):

   -34.3667  -1.4129  12.5714  13.8097  16.6108  18.1129  21.6524  31.0138

          k = 0.0000 0.1261 0.1231 (  2104 PWs)   bands (ev):

   -34.3628  -1.2498  10.4584  14.5780  18.3561  18.5521  21.9732  27.0423

          k = 0.0000 0.1261 0.2461 (  2105 PWs)   bands (ev):

   -34.3534  -0.7927   7.9269  15.3500  19.0796  21.2468  23.6309  24.2725

          k = 0.0000 0.1261 0.3692 (  2082 PWs)   bands (ev):

   -34.3440  -0.1879   6.0192  16.3308  20.2431  21.5666  22.7352  24.5427

          k = 0.0000 0.1261-0.4922 (  2086 PWs)   bands (ev):

   -34.3401   0.1446   5.2472  16.9701  20.6055  21.3080  22.9996  23.0143

          k = 0.0000 0.2521 0.0000 (  2099 PWs)   bands (ev):

   -34.3433  -0.7367  10.4683  13.3737  17.2382  18.8850  24.8007  25.4071

          k = 0.0000 0.2521 0.1231 (  2108 PWs)   bands (ev):

   -34.3397  -0.5590  10.0080  12.3134  19.1270  19.2527  23.5274  25.1450

          k = 0.0000 0.2521 0.2461 (  2096 PWs)   bands (ev):

   -34.3310  -0.0574   8.1958  12.2254  19.8456  20.6311  22.4974  26.3764

          k = 0.0000 0.2521 0.3692 (  2081 PWs)   bands (ev):

   -34.3223   0.6210   6.3828  12.8660  18.6150  20.9921  24.0071  25.3509

          k = 0.0000 0.2521-0.4922 (  2086 PWs)   bands (ev):

   -34.3187   1.0084   5.5936  13.2965  17.7043  22.0019  23.8713  24.4066

          k = 0.0000 0.3782 0.0000 (  2097 PWs)   bands (ev):

   -34.3167   0.3383   7.5426  14.7068  18.2590  20.1691  21.9952  26.3071

          k = 0.0000 0.3782 0.1231 (  2098 PWs)   bands (ev):

   -34.3134   0.5423   7.5804  12.9431  19.6221  20.4085  21.1791  26.9145

          k = 0.0000 0.3782 0.2461 (  2086 PWs)   bands (ev):

   -34.3055   1.1240   7.4912  10.8140  17.8043  21.1163  23.6440  27.8518

          k = 0.0000 0.3782 0.3692 (  2077 PWs)   bands (ev):

   -34.2976   1.9377   6.7223   9.9478  16.0820  22.2280  25.3896  26.6665

          k = 0.0000 0.3782-0.4922 (  2076 PWs)   bands (ev):

   -34.2943   2.4350   6.0713   9.9010  15.4111  23.1465  25.3156  25.8808

          k = 0.0000 0.5043 0.0000 (  2080 PWs)   bands (ev):

   -34.2992   1.5535   5.3921  16.5338  19.1130  19.2191  21.9499  24.2978

          k = 0.0000 0.5043 0.1231 (  2098 PWs)   bands (ev):

   -34.2962   1.8071   5.4551  14.2636  17.6686  21.9166  22.1816  24.5384

          k = 0.0000 0.5043 0.2461 (  2096 PWs)   bands (ev):

   -34.2888   2.5468   5.6287  11.2618  15.8649  22.8584  24.8371  25.2494

          k = 0.0000 0.5043 0.3692 (  2086 PWs)   bands (ev):

   -34.2814   3.6497   5.9033   8.6415  14.5657  23.8829  26.3539  26.7613

          k = 0.0000 0.5043-0.4922 (  2082 PWs)   bands (ev):

   -34.2783   4.3969   6.4601   6.9357  14.1003  24.6365  27.2931  27.5866

          k = 0.1261 0.1261 0.0000 (  2097 PWs)   bands (ev):

   -34.3577  -1.1820  12.8389  13.6284  14.4497  19.3255  23.3302  29.0772

          k = 0.1261 0.1261 0.1231 (  2104 PWs)   bands (ev):

   -34.3539  -1.0144  10.6330  13.8697  16.1656  20.5051  23.4617  27.1706

          k = 0.1261 0.1261 0.2461 (  2097 PWs)   bands (ev):

   -34.3447  -0.5436   8.0895  14.5739  17.4627  23.0728  23.7158  24.9869

          k = 0.1261 0.1261 0.3692 (  2087 PWs)   bands (ev):

   -34.3355   0.0839   6.1680  15.6281  18.4537  20.9429  23.3079  25.3573

          k = 0.1261 0.1261-0.4922 (  2102 PWs)   bands (ev):

   -34.3317   0.4331   5.3826  16.3696  19.0092  19.7371  22.4064  25.7742

          k = 0.1261 0.2521 0.0000 (  2107 PWs)   bands (ev):

   -34.3347  -0.4992  10.6133  13.6408  14.9932  20.1102  25.6595  26.1708

          k = 0.1261 0.2521 0.1231 (  2098 PWs)   bands (ev):

   -34.3312  -0.3181  10.2696  12.1550  16.4035  21.2193  23.8882  26.2898

          k = 0.1261 0.2521 0.2461 (  2095 PWs)   bands (ev):

   -34.3227   0.1942   8.4254  12.1294  17.4971  20.7126  24.6800  25.2560

          k = 0.1261 0.2521 0.3692 (  2089 PWs)   bands (ev):

   -34.3142   0.8919   6.5723  12.9117  18.0980  18.8134  23.4494  27.1766

          k = 0.1261 0.2521-0.4922 (  2088 PWs)   bands (ev):

   -34.3106   1.2950   5.7639  13.4456  17.4118  18.9477  22.6503  27.7560

          k = 0.1261 0.3782 0.0000 (  2095 PWs)   bands (ev):

   -34.3085   0.5886   7.7239  14.9725  16.2800  20.8507  22.2619  24.1815

          k = 0.1261 0.3782 0.1231 (  2095 PWs)   bands (ev):

   -34.3053   0.7942   7.7868  12.9876  17.5608  20.0378  22.8964  24.7054

          k = 0.1261 0.3782 0.2461 (  2093 PWs)   bands (ev):

   -34.2975   1.3814   7.7570  10.8760  17.6437  18.7785  25.0612  26.0325

          k = 0.1261 0.3782 0.3692 (  2085 PWs)   bands (ev):

   -34.2898   2.2074   6.9760  10.1148  15.9528  19.5883  24.2642  26.3400

          k = 0.1261 0.3782-0.4922 (  2078 PWs)   bands (ev):

   -34.2866   2.7181   6.2938  10.1441  15.2499  20.0927  23.4591  26.6668

          k = 0.1261 0.5043 0.0000 (  2086 PWs)   bands (ev):

   -34.2913   1.8302   5.5633  16.7932  17.8562  19.3888  21.1162  21.9167

          k = 0.1261 0.5043 0.1231 (  2085 PWs)   bands (ev):

   -34.2883   2.0831   5.6411  14.4189  17.7293  19.0963  22.1721  23.6154

          k = 0.1261 0.5043 0.2461 (  2085 PWs)   bands (ev):

   -34.2811   2.8209   5.8537  11.4789  15.7858  20.0489  22.9742  26.8160

          k = 0.1261 0.5043 0.3692 (  2087 PWs)   bands (ev):

   -34.2738   3.9225   6.1702   8.8896  14.4383  21.0930  23.5829  25.5854

          k = 0.1261 0.5043-0.4922 (  2082 PWs)   bands (ev):

   -34.2708   4.6743   6.7315   7.2035  13.9558  21.7895  24.0916  24.2622

          k = 0.2521 0.2521 0.0000 (  2101 PWs)   bands (ev):

   -34.3127   0.2039  10.3493  12.8474  14.4409  21.0017  24.0118  26.1191

          k = 0.2521 0.2521 0.1231 (  2097 PWs)   bands (ev):

   -34.3095   0.3952  10.5964  11.3087  15.0693  22.2407  23.6371  23.9827

          k = 0.2521 0.2521 0.2461 (  2089 PWs)   bands (ev):

   -34.3015   0.9401   9.0229  11.3213  15.6052  20.3567  22.4315  25.7333

          k = 0.2521 0.2521 0.3692 (  2095 PWs)   bands (ev):

   -34.2935   1.6970   7.1021  12.4262  15.9806  17.6941  21.5472  26.0507

          k = 0.2521 0.2521-0.4922 (  2098 PWs)   bands (ev):

   -34.2902   2.1508   6.2482  13.2413  16.1374  16.3571  21.1644  26.2157

          k = 0.2521 0.3782 0.0000 (  2085 PWs)   bands (ev):

   -34.2877   1.3297   8.1685  13.3814  15.7677  20.7795  21.6625  23.0546

          k = 0.2521 0.3782 0.1231 (  2076 PWs)   bands (ev):

   -34.2847   1.5402   8.3162  12.4982  15.5469  20.1315  21.8617  23.6983

          k = 0.2521 0.3782 0.2461 (  2083 PWs)   bands (ev):

   -34.2773   2.1447   8.5284  10.8146  15.5804  18.1190  21.2808  24.2583

          k = 0.2521 0.3782 0.3692 (  2089 PWs)   bands (ev):

   -34.2699   3.0094   7.7209  10.4777  15.3808  16.6068  20.7264  23.4403

          k = 0.2521 0.3782-0.4922 (  2100 PWs)   bands (ev):

   -34.2669   3.5630   6.9394  10.8071  14.7794  16.4429  20.5181  23.1022

          k = 0.2521 0.5043 0.0000 (  2071 PWs)   bands (ev):

   -34.2713   2.6511   6.0500  14.7944  17.5671  18.2527  20.2151  22.0561

          k = 0.2521 0.5043 0.1231 (  2077 PWs)   bands (ev):

   -34.2684   2.9020   6.1722  14.2263  16.5225  17.3492  20.0586  24.3417

          k = 0.2521 0.5043 0.2461 (  2085 PWs)   bands (ev):

   -34.2615   3.6341   6.5057  12.0188  15.4214  16.7625  19.9410  24.2650

          k = 0.2521 0.5043 0.3692 (  2080 PWs)   bands (ev):

   -34.2545   4.7323   6.9614   9.5999  14.0979  17.5754  19.7310  22.0731

          k = 0.2521 0.5043-0.4922 (  2094 PWs)   bands (ev):

   -34.2516   5.5004   7.5401   7.9910  13.5900  18.1045  20.3092  20.3662

          k = 0.3782 0.3782 0.0000 (  2085 PWs)   bands (ev):

   -34.2640   2.5215   8.1615  11.5071  17.0816  17.7828  22.5560  24.1343

          k = 0.3782 0.3782 0.1231 (  2070 PWs)   bands (ev):

   -34.2611   2.7423   8.4116  11.3039  15.7391  17.8841  21.4709  23.3995

          k = 0.3782 0.3782 0.2461 (  2085 PWs)   bands (ev):

   -34.2542   3.3808   9.1480  10.3718  14.4708  17.6476  18.1372  22.3594

          k = 0.3782 0.3782 0.3692 (  2089 PWs)   bands (ev):

   -34.2473   4.3172   8.8270  10.2844  14.0763  15.4233  17.7547  20.7836

          k = 0.3782 0.3782-0.4922 (  2106 PWs)   bands (ev):

   -34.2445   4.9545   7.9109  11.1552  14.0000  14.0249  18.1102  19.8615

          k = 0.3782 0.5043 0.0000 (  2084 PWs)   bands (ev):

   -34.2485   3.9786   6.7264  11.7443  15.6357  18.8358  21.5785  23.2218

          k = 0.3782 0.5043 0.1231 (  2078 PWs)   bands (ev):

   -34.2458   4.2263   6.9202  11.8662  15.3033  17.1113  20.0745  23.6614

          k = 0.3782 0.5043 0.2461 (  2076 PWs)   bands (ev):

   -34.2391   4.9504   7.4659  11.8482  14.5878  14.9177  17.8023  21.2861

          k = 0.3782 0.5043 0.3692 (  2092 PWs)   bands (ev):

   -34.2325   6.0468   8.2155  10.5449  13.6295  14.7446  16.3180  18.8940

          k = 0.3782 0.5043-0.4922 (  2088 PWs)   bands (ev):

   -34.2298   6.8523   8.8576   9.2099  13.1717  14.8246  16.8278  17.0870

          k = 0.5043 0.5043 0.0000 (  2092 PWs)   bands (ev):

   -34.2336   5.6606   7.0678   9.4504  14.0211  20.4772  23.2398  23.4866

          k = 0.5043 0.5043 0.1231 (  2080 PWs)   bands (ev):

   -34.2309   5.9088   7.3192   9.6785  13.7824  18.5417  20.3577  21.5842

          k = 0.5043 0.5043 0.2461 (  2073 PWs)   bands (ev):

   -34.2245   6.6371   8.0609  10.2989  13.2967  15.6992  17.0120  18.8847

          k = 0.5043 0.5043 0.3692 (  2080 PWs)   bands (ev):

   -34.2181   7.7575   9.2126  10.8411  13.1641  13.4945  14.2786  16.3510

          k = 0.5043 0.5043-0.4922 (  2086 PWs)   bands (ev):

   -34.2155   8.6404  10.1138  10.4907  12.7746  12.8484  14.1566  14.4294

     the Fermi energy is    12.0008 ev

!    total energy              =     -22.78154976 Ry
     estimated scf accuracy    <          2.4E-12 Ry
     smearing contrib. (-TS)   =      -0.00033280 Ry
     internal energy E=F+TS    =     -22.78121697 Ry

     The total energy is F=E-TS. E is the sum of the following terms:
     one-electron contribution =      -0.44841004 Ry
     hartree contribution      =       2.85354239 Ry
     xc contribution           =      -6.85719869 Ry
     ewald contribution        =     -18.32915062 Ry

     convergence has been achieved in   8 iterations

     Forces acting on atoms (cartesian axes, Ry/au):

     atom    1 type  1   force =     0.00000000    0.00000000    0.00000000
     atom    2 type  2   force =     0.00000000    0.00000000    0.00000000
     The non-local contrib.  to forces
     atom    1 type  1   force =     0.00000000    0.00000000    0.00000000
     atom    2 type  2   force =     0.00000000    0.00000000    0.00000000
     The ionic contribution  to forces
     atom    1 type  1   force =    -0.00000000   -0.00000000    0.00000000
     atom    2 type  2   force =     0.00000000   -0.00000000   -0.00000000
     The local contribution  to forces
     atom    1 type  1   force =     0.00000000   -0.00000000    0.00000000
     atom    2 type  2   force =    -0.00000000   -0.00000000    0.00000000
     The core correction contribution to forces
     atom    1 type  1   force =     0.00000000    0.00000000    0.00000000
     atom    2 type  2   force =    -0.00000000   -0.00000000    0.00000000
     The Hubbard contrib.    to forces
     atom    1 type  1   force =     0.00000000    0.00000000    0.00000000
     atom    2 type  2   force =     0.00000000    0.00000000    0.00000000
     The SCF correction term to forces
     atom    1 type  1   force =    -0.00000000   -0.00000000   -0.00000000
     atom    2 type  2   force =     0.00000000    0.00000000    0.00000000

     Total force =     0.000000     Total SCF correction =     0.000000


     Computing stress (Cartesian axis) and pressure

          total   stress  (Ry/bohr**3)                   (kbar)     P=      598.67
   0.00413580   0.00000000   0.00000000          608.40        0.00        0.00
   0.00000000   0.00413580   0.00000000            0.00      608.40        0.00
   0.00000000   0.00000000   0.00393737            0.00        0.00      579.21

     Energy error            =      6.2E-03 Ry
     Gradient error          =      0.0E+00 Ry/Bohr
     Cell gradient error     =      1.1E+02 kbar

     number of scf cycles    =   3
     number of bfgs steps    =   2

     enthalpy           old  =     -22.3709729603 Ry
     enthalpy           new  =     -22.3771908671 Ry

     CASE: enthalpy          _new < enthalpy          _old

     new trust radius        =       0.0348140554 bohr
ibrav =      6
 celldm(1) =      4.76584937
 celldm(3) =      1.14899694
Input lattice vectors:
     0.89546108     0.00000000     0.00000000
     0.00000000     0.89546108     0.00000000
     0.00000000     0.00000000     1.02888204
New lattice vectors in INITIAL alat:
     0.89546108     0.00000000     0.00000000
     0.00000000     0.89546108     0.00000000
     0.00000000     0.00000000     1.02888204
New lattice vectors in NEW alat (for information only):
     1.00000000     0.00000000     0.00000000
     0.00000000     1.00000000     0.00000000
     0.00000000     0.00000000     1.14899694
Discrepancy in bohr =     0.000000    0.000000    0.000000
     new conv_thr            =            1.0E-10 Ry

     new unit-cell volume =    124.37692 a.u.^3 (    18.43076 Ang^3 )
     density =      3.15575 g/cm^3

CELL_PARAMETERS (alat=  5.32222948)
   0.895461082   0.000000000   0.000000000
   0.000000000   0.895461082   0.000000000
   0.000000000   0.000000000   1.028882040

ATOMIC_POSITIONS (crystal)
Li            0.0000000000        0.0000000000        0.5000000000
Si            0.5000000000        0.5000000000        0.0000000000



     Writing config-only to output data dir ./output/LiSi.save/
     NEW-OLD atomic charge density approx. for the potential
     extrapolated charge    7.30428, renormalised to    7.00000

     total cpu time spent up to now is       12.7 secs

     Self-consistent Calculation

     iteration #  1     ecut=    80.00 Ry     beta= 0.70
     Davidson diagonalization with overlap
     ethr =  1.00E-06,  avg # of iterations =  5.4

     total cpu time spent up to now is       13.3 secs

     total energy              =     -22.80030479 Ry
     estimated scf accuracy    <       0.00028749 Ry

     iteration #  2     ecut=    80.00 Ry     beta= 0.70
     Davidson diagonalization with overlap
     ethr =  4.11E-06,  avg # of iterations =  3.0

     total cpu time spent up to now is       13.8 secs

     total energy              =     -22.80160970 Ry
     estimated scf accuracy    <       0.00027237 Ry

     iteration #  3     ecut=    80.00 Ry     beta= 0.70
     Davidson diagonalization with overlap
     ethr =  3.89E-06,  avg # of iterations =  1.0

     total cpu time spent up to now is       14.3 secs

     total energy              =     -22.80156921 Ry
     estimated scf accuracy    <       0.00008488 Ry

     iteration #  4     ecut=    80.00 Ry     beta= 0.70
     Davidson diagonalization with overlap
     ethr =  1.21E-06,  avg # of iterations =  1.0

     total cpu time spent up to now is       14.8 secs

     total energy              =     -22.80156578 Ry
     estimated scf accuracy    <       0.00001155 Ry

     iteration #  5     ecut=    80.00 Ry     beta= 0.70
     Davidson diagonalization with overlap
     ethr =  1.65E-07,  avg # of iterations =  2.0

     total cpu time spent up to now is       15.3 secs

     total energy              =     -22.80156701 Ry
     estimated scf accuracy    <       0.00000007 Ry

     iteration #  6     ecut=    80.00 Ry     beta= 0.70
     Davidson diagonalization with overlap
     ethr =  9.88E-10,  avg # of iterations =  2.4

     total cpu time spent up to now is       15.8 secs

     total energy              =     -22.80156704 Ry
     estimated scf accuracy    <          2.4E-09 Ry

     iteration #  7     ecut=    80.00 Ry     beta= 0.70
     Davidson diagonalization with overlap
     ethr =  3.44E-11,  avg # of iterations =  2.2

     total cpu time spent up to now is       16.3 secs

     End of self-consistent calculation

          k = 0.0000 0.0000 0.0000 (  2121 PWs)   bands (ev):

   -34.8901  -1.9659  11.7450  15.2820  16.9866  16.9866  17.4725  29.4577

          k = 0.0000 0.0000 0.1215 (  2093 PWs)   bands (ev):

   -34.8867  -1.8066   9.8226  17.2233  17.2233  17.6794  17.6800  29.0899

          k = 0.0000 0.0000 0.2430 (  2093 PWs)   bands (ev):

   -34.8785  -1.3605   7.3269  17.9264  17.9264  18.2545  21.5081  25.8562

          k = 0.0000 0.0000 0.3645 (  2094 PWs)   bands (ev):

   -34.8704  -0.7730   5.4475  19.0000  19.0483  19.0483  23.3433  23.3433

          k = 0.0000 0.0000-0.4860 (  2098 PWs)   bands (ev):

   -34.8670  -0.4521   4.6910  19.3987  20.0349  20.0349  21.8871  21.8871

          k = 0.0000 0.1241 0.0000 (  2097 PWs)   bands (ev):

   -34.8823  -1.7416  12.0046  13.1960  16.0121  17.2369  20.7813  28.1535

          k = 0.0000 0.1241 0.1215 (  2104 PWs)   bands (ev):

   -34.8790  -1.5778   9.9579  13.9013  17.4732  17.9226  21.1017  26.0507

          k = 0.0000 0.1241 0.2430 (  2105 PWs)   bands (ev):

   -34.8711  -1.1183   7.4708  14.6421  18.1745  20.4787  22.8091  23.3466

          k = 0.0000 0.1241 0.3645 (  2082 PWs)   bands (ev):

   -34.8631  -0.5086   5.5843  15.5875  19.2907  20.7970  21.8061  23.6062

          k = 0.0000 0.1241-0.4860 (  2086 PWs)   bands (ev):

   -34.8598  -0.1717   4.8165  16.1976  19.8519  20.2605  22.0892  22.1690

          k = 0.0000 0.2482 0.0000 (  2099 PWs)   bands (ev):

   -34.8625  -1.0785   9.9214  12.7824  16.6343  17.9868  23.7450  24.4919

          k = 0.0000 0.2482 0.1215 (  2108 PWs)   bands (ev):

   -34.8595  -0.9014   9.5114  11.6950  18.2217  18.6055  22.6424  24.1165

          k = 0.0000 0.2482 0.2430 (  2096 PWs)   bands (ev):

   -34.8521  -0.4009   7.7497  11.5740  18.9170  19.8820  21.6721  25.3913

          k = 0.0000 0.2482 0.3645 (  2081 PWs)   bands (ev):

   -34.8447   0.2774   5.9546  12.1904  17.9036  20.0144  23.0740  24.3903

          k = 0.0000 0.2482-0.4860 (  2086 PWs)   bands (ev):

   -34.8416   0.6661   5.1698  12.6016  17.0239  20.9344  23.0130  23.4443

          k = 0.0000 0.3722 0.0000 (  2097 PWs)   bands (ev):

   -34.8399  -0.0256   7.0611  14.0718  17.6236  19.2315  21.1880  25.1243

          k = 0.0000 0.3722 0.1215 (  2098 PWs)   bands (ev):

   -34.8371   0.1759   7.1091  12.3293  18.9580  19.4630  20.3841  25.7137

          k = 0.0000 0.3722 0.2430 (  2086 PWs)   bands (ev):

   -34.8304   0.7510   7.0570  10.1965  17.1250  20.1452  22.8008  26.7098

          k = 0.0000 0.3722 0.3645 (  2077 PWs)   bands (ev):

   -34.8237   1.5571   6.3125   9.3282  15.4334  21.2036  24.4143  25.6528

          k = 0.0000 0.3722-0.4860 (  2076 PWs)   bands (ev):

   -34.8209   2.0512   5.6588   9.2918  14.7746  22.0373  24.4115  24.8697

          k = 0.0000 0.4963 0.0000 (  2080 PWs)   bands (ev):

   -34.8252   1.1597   4.9624  15.8160  18.4210  18.5502  20.9368  23.3079

          k = 0.0000 0.4963 0.1215 (  2098 PWs)   bands (ev):

   -34.8226   1.4074   5.0313  13.5917  17.0430  21.1349  21.1577  23.5458

          k = 0.0000 0.4963 0.2430 (  2096 PWs)   bands (ev):

   -34.8162   2.1306   5.2198  10.6501  15.2494  21.8000  23.9452  24.2482

          k = 0.0000 0.4963 0.3645 (  2086 PWs)   bands (ev):

   -34.8099   3.2147   5.5027   8.0877  13.9488  22.7552  25.3381  25.7423

          k = 0.0000 0.4963-0.4860 (  2082 PWs)   bands (ev):

   -34.8073   3.9649   6.0590   6.3987  13.4801  23.4213  26.2958  26.5210

          k = 0.1241 0.1241 0.0000 (  2097 PWs)   bands (ev):

   -34.8746  -1.5152  12.2641  12.9925  13.8579  18.4613  22.4338  28.0000

          k = 0.1241 0.1241 0.1215 (  2104 PWs)   bands (ev):

   -34.8714  -1.3474  10.1305  13.2272  15.4231  19.6967  22.5750  26.1995

          k = 0.1241 0.1241 0.2430 (  2097 PWs)   bands (ev):

   -34.8637  -0.8753   7.6327  13.9115  16.5963  22.2766  22.9141  23.9795

          k = 0.1241 0.1241 0.3645 (  2087 PWs)   bands (ev):

   -34.8559  -0.2444   5.7335  14.9314  17.5197  20.1944  22.4181  24.3432

          k = 0.1241 0.1241-0.4860 (  2102 PWs)   bands (ev):

   -34.8527   0.1081   4.9531  15.6404  18.0311  19.0270  21.5642  24.7470

          k = 0.1241 0.2482 0.0000 (  2107 PWs)   bands (ev):

   -34.8552  -0.8460  10.0616  13.0412  14.3598  19.2215  24.7321  25.1526

          k = 0.1241 0.2482 0.1215 (  2098 PWs)   bands (ev):

   -34.8522  -0.6658   9.7626  11.5611  15.6426  20.4026  23.0096  25.2765

          k = 0.1241 0.2482 0.2430 (  2095 PWs)   bands (ev):

   -34.8450  -0.1555   7.9736  11.5009  16.6332  19.9641  23.8253  24.3122

          k = 0.1241 0.2482 0.3645 (  2089 PWs)   bands (ev):

   -34.8378   0.5407   6.1411  12.2508  17.2770  18.0278  22.5646  26.1428

          k = 0.1241 0.2482-0.4860 (  2088 PWs)   bands (ev):

   -34.8348   0.9442   5.3384  12.7562  16.7580  18.0070  21.7918  26.6496

          k = 0.1241 0.3722 0.0000 (  2095 PWs)   bands (ev):

   -34.8330   0.2189   7.2382  14.3289  15.6010  19.9481  21.4462  23.2325

          k = 0.1241 0.3722 0.1215 (  2095 PWs)   bands (ev):

   -34.8302   0.4218   7.3093  12.3865  16.7517  19.3210  21.9837  23.7308

          k = 0.1241 0.3722 0.2430 (  2093 PWs)   bands (ev):

   -34.8236   1.0020   7.3135  10.2703  16.9235  17.9340  24.1530  25.0653

          k = 0.1241 0.3722 0.3645 (  2085 PWs)   bands (ev):

   -34.8170   1.8197   6.5589   9.4970  15.3170  18.6518  23.3643  25.2843

          k = 0.1241 0.3722-0.4860 (  2078 PWs)   bands (ev):

   -34.8143   2.3261   5.8759   9.5305  14.6331  19.1279  22.5751  25.5825

          k = 0.1241 0.4963 0.0000 (  2086 PWs)   bands (ev):

   -34.8184   1.4290   5.1305  16.0657  17.1171  18.6901  20.3306  20.9268

          k = 0.1241 0.4963 0.1215 (  2085 PWs)   bands (ev):

   -34.8159   1.6760   5.2131  13.7523  17.0982  18.2034  21.3440  22.6546

          k = 0.1241 0.4963 0.2430 (  2085 PWs)   bands (ev):

   -34.8096   2.3976   5.4378  10.8659  15.1806  19.0816  22.1020  25.8230

          k = 0.1241 0.4963 0.3645 (  2087 PWs)   bands (ev):

   -34.8034   3.4805   5.7606   8.3307  13.8380  20.0797  22.6859  24.5675

          k = 0.1241 0.4963-0.4860 (  2082 PWs)   bands (ev):

   -34.8009   4.2346   6.3222   6.6595  13.3533  20.7462  23.1147  23.3515

          k = 0.2482 0.2482 0.0000 (  2101 PWs)   bands (ev):

   -34.8365  -0.1579   9.8078  12.2313  13.8161  20.0707  23.0833  25.1088

          k = 0.2482 0.2482 0.1215 (  2097 PWs)   bands (ev):

   -34.8337   0.0318  10.0479  10.7914  14.2919  21.3973  22.8291  23.0230

          k = 0.2482 0.2482 0.2430 (  2089 PWs)   bands (ev):

   -34.8269   0.5722   8.5588  10.7513  14.7410  19.6276  21.6088  24.6731

          k = 0.2482 0.2482 0.3645 (  2095 PWs)   bands (ev):

   -34.8202   1.3237   6.6639  11.8168  15.0951  17.0404  20.7010  24.9836

          k = 0.2482 0.2482-0.4860 (  2098 PWs)   bands (ev):

   -34.8173   1.7748   5.8186  12.5892  15.2501  15.7584  20.3106  25.1420

          k = 0.2482 0.3722 0.0000 (  2085 PWs)   bands (ev):

   -34.8153   0.9428   7.6757  12.7242  15.0974  19.9411  20.7524  22.2111

          k = 0.2482 0.3722 0.1215 (  2076 PWs)   bands (ev):

   -34.8127   1.1504   7.8240  11.9267  14.7415  19.3945  21.0152  22.7757

          k = 0.2482 0.3722 0.2430 (  2083 PWs)   bands (ev):

   -34.8064   1.7468   8.0560  10.2591  14.7296  17.4344  20.4770  23.2449

          k = 0.2482 0.3722 0.3645 (  2089 PWs)   bands (ev):

   -34.8001   2.6004   7.2826   9.8779  14.6907  15.8240  19.9249  22.4208

          k = 0.2482 0.3722-0.4860 (  2100 PWs)   bands (ev):

   -34.7975   3.1468   6.5060  10.1868  14.2112  15.5847  19.6939  22.1041

          k = 0.2482 0.4963 0.0000 (  2071 PWs)   bands (ev):

   -34.8013   2.2284   5.6087  14.0499  16.8097  17.5573  19.4952  21.1358

          k = 0.2482 0.4963 0.1215 (  2077 PWs)   bands (ev):

   -34.7989   2.4737   5.7323  13.5715  15.6537  16.7155  19.3083  23.3763

          k = 0.2482 0.4963 0.2430 (  2085 PWs)   bands (ev):

   -34.7929   3.1904   6.0693  11.4134  14.8103  15.8905  19.1648  23.2668

          k = 0.2482 0.4963 0.3645 (  2080 PWs)   bands (ev):

   -34.7869   4.2703   6.5243   9.0301  13.5361  16.6596  18.9611  21.1230

          k = 0.2482 0.4963-0.4860 (  2094 PWs)   bands (ev):

   -34.7845   5.0380   7.1063   7.4286  13.0307  17.2083  19.4435  19.5136

          k = 0.3722 0.3722 0.0000 (  2085 PWs)   bands (ev):

   -34.7951   2.1070   7.6815  10.8461  16.3635  17.0624  21.6237  23.1805

          k = 0.3722 0.3722 0.1215 (  2070 PWs)   bands (ev):

   -34.7926   2.3243   7.9245  10.6901  14.9626  17.1700  20.7251  22.4859

          k = 0.3722 0.3722 0.2430 (  2085 PWs)   bands (ev):

   -34.7867   2.9528   8.6389   9.8608  13.6141  16.9524  17.4728  21.3770

          k = 0.3722 0.3722 0.3645 (  2089 PWs)   bands (ev):

   -34.7808   3.8742   8.3585   9.7339  13.2384  14.8375  17.0321  19.8317

          k = 0.3722 0.3722-0.4860 (  2106 PWs)   bands (ev):

   -34.7783   4.4997   7.4554  10.5551  13.1904  13.5011  17.3566  18.9355

          k = 0.3722 0.4963 0.0000 (  2084 PWs)   bands (ev):

   -34.7819   3.5245   6.2747  11.0385  15.0200  18.0241  20.8205  22.2977

          k = 0.3722 0.4963 0.1215 (  2078 PWs)   bands (ev):

   -34.7795   3.7671   6.4646  11.1755  14.7005  16.3058  19.3519  22.7003

          k = 0.3722 0.4963 0.2430 (  2076 PWs)   bands (ev):

   -34.7738   4.4769   6.9989  11.2416  13.7748  14.3279  17.1155  20.3516

          k = 0.3722 0.4963 0.3645 (  2092 PWs)   bands (ev):

   -34.7681   5.5547   7.7317   9.9821  13.0408  13.9432  15.6685  18.0140

          k = 0.3722 0.4963-0.4860 (  2088 PWs)   bands (ev):

   -34.7658   6.3528   8.3823   8.6278  12.6586  14.0448  16.1388  16.2093

          k = 0.4963 0.4963 0.0000 (  2092 PWs)   bands (ev):

   -34.7691   5.1775   6.6183   8.7640  13.4574  19.5567  22.3876  22.7373

          k = 0.4963 0.4963 0.1215 (  2080 PWs)   bands (ev):

   -34.7668   5.4206   6.8626   8.9893  13.2385  17.6927  19.6453  20.6767

          k = 0.4963 0.4963 0.2430 (  2073 PWs)   bands (ev):

   -34.7613   6.1342   7.5821   9.6121  12.7814  14.9235  16.3806  18.0023

          k = 0.4963 0.4963 0.3645 (  2080 PWs)   bands (ev):

   -34.7558   7.2325   8.6915  10.2335  12.5460  12.8026  13.7267  15.5195

          k = 0.4963 0.4963-0.4860 (  2086 PWs)   bands (ev):

   -34.7536   8.0961   9.5395   9.9562  12.0980  12.3622  13.5375  13.5614

     the Fermi energy is    11.3658 ev

!    total energy              =     -22.80156704 Ry
     estimated scf accuracy    <          2.2E-12 Ry
     smearing contrib. (-TS)   =      -0.00016601 Ry
     internal energy E=F+TS    =     -22.80140103 Ry

     The total energy is F=E-TS. E is the sum of the following terms:
     one-electron contribution =      -0.81130101 Ry
     hartree contribution      =       2.88234012 Ry
     xc contribution           =      -6.81280285 Ry
     ewald contribution        =     -18.05963730 Ry

     convergence has been achieved in   7 iterations

     Forces acting on atoms (cartesian axes, Ry/au):

     atom    1 type  1   force =     0.00000000    0.00000000    0.00000000
     atom    2 type  2   force =     0.00000000    0.00000000    0.00000000
     The non-local contrib.  to forces
     atom    1 type  1   force =     0.00000000    0.00000000    0.00000000
     atom    2 type  2   force =     0.00000000    0.00000000    0.00000000
     The ionic contribution  to forces
     atom    1 type  1   force =    -0.00000000   -0.00000000    0.00000000
     atom    2 type  2   force =    -0.00000000   -0.00000000   -0.00000000
     The local contribution  to forces
     atom    1 type  1   force =    -0.00000000    0.00000000    0.00000000
     atom    2 type  2   force =    -0.00000000   -0.00000000    0.00000000
     The core correction contribution to forces
     atom    1 type  1   force =     0.00000000    0.00000000    0.00000000
     atom    2 type  2   force =     0.00000000    0.00000000   -0.00000000
     The Hubbard contrib.    to forces
     atom    1 type  1   force =     0.00000000    0.00000000    0.00000000
     atom    2 type  2   force =     0.00000000    0.00000000    0.00000000
     The SCF correction term to forces
     atom    1 type  1   force =     0.00000000   -0.00000000   -0.00000000
     atom    2 type  2   force =    -0.00000000    0.00000000    0.00000000

     Total force =     0.000000     Total SCF correction =     0.000000


     Computing stress (Cartesian axis) and pressure

          total   stress  (Ry/bohr**3)                   (kbar)     P=      490.84
   0.00338240   0.00000000   0.00000000          497.57        0.00        0.00
   0.00000000   0.00338240   0.00000000            0.00      497.57        0.00
   0.00000000   0.00000000   0.00324509            0.00        0.00      477.37

     Energy error            =      1.6E-03 Ry
     Gradient error          =      0.0E+00 Ry/Bohr
     Cell gradient error     =      2.3E+01 kbar

     number of scf cycles    =   4
     number of bfgs steps    =   3

     enthalpy           old  =     -22.3771908671 Ry
     enthalpy           new  =     -22.3788184778 Ry

     CASE: enthalpy          _new < enthalpy          _old

     new trust radius        =       0.0071315907 bohr
ibrav =      6
 celldm(1) =      4.76481702
 celldm(3) =      1.14557137
Input lattice vectors:
     0.89526711     0.00000000     0.00000000
     0.00000000     0.89526711     0.00000000
     0.00000000     0.00000000     1.02559237
New lattice vectors in INITIAL alat:
     0.89526711     0.00000000     0.00000000
     0.00000000     0.89526711     0.00000000
     0.00000000     0.00000000     1.02559237
New lattice vectors in NEW alat (for information only):
     1.00000000     0.00000000     0.00000000
     0.00000000     1.00000000     0.00000000
     0.00000000     0.00000000     1.14557137
Discrepancy in bohr =     0.000000    0.000000    0.000000
     new conv_thr            =            1.0E-10 Ry

     new unit-cell volume =    123.92554 a.u.^3 (    18.36387 Ang^3 )
     density =      3.16724 g/cm^3

CELL_PARAMETERS (alat=  5.32222948)
   0.895267113   0.000000000   0.000000000
   0.000000000   0.895267113   0.000000000
   0.000000000   0.000000000   1.025592372

ATOMIC_POSITIONS (crystal)
Li            0.0000000000        0.0000000000        0.5000000000
Si            0.5000000000        0.5000000000        0.0000000000



     Writing config-only to output data dir ./output/LiSi.save/
     NEW-OLD atomic charge density approx. for the potential
     extrapolated charge    6.97452, renormalised to    7.00000

     total cpu time spent up to now is       17.0 secs

     Self-consistent Calculation

     iteration #  1     ecut=    80.00 Ry     beta= 0.70
     Davidson diagonalization with overlap
     ethr =  1.00E-06,  avg # of iterations =  2.1

     Threshold (ethr) on eigenvalues was too large:
     Diagonalizing with lowered threshold

     Davidson diagonalization with overlap
     ethr =  2.98E-08,  avg # of iterations =  2.3

     total cpu time spent up to now is       17.9 secs

     total energy              =     -22.80007557 Ry
     estimated scf accuracy    <       0.00000211 Ry

     iteration #  2     ecut=    80.00 Ry     beta= 0.70
     Davidson diagonalization with overlap
     ethr =  3.01E-08,  avg # of iterations =  2.4

     total cpu time spent up to now is       18.4 secs

     total energy              =     -22.80008451 Ry
     estimated scf accuracy    <       0.00000186 Ry

     iteration #  3     ecut=    80.00 Ry     beta= 0.70
     Davidson diagonalization with overlap
     ethr =  2.66E-08,  avg # of iterations =  1.0

     total cpu time spent up to now is       18.9 secs

     total energy              =     -22.80008420 Ry
     estimated scf accuracy    <       0.00000057 Ry

     iteration #  4     ecut=    80.00 Ry     beta= 0.70
     Davidson diagonalization with overlap
     ethr =  8.09E-09,  avg # of iterations =  1.4

     total cpu time spent up to now is       19.3 secs

     total energy              =     -22.80008423 Ry
     estimated scf accuracy    <       0.00000002 Ry

     iteration #  5     ecut=    80.00 Ry     beta= 0.70
     Davidson diagonalization with overlap
     ethr =  2.85E-10,  avg # of iterations =  2.0

     total cpu time spent up to now is       19.8 secs

     End of self-consistent calculation

          k = 0.0000 0.0000 0.0000 (  2121 PWs)   bands (ev):

   -34.8498  -1.9351  11.8597  15.3546  17.0098  17.0098  17.5001  29.5697

          k = 0.0000 0.0000 0.1219 (  2093 PWs)   bands (ev):

   -34.8463  -1.7740   9.9081  17.2483  17.2483  17.7093  17.7818  29.2003

[...]
        k(   51) = (   0.2449291   0.3673936   0.0000000), wk =   0.0246914
        k(   52) = (   0.2449291   0.3673936   0.1257233), wk =   0.0493827
        k(   53) = (   0.2449291   0.3673936   0.2514466), wk =   0.0493827
        k(   54) = (   0.2449291   0.3673936   0.3771699), wk =   0.0493827
        k(   55) = (   0.2449291   0.3673936  -0.5028932), wk =   0.0246914
        k(   56) = (   0.2449291   0.4898582   0.0000000), wk =   0.0246914
        k(   57) = (   0.2449291   0.4898582   0.1257233), wk =   0.0493827
        k(   58) = (   0.2449291   0.4898582   0.2514466), wk =   0.0493827
        k(   59) = (   0.2449291   0.4898582   0.3771699), wk =   0.0493827
        k(   60) = (   0.2449291   0.4898582  -0.5028932), wk =   0.0246914
        k(   61) = (   0.3673936   0.3673936   0.0000000), wk =   0.0123457
        k(   62) = (   0.3673936   0.3673936   0.1257233), wk =   0.0246914
        k(   63) = (   0.3673936   0.3673936   0.2514466), wk =   0.0246914
        k(   64) = (   0.3673936   0.3673936   0.3771699), wk =   0.0246914
        k(   65) = (   0.3673936   0.3673936  -0.5028932), wk =   0.0123457
        k(   66) = (   0.3673936   0.4898582   0.0000000), wk =   0.0246914
        k(   67) = (   0.3673936   0.4898582   0.1257233), wk =   0.0493827
        k(   68) = (   0.3673936   0.4898582   0.2514466), wk =   0.0493827
        k(   69) = (   0.3673936   0.4898582   0.3771699), wk =   0.0493827
        k(   70) = (   0.3673936   0.4898582  -0.5028932), wk =   0.0246914
        k(   71) = (   0.4898582   0.4898582   0.0000000), wk =   0.0123457
        k(   72) = (   0.4898582   0.4898582   0.1257233), wk =   0.0246914
        k(   73) = (   0.4898582   0.4898582   0.2514466), wk =   0.0246914
        k(   74) = (   0.4898582   0.4898582   0.3771699), wk =   0.0246914
        k(   75) = (   0.4898582   0.4898582  -0.5028932), wk =   0.0123457

     Dense  grid:    11919 G-vectors     FFT dimensions: (  27,  27,  32)

     Estimated max dynamical RAM per process >      14.29 MB

     Estimated total dynamical RAM >     114.33 MB

     Initial potential from superposition of free atoms

     starting charge       6.9948, renormalised to       7.0000
     Starting wfcs are    6 randomized atomic wfcs +    2 random wfcs

     total cpu time spent up to now is       37.7 secs

     Self-consistent Calculation

     iteration #  1     ecut=    80.00 Ry     beta= 0.70
     Davidson diagonalization with overlap
     c_bands:  1 eigenvalues not converged
     c_bands:  1 eigenvalues not converged
     c_bands:  1 eigenvalues not converged
     c_bands:  1 eigenvalues not converged
     c_bands:  1 eigenvalues not converged
     c_bands:  1 eigenvalues not converged
     c_bands:  1 eigenvalues not converged
     c_bands:  2 eigenvalues not converged
     c_bands:  1 eigenvalues not converged
     c_bands:  2 eigenvalues not converged
     c_bands:  1 eigenvalues not converged
     c_bands:  1 eigenvalues not converged
     c_bands:  1 eigenvalues not converged
     c_bands:  1 eigenvalues not converged
     c_bands:  1 eigenvalues not converged
     c_bands:  1 eigenvalues not converged
     c_bands:  1 eigenvalues not converged
     ethr =  1.00E-06,  avg # of iterations = 16.2

     total cpu time spent up to now is       38.6 secs

     total energy              =     -22.79856886 Ry
     estimated scf accuracy    <       0.00816983 Ry

     iteration #  2     ecut=    80.00 Ry     beta= 0.70
     Davidson diagonalization with overlap
     ethr =  1.17E-04,  avg # of iterations =  1.0

     total cpu time spent up to now is       38.8 secs

     total energy              =     -22.79852749 Ry
     estimated scf accuracy    <       0.00057148 Ry

     iteration #  3     ecut=    80.00 Ry     beta= 0.70
     Davidson diagonalization with overlap
     ethr =  8.16E-06,  avg # of iterations =  1.3

     total cpu time spent up to now is       39.0 secs

     total energy              =     -22.79854546 Ry
     estimated scf accuracy    <       0.00000230 Ry

     iteration #  4     ecut=    80.00 Ry     beta= 0.70
     Davidson diagonalization with overlap
     ethr =  3.28E-08,  avg # of iterations =  2.0

     total cpu time spent up to now is       39.3 secs

     total energy              =     -22.79854613 Ry
     estimated scf accuracy    <       0.00000003 Ry

     iteration #  5     ecut=    80.00 Ry     beta= 0.70
     Davidson diagonalization with overlap
     ethr =  4.39E-10,  avg # of iterations =  2.3

     total cpu time spent up to now is       39.6 secs

     total energy              =     -22.79854614 Ry
     estimated scf accuracy    <          6.3E-10 Ry

     iteration #  6     ecut=    80.00 Ry     beta= 0.70
     Davidson diagonalization with overlap
     ethr =  8.94E-12,  avg # of iterations =  2.8

     total cpu time spent up to now is       39.9 secs

     End of self-consistent calculation

          k = 0.0000 0.0000 0.0000 (  1487 PWs)   bands (ev):

   -34.8097  -1.8461  12.9158  15.8051  16.4548  16.4548  17.2297  29.5466

          k = 0.0000 0.0000 0.1257 (  1483 PWs)   bands (ev):

   -34.8053  -1.6600  10.5923  16.7113  16.7113  17.4651  18.5719  29.0374

          k = 0.0000 0.0000 0.2514 (  1471 PWs)   bands (ev):

   -34.7945  -1.1317   7.7960  17.4754  17.4754  18.1273  22.5044  25.8983

          k = 0.0000 0.0000 0.3772 (  1507 PWs)   bands (ev):

   -34.7837  -0.4080   5.6665  18.7113  18.7113  19.0138  23.1709  23.1709

          k = 0.0000 0.0000-0.5029 (  1504 PWs)   bands (ev):

   -34.7792   0.0123   4.7739  19.5106  19.8795  19.8795  21.4985  21.4985

          k = 0.0000 0.1225 0.0000 (  1499 PWs)   bands (ev):

   -34.8026  -1.6336  13.0168  13.1669  16.3562  16.6999  20.4475  28.7445

          k = 0.0000 0.1225 0.1257 (  1484 PWs)   bands (ev):

   -34.7982  -1.4432  10.6633  13.7256  16.9560  18.5680  20.9470  26.4262

          k = 0.0000 0.1225 0.2514 (  1482 PWs)   bands (ev):

   -34.7877  -0.9015   7.9233  14.4537  17.7187  20.4913  23.3769  23.6795

          k = 0.0000 0.1225 0.3772 (  1490 PWs)   bands (ev):

   -34.7772  -0.1542   5.7960  15.5140  18.9496  20.7143  21.7144  23.4248

          k = 0.0000 0.1225-0.5029 (  1482 PWs)   bands (ev):

   -34.7728   0.2855   4.8911  16.2581  19.5988  20.0992  21.7735  22.0606

          k = 0.0000 0.2449 0.0000 (  1500 PWs)   bands (ev):

   -34.7845  -1.0073   9.7796  13.9190  17.0428  17.4342  23.5685  25.2318

          k = 0.0000 0.2449 0.1257 (  1490 PWs)   bands (ev):

   -34.7804  -0.8037   9.6022  12.2281  17.6891  19.2752  23.0904  24.1515

          k = 0.0000 0.2449 0.2514 (  1492 PWs)   bands (ev):

   -34.7705  -0.2211   8.1023  11.6003  18.4466  20.1972  21.9052  26.0896

          k = 0.0000 0.2449 0.3772 (  1480 PWs)   bands (ev):

   -34.7606   0.5989   6.1414  12.2448  17.9337  19.6606  23.0677  24.1812

          k = 0.0000 0.2449-0.5029 (  1480 PWs)   bands (ev):

   -34.7565   1.1018   5.2194  12.7428  16.9106  20.7545  22.5964  23.4420

          k = 0.0000 0.3674 0.0000 (  1488 PWs)   bands (ev):

   -34.7638  -0.0216   7.0166  15.1651  18.0807  18.6521  22.0490  25.0967

          k = 0.0000 0.3674 0.1257 (  1483 PWs)   bands (ev):

   -34.7601   0.2063   7.0980  13.0528  18.9039  19.6855  20.8792  25.5161

          k = 0.0000 0.3674 0.2514 (  1486 PWs)   bands (ev):

   -34.7509   0.8636   7.1535  10.5909  17.4799  19.6492  23.0425  26.1734

          k = 0.0000 0.3674 0.3772 (  1489 PWs)   bands (ev):

   -34.7417   1.8183   6.4445   9.5343  15.5431  20.8266  24.4118  25.3890

          k = 0.0000 0.3674-0.5029 (  1480 PWs)   bands (ev):

   -34.7379   2.4516   5.6685   9.5124  14.7737  21.8226  23.9586  24.8786

          k = 0.0000 0.4899 0.0000 (  1496 PWs)   bands (ev):

   -34.7503   1.0527   5.0473  16.8459  19.0750  19.3832  20.3112  22.6847

          k = 0.0000 0.4899 0.1257 (  1500 PWs)   bands (ev):

   -34.7468   1.3240   5.1369  14.2968  17.7549  20.5520  21.7154  22.9468

          k = 0.0000 0.4899 0.2514 (  1490 PWs)   bands (ev):

   -34.7381   2.1222   5.3773  11.1218  15.6385  21.2575  23.7246  24.0653

          k = 0.0000 0.4899 0.3772 (  1491 PWs)   bands (ev):

   -34.7294   3.3572   5.6854   8.3681  14.1101  22.3326  24.9520  25.6959

          k = 0.0000 0.4899-0.5029 (  1494 PWs)   bands (ev):

   -34.7258   4.3169   6.0300   6.6902  13.5536  23.1375  25.8067  26.0946

          k = 0.1225 0.1225 0.0000 (  1489 PWs)   bands (ev):

   -34.7956  -1.4187  12.6858  13.4178  13.8836  18.5766  21.9611  28.5706

          k = 0.1225 0.1225 0.1257 (  1490 PWs)   bands (ev):

   -34.7913  -1.2244  10.8111  12.9437  15.4435  20.2947  22.1488  26.5903

          k = 0.1225 0.1225 0.2514 (  1488 PWs)   bands (ev):

   -34.7810  -0.6702   8.0731  13.7010  16.4039  22.2205  23.8373  23.9186

          k = 0.1225 0.1225 0.3772 (  1481 PWs)   bands (ev):

   -34.7707   0.0993   5.9388  14.8597  17.3667  20.1363  22.2789  24.0919

          k = 0.1225 0.1225-0.5029 (  1482 PWs)   bands (ev):

   -34.7664   0.5581   5.0197  15.7277  17.9718  18.7824  21.2695  24.5890

          k = 0.1225 0.2449 0.0000 (  1487 PWs)   bands (ev):

   -34.7778  -0.7850   9.8914  14.1692  14.2557  19.4698  24.7563  25.4604

          k = 0.1225 0.2449 0.1257 (  1491 PWs)   bands (ev):

   -34.7738  -0.5785   9.8142  11.9878  15.6269  21.0407  23.4921  25.0170

          k = 0.1225 0.2449 0.2514 (  1488 PWs)   bands (ev):

   -34.7641   0.0136   8.3281  11.4692  16.4473  20.2645  24.2643  24.4848

          k = 0.1225 0.2449 0.3772 (  1484 PWs)   bands (ev):

   -34.7544   0.8520   6.3237  12.2837  17.1534  18.0499  22.4154  25.9978

          k = 0.1225 0.2449-0.5029 (  1476 PWs)   bands (ev):

   -34.7503   1.3727   5.3807  12.8975  16.6224  17.9712  21.4970  26.4642

          k = 0.1225 0.3674 0.0000 (  1495 PWs)   bands (ev):

   -34.7575   0.2149   7.1735  15.4134  15.4358  20.2978  22.2982  22.7547

          k = 0.1225 0.3674 0.1257 (  1487 PWs)   bands (ev):

   -34.7537   0.4439   7.2779  13.0102  16.6222  19.9354  22.6070  23.3124

          k = 0.1225 0.3674 0.2514 (  1492 PWs)   bands (ev):

   -34.7447   1.1057   7.3955  10.6339  16.9780  17.9685  23.8108  25.3638

          k = 0.1225 0.3674 0.3772 (  1486 PWs)   bands (ev):

   -34.7357   2.0715   6.6876   9.6851  15.3961  18.4970  23.1430  25.0383

          k = 0.1225 0.3674-0.5029 (  1486 PWs)   bands (ev):

   -34.7320   2.7195   5.8787   9.7460  14.6099  19.0701  22.2138  25.3801

          k = 0.1225 0.4899 0.0000 (  1497 PWs)   bands (ev):

   -34.7442   1.3158   5.1955  16.8934  17.0863  19.6444  20.2167  21.1216

          k = 0.1225 0.4899 0.1257 (  1492 PWs)   bands (ev):

   -34.7407   1.5865   5.2996  14.3883  17.6494  17.9690  21.1098  23.4460

          k = 0.1225 0.4899 0.2514 (  1489 PWs)   bands (ev):

   -34.7321   2.3829   5.5792  11.3192  15.5148  18.7242  21.8282  26.4545

          k = 0.1225 0.4899 0.3772 (  1487 PWs)   bands (ev):

   -34.7235   3.6162   5.9338   8.6009  13.9742  19.8162  22.4625  24.3672

          k = 0.1225 0.4899-0.5029 (  1488 PWs)   bands (ev):

   -34.7200   4.5799   6.2851   6.9448  13.4069  20.6454  22.8973  22.9805

          k = 0.2449 0.2449 0.0000 (  1490 PWs)   bands (ev):

   -34.7607  -0.1286   9.5760  12.1454  14.9181  20.6063  22.5654  25.7854

          k = 0.2449 0.2449 0.1257 (  1489 PWs)   bands (ev):

   -34.7569   0.0870   9.8386  11.1117  14.6619  22.0769  22.8426  23.3661

          k = 0.2449 0.2449 0.2514 (  1490 PWs)   bands (ev):

   -34.7477   0.7083   8.9043  10.6128  14.7586  19.9281  21.6161  24.5122

          k = 0.2449 0.2449 0.3772 (  1485 PWs)   bands (ev):

   -34.7385   1.6036   6.8309  11.8128  15.0931  17.1000  20.5668  24.7807

          k = 0.2449 0.2449-0.5029 (  1484 PWs)   bands (ev):

   -34.7347   2.1822   5.8385  12.7478  15.2799  15.6193  20.0913  24.9805

          k = 0.2449 0.3674 0.0000 (  1496 PWs)   bands (ev):

   -34.7413   0.9139   7.5496  12.5246  16.1555  19.5854  21.4053  23.0349

          k = 0.2449 0.3674 0.1257 (  1494 PWs)   bands (ev):

   -34.7377   1.1470   7.7288  12.0388  15.1722  19.3521  21.3867  23.6938

          k = 0.2449 0.3674 0.2514 (  1496 PWs)   bands (ev):

   -34.7291   1.8232   8.0843  10.4986  14.7188  17.6704  20.3246  23.4187

          k = 0.2449 0.3674 0.3772 (  1494 PWs)   bands (ev):

   -34.7205   2.8238   7.4019  10.0016  14.6806  15.8928  19.6980  22.3664

          k = 0.2449 0.3674-0.5029 (  1498 PWs)   bands (ev):

   -34.7169   3.5195   6.4875  10.3905  14.1454  15.6232  19.4102  22.0020

          k = 0.2449 0.4899 0.0000 (  1498 PWs)   bands (ev):

   -34.7286   2.0975   5.6136  13.6856  17.3674  17.8020  20.4258  21.8960

          k = 0.2449 0.4899 0.1257 (  1494 PWs)   bands (ev):

   -34.7252   2.3663   5.7605  13.5292  16.0105  16.8333  19.7613  24.3840

          k = 0.2449 0.4899 0.2514 (  1492 PWs)   bands (ev):

   -34.7169   3.1575   6.1607  11.7654  14.9500  15.7224  19.2189  23.4640

          k = 0.2449 0.4899 0.3772 (  1496 PWs)   bands (ev):

   -34.7087   4.3857   6.6686   9.2644  13.6162  16.5002  18.8630  21.0609

          k = 0.2449 0.4899-0.5029 (  1490 PWs)   bands (ev):

   -34.7052   5.3634   7.0446   7.6958  13.0406  17.2128  19.1559  19.4003

          k = 0.3674 0.3674 0.0000 (  1506 PWs)   bands (ev):

   -34.7229   2.0327   7.4980  10.6562  16.8522  17.3762  22.3908  23.9322

          k = 0.3674 0.3674 0.1257 (  1497 PWs)   bands (ev):

   -34.7195   2.2747   7.7631  10.5850  15.5143  17.0857  21.3450  23.1049

          k = 0.3674 0.3674 0.2514 (  1492 PWs)   bands (ev):

   -34.7113   2.9808   8.5468   9.9700  13.8197  16.7769  17.8444  21.6248

          k = 0.3674 0.3674 0.3772 (  1489 PWs)   bands (ev):

   -34.7031   4.0476   8.4585   9.7734  13.3185  14.9675  16.8037  19.8719

          k = 0.3674 0.3674-0.5029 (  1486 PWs)   bands (ev):

   -34.6997   4.8386   7.3997  10.7617  13.2787  13.4270  17.1015  18.9062

          k = 0.3674 0.4899 0.0000 (  1495 PWs)   bands (ev):

   -34.7108   3.3665   6.1838  10.6885  15.0000  18.9669  21.7112  23.1301

          k = 0.3674 0.4899 0.1257 (  1505 PWs)   bands (ev):

   -34.7075   3.6324   6.3977  10.8680  14.7111  16.9548  20.0172  23.2889

          k = 0.3674 0.4899 0.2514 (  1501 PWs)   bands (ev):

   -34.6996   4.4157   7.0031  11.1437  13.9189  14.4685  17.4591  20.6054

          k = 0.3674 0.4899 0.3772 (  1490 PWs)   bands (ev):

   -34.6917   5.6375   7.8268  10.1137  13.0856  13.8846  15.7041  18.0524

          k = 0.3674 0.4899-0.5029 (  1488 PWs)   bands (ev):

   -34.6884   6.6464   8.2774   8.8692  12.6299  14.1263  15.8753  16.2431

          k = 0.4899 0.4899 0.0000 (  1506 PWs)   bands (ev):

   -34.6992   4.9857   6.4587   8.4081  13.5870  20.4186  23.2119  23.6011

          k = 0.4899 0.4899 0.1257 (  1503 PWs)   bands (ev):

   -34.6960   5.2517   6.7250   8.6555  13.3636  18.3309  20.2998  21.2646

          k = 0.4899 0.4899 0.2514 (  1496 PWs)   bands (ev):

   -34.6883   6.0366   7.5130   9.3499  12.8803  15.3098  16.7859  18.3135

          k = 0.4899 0.4899 0.3772 (  1486 PWs)   bands (ev):

   -34.6806   7.2717   8.7524  10.1105  12.5606  12.9654  13.8911  15.6240

          k = 0.4899 0.4899-0.5029 (  1480 PWs)   bands (ev):

   -34.6774   8.3503   9.7699   9.7791  12.2179  12.3199  13.3896  13.6312

     the Fermi energy is    11.4419 ev

!    total energy              =     -22.79854614 Ry
     estimated scf accuracy    <          2.3E-11 Ry
     smearing contrib. (-TS)   =       0.00007817 Ry
     internal energy E=F+TS    =     -22.79862431 Ry

     The total energy is F=E-TS. E is the sum of the following terms:
     one-electron contribution =      -0.74801080 Ry
     hartree contribution      =       2.87830432 Ry
     xc contribution           =      -6.81804619 Ry
     ewald contribution        =     -18.11087164 Ry

     convergence has been achieved in   6 iterations

     Forces acting on atoms (cartesian axes, Ry/au):

     atom    1 type  1   force =     0.00000000    0.00000000    0.00000000
     atom    2 type  2   force =     0.00000000    0.00000000    0.00000000
     The non-local contrib.  to forces
     atom    1 type  1   force =     0.00000000    0.00000000    0.00000000
     atom    2 type  2   force =     0.00000000    0.00000000    0.00000000
     The ionic contribution  to forces
     atom    1 type  1   force =    -0.00000000   -0.00000000    0.00000000
     atom    2 type  2   force =    -0.00000000   -0.00000000   -0.00000000
     The local contribution  to forces
     atom    1 type  1   force =     0.00000000    0.00000000    0.00000000
     atom    2 type  2   force =    -0.00000000   -0.00000000   -0.00000000
     The core correction contribution to forces
     atom    1 type  1   force =     0.00000000    0.00000000    0.00000000
     atom    2 type  2   force =    -0.00000000   -0.00000000    0.00000000
     The Hubbard contrib.    to forces
     atom    1 type  1   force =     0.00000000    0.00000000    0.00000000
     atom    2 type  2   force =     0.00000000    0.00000000    0.00000000
     The SCF correction term to forces
     atom    1 type  1   force =    -0.00000000    0.00000000    0.00000000
     atom    2 type  2   force =     0.00000000   -0.00000000    0.00000000

     Total force =     0.000000     Total SCF correction =     0.000000


     Computing stress (Cartesian axis) and pressure

          total   stress  (Ry/bohr**3)                   (kbar)     P=      499.97
   0.00339844   0.00000000   0.00000000          499.93        0.00        0.00
   0.00000000   0.00339844   0.00000000            0.00      499.93        0.00
   0.00000000   0.00000000   0.00339927            0.00        0.00      500.05


     Writing all to output data dir ./output/LiSi.save/

     init_run     :      0.62s CPU      0.67s WALL (       2 calls)
     electrons    :     19.72s CPU     30.71s WALL (      13 calls)
     update_pot   :      1.89s CPU      1.93s WALL (      11 calls)
     forces       :      1.36s CPU      1.39s WALL (      13 calls)
     stress       :      4.70s CPU      4.78s WALL (      13 calls)

     Called by init_run:
     wfcinit      :      0.16s CPU      0.17s WALL (       2 calls)
     potinit      :      0.13s CPU      0.13s WALL (       2 calls)
     hinit0       :      0.32s CPU      0.35s WALL (       2 calls)

     Called by electrons:
     c_bands      :     16.97s CPU     27.47s WALL (      83 calls)
     sum_band     :      2.51s CPU      2.63s WALL (      83 calls)
     v_of_rho     :      0.22s CPU      0.23s WALL (      87 calls)
     mix_rho      :      0.02s CPU      0.02s WALL (      83 calls)

     Called by c_bands:
     init_us_2    :      0.84s CPU      0.94s WALL (   14550 calls)
     init_us_2:cp :      0.83s CPU      0.92s WALL (   14550 calls)
     cegterg      :     15.22s CPU     16.41s WALL (    6225 calls)

     Called by *egterg:
     cdiaghg      :      1.63s CPU      1.71s WALL (   20196 calls)
     h_psi        :     11.77s CPU     12.76s WALL (   21846 calls)
     g_psi        :      0.08s CPU      0.08s WALL (   15471 calls)

     Called by h_psi:
     h_psi:calbec :      0.88s CPU      0.95s WALL (   21846 calls)
     vloc_psi     :     10.30s CPU     11.18s WALL (   21846 calls)
     add_vuspsi   :      0.48s CPU      0.51s WALL (   21846 calls)

     General routines
     calbec       :      1.13s CPU      1.21s WALL (   26721 calls)
     fft          :      0.31s CPU      0.33s WALL (    1202 calls)
     ffts         :      0.01s CPU      0.01s WALL (      83 calls)
     fftw         :     10.42s CPU     11.25s WALL (  310790 calls)

     Parallel routines

     PWSCF        :     28.63s CPU     40.46s WALL


   This run was terminated on:  21:42: 6  11Feb2025            

=------------------------------------------------------------------------------=
   JOB DONE.
=------------------------------------------------------------------------------=
