
     Program PWSCF v.7.2 starts on 11Feb2025 at 22: 5:36 

     This program is part of the open-source Quantum ESPRESSO suite
     for quantum simulation of materials; please cite
         "P. Giannozzi et al., J. Phys.:Condens. Matter 21 395502 (2009);
         "P. Giannozzi et al., J. Phys.:Condens. Matter 29 465901 (2017);
         "P. Giannozzi et al., J. Chem. Phys. 152 154105 (2020);
          URL http://www.quantum-espresso.org", 
     in publications or presentations arising from this work. More details at
     http://www.quantum-espresso.org/quote

     Parallel version (MPI & OpenMP), running on       8 processor cores
     Number of MPI processes:                 8
     Threads/MPI process:                     1

     MPI processes distributed on     1 nodes
     481386 MiB available memory on the printing compute node when the environment starts

     Waiting for input...
     Reading input from standard input

     Current dimensions of program PWSCF are:
     Max number of different atomic species (ntypx) = 10
     Max number of k-points (npk) =  40000
     Max angular momentum in pseudopotentials (lmaxx) =  4

     R & G space division:  proc/nbgrp/npool/nimage =       8
     Subspace diagonalization in iterative solution of the eigenvalue problem:
     a serial algorithm will be used


     Parallelization info
     --------------------
     sticks:   dense  smooth     PW     G-vecs:    dense   smooth      PW
     Min         100     100     31                 1884     1884     329
     Max         101     101     32                 1887     1887     331
     Sum         805     805    253                15089    15089    2637

     Using Slab Decomposition



     bravais-lattice index     =            2
     lattice parameter (alat)  =       8.5500  a.u.
     unit-cell volume          =     156.2573 (a.u.)^3
     number of atoms/cell      =            2
     number of atomic types    =            2
     number of electrons       =         7.00
     number of Kohn-Sham states=            8
     kinetic-energy cutoff     =      80.0000  Ry
     charge density cutoff     =     320.0000  Ry
     scf convergence threshold =      1.0E-08
     mixing beta               =       0.7000
     number of iterations used =            8  plain     mixing
     energy convergence thresh.=      1.0E-04
     force convergence thresh. =      1.0E-03
     press convergence thresh. =      1.0E+00
     Exchange-correlation= PBE
                           (   1   4   3   4   0   0   0)
     nstep                     =           50


     celldm(1)=   8.550013  celldm(2)=   0.000000  celldm(3)=   0.000000
     celldm(4)=   0.000000  celldm(5)=   0.000000  celldm(6)=   0.000000

     crystal axes: (cart. coord. in units of alat)
               a(1) = (  -0.500000   0.000000   0.500000 )  
               a(2) = (   0.000000   0.500000   0.500000 )  
               a(3) = (  -0.500000   0.500000   0.000000 )  

     reciprocal axes: (cart. coord. in units 2 pi/alat)
               b(1) = ( -1.000000 -1.000000  1.000000 )  
               b(2) = (  1.000000  1.000000  1.000000 )  
               b(3) = ( -1.000000  1.000000 -1.000000 )  


     PseudoPot. # 1 for Li read from file:
     ../pseudo/Li_ONCV_PBE_sr.upf
     MD5 check sum: 50ff420e78310ffa21704f3361e624a4
     Pseudo is Norm-conserving, Zval =  3.0
     Generated using ONCVPSP code by D. R. Hamann
     Using radial grid of 1944 points,  4 beta functions with: 
                l(1) =   0
                l(2) =   0
                l(3) =   1
                l(4) =   1

     PseudoPot. # 2 for Si read from file:
     ../pseudo/Si_ONCV_PBE_sr.upf
     MD5 check sum: e543d271109d17c80368dfa7c482276d
     Pseudo is Norm-conserving + core correction, Zval =  4.0
     Generated using ONCVPSP code by D. R. Hamann
     Using radial grid of 1510 points,  6 beta functions with: 
                l(1) =   0
                l(2) =   0
                l(3) =   1
                l(4) =   1
                l(5) =   2
                l(6) =   2

     atomic species   valence    mass     pseudopotential
        Li             3.00     6.94100     Li( 1.00)
        Si             4.00    28.08550     Si( 1.00)

     48 Sym. Ops., with inversion, found



   Cartesian axes

     site n.     atom                  positions (alat units)
         1           Li  tau(   1) = (   0.0000000   0.0000000   0.0000000  )
         2           Si  tau(   2) = (   0.0000000   0.0000000   0.5000000  )

     number of k points=    16  Marzari-Vanderbilt smearing, width (Ry)=  0.0200
                       cart. coord. in units 2pi/alat
        k(    1) = (   0.0000000   0.0000000   0.0000000), wk =   0.0092593
        k(    2) = (  -0.1666667   0.1666667  -0.1666667), wk =   0.0740741
        k(    3) = (  -0.3333333   0.3333333  -0.3333333), wk =   0.0740741
        k(    4) = (   0.5000000  -0.5000000   0.5000000), wk =   0.0370370
        k(    5) = (   0.0000000   0.3333333   0.0000000), wk =   0.0555556
        k(    6) = (  -0.1666667   0.5000000  -0.1666667), wk =   0.2222222
        k(    7) = (   0.6666667  -0.3333333   0.6666667), wk =   0.2222222
        k(    8) = (   0.5000000  -0.1666667   0.5000000), wk =   0.2222222
        k(    9) = (   0.3333333   0.0000000   0.3333333), wk =   0.1111111
        k(   10) = (   0.0000000   0.6666667   0.0000000), wk =   0.0555556
        k(   11) = (   0.8333333  -0.1666667   0.8333333), wk =   0.2222222
        k(   12) = (   0.6666667  -0.0000000   0.6666667), wk =   0.1111111
        k(   13) = (   0.0000000  -1.0000000   0.0000000), wk =   0.0277778
        k(   14) = (   0.6666667  -0.3333333   1.0000000), wk =   0.2222222
        k(   15) = (   0.5000000  -0.1666667   0.8333333), wk =   0.2222222
        k(   16) = (  -0.3333333  -1.0000000   0.0000000), wk =   0.1111111

     Dense  grid:    15089 G-vectors     FFT dimensions: (  36,  36,  36)

     Estimated max dynamical RAM per process >      13.49 MB

     Estimated total dynamical RAM >     107.91 MB

     Initial potential from superposition of free atoms

     starting charge       6.9948, renormalised to       7.0000
     Starting wfcs are    6 randomized atomic wfcs +    2 random wfcs

     total cpu time spent up to now is        0.7 secs

     Self-consistent Calculation

     iteration #  1     ecut=    80.00 Ry     beta= 0.70
     Davidson diagonalization with overlap
     ethr =  1.00E-02,  avg # of iterations =  5.6

     Threshold (ethr) on eigenvalues was too large:
     Diagonalizing with lowered threshold

     Davidson diagonalization with overlap
     ethr =  4.59E-05,  avg # of iterations =  4.1

     total cpu time spent up to now is        0.9 secs

     total energy              =     -22.74418524 Ry
     estimated scf accuracy    <       0.00321080 Ry

     iteration #  2     ecut=    80.00 Ry     beta= 0.70
     Davidson diagonalization with overlap
     ethr =  4.59E-05,  avg # of iterations =  1.1

     total cpu time spent up to now is        0.9 secs

     total energy              =     -22.74434778 Ry
     estimated scf accuracy    <       0.00011197 Ry

     iteration #  3     ecut=    80.00 Ry     beta= 0.70
     Davidson diagonalization with overlap
     ethr =  1.60E-06,  avg # of iterations =  3.3

     total cpu time spent up to now is        1.0 secs

     total energy              =     -22.74436598 Ry
     estimated scf accuracy    <       0.00000343 Ry

     iteration #  4     ecut=    80.00 Ry     beta= 0.70
     Davidson diagonalization with overlap
     ethr =  4.91E-08,  avg # of iterations =  1.6

     total cpu time spent up to now is        1.1 secs

     total energy              =     -22.74436626 Ry
     estimated scf accuracy    <       0.00000008 Ry

     iteration #  5     ecut=    80.00 Ry     beta= 0.70
     Davidson diagonalization with overlap
     ethr =  1.18E-09,  avg # of iterations =  2.4

     total cpu time spent up to now is        1.1 secs

     End of self-consistent calculation

          k = 0.0000 0.0000 0.0000 (  1917 PWs)   bands (ev):

   -37.5153  -3.0345  12.9413  12.9413  12.9413  16.8801  16.8801  16.8801

          k =-0.1667 0.1667-0.1667 (  1901 PWs)   bands (ev):

   -37.5106  -2.5768   9.8431  12.4530  12.4530  17.0498  17.5630  17.5630

          k =-0.3333 0.3333-0.3333 (  1898 PWs)   bands (ev):

   -37.5012  -1.2712   5.7421  12.0786  12.0786  15.1616  15.1616  16.4491

          k = 0.5000-0.5000 0.5000 (  1892 PWs)   bands (ev):

   -37.4966  -0.0154   3.4894  12.1498  12.1498  14.0465  14.0465  16.0941

          k = 0.0000 0.3333 0.0000 (  1908 PWs)   bands (ev):

   -37.5091  -2.4156  10.8353  10.8353  11.9524  14.6140  15.8552  19.9929

          k =-0.1667 0.5000-0.1667 (  1890 PWs)   bands (ev):

   -37.5014  -1.3512   7.2681  10.0231  10.6114  14.3552  16.2681  18.9989

          k = 0.6667-0.3333 0.6667 (  1895 PWs)   bands (ev):

   -37.4952   0.2560   4.0589   9.1738  10.2271  14.2314  16.9816  18.8309

          k = 0.5000-0.1667 0.5000 (  1893 PWs)   bands (ev):

   -37.4967  -0.2773   4.9270   8.5139  11.4368  15.0158  15.9089  19.0628

          k = 0.3333 0.0000 0.3333 (  1895 PWs)   bands (ev):

   -37.5044  -1.8171   8.5450   8.9051  13.1633  15.6848  16.5958  18.1043

          k = 0.0000 0.6667 0.0000 (  1876 PWs)   bands (ev):

   -37.4971  -0.5123   7.3208   8.8006   8.8006  12.4108  14.7120  23.8271

          k = 0.8333-0.1667 0.8333 (  1886 PWs)   bands (ev):

   -37.4926   1.1409   4.7300   6.8881   8.6344  13.4157  15.9785  21.4499

          k = 0.6667-0.0000 0.6667 (  1896 PWs)   bands (ev):

   -37.4924   1.4410   4.2554   5.8953   9.5410  14.1971  19.1025  20.1220

          k = 0.0000-1.0000 0.0000 (  1868 PWs)   bands (ev):

   -37.4912   2.7380   2.7686   8.0932   8.0932  11.6452  14.7906  27.2152

          k = 0.6667-0.3333 1.0000 (  1880 PWs)   bands (ev):

   -37.4954   0.0060   6.4173   6.5972   9.4925  16.0278  16.2495  17.9655

          k = 0.5000-0.1667 0.8333 (  1876 PWs)   bands (ev):

   -37.4924   1.4456   4.1208   6.3254   8.8270  16.1867  17.1903  20.1773

          k =-0.3333-1.0000 0.0000 (  1892 PWs)   bands (ev):

   -37.4911   2.6596   3.5130   5.6834   8.0558  15.5309  16.3220  20.6341

     the Fermi energy is     8.5260 ev

!    total energy              =     -22.74436629 Ry
     estimated scf accuracy    <          1.8E-09 Ry
     smearing contrib. (-TS)   =      -0.00143572 Ry
     internal energy E=F+TS    =     -22.74293057 Ry

     The total energy is F=E-TS. E is the sum of the following terms:
     one-electron contribution =      -2.89553011 Ry
     hartree contribution      =       3.22233068 Ry
     xc contribution           =      -6.60482757 Ry
     ewald contribution        =     -16.46490357 Ry

     convergence has been achieved in   5 iterations

     Forces acting on atoms (cartesian axes, Ry/au):

     atom    1 type  1   force =    -0.00000000   -0.00000000    0.00000000
     atom    2 type  2   force =     0.00000000    0.00000000    0.00000000
     The non-local contrib.  to forces
     atom    1 type  1   force =     0.00000000    0.00000000    0.00000000
     atom    2 type  2   force =    -0.00000000    0.00000000   -0.00000000
     The ionic contribution  to forces
     atom    1 type  1   force =     0.00000000   -0.00000000   -0.00000000
     atom    2 type  2   force =     0.00000000   -0.00000000    0.00000000
     The local contribution  to forces
     atom    1 type  1   force =    -0.00000000    0.00000000    0.00000000
     atom    2 type  2   force =     0.00000000   -0.00000000   -0.00000000
     The core correction contribution to forces
     atom    1 type  1   force =     0.00000000    0.00000000    0.00000000
     atom    2 type  2   force =    -0.00000000    0.00000000   -0.00000000
     The Hubbard contrib.    to forces
     atom    1 type  1   force =     0.00000000    0.00000000    0.00000000
     atom    2 type  2   force =     0.00000000    0.00000000    0.00000000
     The SCF correction term to forces
     atom    1 type  1   force =    -0.00000000    0.00000000    0.00000000
     atom    2 type  2   force =     0.00000000   -0.00000000    0.00000000

     Total force =     0.000000     Total SCF correction =     0.000000


     Computing stress (Cartesian axis) and pressure

          total   stress  (Ry/bohr**3)                   (kbar)     P=      282.54
   0.00192065   0.00000000   0.00000000          282.54        0.00        0.00
   0.00000000   0.00192065  -0.00000000            0.00      282.54       -0.00
   0.00000000  -0.00000000   0.00192065            0.00       -0.00      282.54


     BFGS Geometry Optimization
     Energy error            =      0.0E+00 Ry
     Gradient error          =      1.5E-33 Ry/Bohr
     Cell gradient error     =      2.2E+02 kbar

     number of scf cycles    =   1
     number of bfgs steps    =   0

     enthalpy           new  =     -22.2132584775 Ry

     new trust radius        =       0.0923947642 bohr
ibrav =      2
 celldm(1) =      8.23402991
Input lattice vectors:
    -0.48152148    -0.00000000     0.48152148
     0.00000000     0.48152148     0.48152148
    -0.48152148     0.48152148    -0.00000000
New lattice vectors in INITIAL alat:
    -0.48152148     0.00000000     0.48152148
     0.00000000     0.48152148     0.48152148
    -0.48152148     0.48152148     0.00000000
New lattice vectors in NEW alat (for information only):
    -0.50000000     0.00000000     0.50000000
     0.00000000     0.50000000     0.50000000
    -0.50000000     0.50000000     0.00000000
Discrepancy in bohr =     0.000000    0.000000    0.000000
     new conv_thr            =       0.0000000100 Ry

     new unit-cell volume =    139.56526 a.u.^3 (    20.68144 Ang^3 )
     density =      2.81232 g/cm^3

CELL_PARAMETERS (alat=  8.55001309)
  -0.481521480   0.000000000   0.481521480
   0.000000000   0.481521480   0.481521480
  -0.481521480   0.481521480   0.000000000

ATOMIC_POSITIONS (crystal)
Li            0.0000000000       -0.0000000000       -0.0000000000
Si            0.5000000000        0.5000000000       -0.5000000000



     Writing config-only to output data dir ./output/LiSi.save/
     NEW-OLD atomic charge density approx. for the potential
     extrapolated charge    6.16342, renormalised to    7.00000

     total cpu time spent up to now is        1.7 secs

     Self-consistent Calculation

     iteration #  1     ecut=    80.00 Ry     beta= 0.70
     Davidson diagonalization with overlap
     ethr =  1.00E-06,  avg # of iterations =  6.8

     total cpu time spent up to now is        1.8 secs

     total energy              =     -22.69232162 Ry
     estimated scf accuracy    <       0.00336397 Ry

     iteration #  2     ecut=    80.00 Ry     beta= 0.70
     Davidson diagonalization with overlap
     ethr =  4.81E-05,  avg # of iterations =  2.7

     total cpu time spent up to now is        1.9 secs

     total energy              =     -22.70349252 Ry
     estimated scf accuracy    <       0.00190226 Ry

     iteration #  3     ecut=    80.00 Ry     beta= 0.70
     Davidson diagonalization with overlap
     ethr =  2.72E-05,  avg # of iterations =  1.0

     total cpu time spent up to now is        2.0 secs

     total energy              =     -22.70318686 Ry
     estimated scf accuracy    <       0.00051764 Ry

     iteration #  4     ecut=    80.00 Ry     beta= 0.70
     Davidson diagonalization with overlap
     ethr =  7.39E-06,  avg # of iterations =  1.9

     total cpu time spent up to now is        2.1 secs

     total energy              =     -22.70323886 Ry
     estimated scf accuracy    <       0.00000341 Ry

     iteration #  5     ecut=    80.00 Ry     beta= 0.70
     Davidson diagonalization with overlap
     ethr =  4.87E-08,  avg # of iterations =  2.5

     total cpu time spent up to now is        2.2 secs

     total energy              =     -22.70323914 Ry
     estimated scf accuracy    <       0.00000051 Ry

     iteration #  6     ecut=    80.00 Ry     beta= 0.70
     Davidson diagonalization with overlap
     ethr =  7.28E-09,  avg # of iterations =  2.0

     total cpu time spent up to now is        2.2 secs

     total energy              =     -22.70323922 Ry
     estimated scf accuracy    <       0.00000002 Ry

     iteration #  7     ecut=    80.00 Ry     beta= 0.70
     Davidson diagonalization with overlap
     ethr =  3.00E-10,  avg # of iterations =  2.0

     total cpu time spent up to now is        2.3 secs

     End of self-consistent calculation

          k = 0.0000 0.0000 0.0000 (  1917 PWs)   bands (ev):

   -36.3775  -2.3313  14.8732  14.8732  14.8732  18.4392  18.4392  18.4392

          k =-0.1731 0.1731-0.1731 (  1901 PWs)   bands (ev):

   -36.3698  -1.8498  11.3348  14.2509  14.2509  18.9377  19.3937  19.3938

          k =-0.3461 0.3461-0.3461 (  1898 PWs)   bands (ev):

   -36.3546  -0.4643   6.8823  13.8353  13.8353  16.7508  16.7508  18.5263

          k = 0.5192-0.5192 0.5192 (  1892 PWs)   bands (ev):

   -36.3470   0.9029   4.4315  14.0105  14.0105  15.4380  15.4380  18.2004

          k = 0.0000 0.3461 0.0000 (  1908 PWs)   bands (ev):

   -36.3674  -1.6801  12.3981  12.3981  13.9880  15.9673  17.4477  22.0730

          k =-0.1731 0.5192-0.1731 (  1890 PWs)   bands (ev):

   -36.3549  -0.5523   8.5331  11.4952  12.3184  15.8660  18.0183  20.9982

          k = 0.6923-0.3461 0.6923 (  1895 PWs)   bands (ev):

   -36.3449   1.1938   5.0312  10.6886  11.7155  15.8376  18.8277  21.0482

          k = 0.5192-0.1731 0.5192 (  1893 PWs)   bands (ev):

   -36.3473   0.6080   5.9629   9.9601  13.0600  16.7349  17.6749  21.2474

          k = 0.3461 0.0000 0.3461 (  1895 PWs)   bands (ev):

   -36.3598  -1.0462   9.7730  10.4703  15.1483  17.2827  18.4640  20.0556

          k = 0.0000 0.6923 0.0000 (  1876 PWs)   bands (ev):

   -36.3480   0.3340   8.8259  10.1577  10.1577  13.5820  16.5809  26.3553

          k = 0.8653-0.1731 0.8653 (  1886 PWs)   bands (ev):

   -36.3407   2.1181   5.9085   8.0841   9.9744  14.8739  17.9027  23.6699

          k = 0.6923 0.0000 0.6923 (  1896 PWs)   bands (ev):

   -36.3404   2.5359   5.0887   7.2081  10.9582  15.8729  21.2164  22.2117

          k = 0.0000-1.0384 0.0000 (  1868 PWs)   bands (ev):

   -36.3386   3.4787   4.2259   9.3879   9.3879  12.7542  16.8018  27.5144

          k = 0.6923-0.3461 1.0384 (  1880 PWs)   bands (ev):

   -36.3452   0.9046   7.4458   8.0055  10.9560  17.8736  17.8956  20.0005

          k = 0.5192-0.1731 0.8653 (  1876 PWs)   bands (ev):

   -36.3404   2.5354   5.0113   7.5655  10.2457  17.9419  19.1699  22.2646

          k =-0.3461-1.0384-0.0000 (  1892 PWs)   bands (ev):

   -36.3383   4.1014   4.2845   6.6491   9.4440  17.0906  18.3310  22.9217

     the Fermi energy is     9.8862 ev

!    total energy              =     -22.70323922 Ry
     estimated scf accuracy    <          1.1E-10 Ry
     smearing contrib. (-TS)   =      -0.00118548 Ry
     internal energy E=F+TS    =     -22.70205374 Ry

     The total energy is F=E-TS. E is the sum of the following terms:
     one-electron contribution =      -2.04233532 Ry
     hartree contribution      =       3.13746809 Ry
     xc contribution           =      -6.70043770 Ry
     ewald contribution        =     -17.09674881 Ry

     convergence has been achieved in   7 iterations

     Forces acting on atoms (cartesian axes, Ry/au):

     atom    1 type  1   force =     0.00000000   -0.00000000    0.00000000
     atom    2 type  2   force =     0.00000000    0.00000000    0.00000000
     The non-local contrib.  to forces
     atom    1 type  1   force =     0.00000000    0.00000000    0.00000000
     atom    2 type  2   force =     0.00000000   -0.00000000    0.00000000
     The ionic contribution  to forces
     atom    1 type  1   force =     0.00000000    0.00000000   -0.00000000
     atom    2 type  2   force =    -0.00000000    0.00000000    0.00000000
     The local contribution  to forces
     atom    1 type  1   force =    -0.00000000    0.00000000    0.00000000
     atom    2 type  2   force =     0.00000000   -0.00000000   -0.00000000
     The core correction contribution to forces
     atom    1 type  1   force =     0.00000000    0.00000000    0.00000000
     atom    2 type  2   force =     0.00000000   -0.00000000   -0.00000000
     The Hubbard contrib.    to forces
     atom    1 type  1   force =     0.00000000    0.00000000    0.00000000
     atom    2 type  2   force =     0.00000000    0.00000000    0.00000000
     The SCF correction term to forces
     atom    1 type  1   force =    -0.00000000   -0.00000000    0.00000000
     atom    2 type  2   force =    -0.00000000    0.00000000   -0.00000000

     Total force =     0.000000     Total SCF correction =     0.000000


     Computing stress (Cartesian axis) and pressure

          total   stress  (Ry/bohr**3)                   (kbar)     P=      454.82
   0.00309182   0.00000000   0.00000000          454.82        0.00        0.00
  -0.00000000   0.00309182  -0.00000000           -0.00      454.82       -0.00
   0.00000000   0.00000000   0.00309182            0.00        0.00      454.82

     Energy error            =      1.6E-02 Ry
     Gradient error          =      6.0E-32 Ry/Bohr
     Cell gradient error     =      4.5E+01 kbar

     number of scf cycles    =   2
     number of bfgs steps    =   1

     enthalpy           old  =     -22.2132584775 Ry
     enthalpy           new  =     -22.2288665437 Ry

     CASE: enthalpy          _new < enthalpy          _old

     new trust radius        =       0.0216401199 bohr
ibrav =      2
 celldm(1) =      8.15861566
Input lattice vectors:
    -0.47711130     0.00000000     0.47711130
    -0.00000000     0.47711130     0.47711130
    -0.47711130     0.47711130     0.00000000
New lattice vectors in INITIAL alat:
    -0.47711130     0.00000000     0.47711130
     0.00000000     0.47711130     0.47711130
    -0.47711130     0.47711130     0.00000000
New lattice vectors in NEW alat (for information only):
    -0.50000000     0.00000000     0.50000000
     0.00000000     0.50000000     0.50000000
    -0.50000000     0.50000000     0.00000000
Discrepancy in bohr =     0.000000    0.000000    0.000000
     new conv_thr            =            1.0E-10 Ry

     new unit-cell volume =    135.76550 a.u.^3 (    20.11837 Ang^3 )
     density =      2.89103 g/cm^3

CELL_PARAMETERS (alat=  8.55001309)
  -0.477111296   0.000000000   0.477111296
   0.000000000   0.477111296   0.477111296
  -0.477111296   0.477111296   0.000000000

ATOMIC_POSITIONS (crystal)
Li            0.0000000000        0.0000000000       -0.0000000000
Si            0.5000000000        0.5000000000       -0.5000000000



     Writing config-only to output data dir ./output/LiSi.save/
     NEW-OLD atomic charge density approx. for the potential
     extrapolated charge    6.80423, renormalised to    7.00000

     total cpu time spent up to now is        2.9 secs

     Self-consistent Calculation

     iteration #  1     ecut=    80.00 Ry     beta= 0.70
     Davidson diagonalization with overlap
     ethr =  1.00E-06,  avg # of iterations =  4.4

     total cpu time spent up to now is        3.0 secs

     total energy              =     -22.69024818 Ry
     estimated scf accuracy    <       0.00013858 Ry

     iteration #  2     ecut=    80.00 Ry     beta= 0.70
     Davidson diagonalization with overlap
     ethr =  1.98E-06,  avg # of iterations =  2.9

     total cpu time spent up to now is        3.1 secs

     total energy              =     -22.69085855 Ry
     estimated scf accuracy    <       0.00011030 Ry

     iteration #  3     ecut=    80.00 Ry     beta= 0.70
     Davidson diagonalization with overlap
     ethr =  1.58E-06,  avg # of iterations =  1.0

     total cpu time spent up to now is        3.2 secs

     total energy              =     -22.69083804 Ry
     estimated scf accuracy    <       0.00003481 Ry

     iteration #  4     ecut=    80.00 Ry     beta= 0.70
     Davidson diagonalization with overlap
     ethr =  4.97E-07,  avg # of iterations =  1.8

     total cpu time spent up to now is        3.3 secs

     total energy              =     -22.69084052 Ry
     estimated scf accuracy    <       0.00000086 Ry

     iteration #  5     ecut=    80.00 Ry     beta= 0.70
     Davidson diagonalization with overlap
     ethr =  1.23E-08,  avg # of iterations =  1.6

     total cpu time spent up to now is        3.3 secs

     total energy              =     -22.69084052 Ry
     estimated scf accuracy    <       0.00000010 Ry

     iteration #  6     ecut=    80.00 Ry     beta= 0.70
     Davidson diagonalization with overlap
     ethr =  1.41E-09,  avg # of iterations =  2.0

     total cpu time spent up to now is        3.4 secs

     total energy              =     -22.69084054 Ry
     estimated scf accuracy    <       0.00000001 Ry

     iteration #  7     ecut=    80.00 Ry     beta= 0.70
     Davidson diagonalization with overlap
     ethr =  1.70E-10,  avg # of iterations =  2.0

     total cpu time spent up to now is        3.5 secs

     total energy              =     -22.69084054 Ry
     estimated scf accuracy    <          1.0E-10 Ry

     iteration #  8     ecut=    80.00 Ry     beta= 0.70
     Davidson diagonalization with overlap
     ethr =  1.49E-12,  avg # of iterations =  2.2

     total cpu time spent up to now is        3.6 secs

     End of self-consistent calculation

          k = 0.0000 0.0000 0.0000 (  1917 PWs)   bands (ev):

   -36.0951  -2.1435  15.3728  15.3728  15.3728  18.8402  18.8402  18.8402

          k =-0.1747 0.1747-0.1747 (  1901 PWs)   bands (ev):

   -36.0866  -1.6568  11.7167  14.7118  14.7118  19.4265  19.8712  19.8712

          k =-0.3493 0.3493-0.3493 (  1898 PWs)   bands (ev):

   -36.0695  -0.2538   7.1776  14.2846  14.2846  17.1658  17.1658  19.0649

          k = 0.5240-0.5240 0.5240 (  1892 PWs)   bands (ev):

   -36.0610   1.1381   4.6802  14.4939  14.4939  15.7955  15.7955  18.7476

          k =-0.0000 0.3493-0.0000 (  1908 PWs)   bands (ev):

   -36.0839  -1.4852  12.8001  12.8001  14.5187  16.3152  17.8574  22.6105

          k =-0.1747 0.5240-0.1747 (  1890 PWs)   bands (ev):

   -36.0699  -0.3435   8.8577  11.8744  12.7614  16.2563  18.4732  21.5147

          k = 0.6986-0.3493 0.6986 (  1895 PWs)   bands (ev):

   -36.0586   1.4338   5.2856  11.0823  12.0983  16.2547  19.3066  21.6187

          k = 0.5240-0.1747 0.5240 (  1893 PWs)   bands (ev):

   -36.0614   0.8365   6.2311  10.3370  13.4750  17.1811  18.1357  21.8106

          k = 0.3493-0.0000 0.3493 (  1895 PWs)   bands (ev):

   -36.0753  -0.8435  10.0884  10.8748  15.6589  17.6996  18.9485  20.5593

          k =-0.0000 0.6986-0.0000 (  1876 PWs)   bands (ev):

   -36.0621   0.5527   9.2187  10.5086  10.5086  13.8832  17.0689  27.0071

          k = 0.8733-0.1747 0.8733 (  1886 PWs)   bands (ev):

   -36.0540   2.3637   6.2190   8.3983  10.3210  15.2491  18.4054  24.2416

          k = 0.6986-0.0000 0.6986 (  1896 PWs)   bands (ev):

   -36.0536   2.8139   5.3049   7.5562  11.3236  16.3076  21.7643  22.7511

          k = 0.0000-1.0480 0.0000 (  1868 PWs)   bands (ev):

   -36.0516   3.6639   4.6137   9.7233   9.7233  13.0395  17.3265  28.1157

          k = 0.6986-0.3493 1.0480 (  1880 PWs)   bands (ev):

   -36.0590   1.1358   7.7111   8.3731  11.3360  18.2918  18.3793  20.5283

          k = 0.5240-0.1747 0.8733 (  1876 PWs)   bands (ev):

   -36.0536   2.8112   5.2433   7.8925  10.6155  18.3951  19.6794  22.8023

          k =-0.3493-1.0480 0.0000 (  1892 PWs)   bands (ev):

   -36.0512   4.4751   4.4853   6.8988   9.8067  17.4927  18.8522  23.5127

     the Fermi energy is    10.2360 ev

!    total energy              =     -22.69084054 Ry
     estimated scf accuracy    <          8.7E-11 Ry
     smearing contrib. (-TS)   =      -0.00101363 Ry
     internal energy E=F+TS    =     -22.68982691 Ry

     The total energy is F=E-TS. E is the sum of the following terms:
     one-electron contribution =      -1.82761225 Ry
     hartree contribution      =       3.11763562 Ry
     xc contribution           =      -6.72506748 Ry
     ewald contribution        =     -17.25478280 Ry

     convergence has been achieved in   8 iterations

     Forces acting on atoms (cartesian axes, Ry/au):

     atom    1 type  1   force =     0.00000000    0.00000000    0.00000000
     atom    2 type  2   force =     0.00000000    0.00000000    0.00000000
     The non-local contrib.  to forces
     atom    1 type  1   force =     0.00000000   -0.00000000   -0.00000000
     atom    2 type  2   force =     0.00000000    0.00000000   -0.00000000
     The ionic contribution  to forces
     atom    1 type  1   force =     0.00000000   -0.00000000   -0.00000000
     atom    2 type  2   force =    -0.00000000   -0.00000000   -0.00000000
     The local contribution  to forces
     atom    1 type  1   force =    -0.00000000    0.00000000    0.00000000
     atom    2 type  2   force =     0.00000000   -0.00000000   -0.00000000
     The core correction contribution to forces
     atom    1 type  1   force =     0.00000000    0.00000000    0.00000000
     atom    2 type  2   force =     0.00000000    0.00000000    0.00000000
     The Hubbard contrib.    to forces
     atom    1 type  1   force =     0.00000000    0.00000000    0.00000000
     atom    2 type  2   force =     0.00000000    0.00000000    0.00000000
     The SCF correction term to forces
     atom    1 type  1   force =     0.00000000   -0.00000000   -0.00000000
     atom    2 type  2   force =    -0.00000000    0.00000000   -0.00000000

     Total force =     0.000000     Total SCF correction =     0.000000


     Computing stress (Cartesian axis) and pressure

          total   stress  (Ry/bohr**3)                   (kbar)     P=      506.10
   0.00344040  -0.00000000  -0.00000000          506.10       -0.00       -0.00
  -0.00000000   0.00344040  -0.00000000           -0.00      506.10       -0.00
  -0.00000000  -0.00000000   0.00344040           -0.00       -0.00      506.10

     Energy error            =      5.2E-04 Ry
     Gradient error          =      4.3E-33 Ry/Bohr
     Cell gradient error     =      6.1E+00 kbar

     number of scf cycles    =   3
     number of bfgs steps    =   2

     enthalpy           old  =     -22.2288665437 Ry
     enthalpy           new  =     -22.2293829773 Ry

     CASE: enthalpy          _new < enthalpy          _old

     new trust radius        =       0.0025215149 bohr
ibrav =      2
 celldm(1) =      8.16744347
Input lattice vectors:
    -0.47762754     0.00000000     0.47762754
    -0.00000000     0.47762754     0.47762754
    -0.47762754     0.47762754    -0.00000000
New lattice vectors in INITIAL alat:
    -0.47762754     0.00000000     0.47762754
     0.00000000     0.47762754     0.47762754
    -0.47762754     0.47762754     0.00000000
New lattice vectors in NEW alat (for information only):
    -0.50000000     0.00000000     0.50000000
     0.00000000     0.50000000     0.50000000
    -0.50000000     0.50000000     0.00000000
Discrepancy in bohr =     0.000000    0.000000    0.000000
     new conv_thr            =            1.0E-10 Ry

     new unit-cell volume =    136.20668 a.u.^3 (    20.18375 Ang^3 )
     density =      2.88167 g/cm^3

CELL_PARAMETERS (alat=  8.55001309)
  -0.477627542   0.000000000   0.477627542
   0.000000000   0.477627542   0.477627542
  -0.477627542   0.477627542   0.000000000

ATOMIC_POSITIONS (crystal)
Li            0.0000000000        0.0000000000       -0.0000000000
Si            0.5000000000        0.5000000000       -0.5000000000



     Writing config-only to output data dir ./output/LiSi.save/
     NEW-OLD atomic charge density approx. for the potential
     extrapolated charge    7.02266, renormalised to    7.00000

     total cpu time spent up to now is        4.1 secs

     Self-consistent Calculation

     iteration #  1     ecut=    80.00 Ry     beta= 0.70
     Davidson diagonalization with overlap
     ethr =  1.00E-06,  avg # of iterations =  2.0

     Threshold (ethr) on eigenvalues was too large:
     Diagonalizing with lowered threshold

     Davidson diagonalization with overlap
     ethr =  2.36E-08,  avg # of iterations =  2.0

     total cpu time spent up to now is        4.3 secs

     total energy              =     -22.69234115 Ry
     estimated scf accuracy    <       0.00000169 Ry

     iteration #  2     ecut=    80.00 Ry     beta= 0.70
     Davidson diagonalization with overlap
     ethr =  2.41E-08,  avg # of iterations =  2.6

     total cpu time spent up to now is        4.3 secs

     total energy              =     -22.69234927 Ry
     estimated scf accuracy    <       0.00000148 Ry

     iteration #  3     ecut=    80.00 Ry     beta= 0.70
     Davidson diagonalization with overlap
     ethr =  2.12E-08,  avg # of iterations =  1.0

     total cpu time spent up to now is        4.4 secs

     total energy              =     -22.69234899 Ry
     estimated scf accuracy    <       0.00000049 Ry

     iteration #  4     ecut=    80.00 Ry     beta= 0.70
     Davidson diagonalization with overlap
     ethr =  6.98E-09,  avg # of iterations =  1.6

     total cpu time spent up to now is        4.5 secs

     total energy              =     -22.69234902 Ry
     estimated scf accuracy    <       0.00000002 Ry

     iteration #  5     ecut=    80.00 Ry     beta= 0.70
     Davidson diagonalization with overlap
     ethr =  3.18E-10,  avg # of iterations =  1.1

     total cpu time spent up to now is        4.6 secs

     total energy              =     -22.69234901 Ry
     estimated scf accuracy    <          3.2E-09 Ry

     iteration #  6     ecut=    80.00 Ry     beta= 0.70
     Davidson diagonalization with overlap
     ethr =  4.63E-11,  avg # of iterations =  2.0

     total cpu time spent up to now is        4.7 secs

     total energy              =     -22.69234902 Ry
     estimated scf accuracy    <          2.8E-10 Ry

     iteration #  7     ecut=    80.00 Ry     beta= 0.70
     Davidson diagonalization with overlap
     ethr =  3.93E-12,  avg # of iterations =  1.9

     total cpu time spent up to now is        4.7 secs

     End of self-consistent calculation

          k = 0.0000 0.0000 0.0000 (  1917 PWs)   bands (ev):

   -36.1285  -2.1659  15.3135  15.3135  15.3135  18.7927  18.7927  18.7927

          k =-0.1745 0.1745-0.1745 (  1901 PWs)   bands (ev):

   -36.1201  -1.6798  11.6714  14.6572  14.6572  19.3685  19.8144  19.8144

          k =-0.3489 0.3489-0.3489 (  1898 PWs)   bands (ev):

   -36.1033  -0.2788   7.1426  14.2314  14.2314  17.1165  17.1165  19.0010

          k = 0.5234-0.5234 0.5234 (  1892 PWs)   bands (ev):

   -36.0948   1.1102   4.6505  14.4365  14.4365  15.7531  15.7531  18.6826

          k =-0.0000 0.3489-0.0000 (  1908 PWs)   bands (ev):

   -36.1174  -1.5085  12.7524  12.7524  14.4557  16.2740  17.8088  22.5467

          k =-0.1745 0.5234-0.1745 (  1890 PWs)   bands (ev):

   -36.1036  -0.3683   8.8192  11.8294  12.7088  16.2099  18.4191  21.4534

          k = 0.6979-0.3489 0.6979 (  1895 PWs)   bands (ev):

   -36.0925   1.4054   5.2554  11.0355  12.0529  16.2051  19.2497  21.5510

          k = 0.5234-0.1745 0.5234 (  1893 PWs)   bands (ev):

   -36.0952   0.8094   6.1992  10.2922  13.4258  17.1281  18.0809  21.7438

          k = 0.3489-0.0000 0.3489 (  1895 PWs)   bands (ev):

   -36.1090  -0.8676  10.0510  10.8268  15.5984  17.6500  18.8909  20.4996

          k =-0.0000 0.6979-0.0000 (  1876 PWs)   bands (ev):

   -36.0959   0.5268   9.1720  10.4669  10.4669  13.8475  17.0109  26.9297

          k = 0.8724-0.1745 0.8724 (  1886 PWs)   bands (ev):

   -36.0879   2.3347   6.1821   8.3609  10.2798  15.2046  18.3456  24.1738

          k = 0.6979-0.0000 0.6979 (  1896 PWs)   bands (ev):

   -36.0875   2.7810   5.2793   7.5147  11.2802  16.2559  21.6992  22.6871

          k = 0.0000-1.0468 0.0000 (  1868 PWs)   bands (ev):

   -36.0856   3.6419   4.5676   9.6835   9.6835  13.0056  17.2641  28.0443

          k = 0.6979-0.3489 1.0468 (  1880 PWs)   bands (ev):

   -36.0929   1.1084   7.6797   8.3294  11.2908  18.2422  18.3219  20.4656

          k = 0.5234-0.1745 0.8724 (  1876 PWs)   bands (ev):

   -36.0875   2.7786   5.2157   7.8535  10.5715  18.3413  19.6190  22.7385

          k =-0.3489-1.0468 0.0000 (  1892 PWs)   bands (ev):

   -36.0852   4.4308   4.4614   6.8691   9.7636  17.4450  18.7903  23.4426

     the Fermi energy is    10.1945 ev

!    total energy              =     -22.69234902 Ry
     estimated scf accuracy    <          8.4E-13 Ry
     smearing contrib. (-TS)   =      -0.00103572 Ry
     internal energy E=F+TS    =     -22.69131330 Ry

     The total energy is F=E-TS. E is the sum of the following terms:
     one-electron contribution =      -1.85298667 Ry
     hartree contribution      =       3.11995293 Ry
     xc contribution           =      -6.72214666 Ry
     ewald contribution        =     -17.23613290 Ry

     convergence has been achieved in   7 iterations

     Forces acting on atoms (cartesian axes, Ry/au):

     atom    1 type  1   force =     0.00000000    0.00000000   -0.00000000
     atom    2 type  2   force =    -0.00000000   -0.00000000    0.00000000
     The non-local contrib.  to forces
     atom    1 type  1   force =     0.00000000    0.00000000    0.00000000
     atom    2 type  2   force =    -0.00000000   -0.00000000    0.00000000
     The ionic contribution  to forces
     atom    1 type  1   force =     0.00000000    0.00000000   -0.00000000
     atom    2 type  2   force =    -0.00000000   -0.00000000   -0.00000000
     The local contribution  to forces
     atom    1 type  1   force =    -0.00000000    0.00000000    0.00000000
     atom    2 type  2   force =     0.00000000   -0.00000000    0.00000000
     The core correction contribution to forces
     atom    1 type  1   force =     0.00000000    0.00000000    0.00000000
     atom    2 type  2   force =     0.00000000    0.00000000    0.00000000
     The Hubbard contrib.    to forces
     atom    1 type  1   force =     0.00000000    0.00000000    0.00000000
     atom    2 type  2   force =     0.00000000    0.00000000    0.00000000
     The SCF correction term to forces
     atom    1 type  1   force =     0.00000000    0.00000000    0.00000000
     atom    2 type  2   force =    -0.00000000   -0.00000000    0.00000000

     Total force =     0.000000     Total SCF correction =     0.000000


     Computing stress (Cartesian axis) and pressure

          total   stress  (Ry/bohr**3)                   (kbar)     P=      499.86
   0.00339799   0.00000000   0.00000000          499.86        0.00        0.00
   0.00000000   0.00339799  -0.00000000            0.00      499.86       -0.00
   0.00000000  -0.00000000   0.00339799            0.00       -0.00      499.86

     Energy error            =      8.9E-06 Ry
     Gradient error          =      3.4E-32 Ry/Bohr
     Cell gradient error     =      1.4E-01 kbar
ibrav =      2
 celldm(1) =      8.16744347
Input lattice vectors:
    -0.47762754     0.00000000     0.47762754
     0.00000000     0.47762754     0.47762754
    -0.47762754     0.47762754     0.00000000
New lattice vectors in INITIAL alat:
    -0.47762754     0.00000000     0.47762754
     0.00000000     0.47762754     0.47762754
    -0.47762754     0.47762754     0.00000000
New lattice vectors in NEW alat (for information only):
    -0.50000000     0.00000000     0.50000000
     0.00000000     0.50000000     0.50000000
    -0.50000000     0.50000000     0.00000000
Discrepancy in bohr =     0.000000    0.000000    0.000000

     bfgs converged in   4 scf cycles and   3 bfgs steps
     (criteria: energy <  1.0E-04 Ry, force <  1.0E-03 Ry/Bohr, cell <  1.0E+00 kbar)

     End of BFGS Geometry Optimization

     Final enthalpy           =     -22.2293919046 Ry

     File ./output/LiSi.bfgs deleted, as requested
Begin final coordinates
     new unit-cell volume =    136.20668 a.u.^3 (    20.18375 Ang^3 )
     density =      2.88167 g/cm^3

CELL_PARAMETERS (alat=  8.55001309)
  -0.477627542   0.000000000   0.477627542
   0.000000000   0.477627542   0.477627542
  -0.477627542   0.477627542   0.000000000

ATOMIC_POSITIONS (crystal)
Li            0.0000000000        0.0000000000       -0.0000000000
Si            0.5000000000        0.5000000000       -0.5000000000
End final coordinates



     Writing config-only to output data dir ./output/LiSi.save/

     Final scf calculation at the relaxed structure.
     The G-vectors are recalculated for the final unit cell
     Results may differ from those at the preceding step.

     Parallelization info
     --------------------
     sticks:   dense  smooth     PW     G-vecs:    dense   smooth      PW
     Min          93      93     27                 1665     1665     278
     Max          94      94     28                 1668     1668     280
     Sum         745     745    223                13323    13323    2229

     Using Slab Decomposition



     bravais-lattice index     =            2
     lattice parameter (alat)  =       8.5500  a.u.
     unit-cell volume          =     136.2067 (a.u.)^3
     number of atoms/cell      =            2
     number of atomic types    =            2
     number of electrons       =         7.00
     number of Kohn-Sham states=            8
     kinetic-energy cutoff     =      80.0000  Ry
     charge density cutoff     =     320.0000  Ry
     scf convergence threshold =      1.0E-10
     mixing beta               =       0.7000
     number of iterations used =            8  plain     mixing
     press convergence thresh. =      1.0E+00
     Exchange-correlation= PBE
                           (   1   4   3   4   0   0   0)

     celldm(1)=   8.550013  celldm(2)=   0.000000  celldm(3)=   0.000000
     celldm(4)=   0.000000  celldm(5)=   0.000000  celldm(6)=   0.000000

     crystal axes: (cart. coord. in units of alat)
               a(1) = (  -0.477628   0.000000   0.477628 )  
               a(2) = (   0.000000   0.477628   0.477628 )  
               a(3) = (  -0.477628   0.477628   0.000000 )  

     reciprocal axes: (cart. coord. in units 2 pi/alat)
               b(1) = ( -1.046841 -1.046841  1.046841 )  
               b(2) = (  1.046841  1.046841  1.046841 )  
               b(3) = ( -1.046841  1.046841 -1.046841 )  


     PseudoPot. # 1 for Li read from file:
     ../pseudo/Li_ONCV_PBE_sr.upf
     MD5 check sum: 50ff420e78310ffa21704f3361e624a4
     Pseudo is Norm-conserving, Zval =  3.0
     Generated using ONCVPSP code by D. R. Hamann
     Using radial grid of 1944 points,  4 beta functions with: 
                l(1) =   0
                l(2) =   0
                l(3) =   1
                l(4) =   1

     PseudoPot. # 2 for Si read from file:
     ../pseudo/Si_ONCV_PBE_sr.upf
     MD5 check sum: e543d271109d17c80368dfa7c482276d
     Pseudo is Norm-conserving + core correction, Zval =  4.0
     Generated using ONCVPSP code by D. R. Hamann
     Using radial grid of 1510 points,  6 beta functions with: 
                l(1) =   0
                l(2) =   0
                l(3) =   1
                l(4) =   1
                l(5) =   2
                l(6) =   2

     atomic species   valence    mass     pseudopotential
        Li             3.00     6.94100     Li( 1.00)
        Si             4.00    28.08550     Si( 1.00)

     48 Sym. Ops., with inversion, found



   Cartesian axes

     site n.     atom                  positions (alat units)
         1           Li  tau(   1) = (   0.0000000  -0.0000000   0.0000000  )
         2           Si  tau(   2) = (   0.0000000   0.0000000   0.4776275  )

     number of k points=    16  Marzari-Vanderbilt smearing, width (Ry)=  0.0200
                       cart. coord. in units 2pi/alat
        k(    1) = (   0.0000000   0.0000000   0.0000000), wk =   0.0092593
        k(    2) = (  -0.1744735   0.1744735  -0.1744735), wk =   0.0740741
        k(    3) = (  -0.3489469   0.3489469  -0.3489469), wk =   0.0740741
        k(    4) = (   0.5234204  -0.5234204   0.5234204), wk =   0.0370370
        k(    5) = (  -0.0000000   0.3489469  -0.0000000), wk =   0.0555556
        k(    6) = (  -0.1744735   0.5234204  -0.1744735), wk =   0.2222222
        k(    7) = (   0.6978939  -0.3489469   0.6978939), wk =   0.2222222
        k(    8) = (   0.5234204  -0.1744735   0.5234204), wk =   0.2222222
        k(    9) = (   0.3489469  -0.0000000   0.3489469), wk =   0.1111111
        k(   10) = (  -0.0000000   0.6978939  -0.0000000), wk =   0.0555556
        k(   11) = (   0.8723673  -0.1744735   0.8723673), wk =   0.2222222
        k(   12) = (   0.6978939  -0.0000000   0.6978939), wk =   0.1111111
        k(   13) = (   0.0000000  -1.0468408   0.0000000), wk =   0.0277778
        k(   14) = (   0.6978939  -0.3489469   1.0468408), wk =   0.2222222
        k(   15) = (   0.5234204  -0.1744735   0.8723673), wk =   0.2222222
        k(   16) = (  -0.3489469  -1.0468408   0.0000000), wk =   0.1111111

     Dense  grid:    13323 G-vectors     FFT dimensions: (  36,  36,  36)

     Estimated max dynamical RAM per process >      13.33 MB

     Estimated total dynamical RAM >     106.63 MB

     Initial potential from superposition of free atoms

     starting charge       6.9948, renormalised to       7.0000
     Starting wfcs are    6 randomized atomic wfcs +    2 random wfcs

     total cpu time spent up to now is        5.2 secs

     Self-consistent Calculation

     iteration #  1     ecut=    80.00 Ry     beta= 0.70
     Davidson diagonalization with overlap
     c_bands:  1 eigenvalues not converged
     c_bands:  1 eigenvalues not converged
     ethr =  1.00E-06,  avg # of iterations = 15.8

     total cpu time spent up to now is        5.5 secs

     total energy              =     -22.69221118 Ry
     estimated scf accuracy    <       0.00355979 Ry

     iteration #  2     ecut=    80.00 Ry     beta= 0.70
     Davidson diagonalization with overlap
     ethr =  5.09E-05,  avg # of iterations =  1.0

     total cpu time spent up to now is        5.6 secs

     total energy              =     -22.69232497 Ry
     estimated scf accuracy    <       0.00015912 Ry

     iteration #  3     ecut=    80.00 Ry     beta= 0.70
     Davidson diagonalization with overlap
     ethr =  2.27E-06,  avg # of iterations =  2.3

     total cpu time spent up to now is        5.6 secs

     total energy              =     -22.69234349 Ry
     estimated scf accuracy    <       0.00000354 Ry

     iteration #  4     ecut=    80.00 Ry     beta= 0.70
     Davidson diagonalization with overlap
     ethr =  5.05E-08,  avg # of iterations =  1.5

     total cpu time spent up to now is        5.7 secs

     total energy              =     -22.69234366 Ry
     estimated scf accuracy    <       0.00000010 Ry

     iteration #  5     ecut=    80.00 Ry     beta= 0.70
     Davidson diagonalization with overlap
     ethr =  1.45E-09,  avg # of iterations =  2.1

     total cpu time spent up to now is        5.8 secs

     total energy              =     -22.69234368 Ry
     estimated scf accuracy    <          1.2E-09 Ry

     iteration #  6     ecut=    80.00 Ry     beta= 0.70
     Davidson diagonalization with overlap
     ethr =  1.68E-11,  avg # of iterations =  3.0

     total cpu time spent up to now is        5.9 secs

     End of self-consistent calculation

          k = 0.0000 0.0000 0.0000 (  1639 PWs)   bands (ev):

   -36.1285  -2.1659  15.3135  15.3135  15.3135  18.7927  18.7927  18.7927

          k =-0.1745 0.1745-0.1745 (  1642 PWs)   bands (ev):

   -36.1201  -1.6798  11.6714  14.6572  14.6572  19.3685  19.8144  19.8145

          k =-0.3489 0.3489-0.3489 (  1634 PWs)   bands (ev):

   -36.1032  -0.2788   7.1426  14.2314  14.2314  17.1165  17.1165  19.0010

          k = 0.5234-0.5234 0.5234 (  1676 PWs)   bands (ev):

   -36.0948   1.1102   4.6505  14.4365  14.4365  15.7531  15.7531  18.6827

          k =-0.0000 0.3489-0.0000 (  1647 PWs)   bands (ev):

   -36.1174  -1.5085  12.7524  12.7524  14.4557  16.2740  17.8088  22.5468

          k =-0.1745 0.5234-0.1745 (  1651 PWs)   bands (ev):

   -36.1036  -0.3683   8.8192  11.8294  12.7088  16.2099  18.4191  21.4534

          k = 0.6979-0.3489 0.6979 (  1641 PWs)   bands (ev):

   -36.0925   1.4054   5.2554  11.0355  12.0529  16.2051  19.2497  21.5510

          k = 0.5234-0.1745 0.5234 (  1636 PWs)   bands (ev):

   -36.0952   0.8094   6.1992  10.2922  13.4258  17.1281  18.0809  21.7438

          k = 0.3489-0.0000 0.3489 (  1636 PWs)   bands (ev):

   -36.1090  -0.8676  10.0510  10.8268  15.5984  17.6500  18.8909  20.4996

          k =-0.0000 0.6979-0.0000 (  1644 PWs)   bands (ev):

   -36.0959   0.5268   9.1720  10.4669  10.4669  13.8474  17.0109  26.4058

          k = 0.8724-0.1745 0.8724 (  1646 PWs)   bands (ev):

   -36.0879   2.3347   6.1821   8.3609  10.2798  15.2046  18.3456  24.1738

          k = 0.6979-0.0000 0.6979 (  1652 PWs)   bands (ev):

   -36.0875   2.7810   5.2793   7.5147  11.2802  16.2559  21.6992  22.6871

          k = 0.0000-1.0468 0.0000 (  1660 PWs)   bands (ev):

   -36.0856   3.6419   4.5676   9.6835   9.6835  13.0056  17.2641  28.0444

          k = 0.6979-0.3489 1.0468 (  1646 PWs)   bands (ev):

   -36.0929   1.1084   7.6797   8.3295  11.2908  18.2422  18.3219  20.4656

          k = 0.5234-0.1745 0.8724 (  1652 PWs)   bands (ev):

   -36.0875   2.7786   5.2157   7.8535  10.5715  18.3413  19.6190  22.7385

          k =-0.3489-1.0468 0.0000 (  1646 PWs)   bands (ev):

   -36.0852   4.4308   4.4614   6.8691   9.7636  17.4450  18.7902  23.4426

     the Fermi energy is    10.1945 ev

!    total energy              =     -22.69234368 Ry
     estimated scf accuracy    <          6.0E-12 Ry
     smearing contrib. (-TS)   =      -0.00103573 Ry
     internal energy E=F+TS    =     -22.69130796 Ry

     The total energy is F=E-TS. E is the sum of the following terms:
     one-electron contribution =      -1.85298431 Ry
     hartree contribution      =       3.11995230 Ry
     xc contribution           =      -6.72214306 Ry
     ewald contribution        =     -17.23613290 Ry

     convergence has been achieved in   6 iterations

     Forces acting on atoms (cartesian axes, Ry/au):

     atom    1 type  1   force =     0.00000000    0.00000000    0.00000000
     atom    2 type  2   force =    -0.00000000    0.00000000    0.00000000
     The non-local contrib.  to forces
     atom    1 type  1   force =     0.00000000    0.00000000   -0.00000000
     atom    2 type  2   force =    -0.00000000   -0.00000000   -0.00000000
     The ionic contribution  to forces
     atom    1 type  1   force =    -0.00000000    0.00000000   -0.00000000
     atom    2 type  2   force =     0.00000000   -0.00000000   -0.00000000
     The local contribution  to forces
     atom    1 type  1   force =    -0.00000000    0.00000000    0.00000000
     atom    2 type  2   force =    -0.00000000    0.00000000    0.00000000
     The core correction contribution to forces
     atom    1 type  1   force =     0.00000000    0.00000000    0.00000000
     atom    2 type  2   force =    -0.00000000    0.00000000    0.00000000
     The Hubbard contrib.    to forces
     atom    1 type  1   force =     0.00000000    0.00000000    0.00000000
     atom    2 type  2   force =     0.00000000    0.00000000    0.00000000
     The SCF correction term to forces
     atom    1 type  1   force =     0.00000000   -0.00000000   -0.00000000
     atom    2 type  2   force =     0.00000000   -0.00000000    0.00000000

     Total force =     0.000000     Total SCF correction =     0.000000


     Computing stress (Cartesian axis) and pressure

          total   stress  (Ry/bohr**3)                   (kbar)     P=      499.83
   0.00339777   0.00000000  -0.00000000          499.83        0.00       -0.00
   0.00000000   0.00339777   0.00000000            0.00      499.83        0.00
  -0.00000000   0.00000000   0.00339777           -0.00        0.00      499.83


     Writing all to output data dir ./output/LiSi.save/

     init_run     :      0.50s CPU      0.53s WALL (       2 calls)
     electrons    :      2.67s CPU      3.27s WALL (       5 calls)
     update_pot   :      0.48s CPU      0.49s WALL (       3 calls)
     forces       :      0.41s CPU      0.42s WALL (       5 calls)
     stress       :      1.09s CPU      1.14s WALL (       5 calls)

     Called by init_run:
     wfcinit      :      0.04s CPU      0.05s WALL (       2 calls)
     potinit      :      0.14s CPU      0.14s WALL (       2 calls)
     hinit0       :      0.31s CPU      0.33s WALL (       2 calls)

     Called by electrons:
     c_bands      :      2.19s CPU      2.72s WALL (      35 calls)
     sum_band     :      0.34s CPU      0.36s WALL (      35 calls)
     v_of_rho     :      0.13s CPU      0.14s WALL (      38 calls)
     mix_rho      :      0.01s CPU      0.01s WALL (      35 calls)

     Called by c_bands:
     init_us_2    :      0.07s CPU      0.08s WALL (    1312 calls)
     init_us_2:cp :      0.07s CPU      0.08s WALL (    1312 calls)
     cegterg      :      2.04s CPU      2.17s WALL (     560 calls)

     Called by *egterg:
     cdiaghg      :      0.17s CPU      0.18s WALL (    1996 calls)
     h_psi        :      1.72s CPU      1.84s WALL (    2108 calls)
     g_psi        :      0.01s CPU      0.01s WALL (    1516 calls)

     Called by h_psi:
     h_psi:calbec :      0.08s CPU      0.09s WALL (    2108 calls)
     vloc_psi     :      1.58s CPU      1.70s WALL (    2108 calls)
     add_vuspsi   :      0.04s CPU      0.05s WALL (    2108 calls)

     General routines
     calbec       :      0.11s CPU      0.12s WALL (    2508 calls)
     fft          :      0.26s CPU      0.27s WALL (     505 calls)
     ffts         :      0.00s CPU      0.00s WALL (      35 calls)
     fftw         :      1.64s CPU      1.75s WALL (   29258 calls)

     Parallel routines

     PWSCF        :      5.37s CPU      6.30s WALL


   This run was terminated on:  22: 5:42  11Feb2025            

=------------------------------------------------------------------------------=
   JOB DONE.
=------------------------------------------------------------------------------=
