
     Program PWSCF v.7.2 starts on 11Feb2025 at 22:29:48 

     This program is part of the open-source Quantum ESPRESSO suite
     for quantum simulation of materials; please cite
         "P. Giannozzi et al., J. Phys.:Condens. Matter 21 395502 (2009);
         "P. Giannozzi et al., J. Phys.:Condens. Matter 29 465901 (2017);
         "P. Giannozzi et al., J. Chem. Phys. 152 154105 (2020);
          URL http://www.quantum-espresso.org", 
     in publications or presentations arising from this work. More details at
     http://www.quantum-espresso.org/quote

     Parallel version (MPI & OpenMP), running on       8 processor cores
     Number of MPI processes:                 8
     Threads/MPI process:                     1

     MPI processes distributed on     1 nodes
     481054 MiB available memory on the printing compute node when the environment starts

     Waiting for input...
     Reading input from standard input

     Current dimensions of program PWSCF are:
     Max number of different atomic species (ntypx) = 10
     Max number of k-points (npk) =  40000
     Max angular momentum in pseudopotentials (lmaxx) =  4

     R & G space division:  proc/nbgrp/npool/nimage =       8
     Subspace diagonalization in iterative solution of the eigenvalue problem:
     a serial algorithm will be used


     Parallelization info
     --------------------
     sticks:   dense  smooth     PW     G-vecs:    dense   smooth      PW
     Min          54      54     15                 1394     1394     231
     Max          55      55     16                 1401     1401     240
     Sum         433     433    127                11175    11175    1875

     Using Slab Decomposition



     bravais-lattice index     =            4
     lattice parameter (alat)  =       4.4574  a.u.
     unit-cell volume          =     115.7573 (a.u.)^3
     number of atoms/cell      =            2
     number of atomic types    =            2
     number of electrons       =         7.00
     number of Kohn-Sham states=            8
     kinetic-energy cutoff     =      80.0000  Ry
     charge density cutoff     =     320.0000  Ry
     scf convergence threshold =      1.0E-08
     mixing beta               =       0.7000
     number of iterations used =            8  plain     mixing
     energy convergence thresh.=      1.0E-04
     force convergence thresh. =      1.0E-03
     press convergence thresh. =      1.0E+00
     Exchange-correlation= PBE
                           (   1   4   3   4   0   0   0)
     nstep                     =           50


     celldm(1)=   4.457447  celldm(2)=   0.000000  celldm(3)=   1.509243
     celldm(4)=   0.000000  celldm(5)=   0.000000  celldm(6)=   0.000000

     crystal axes: (cart. coord. in units of alat)
               a(1) = (   1.000000   0.000000   0.000000 )  
               a(2) = (  -0.500000   0.866025   0.000000 )  
               a(3) = (   0.000000   0.000000   1.509243 )  

     reciprocal axes: (cart. coord. in units 2 pi/alat)
               b(1) = (  1.000000  0.577350 -0.000000 )  
               b(2) = (  0.000000  1.154701  0.000000 )  
               b(3) = (  0.000000 -0.000000  0.662584 )  


     PseudoPot. # 1 for Li read from file:
     ../pseudo/Li_ONCV_PBE_sr.upf
     MD5 check sum: 50ff420e78310ffa21704f3361e624a4
     Pseudo is Norm-conserving, Zval =  3.0
     Generated using ONCVPSP code by D. R. Hamann
     Using radial grid of 1944 points,  4 beta functions with: 
                l(1) =   0
                l(2) =   0
                l(3) =   1
                l(4) =   1

     PseudoPot. # 2 for Si read from file:
     ../pseudo/Si_ONCV_PBE_sr.upf
     MD5 check sum: e543d271109d17c80368dfa7c482276d
     Pseudo is Norm-conserving + core correction, Zval =  4.0
     Generated using ONCVPSP code by D. R. Hamann
     Using radial grid of 1510 points,  6 beta functions with: 
                l(1) =   0
                l(2) =   0
                l(3) =   1
                l(4) =   1
                l(5) =   2
                l(6) =   2

     atomic species   valence    mass     pseudopotential
        Li             3.00     6.94100     Li( 1.00)
        Si             4.00    28.08550     Si( 1.00)

     12 Sym. Ops. (no inversion) found



   Cartesian axes

     site n.     atom                  positions (alat units)
         1           Li  tau(   1) = (  -0.0000000   0.5773503   0.7546217  )
         2           Si  tau(   2) = (   0.0000000   0.0000000   0.0000000  )

     number of k points=    56  Marzari-Vanderbilt smearing, width (Ry)=  0.0200
                       cart. coord. in units 2pi/alat
        k(    1) = (   0.0000000   0.0000000   0.0000000), wk =   0.0028571
        k(    2) = (   0.0000000   0.0000000   0.0946548), wk =   0.0057143
        k(    3) = (   0.0000000   0.0000000   0.1893096), wk =   0.0057143
        k(    4) = (   0.0000000   0.0000000   0.2839644), wk =   0.0057143
        k(    5) = (   0.0000000   0.1154701   0.0000000), wk =   0.0171429
        k(    6) = (   0.0000000   0.1154701   0.0946548), wk =   0.0342857
        k(    7) = (   0.0000000   0.1154701   0.1893096), wk =   0.0342857
        k(    8) = (   0.0000000   0.1154701   0.2839644), wk =   0.0342857
        k(    9) = (   0.0000000   0.2309401   0.0000000), wk =   0.0171429
        k(   10) = (   0.0000000   0.2309401   0.0946548), wk =   0.0342857
        k(   11) = (   0.0000000   0.2309401   0.1893096), wk =   0.0342857
        k(   12) = (   0.0000000   0.2309401   0.2839644), wk =   0.0342857
        k(   13) = (   0.0000000   0.3464102   0.0000000), wk =   0.0171429
        k(   14) = (   0.0000000   0.3464102   0.0946548), wk =   0.0342857
        k(   15) = (   0.0000000   0.3464102   0.1893096), wk =   0.0342857
        k(   16) = (   0.0000000   0.3464102   0.2839644), wk =   0.0342857
        k(   17) = (   0.0000000   0.4618802   0.0000000), wk =   0.0171429
        k(   18) = (   0.0000000   0.4618802   0.0946548), wk =   0.0342857
        k(   19) = (   0.0000000   0.4618802   0.1893096), wk =   0.0342857
        k(   20) = (   0.0000000   0.4618802   0.2839644), wk =   0.0342857
        k(   21) = (   0.0000000  -0.5773503   0.0000000), wk =   0.0085714
        k(   22) = (   0.0000000  -0.5773503   0.0946548), wk =   0.0171429
        k(   23) = (   0.0000000  -0.5773503   0.1893096), wk =   0.0171429
        k(   24) = (   0.0000000  -0.5773503   0.2839644), wk =   0.0171429
        k(   25) = (   0.1000000   0.1732051   0.0000000), wk =   0.0171429
        k(   26) = (   0.1000000   0.1732051   0.0946548), wk =   0.0342857
        k(   27) = (   0.1000000   0.1732051   0.1893096), wk =   0.0342857
        k(   28) = (   0.1000000   0.1732051   0.2839644), wk =   0.0342857
        k(   29) = (   0.1000000   0.2886751   0.0000000), wk =   0.0342857
        k(   30) = (   0.1000000   0.2886751   0.0946548), wk =   0.0685714
        k(   31) = (   0.1000000   0.2886751   0.1893096), wk =   0.0685714
        k(   32) = (   0.1000000   0.2886751   0.2839644), wk =   0.0685714
        k(   33) = (   0.1000000   0.4041452   0.0000000), wk =   0.0342857
        k(   34) = (   0.1000000   0.4041452   0.0946548), wk =   0.0685714
        k(   35) = (   0.1000000   0.4041452   0.1893096), wk =   0.0685714
        k(   36) = (   0.1000000   0.4041452   0.2839644), wk =   0.0685714
        k(   37) = (   0.1000000   0.5196152   0.0000000), wk =   0.0342857
        k(   38) = (   0.1000000   0.5196152   0.0946548), wk =   0.0685714
        k(   39) = (   0.1000000   0.5196152   0.1893096), wk =   0.0685714
        k(   40) = (   0.1000000   0.5196152   0.2839644), wk =   0.0685714
        k(   41) = (   0.2000000   0.3464102   0.0000000), wk =   0.0171429
        k(   42) = (   0.2000000   0.3464102   0.0946548), wk =   0.0342857
        k(   43) = (   0.2000000   0.3464102   0.1893096), wk =   0.0342857
        k(   44) = (   0.2000000   0.3464102   0.2839644), wk =   0.0342857
        k(   45) = (   0.2000000   0.4618802   0.0000000), wk =   0.0342857
        k(   46) = (   0.2000000   0.4618802   0.0946548), wk =   0.0685714
        k(   47) = (   0.2000000   0.4618802   0.1893096), wk =   0.0685714
        k(   48) = (   0.2000000   0.4618802   0.2839644), wk =   0.0685714
        k(   49) = (   0.2000000   0.5773503   0.0000000), wk =   0.0171429
        k(   50) = (   0.2000000   0.5773503   0.0946548), wk =   0.0342857
        k(   51) = (   0.2000000   0.5773503   0.1893096), wk =   0.0342857
        k(   52) = (   0.2000000   0.5773503   0.2839644), wk =   0.0342857
        k(   53) = (   0.3000000   0.5196152   0.0000000), wk =   0.0171429
        k(   54) = (   0.3000000   0.5196152   0.0946548), wk =   0.0342857
        k(   55) = (   0.3000000   0.5196152   0.1893096), wk =   0.0342857
        k(   56) = (   0.3000000   0.5196152   0.2839644), wk =   0.0342857

     Dense  grid:    11175 G-vectors     FFT dimensions: (  25,  25,  40)

     Estimated max dynamical RAM per process >      13.71 MB

     Estimated total dynamical RAM >     109.66 MB

     Initial potential from superposition of free atoms

     starting charge       6.9948, renormalised to       7.0000
     Starting wfcs are    6 randomized atomic wfcs +    2 random wfcs

     total cpu time spent up to now is        0.5 secs

     Self-consistent Calculation

     iteration #  1     ecut=    80.00 Ry     beta= 0.70
     Davidson diagonalization with overlap
     ethr =  1.00E-02,  avg # of iterations =  6.5

     Threshold (ethr) on eigenvalues was too large:
     Diagonalizing with lowered threshold

     Davidson diagonalization with overlap
     ethr =  1.14E-04,  avg # of iterations =  3.4

     total cpu time spent up to now is        1.0 secs

     total energy              =     -22.74852845 Ry
     estimated scf accuracy    <       0.00788730 Ry

     iteration #  2     ecut=    80.00 Ry     beta= 0.70
     Davidson diagonalization with overlap
     ethr =  1.13E-04,  avg # of iterations =  1.0

     total cpu time spent up to now is        1.1 secs

     total energy              =     -22.74869879 Ry
     estimated scf accuracy    <       0.00057288 Ry

     iteration #  3     ecut=    80.00 Ry     beta= 0.70
     Davidson diagonalization with overlap
     ethr =  8.18E-06,  avg # of iterations =  2.3

     total cpu time spent up to now is        1.3 secs

     total energy              =     -22.74873699 Ry
     estimated scf accuracy    <       0.00003483 Ry

     iteration #  4     ecut=    80.00 Ry     beta= 0.70
     Davidson diagonalization with overlap
     ethr =  4.98E-07,  avg # of iterations =  2.2

     total cpu time spent up to now is        1.5 secs

     total energy              =     -22.74874361 Ry
     estimated scf accuracy    <       0.00000064 Ry

     iteration #  5     ecut=    80.00 Ry     beta= 0.70
     Davidson diagonalization with overlap
     ethr =  9.07E-09,  avg # of iterations =  2.1

     total cpu time spent up to now is        1.6 secs

     End of self-consistent calculation

          k = 0.0000 0.0000 0.0000 (  1411 PWs)   bands (ev):

   -33.8440  -2.5956   6.8398  13.6426  26.2982  26.2982  28.0337  28.0337

          k = 0.0000 0.0000 0.0947 (  1405 PWs)   bands (ev):

   -33.8429  -2.5864   6.4228  14.6067  26.4319  26.4319  28.1518  28.1518

          k = 0.0000 0.0000 0.1893 (  1393 PWs)   bands (ev):

   -33.8406  -2.5653   5.6903  16.9319  26.7713  26.7713  28.4768  28.4768

          k = 0.0000 0.0000 0.2840 (  1388 PWs)   bands (ev):

   -33.8388  -2.5478   5.2205  19.6499  25.6395  27.0961  27.0962  28.8655

          k = 0.0000 0.1155 0.0000 (  1421 PWs)   bands (ev):

   -33.8244  -2.2778   7.1685  13.6475  22.7991  24.4663  27.8173  30.3936

          k = 0.0000 0.1155 0.0947 (  1404 PWs)   bands (ev):

   -33.8235  -2.2639   6.7155  14.6431  22.8921  24.6094  27.8735  30.4720

          k = 0.0000 0.1155 0.1893 (  1404 PWs)   bands (ev):

   -33.8213  -2.2317   5.9332  17.0083  23.1267  24.9863  27.8784  29.0588

          k = 0.0000 0.1155 0.2840 (  1394 PWs)   bands (ev):

   -33.8195  -2.2048   5.4360  19.7531  23.4038  25.3782  25.4028  28.6120

          k = 0.0000 0.2309 0.0000 (  1413 PWs)   bands (ev):

   -33.7732  -1.3290   8.1543  13.4620  18.4760  22.5218  26.0555  27.6178

          k = 0.0000 0.2309 0.0947 (  1410 PWs)   bands (ev):

   -33.7723  -1.3015   7.5819  14.5026  18.5918  22.6755  25.6155  27.3670

          k = 0.0000 0.2309 0.1893 (  1410 PWs)   bands (ev):

   -33.7705  -1.2370   6.6540  16.6379  19.0618  23.0883  24.6209  26.9446

          k = 0.0000 0.2309 0.2840 (  1390 PWs)   bands (ev):

   -33.7691  -1.1823   6.0814  17.9683  20.7326  23.2538  23.5361  26.5567

          k = 0.0000 0.3464 0.0000 (  1401 PWs)   bands (ev):

   -33.7095   0.2360   9.7948  11.7448  16.2803  21.1056  22.9300  23.9185

          k = 0.0000 0.3464 0.0947 (  1401 PWs)   bands (ev):

   -33.7088   0.2841   8.9193  12.5141  16.8173  21.2671  21.9009  24.9136

          k = 0.0000 0.3464 0.1893 (  1403 PWs)   bands (ev):

   -33.7075   0.3988   7.7890  13.2831  18.1882  21.1466  21.7065  25.5923

          k = 0.0000 0.3464 0.2840 (  1399 PWs)   bands (ev):

   -33.7063   0.4985   7.1333  13.6020  18.9322  21.8183  22.1996  26.0504

          k = 0.0000 0.4619 0.0000 (  1399 PWs)   bands (ev):

   -33.6577   2.3847   8.4499  12.0760  16.3852  18.7527  20.2512  22.0323

          k = 0.0000 0.4619 0.0947 (  1407 PWs)   bands (ev):

   -33.6572   2.4578   8.4068  11.5015  16.5157  19.0266  20.4173  23.0060

          k = 0.0000 0.4619 0.1893 (  1403 PWs)   bands (ev):

   -33.6562   2.6322   8.3383  10.4750  16.1995  20.5672  20.8731  24.7210

          k = 0.0000 0.4619 0.2840 (  1406 PWs)   bands (ev):

   -33.6553   2.7838   8.3441   9.7263  15.9146  21.3962  22.0469  25.1944

          k = 0.0000-0.5774 0.0000 (  1380 PWs)   bands (ev):

   -33.6379   4.6233   5.7277  14.4886  15.6998  16.7025  19.9659  21.1833

          k = 0.0000-0.5774 0.0947 (  1390 PWs)   bands (ev):

   -33.6375   4.7405   5.7665  13.1771  14.8699  18.7745  20.1334  22.0594

          k = 0.0000-0.5774 0.1893 (  1400 PWs)   bands (ev):

   -33.6365   4.9257   6.0585  11.0412  14.5980  20.5948  20.9048  24.4391

          k = 0.0000-0.5774 0.2840 (  1414 PWs)   bands (ev):

   -33.6358   4.9720   6.6985   9.4462  14.4696  21.1283  22.0801  24.8564

          k = 0.1000 0.1732 0.0000 (  1415 PWs)   bands (ev):

   -33.7890  -1.6444   7.8257  13.6056  19.8893  21.7447  29.4443  29.5492

          k = 0.1000 0.1732 0.0947 (  1414 PWs)   bands (ev):

   -33.7882  -1.6214   7.2961  14.6563  19.9680  21.8651  28.5258  29.2882

          k = 0.1000 0.1732 0.1893 (  1400 PWs)   bands (ev):

   -33.7862  -1.5675   6.4163  17.0471  20.1444  22.2534  26.7578  27.7724

          k = 0.1000 0.1732 0.2840 (  1398 PWs)   bands (ev):

   -33.7847  -1.5220   5.8675  19.6413  20.3191  22.9846  24.8483  25.7736

          k = 0.1000 0.2887 0.0000 (  1405 PWs)   bands (ev):

   -33.7315  -0.3869   9.1393  13.0386  16.4310  19.8763  25.3401  27.5738

          k = 0.1000 0.2887 0.0947 (  1404 PWs)   bands (ev):

   -33.7308  -0.3468   8.4241  14.0260  16.6529  19.9736  24.4874  27.2557

          k = 0.1000 0.2887 0.1893 (  1400 PWs)   bands (ev):

   -33.7293  -0.2518   7.3622  15.4062  17.6106  20.3978  23.1036  26.1360

          k = 0.1000 0.2887 0.2840 (  1400 PWs)   bands (ev):

   -33.7281  -0.1699   6.7273  15.9118  18.9808  20.9586  22.7827  24.6700

          k = 0.1000 0.4041 0.0000 (  1405 PWs)   bands (ev):

   -33.6738   1.4745  10.3734  11.1033  15.3067  18.8827  20.9808  25.3047

          k = 0.1000 0.4041 0.0947 (  1401 PWs)   bands (ev):

   -33.6733   1.5370   9.5898  11.4547  15.9356  18.6043  21.1442  25.4690

          k = 0.1000 0.4041 0.1893 (  1395 PWs)   bands (ev):

   -33.6721   1.6870   8.5721  11.6700  16.9361  18.3001  21.7293  24.9301

          k = 0.1000 0.4041 0.2840 (  1396 PWs)   bands (ev):

   -33.6712   1.8191   7.9545  11.7353  17.2931  18.2399  22.7572  24.8518

          k = 0.1000 0.5196 0.0000 (  1392 PWs)   bands (ev):

   -33.6380   3.8735   7.0636  13.6670  15.3061  17.1623  18.5291  23.8109

          k = 0.1000 0.5196 0.0947 (  1394 PWs)   bands (ev):

   -33.6376   3.9620   7.1159  12.6258  15.5465  16.6271  20.2903  23.9257

          k = 0.1000 0.5196 0.1893 (  1402 PWs)   bands (ev):

   -33.6366   4.1620   7.3548  10.9311  15.0604  17.2514  22.4166  24.0459

          k = 0.1000 0.5196 0.2840 (  1400 PWs)   bands (ev):

   -33.6359   4.3186   7.9005   9.4708  14.8363  17.6309  22.6733  25.4851

          k = 0.2000 0.3464 0.0000 (  1398 PWs)   bands (ev):

   -33.6800   1.1694  10.7776  12.2479  13.4360  18.4829  23.0861  25.0523

          k = 0.2000 0.3464 0.0947 (  1401 PWs)   bands (ev):

   -33.6794   1.2280   9.7091  13.2315  13.6706  18.7126  22.1317  24.4598

          k = 0.2000 0.3464 0.1893 (  1392 PWs)   bands (ev):

   -33.6782   1.3688   8.4939  13.5681  14.7842  19.5927  20.3057  24.7020

          k = 0.2000 0.3464 0.2840 (  1398 PWs)   bands (ev):

   -33.6773   1.4929   7.8030  13.6521  15.6387  18.7601  20.9642  25.2120

          k = 0.2000 0.4619 0.0000 (  1399 PWs)   bands (ev):

   -33.6381   3.3119   9.3623  12.2614  13.0524  18.5579  19.6066  23.3456

          k = 0.2000 0.4619 0.0947 (  1396 PWs)   bands (ev):

   -33.6377   3.3913   9.3243  11.7054  13.3696  17.9415  20.0402  22.7990

          k = 0.2000 0.4619 0.1893 (  1390 PWs)   bands (ev):

   -33.6368   3.5821   9.2185  10.9441  13.6581  17.0170  19.9675  24.4923

          k = 0.2000 0.4619 0.2840 (  1395 PWs)   bands (ev):

   -33.6360   3.7500   9.1362  10.4032  14.1236  15.8643  20.3201  26.8230

          k = 0.2000 0.5774 0.0000 (  1388 PWs)   bands (ev):

   -33.6221   5.5780   6.6036  12.0567  15.4537  16.6377  18.8403  22.9339

          k = 0.2000 0.5774 0.0947 (  1384 PWs)   bands (ev):

   -33.6218   5.6887   6.6575  11.9790  14.6862  15.8220  20.2456  22.0368

          k = 0.2000 0.5774 0.1893 (  1394 PWs)   bands (ev):

   -33.6209   5.8661   6.9603  11.4628  13.3862  15.3732  20.0664  24.7539

          k = 0.2000 0.5774 0.2840 (  1394 PWs)   bands (ev):

   -33.6203   5.9176   7.5518  10.3415  13.5727  14.4543  20.1509  28.1442

          k = 0.3000 0.5196 0.0000 (  1386 PWs)   bands (ev):

   -33.6161   5.6875   8.5683   9.1938  15.5690  18.3545  19.3932  20.1356

          k = 0.3000 0.5196 0.0947 (  1392 PWs)   bands (ev):

   -33.6158   5.7830   8.5705   9.3368  14.7499  17.4628  18.1547  22.3391

          k = 0.3000 0.5196 0.1893 (  1391 PWs)   bands (ev):

   -33.6150   5.9948   8.6184   9.8294  13.0826  15.3927  18.5896  25.5210

          k = 0.3000 0.5196 0.2840 (  1387 PWs)   bands (ev):

   -33.6143   6.1499   8.8241  10.4988  11.7806  13.9347  19.1285  28.8533

     the Fermi energy is    11.9993 ev

!    total energy              =     -22.74874373 Ry
     estimated scf accuracy    <          5.5E-10 Ry
     smearing contrib. (-TS)   =       0.00060612 Ry
     internal energy E=F+TS    =     -22.74934985 Ry

     The total energy is F=E-TS. E is the sum of the following terms:
     one-electron contribution =      -0.22816037 Ry
     hartree contribution      =       2.84027733 Ry
     xc contribution           =      -6.92093276 Ry
     ewald contribution        =     -18.44053405 Ry

     convergence has been achieved in   5 iterations

     Forces acting on atoms (cartesian axes, Ry/au):

     atom    1 type  1   force =     0.00000000    0.00000000    0.00000000
     atom    2 type  2   force =     0.00000000    0.00000000    0.00000000
     The non-local contrib.  to forces
     atom    1 type  1   force =     0.00000000   -0.00000000    0.00000000
     atom    2 type  2   force =     0.00000000    0.00000000    0.00000000
     The ionic contribution  to forces
     atom    1 type  1   force =     0.00000000   -0.00000000    0.00000000
     atom    2 type  2   force =    -0.00000000    0.00000000   -0.00000000
     The local contribution  to forces
     atom    1 type  1   force =     0.00000043   -0.00000025    0.00000000
     atom    2 type  2   force =     0.00000000   -0.00000000   -0.00000000
     The core correction contribution to forces
     atom    1 type  1   force =     0.00000000    0.00000000    0.00000000
     atom    2 type  2   force =     0.00000000   -0.00000000    0.00000000
     The Hubbard contrib.    to forces
     atom    1 type  1   force =     0.00000000    0.00000000    0.00000000
     atom    2 type  2   force =     0.00000000    0.00000000    0.00000000
     The SCF correction term to forces
     atom    1 type  1   force =    -0.00000000    0.00000000    0.00000000
     atom    2 type  2   force =     0.00000000   -0.00000000    0.00000000

     Total force =     0.000000     Total SCF correction =     0.000000


     Computing stress (Cartesian axis) and pressure

          total   stress  (Ry/bohr**3)                   (kbar)     P=      741.20
   0.00485391   0.00000000  -0.00000000          714.04        0.00       -0.00
   0.00000000   0.00485391   0.00000000            0.00      714.04        0.00
   0.00000000   0.00000000   0.00540796            0.00        0.00      795.54


     BFGS Geometry Optimization
     Energy error            =      0.0E+00 Ry
     Gradient error          =      0.0E+00 Ry/Bohr
     Cell gradient error     =      3.0E+02 kbar

     number of scf cycles    =   1
     number of bfgs steps    =   0

     enthalpy           new  =     -22.3552926239 Ry

     new trust radius        =       0.1080764587 bohr
ibrav =      4
 celldm(1) =      4.61958453
 celldm(3) =      1.52941455
Input lattice vectors:
     1.03637456     0.00000000     0.00000000
    -0.51818728     0.89752670     0.00000000
    -0.00000000     0.00000000     1.58504634
New lattice vectors in INITIAL alat:
     1.03637456     0.00000000     0.00000000
    -0.51818728     0.89752670     0.00000000
     0.00000000     0.00000000     1.58504634
New lattice vectors in NEW alat (for information only):
     1.00000000     0.00000000     0.00000000
    -0.50000000     0.86602540     0.00000000
     0.00000000     0.00000000     1.52941455
Discrepancy in bohr =     0.000000    0.000000    0.000000
     new conv_thr            =       0.0000000100 Ry

     new unit-cell volume =    130.57637 a.u.^3 (    19.34942 Ang^3 )
     density =      3.00592 g/cm^3

CELL_PARAMETERS (alat=  4.45744684)
   1.036374564   0.000000000   0.000000000
  -0.518187282   0.897526700   0.000000000
   0.000000000   0.000000000   1.585046339

ATOMIC_POSITIONS (crystal)
Li            0.3333333300        0.6666666700        0.5000000000
Si            0.0000000000        0.0000000000        0.0000000000



     Writing config-only to output data dir ./output/LiSi.save/
     NEW-OLD atomic charge density approx. for the potential
     extrapolated charge    7.79384, renormalised to    7.00000

     total cpu time spent up to now is        2.1 secs

     Self-consistent Calculation

     iteration #  1     ecut=    80.00 Ry     beta= 0.70
     Davidson diagonalization with overlap
     c_bands:  1 eigenvalues not converged
     ethr =  1.00E-06,  avg # of iterations =  8.1

     total cpu time spent up to now is        2.6 secs

     total energy              =     -22.80006328 Ry
     estimated scf accuracy    <       0.00146483 Ry

     iteration #  2     ecut=    80.00 Ry     beta= 0.70
     Davidson diagonalization with overlap
     ethr =  2.09E-05,  avg # of iterations =  3.0

     total cpu time spent up to now is        2.9 secs

     total energy              =     -22.80799378 Ry
     estimated scf accuracy    <       0.00166258 Ry

     iteration #  3     ecut=    80.00 Ry     beta= 0.70
     Davidson diagonalization with overlap
     ethr =  2.09E-05,  avg # of iterations =  1.0

     total cpu time spent up to now is        3.1 secs

     total energy              =     -22.80784807 Ry
     estimated scf accuracy    <       0.00050692 Ry

     iteration #  4     ecut=    80.00 Ry     beta= 0.70
     Davidson diagonalization with overlap
     ethr =  7.24E-06,  avg # of iterations =  1.0

     total cpu time spent up to now is        3.3 secs

     total energy              =     -22.80773740 Ry
     estimated scf accuracy    <       0.00017109 Ry

     iteration #  5     ecut=    80.00 Ry     beta= 0.70
     Davidson diagonalization with overlap
     ethr =  2.44E-06,  avg # of iterations =  2.0

     total cpu time spent up to now is        3.6 secs

     total energy              =     -22.80776191 Ry
     estimated scf accuracy    <       0.00000292 Ry

     iteration #  6     ecut=    80.00 Ry     beta= 0.70
     Davidson diagonalization with overlap
     ethr =  4.18E-08,  avg # of iterations =  1.8

     total cpu time spent up to now is        3.8 secs

     total energy              =     -22.80776211 Ry
     estimated scf accuracy    <       0.00000023 Ry

     iteration #  7     ecut=    80.00 Ry     beta= 0.70
     Davidson diagonalization with overlap
     ethr =  3.35E-09,  avg # of iterations =  2.0

     total cpu time spent up to now is        4.0 secs

     End of self-consistent calculation

          k = 0.0000 0.0000 0.0000 (  1411 PWs)   bands (ev):

   -35.2750  -3.4039   5.6157  11.8433  24.0877  24.0877  24.9633  24.9633

          k = 0.0000 0.0000 0.0901 (  1405 PWs)   bands (ev):

   -35.2745  -3.3847   5.2058  12.7447  24.2141  24.2141  25.0475  25.0475

          k = 0.0000 0.0000 0.1803 (  1393 PWs)   bands (ev):

   -35.2734  -3.3400   4.4852  14.9084  24.5385  24.5385  25.2653  25.2653

          k = 0.0000 0.0000 0.2704 (  1388 PWs)   bands (ev):

   -35.2725  -3.3024   4.0204  17.4660  22.6615  24.8509  24.8520  25.4965

          k = 0.0000 0.1114 0.0000 (  1421 PWs)   bands (ev):

   -35.2614  -3.1015   5.9239  11.8852  20.5499  22.0523  25.0084  27.5074

          k = 0.0000 0.1114 0.0901 (  1404 PWs)   bands (ev):

   -35.2609  -3.0788   5.4847  12.8120  20.6344  22.1725  25.0435  27.5834

          k = 0.0000 0.1114 0.1803 (  1404 PWs)   bands (ev):

   -35.2598  -3.0259   4.7244  15.0057  20.8464  22.4832  24.9311  26.3608

          k = 0.0000 0.1114 0.2704 (  1394 PWs)   bands (ev):

   -35.2590  -2.9813   4.2381  17.5740  21.0894  22.5885  22.7942  25.7303

          k = 0.0000 0.2228 0.0000 (  1413 PWs)   bands (ev):

   -35.2255  -2.1978   6.8477  11.8334  16.3919  20.1674  23.4331  25.0558

          k = 0.0000 0.2228 0.0901 (  1410 PWs)   bands (ev):

   -35.2251  -2.1653   6.3119  12.7913  16.5012  20.2951  23.1481  24.6622

          k = 0.0000 0.2228 0.1803 (  1410 PWs)   bands (ev):

   -35.2242  -2.0886   5.4349  14.7525  16.9539  20.6295  22.3588  24.1246

          k = 0.0000 0.2228 0.2704 (  1390 PWs)   bands (ev):

   -35.2235  -2.0230   4.8884  15.9424  18.5786  20.9732  21.0773  23.7270

          k = 0.0000 0.3343 0.0000 (  1401 PWs)   bands (ev):

   -35.1811  -0.7047   8.3828  10.2957  14.3048  18.8126  20.6956  21.5366

          k = 0.0000 0.3343 0.0901 (  1401 PWs)   bands (ev):

   -35.1808  -0.6568   7.6053  10.9242  14.8637  18.9463  19.7754  22.3439

          k = 0.0000 0.3343 0.1803 (  1403 PWs)   bands (ev):

   -35.1801  -0.5425   6.5616  11.5527  16.2825  19.0492  19.3007  22.8327

          k = 0.0000 0.3343 0.2704 (  1399 PWs)   bands (ev):

   -35.1795  -0.4430   5.9467  11.8204  17.1087  19.6478  19.6731  23.1751

          k = 0.0000 0.4457 0.0000 (  1399 PWs)   bands (ev):

   -35.1450   1.3539   7.1085  10.5083  14.5450  16.8098  17.9983  19.8025

          k = 0.0000 0.4457 0.0901 (  1407 PWs)   bands (ev):

   -35.1448   1.4210   7.0969   9.9166  14.7757  17.0197  18.1358  20.6315

          k = 0.0000 0.4457 0.1803 (  1403 PWs)   bands (ev):

   -35.1442   1.5819   7.0960   8.8932  14.5259  18.4767  18.5028  22.0453

          k = 0.0000 0.4457 0.2704 (  1406 PWs)   bands (ev):

   -35.1438   1.7227   7.1634   8.1516  14.2405  18.8946  19.8931  23.0775

          k = 0.0000-0.5571 0.0000 (  1380 PWs)   bands (ev):

   -35.1312   3.6083   4.3832  12.6612  14.0622  14.9181  17.7266  18.9856

          k = 0.0000-0.5571 0.0901 (  1390 PWs)   bands (ev):

   -35.1310   3.7218   4.4157  11.4559  13.3314  16.8290  17.8655  19.7335

          k = 0.0000-0.5571 0.1803 (  1400 PWs)   bands (ev):

   -35.1305   3.8959   4.6668   9.5826  12.9948  18.2368  18.8599  21.8120

          k = 0.0000-0.5571 0.2704 (  1414 PWs)   bands (ev):

   -35.1301   3.9339   5.1751   8.2405  12.8247  18.6355  19.9221  22.7625

          k = 0.0965 0.1671 0.0000 (  1415 PWs)   bands (ev):

   -35.2366  -2.4984   6.5399  11.9211  17.9259  19.2057  26.6404  26.8052

          k = 0.0965 0.1671 0.0901 (  1414 PWs)   bands (ev):

   -35.2362  -2.4691   6.0386  12.8912  18.0016  19.3033  25.9125  26.6441

          k = 0.0965 0.1671 0.1803 (  1400 PWs)   bands (ev):

   -35.2353  -2.4002   5.2003  15.0936  18.1697  19.6204  24.3857  25.2609

          k = 0.0965 0.1671 0.2704 (  1398 PWs)   bands (ev):

   -35.2345  -2.3416   4.6728  17.4585  18.3235  20.2896  22.3963  23.4423

          k = 0.0965 0.2785 0.0000 (  1405 PWs)   bands (ev):

   -35.1965  -1.2996   7.7698  11.5179  14.5780  17.4287  22.9136  25.0327

          k = 0.0965 0.2785 0.0901 (  1404 PWs)   bands (ev):

   -35.1961  -1.2577   7.1191  12.3943  14.8033  17.5270  22.1273  24.8162

          k = 0.0965 0.2785 0.1803 (  1400 PWs)   bands (ev):

   -35.1954  -1.1582   6.1331  13.6001  15.7272  17.9697  20.8538  23.8149

          k = 0.0965 0.2785 0.2704 (  1400 PWs)   bands (ev):

   -35.1948  -1.0722   5.5361  14.0514  16.8217  18.8939  20.4323  22.2988

          k = 0.0965 0.3900 0.0000 (  1405 PWs)   bands (ev):

   -35.1562   0.4791   8.9644   9.6042  13.6069  16.5161  18.8736  22.8419

          k = 0.0965 0.3900 0.0901 (  1401 PWs)   bands (ev):

   -35.1559   0.5379   8.2872   9.8451  14.2155  16.4107  18.8520  23.0661

          k = 0.0965 0.3900 0.1803 (  1395 PWs)   bands (ev):

   -35.1553   0.6793   7.3495  10.0062  15.1441  16.2593  19.3182  22.6471

          k = 0.0965 0.3900 0.2704 (  1396 PWs)   bands (ev):

   -35.1549   0.8039   6.7677  10.0707  15.5518  16.0670  20.5767  22.4015

          k = 0.0965 0.5014 0.0000 (  1392 PWs)   bands (ev):

   -35.1312   2.7939   5.7587  11.9719  13.6721  15.3454  16.2520  21.3252

          k = 0.0965 0.5014 0.0901 (  1394 PWs)   bands (ev):

   -35.1310   2.8738   5.8151  11.0017  13.9493  14.6904  17.9471  21.4844

          k = 0.0965 0.5014 0.1803 (  1402 PWs)   bands (ev):

   -35.1306   3.0577   6.0351   9.4567  13.4683  15.1722  20.0939  21.6745

          k = 0.0965 0.5014 0.2704 (  1400 PWs)   bands (ev):

   -35.1302   3.2070   6.4569   8.2135  13.2260  15.4464  20.6382  22.9684

          k = 0.1930 0.3343 0.0000 (  1398 PWs)   bands (ev):

   -35.1605   0.1863   9.3007  10.8030  11.8278  16.0413  20.7526  22.8650

          k = 0.1930 0.3343 0.0901 (  1401 PWs)   bands (ev):

   -35.1602   0.2421   8.3679  11.6670  11.9658  16.3676  19.8809  22.1662

          k = 0.1930 0.3343 0.1803 (  1392 PWs)   bands (ev):

   -35.1596   0.3764   7.2511  12.0109  12.7837  17.4597  18.2581  22.2212

          k = 0.1930 0.3343 0.2704 (  1398 PWs)   bands (ev):

   -35.1591   0.4947   6.6065  12.0934  13.3954  17.0084  18.8998  22.5722

          k = 0.1930 0.4457 0.0000 (  1399 PWs)   bands (ev):

   -35.1313   2.2389   7.9832  10.7330  11.4150  16.2622  17.5734  21.2124

          k = 0.1930 0.4457 0.0901 (  1396 PWs)   bands (ev):

   -35.1311   2.3112   7.9764  10.2230  11.5937  15.9919  17.8133  20.4884

          k = 0.1930 0.4457 0.1803 (  1390 PWs)   bands (ev):

   -35.1306   2.4856   7.9463   9.4412  11.7763  15.2070  17.9716  21.8234

          k = 0.1930 0.4457 0.2704 (  1395 PWs)   bands (ev):

   -35.1303   2.6398   7.9200   8.8910  12.0855  14.2562  18.3468  23.9894

          k = 0.1930 0.5571 0.0000 (  1388 PWs)   bands (ev):

   -35.1202   4.5194   5.2231  10.5304  13.5381  14.9413  16.6305  20.8073

          k = 0.1930 0.5571 0.0901 (  1384 PWs)   bands (ev):

   -35.1200   4.6246   5.2730  10.4844  12.7164  14.1964  18.1145  19.6293

          k = 0.1930 0.5571 0.1803 (  1394 PWs)   bands (ev):

   -35.1196   4.7847   5.5488  10.0515  11.5789  13.6055  18.1325  21.9945

          k = 0.1930 0.5571 0.2704 (  1394 PWs)   bands (ev):

   -35.1192   4.8273   6.0400   9.0754  11.7034  12.8021  18.1931  25.1280

          k = 0.2895 0.5014 0.0000 (  1386 PWs)   bands (ev):

   -35.1160   4.5380   7.3058   7.6673  13.7035  16.3899  17.2121  18.2891

          k = 0.2895 0.5014 0.0901 (  1392 PWs)   bands (ev):

   -35.1158   4.6234   7.3320   7.7853  12.8485  15.5930  16.3716  19.8670

          k = 0.2895 0.5014 0.1803 (  1391 PWs)   bands (ev):

   -35.1154   4.8169   7.3960   8.2266  11.2617  13.7675  16.7277  22.6690

          k = 0.2895 0.5014 0.2704 (  1387 PWs)   bands (ev):

   -35.1150   4.9673   7.5644   8.9336   9.8898  12.5590  17.1520  25.7046

     the Fermi energy is    10.4789 ev

!    total energy              =     -22.80776216 Ry
     estimated scf accuracy    <          2.7E-09 Ry
     smearing contrib. (-TS)   =       0.00055576 Ry
     internal energy E=F+TS    =     -22.80831792 Ry

     The total energy is F=E-TS. E is the sum of the following terms:
     one-electron contribution =      -1.21562865 Ry
     hartree contribution      =       2.92513700 Ry
     xc contribution           =      -6.80192979 Ry
     ewald contribution        =     -17.71589648 Ry

     convergence has been achieved in   7 iterations

     Forces acting on atoms (cartesian axes, Ry/au):

     atom    1 type  1   force =    -0.00000000   -0.00000000    0.00000000
     atom    2 type  2   force =     0.00000000    0.00000000    0.00000000
     The non-local contrib.  to forces
     atom    1 type  1   force =     0.00000000    0.00000000    0.00000000
     atom    2 type  2   force =     0.00000000    0.00000000    0.00000000
     The ionic contribution  to forces
     atom    1 type  1   force =     0.00000000   -0.00000000   -0.00000000
     atom    2 type  2   force =    -0.00000000    0.00000000   -0.00000000
     The local contribution  to forces
     atom    1 type  1   force =     0.00000045   -0.00000026    0.00000000
     atom    2 type  2   force =    -0.00000000   -0.00000000    0.00000000
     The core correction contribution to forces
     atom    1 type  1   force =     0.00000000    0.00000000    0.00000000
     atom    2 type  2   force =    -0.00000000   -0.00000000   -0.00000000
     The Hubbard contrib.    to forces
     atom    1 type  1   force =     0.00000000    0.00000000    0.00000000
     atom    2 type  2   force =     0.00000000    0.00000000    0.00000000
     The SCF correction term to forces
     atom    1 type  1   force =    -0.00000000    0.00000000   -0.00000000
     atom    2 type  2   force =     0.00000000   -0.00000000   -0.00000000

     Total force =     0.000000     Total SCF correction =     0.000000


     Computing stress (Cartesian axis) and pressure

          total   stress  (Ry/bohr**3)                   (kbar)     P=      443.28
   0.00290469  -0.00000000   0.00000000          427.30       -0.00        0.00
   0.00000000   0.00290469   0.00000000            0.00      427.30        0.00
   0.00000000   0.00000000   0.00323061            0.00        0.00      475.24

     Energy error            =      8.6E-03 Ry
     Gradient error          =      2.1E-24 Ry/Bohr
     Cell gradient error     =      7.3E+01 kbar

     number of scf cycles    =   2
     number of bfgs steps    =   1

     enthalpy           old  =     -22.3552926239 Ry
     enthalpy           new  =     -22.3639420842 Ry

     CASE: enthalpy          _new < enthalpy          _old

     new trust radius        =       0.0230171589 bohr
ibrav =      4
 celldm(1) =      4.57305889
 celldm(3) =      1.54053299
Input lattice vectors:
     1.02593683     0.00000000     0.00000000
    -0.51296842     0.88848736     0.00000000
     0.00000000     0.00000000     1.58048953
New lattice vectors in INITIAL alat:
     1.02593683     0.00000000     0.00000000
    -0.51296842     0.88848736     0.00000000
     0.00000000     0.00000000     1.58048953
New lattice vectors in NEW alat (for information only):
     1.00000000     0.00000000     0.00000000
    -0.50000000     0.86602540     0.00000000
     0.00000000     0.00000000     1.54053299
Discrepancy in bohr =     0.000000    0.000000    0.000000
     new conv_thr            =            1.0E-10 Ry

     new unit-cell volume =    127.59158 a.u.^3 (    18.90712 Ang^3 )
     density =      3.07624 g/cm^3

CELL_PARAMETERS (alat=  4.45744684)
   1.025936831   0.000000000   0.000000000
  -0.512968416   0.888487359   0.000000000
   0.000000000   0.000000000   1.580489534

ATOMIC_POSITIONS (crystal)
Li            0.3333333300        0.6666666700        0.5000000000
Si            0.0000000000        0.0000000000        0.0000000000



     Writing config-only to output data dir ./output/LiSi.save/
     NEW-OLD atomic charge density approx. for the potential
     extrapolated charge    6.83637, renormalised to    7.00000

     total cpu time spent up to now is        4.5 secs

     Self-consistent Calculation

     iteration #  1     ecut=    80.00 Ry     beta= 0.70
     Davidson diagonalization with overlap
     ethr =  1.00E-06,  avg # of iterations =  5.6

     total cpu time spent up to now is        4.8 secs

     total energy              =     -22.79809953 Ry
     estimated scf accuracy    <       0.00009892 Ry

     iteration #  2     ecut=    80.00 Ry     beta= 0.70
     Davidson diagonalization with overlap
     ethr =  1.41E-06,  avg # of iterations =  2.7

     total cpu time spent up to now is        5.1 secs

     total energy              =     -22.79842131 Ry
     estimated scf accuracy    <       0.00005295 Ry

     iteration #  3     ecut=    80.00 Ry     beta= 0.70
     Davidson diagonalization with overlap
     ethr =  7.56E-07,  avg # of iterations =  1.0

     total cpu time spent up to now is        5.3 secs

     total energy              =     -22.79841744 Ry
     estimated scf accuracy    <       0.00001221 Ry

     iteration #  4     ecut=    80.00 Ry     beta= 0.70
     Davidson diagonalization with overlap
     ethr =  1.74E-07,  avg # of iterations =  1.0

     total cpu time spent up to now is        5.5 secs

     total energy              =     -22.79841635 Ry
     estimated scf accuracy    <       0.00000221 Ry

     iteration #  5     ecut=    80.00 Ry     beta= 0.70
     Davidson diagonalization with overlap
     ethr =  3.16E-08,  avg # of iterations =  2.0

     total cpu time spent up to now is        5.7 secs

     total energy              =     -22.79841670 Ry
     estimated scf accuracy    <       0.00000006 Ry

     iteration #  6     ecut=    80.00 Ry     beta= 0.70
     Davidson diagonalization with overlap
     ethr =  8.24E-10,  avg # of iterations =  1.7

     total cpu time spent up to now is        5.9 secs

     total energy              =     -22.79841671 Ry
     estimated scf accuracy    <          1.2E-09 Ry

     iteration #  7     ecut=    80.00 Ry     beta= 0.70
     Davidson diagonalization with overlap
     ethr =  1.67E-11,  avg # of iterations =  2.8

     total cpu time spent up to now is        6.1 secs

     total energy              =     -22.79841671 Ry
     estimated scf accuracy    <          1.3E-10 Ry

     iteration #  8     ecut=    80.00 Ry     beta= 0.70
     Davidson diagonalization with overlap
     ethr =  1.80E-12,  avg # of iterations =  1.3

     total cpu time spent up to now is        6.3 secs

     End of self-consistent calculation

          k = 0.0000 0.0000 0.0000 (  1411 PWs)   bands (ev):

   -35.0176  -3.3020   5.7407  12.0937  24.6505  24.6505  25.7133  25.7133

          k = 0.0000 0.0000 0.0904 (  1405 PWs)   bands (ev):

   -35.0170  -3.2862   5.3489  12.9801  24.7714  24.7714  25.8029  25.8029

          k = 0.0000 0.0000 0.1808 (  1393 PWs)   bands (ev):

   -35.0158  -3.2495   4.6555  15.1219  25.0773  25.0773  26.0397  26.0397

          k = 0.0000 0.0000 0.2712 (  1388 PWs)   bands (ev):

   -35.0148  -3.2189   4.2071  17.6530  22.9545  25.3659  25.3661  26.2976

          k = 0.0000 0.1126 0.0000 (  1421 PWs)   bands (ev):

   -35.0026  -2.9938   6.0551  12.1347  21.0904  22.6591  25.6649  28.2188

          k = 0.0000 0.1126 0.0904 (  1404 PWs)   bands (ev):

   -35.0021  -2.9745   5.6335  13.0477  21.1719  22.7793  25.6952  28.2922

          k = 0.0000 0.1126 0.1808 (  1404 PWs)   bands (ev):

   -35.0009  -2.9294   4.8989  15.2239  21.3744  23.0904  25.4780  26.8250

          k = 0.0000 0.1126 0.2712 (  1394 PWs)   bands (ev):

   -35.0000  -2.8916   4.4278  17.7780  21.5969  22.8987  23.4013  26.4020

          k = 0.0000 0.2251 0.0000 (  1413 PWs)   bands (ev):

   -34.9632  -2.0736   6.9976  12.0884  16.8400  20.7553  24.0131  25.5782

          k = 0.0000 0.2251 0.0904 (  1410 PWs)   bands (ev):

   -34.9628  -2.0439   6.4778  13.0417  16.9395  20.8838  23.6976  25.2247

          k = 0.0000 0.2251 0.1808 (  1410 PWs)   bands (ev):

   -34.9618  -1.9742   5.6218  15.0414  17.3375  21.2208  22.8560  24.6990

          k = 0.0000 0.2251 0.2712 (  1390 PWs)   bands (ev):

   -34.9610  -1.9149   5.0876  16.3505  18.8411  21.4648  21.5678  24.2102

          k = 0.0000 0.3377 0.0000 (  1401 PWs)   bands (ev):

   -34.9143  -0.5537   8.5647  10.6004  14.6253  19.3838  21.1203  22.0361

          k = 0.0000 0.3377 0.0904 (  1401 PWs)   bands (ev):

   -34.9140  -0.5081   7.8017  11.2461  15.1537  19.5188  20.2113  22.8573

          k = 0.0000 0.3377 0.1808 (  1403 PWs)   bands (ev):

   -34.9133  -0.3997   6.7694  11.9100  16.5482  19.4660  19.8771  23.3756

          k = 0.0000 0.3377 0.2712 (  1399 PWs)   bands (ev):

   -34.9127  -0.3057   6.1622  12.1890  17.4648  19.9634  20.2551  23.6557

          k = 0.0000 0.4502 0.0000 (  1399 PWs)   bands (ev):

   -34.8747   1.5398   7.3941  10.7374  14.8174  17.1472  18.5589  20.2454

          k = 0.0000 0.4502 0.0904 (  1407 PWs)   bands (ev):

   -34.8744   1.6049   7.3756  10.1682  15.0418  17.3706  18.6980  21.0710

          k = 0.0000 0.4502 0.1808 (  1403 PWs)   bands (ev):

   -34.8739   1.7604   7.3586   9.1742  14.8308  18.8139  19.0698  22.5093

          k = 0.0000 0.4502 0.2712 (  1406 PWs)   bands (ev):

   -34.8734   1.8959   7.4072   8.4558  14.5693  19.4687  20.2764  23.6106

          k = 0.0000-0.5628 0.0000 (  1380 PWs)   bands (ev):

   -34.8595   3.8105   4.6495  12.9712  14.3053  15.1791  18.2838  19.4128

          k = 0.0000-0.5628 0.0904 (  1390 PWs)   bands (ev):

   -34.8593   3.9138   4.6908  11.7547  13.5771  17.1264  18.4242  20.1454

          k = 0.0000-0.5628 0.1808 (  1400 PWs)   bands (ev):

   -34.8588   4.0698   4.9589   9.8582  13.2774  18.8006  19.2142  22.1957

          k = 0.0000-0.5628 0.2712 (  1414 PWs)   bands (ev):

   -34.8584   4.1064   5.4741   8.4989  13.1284  19.2068  20.3418  23.2891

          k = 0.0975 0.1688 0.0000 (  1415 PWs)   bands (ev):

   -34.9754  -2.3796   6.6836  12.1713  18.3857  19.7928  27.3345  27.3824

          k = 0.0975 0.1688 0.0904 (  1414 PWs)   bands (ev):

   -34.9749  -2.3533   6.1988  13.1308  18.4564  19.8914  26.4803  27.3040

          k = 0.0975 0.1688 0.1808 (  1400 PWs)   bands (ev):

   -34.9739  -2.2917   5.3830  15.3304  18.6134  20.2049  24.9209  25.7011

          k = 0.0975 0.1688 0.2712 (  1398 PWs)   bands (ev):

   -34.9731  -2.2396   4.8689  17.7420  18.7642  20.8065  22.7204  23.9905

          k = 0.0975 0.2814 0.0000 (  1405 PWs)   bands (ev):

   -34.9313  -1.1590   7.9387  11.7940  14.9610  17.9533  23.3964  25.5947

          k = 0.0975 0.2814 0.0904 (  1404 PWs)   bands (ev):

   -34.9309  -1.1197   7.3025  12.6856  15.1646  18.0448  22.6132  25.3497

          k = 0.0975 0.2814 0.1808 (  1400 PWs)   bands (ev):

   -34.9301  -1.0266   6.3326  13.9664  16.0470  18.4468  21.3301  24.3082

          k = 0.0975 0.2814 0.2712 (  1400 PWs)   bands (ev):

   -34.9294  -0.9464   5.7452  14.4443  17.2492  19.2899  20.8401  22.6876

          k = 0.0975 0.3939 0.0000 (  1405 PWs)   bands (ev):

   -34.8870   0.6506   9.2708   9.8124  13.9199  16.9786  19.2607  23.3402

          k = 0.0975 0.3939 0.0904 (  1401 PWs)   bands (ev):

   -34.8867   0.7074   8.5276  10.1411  14.5283  16.8386  19.2727  23.5501

          k = 0.0975 0.3939 0.1808 (  1395 PWs)   bands (ev):

   -34.8861   0.8435   7.5768  10.3372  15.5077  16.6556  19.7240  23.1336

          k = 0.0975 0.3939 0.2712 (  1396 PWs)   bands (ev):

   -34.8856   0.9629   6.9973  10.4073  15.9261  16.5170  20.9699  22.8082

          k = 0.0975 0.5065 0.0000 (  1392 PWs)   bands (ev):

   -34.8596   3.0010   6.0284  12.2403  14.0071  15.6444  16.6470  21.8095

          k = 0.0975 0.5065 0.0904 (  1394 PWs)   bands (ev):

   -34.8593   3.0783   6.0849  11.2778  14.2426  15.0823  18.3103  21.9442

          k = 0.0975 0.5065 0.1808 (  1402 PWs)   bands (ev):

   -34.8588   3.2552   6.3086   9.7294  13.7736  15.6083  20.4719  22.1204

          k = 0.0975 0.5065 0.2712 (  1400 PWs)   bands (ev):

   -34.8584   3.3976   6.7428   8.4737  13.5407  15.9123  21.0765  23.4209

          k = 0.1949 0.3377 0.0000 (  1398 PWs)   bands (ev):

   -34.8917   0.3529   9.5021  11.1045  12.1890  16.4571  21.2081  23.2722

          k = 0.1949 0.3377 0.0904 (  1401 PWs)   bands (ev):

   -34.8914   0.4066   8.5825  11.9742  12.3415  16.7509  20.3294  22.6099

          k = 0.1949 0.3377 0.1808 (  1392 PWs)   bands (ev):

   -34.8908   0.5355   7.4724  12.3312  13.2135  17.7913  18.6849  22.6741

          k = 0.1949 0.3377 0.2712 (  1398 PWs)   bands (ev):

   -34.8903   0.6485   6.8334  12.4109  13.8733  17.4197  19.2437  22.9252

          k = 0.1949 0.4502 0.0000 (  1399 PWs)   bands (ev):

   -34.8597   2.4394   8.2809  11.0764  11.6650  16.6139  17.9393  21.6036

          k = 0.1949 0.4502 0.0904 (  1396 PWs)   bands (ev):

   -34.8594   2.5098   8.2665  10.5102  11.9361  16.3178  18.1926  20.8988

          k = 0.1949 0.4502 0.1808 (  1390 PWs)   bands (ev):

   -34.8589   2.6789   8.2186   9.7248  12.1771  15.5553  18.3238  22.2351

          k = 0.1949 0.4502 0.2712 (  1395 PWs)   bands (ev):

   -34.8585   2.8277   8.1772   9.1875  12.5158  14.6035  18.7168  24.3655

          k = 0.1949 0.5628 0.0000 (  1388 PWs)   bands (ev):

   -34.8474   4.7315   5.5070  10.8762  13.8720  15.2057  16.9582  21.1144

          k = 0.1949 0.5628 0.0904 (  1384 PWs)   bands (ev):

   -34.8472   4.8275   5.5636  10.8187  13.0779  14.4606  18.4547  20.0300

          k = 0.1949 0.5628 0.1808 (  1394 PWs)   bands (ev):

   -34.8468   4.9737   5.8486  10.3453  11.9634  13.9197  18.4992  22.3767

          k = 0.1949 0.5628 0.2712 (  1394 PWs)   bands (ev):

   -34.8464   5.0154   6.3394   9.3563  12.1092  13.1217  18.5728  25.5366

          k = 0.2924 0.5065 0.0000 (  1386 PWs)   bands (ev):

   -34.8428   4.7693   7.5554   8.0228  14.0223  16.7382  17.5325  18.5915

          k = 0.2924 0.5065 0.0904 (  1392 PWs)   bands (ev):

   -34.8426   4.8520   7.5714   8.1519  13.1877  15.9230  16.6773  20.2416

          k = 0.2924 0.5065 0.1808 (  1391 PWs)   bands (ev):

   -34.8422   5.0380   7.6322   8.6003  11.6135  14.0832  17.0543  23.0737

          k = 0.2924 0.5065 0.2712 (  1387 PWs)   bands (ev):

   -34.8418   5.1807   7.7991   9.3065  10.2618  12.8578  17.5048  26.1213

     the Fermi energy is    10.7785 ev

!    total energy              =     -22.79841671 Ry
     estimated scf accuracy    <          1.1E-11 Ry
     smearing contrib. (-TS)   =       0.00063034 Ry
     internal energy E=F+TS    =     -22.79904705 Ry

     The total energy is F=E-TS. E is the sum of the following terms:
     one-electron contribution =      -1.02499202 Ry
     hartree contribution      =       2.90493628 Ry
     xc contribution           =      -6.82570083 Ry
     ewald contribution        =     -17.85329048 Ry

     convergence has been achieved in   8 iterations

     Forces acting on atoms (cartesian axes, Ry/au):

     atom    1 type  1   force =     0.00000000    0.00000000    0.00000000
     atom    2 type  2   force =    -0.00000000   -0.00000000    0.00000000
     The non-local contrib.  to forces
     atom    1 type  1   force =     0.00000000    0.00000000    0.00000000
     atom    2 type  2   force =    -0.00000000   -0.00000000    0.00000000
     The ionic contribution  to forces
     atom    1 type  1   force =     0.00000000   -0.00000000   -0.00000000
     atom    2 type  2   force =    -0.00000000    0.00000000   -0.00000000
     The local contribution  to forces
     atom    1 type  1   force =     0.00000044   -0.00000026    0.00000000
     atom    2 type  2   force =    -0.00000000   -0.00000000   -0.00000000
     The core correction contribution to forces
     atom    1 type  1   force =     0.00000000    0.00000000    0.00000000
     atom    2 type  2   force =     0.00000000   -0.00000000   -0.00000000
     The Hubbard contrib.    to forces
     atom    1 type  1   force =     0.00000000    0.00000000    0.00000000
     atom    2 type  2   force =     0.00000000    0.00000000    0.00000000
     The SCF correction term to forces
     atom    1 type  1   force =     0.00000000   -0.00000000   -0.00000000
     atom    2 type  2   force =    -0.00000000    0.00000000   -0.00000000

     Total force =     0.000000     Total SCF correction =     0.000000


     Computing stress (Cartesian axis) and pressure

          total   stress  (Ry/bohr**3)                   (kbar)     P=      493.79
   0.00330396   0.00000000   0.00000000          486.03        0.00        0.00
   0.00000000   0.00330396   0.00000000            0.00      486.03        0.00
   0.00000000   0.00000000   0.00346226            0.00        0.00      509.32

     Energy error            =      8.0E-04 Ry
     Gradient error          =      2.2E-24 Ry/Bohr
     Cell gradient error     =      1.4E+01 kbar

     number of scf cycles    =   3
     number of bfgs steps    =   2

     enthalpy           old  =     -22.3639420842 Ry
     enthalpy           new  =     -22.3647417418 Ry

     CASE: enthalpy          _new < enthalpy          _old

     new trust radius        =       0.0063232333 bohr
ibrav =      4
 celldm(1) =      4.56025904
 celldm(3) =      1.54828348
Input lattice vectors:
     1.02306527     0.00000000     0.00000000
    -0.51153263     0.88600051    -0.00000000
    -0.00000000    -0.00000000     1.58399505
New lattice vectors in INITIAL alat:
     1.02306527     0.00000000     0.00000000
    -0.51153263     0.88600051     0.00000000
     0.00000000     0.00000000     1.58399505
New lattice vectors in NEW alat (for information only):
     1.00000000     0.00000000     0.00000000
    -0.50000000     0.86602540     0.00000000
     0.00000000     0.00000000     1.54828348
Discrepancy in bohr =     0.000000    0.000000    0.000000
     new conv_thr            =            1.0E-10 Ry

     new unit-cell volume =    127.15975 a.u.^3 (    18.84313 Ang^3 )
     density =      3.08669 g/cm^3

CELL_PARAMETERS (alat=  4.45744684)
   1.023065265   0.000000000   0.000000000
  -0.511532633   0.886000510   0.000000000
   0.000000000   0.000000000   1.583995053

ATOMIC_POSITIONS (crystal)
Li            0.3333333300        0.6666666700        0.5000000000
Si           -0.0000000000       -0.0000000000        0.0000000000



     Writing config-only to output data dir ./output/LiSi.save/
     NEW-OLD atomic charge density approx. for the potential
     extrapolated charge    6.97625, renormalised to    7.00000

     total cpu time spent up to now is        6.8 secs

     Self-consistent Calculation

     iteration #  1     ecut=    80.00 Ry     beta= 0.70
     Davidson diagonalization with overlap
     ethr =  1.00E-06,  avg # of iterations =  3.0

     Threshold (ethr) on eigenvalues was too large:
     Diagonalizing with lowered threshold

     Davidson diagonalization with overlap
     ethr =  6.09E-08,  avg # of iterations =  2.0

     total cpu time spent up to now is        7.3 secs

     total energy              =     -22.79699179 Ry
     estimated scf accuracy    <       0.00000422 Ry

     iteration #  2     ecut=    80.00 Ry     beta= 0.70
     Davidson diagonalization with overlap
     ethr =  6.02E-08,  avg # of iterations =  2.0

     total cpu time spent up to now is        7.6 secs

     total energy              =     -22.79699869 Ry
     estimated scf accuracy    <       0.00000095 Ry

     iteration #  3     ecut=    80.00 Ry     beta= 0.70
     Davidson diagonalization with overlap
     ethr =  1.36E-08,  avg # of iterations =  1.0

     total cpu time spent up to now is        7.9 secs

     total energy              =     -22.79699861 Ry
     estimated scf accuracy    <       0.00000018 Ry

     iteration #  4     ecut=    80.00 Ry     beta= 0.70
     Davidson diagonalization with overlap
     ethr =  2.51E-09,  avg # of iterations =  2.0

     total cpu time spent up to now is        8.1 secs

     total energy              =     -22.79699862 Ry
     estimated scf accuracy    <          1.5E-09 Ry

     iteration #  5     ecut=    80.00 Ry     beta= 0.70
     Davidson diagonalization with overlap
     ethr =  2.08E-11,  avg # of iterations =  3.1

     total cpu time spent up to now is        8.4 secs

     total energy              =     -22.79699862 Ry
     estimated scf accuracy    <          3.6E-10 Ry

     iteration #  6     ecut=    80.00 Ry     beta= 0.70
     Davidson diagonalization with overlap
     ethr =  5.19E-12,  avg # of iterations =  2.0

     total cpu time spent up to now is        8.7 secs

     End of self-consistent calculation

          k = 0.0000 0.0000 0.0000 (  1411 PWs)   bands (ev):

   -34.9861  -3.3039   5.7202  12.0975  24.7889  24.7889  25.9046  25.9046

          k = 0.0000 0.0000 0.0902 (  1405 PWs)   bands (ev):

   -34.9855  -3.2894   5.3389  12.9711  24.9065  24.9065  25.9945  25.9945

          k = 0.0000 0.0000 0.1804 (  1393 PWs)   bands (ev):

   -34.9843  -3.2557   4.6616  15.0889  25.2026  25.2026  26.2326  26.2326

          k = 0.0000 0.0000 0.2706 (  1388 PWs)   bands (ev):

   -34.9833  -3.2277   4.2228  17.5933  22.8942  25.4801  25.4801  26.4921

          k = 0.0000 0.1129 0.0000 (  1421 PWs)   bands (ev):

   -34.9707  -2.9939   6.0365  12.1405  21.2174  22.8107  25.8198  28.3979

          k = 0.0000 0.1129 0.0902 (  1404 PWs)   bands (ev):

   -34.9702  -2.9758   5.6255  13.0410  21.2964  22.9293  25.8452  28.4694

          k = 0.0000 0.1129 0.1804 (  1404 PWs)   bands (ev):

   -34.9691  -2.9338   4.9069  15.1948  21.4918  23.2354  25.5409  26.8843

          k = 0.0000 0.1129 0.2706 (  1394 PWs)   bands (ev):

   -34.9682  -2.8986   4.4452  17.7274  21.6979  22.8602  23.5403  26.5559

          k = 0.0000 0.2257 0.0000 (  1413 PWs)   bands (ev):

   -34.9304  -2.0680   6.9846  12.1066  16.9304  20.9029  24.1384  25.6758

          k = 0.0000 0.2257 0.0902 (  1410 PWs)   bands (ev):

   -34.9300  -2.0397   6.4761  13.0509  17.0245  21.0299  23.8160  25.3355

          k = 0.0000 0.2257 0.1804 (  1410 PWs)   bands (ev):

   -34.9290  -1.9731   5.6355  15.0559  17.3940  21.3626  22.9594  24.8060

          k = 0.0000 0.2257 0.2706 (  1390 PWs)   bands (ev):

   -34.9282  -1.9166   5.1102  16.4209  18.8256  21.5087  21.7040  24.2669

          k = 0.0000 0.3386 0.0000 (  1401 PWs)   bands (ev):

   -34.8804  -0.5391   8.5611  10.6595  14.6540  19.5275  21.1891  22.1348

          k = 0.0000 0.3386 0.0902 (  1401 PWs)   bands (ev):

   -34.8800  -0.4950   7.8128  11.3046  15.1674  19.6612  20.2940  22.9499

          k = 0.0000 0.3386 0.1804 (  1403 PWs)   bands (ev):

   -34.8793  -0.3900   6.7935  11.9777  16.5505  19.5409  20.0154  23.4706

          k = 0.0000 0.3386 0.2706 (  1399 PWs)   bands (ev):

   -34.8787  -0.2991   6.1936  12.2592  17.5228  19.9749  20.3882  23.7047

          k = 0.0000 0.4515 0.0000 (  1399 PWs)   bands (ev):

   -34.8397   1.5661   7.4519  10.7478  14.8289  17.1902  18.7001  20.3249

          k = 0.0000 0.4515 0.0902 (  1407 PWs)   bands (ev):

   -34.8395   1.6297   7.4317  10.1900  15.0577  17.4152  18.8379  21.1379

          k = 0.0000 0.4515 0.1804 (  1403 PWs)   bands (ev):

   -34.8390   1.7813   7.4104   9.2128  14.8739  18.8432  19.2059  22.5668

          k = 0.0000 0.4515 0.2706 (  1406 PWs)   bands (ev):

   -34.8385   1.9130   7.4535   8.5071  14.6262  19.5997  20.3256  23.7467

          k = 0.0000-0.5643 0.0000 (  1380 PWs)   bands (ev):

   -34.8242   3.8453   4.6984  13.0052  14.3207  15.1882  18.4241  19.4863

          k = 0.0000-0.5643 0.0902 (  1390 PWs)   bands (ev):

   -34.8240   3.9434   4.7432  11.7918  13.5986  17.1440  18.5633  20.2016

          k = 0.0000-0.5643 0.1804 (  1400 PWs)   bands (ev):

   -34.8235   4.0903   5.0156   9.9023  13.3146  18.9359  19.2558  22.2122

          k = 0.0000-0.5643 0.2706 (  1414 PWs)   bands (ev):

   -34.8231   4.1255   5.5251   8.5520  13.1743  19.3371  20.4121  23.4233

          k = 0.0977 0.1693 0.0000 (  1415 PWs)   bands (ev):

   -34.9429  -2.3759   6.6687  12.1829  18.4911  19.9268  27.4965  27.5077

          k = 0.0977 0.1693 0.0902 (  1414 PWs)   bands (ev):

   -34.9424  -2.3509   6.1949  13.1308  18.5590  20.0243  26.5988  27.4523

          k = 0.0977 0.1693 0.1804 (  1400 PWs)   bands (ev):

   -34.9414  -2.2925   5.3948  15.3142  18.7097  20.3307  25.0356  25.7456

          k = 0.0977 0.1693 0.2706 (  1398 PWs)   bands (ev):

   -34.9406  -2.2430   4.8898  17.7303  18.8573  20.8929  22.7081  24.1228

          k = 0.0977 0.2822 0.0000 (  1405 PWs)   bands (ev):

   -34.8977  -1.1481   7.9313  11.8313  15.0327  18.0618  23.4825  25.7133

          k = 0.0977 0.2822 0.0902 (  1404 PWs)   bands (ev):

   -34.8973  -1.1101   7.3075  12.7225  15.2253  18.1497  22.7060  25.4613

          k = 0.0977 0.2822 0.1804 (  1400 PWs)   bands (ev):

   -34.8965  -1.0202   6.3522  14.0315  16.0802  18.5318  21.4266  24.4051

          k = 0.0977 0.2822 0.2706 (  1400 PWs)   bands (ev):

   -34.8959  -0.9430   5.7731  14.5207  17.3202  19.3507  20.8939  22.7227

          k = 0.0977 0.3950 0.0000 (  1405 PWs)   bands (ev):

   -34.8524   0.6721   9.3344   9.8165  13.9633  17.0594  19.3184  23.4301

          k = 0.0977 0.3950 0.0902 (  1401 PWs)   bands (ev):

   -34.8521   0.7274   8.5624  10.1856  14.5693  16.9130  19.3362  23.6371

          k = 0.0977 0.3950 0.1804 (  1395 PWs)   bands (ev):

   -34.8515   0.8599   7.6114  10.3959  15.5691  16.7262  19.7695  23.2321

          k = 0.0977 0.3950 0.2706 (  1396 PWs)   bands (ev):

   -34.8510   0.9758   7.0360  10.4688  15.9995  16.6067  21.0192  22.8517

          k = 0.0977 0.5079 0.0000 (  1392 PWs)   bands (ev):

   -34.8243   3.0347   6.0808  12.2620  14.0670  15.6763  16.6976  21.8903

          k = 0.0977 0.5079 0.0902 (  1394 PWs)   bands (ev):

   -34.8240   3.1100   6.1375  11.3093  14.2823  15.1571  18.3369  22.0157

          k = 0.0977 0.5079 0.1804 (  1402 PWs)   bands (ev):

   -34.8236   3.2820   6.3611   9.7709  13.8229  15.6951  20.5037  22.1911

          k = 0.0977 0.5079 0.2706 (  1400 PWs)   bands (ev):

   -34.8232   3.4201   6.7927   8.5244  13.5947  16.0079  21.1651  23.4794

          k = 0.1955 0.3386 0.0000 (  1398 PWs)   bands (ev):

   -34.8572   0.3726   9.5043  11.1616  12.2681  16.5060  21.2869  23.3345

          k = 0.1955 0.3386 0.0902 (  1401 PWs)   bands (ev):

   -34.8569   0.4249   8.6012  12.0257  12.4214  16.7888  20.4105  22.6843

          k = 0.1955 0.3386 0.1804 (  1392 PWs)   bands (ev):

   -34.8563   0.5503   7.5024  12.3919  13.2998  17.8134  18.7710  22.7405

          k = 0.1955 0.3386 0.2706 (  1398 PWs)   bands (ev):

   -34.8558   0.6600   6.8701  12.4699  13.9700  17.5162  19.2776  22.9239

          k = 0.1955 0.4515 0.0000 (  1399 PWs)   bands (ev):

   -34.8244   2.4704   8.3421  11.1517  11.6814  16.6373  17.9912  21.6617

          k = 0.1955 0.4515 0.0902 (  1396 PWs)   bands (ev):

   -34.8242   2.5392   8.3256  10.5572  11.9941  16.3524  18.2372  20.9544

          k = 0.1955 0.4515 0.1804 (  1390 PWs)   bands (ev):

   -34.8237   2.7043   8.2733   9.7694  12.2587  15.6142  18.3692  22.2644

          k = 0.1955 0.4515 0.2706 (  1395 PWs)   bands (ev):

   -34.8233   2.8492   8.2284   9.2379  12.6032  14.6764  18.7738  24.3609

          k = 0.1955 0.5643 0.0000 (  1388 PWs)   bands (ev):

   -34.8118   4.7686   5.5621  10.9531  13.9125  15.2283  16.9745  21.1645

          k = 0.1955 0.5643 0.0902 (  1384 PWs)   bands (ev):

   -34.8116   4.8598   5.6212  10.8913  13.1316  14.4866  18.4821  20.0737

          k = 0.1955 0.5643 0.1804 (  1394 PWs)   bands (ev):

   -34.8112   4.9985   5.9074  10.4023  12.0400  13.9652  18.5579  22.3813

          k = 0.1955 0.5643 0.2706 (  1394 PWs)   bands (ev):

   -34.8108   5.0391   6.3905   9.4169  12.1917  13.1803  18.6368  25.5324

          k = 0.2932 0.5079 0.0000 (  1386 PWs)   bands (ev):

   -34.8071   4.8105   7.5986   8.1068  14.0582  16.7875  17.5460  18.6218

          k = 0.2932 0.5079 0.0902 (  1392 PWs)   bands (ev):

   -34.8069   4.8911   7.6120   8.2384  13.2332  15.9682  16.7138  20.2621

          k = 0.2932 0.5079 0.1804 (  1391 PWs)   bands (ev):

   -34.8065   5.0719   7.6719   8.6855  11.6735  14.1390  17.0963  23.0829

          k = 0.2932 0.5079 0.2706 (  1387 PWs)   bands (ev):

   -34.8061   5.2104   7.8354   9.3864  10.3369  12.9209  17.5528  26.1139

     the Fermi energy is    10.8316 ev

!    total energy              =     -22.79699862 Ry
     estimated scf accuracy    <          2.5E-11 Ry
     smearing contrib. (-TS)   =       0.00065663 Ry
     internal energy E=F+TS    =     -22.79765525 Ry

     The total energy is F=E-TS. E is the sum of the following terms:
     one-electron contribution =      -0.99492237 Ry
     hartree contribution      =       2.90070964 Ry
     xc contribution           =      -6.82988651 Ry
     ewald contribution        =     -17.87355601 Ry

     convergence has been achieved in   6 iterations

     Forces acting on atoms (cartesian axes, Ry/au):

     atom    1 type  1   force =    -0.00000000   -0.00000000    0.00000000
     atom    2 type  2   force =    -0.00000000   -0.00000000    0.00000000
     The non-local contrib.  to forces
     atom    1 type  1   force =     0.00000000    0.00000000    0.00000000
     atom    2 type  2   force =    -0.00000000   -0.00000000    0.00000000
     The ionic contribution  to forces
     atom    1 type  1   force =     0.00000000   -0.00000000   -0.00000000
     atom    2 type  2   force =    -0.00000000    0.00000000   -0.00000000
     The local contribution  to forces
     atom    1 type  1   force =     0.00000044   -0.00000025    0.00000000
     atom    2 type  2   force =    -0.00000000   -0.00000000    0.00000000
     The core correction contribution to forces
     atom    1 type  1   force =     0.00000000    0.00000000    0.00000000
     atom    2 type  2   force =     0.00000000   -0.00000000   -0.00000000
     The Hubbard contrib.    to forces
     atom    1 type  1   force =     0.00000000    0.00000000    0.00000000
     atom    2 type  2   force =     0.00000000    0.00000000    0.00000000
     The SCF correction term to forces
     atom    1 type  1   force =     0.00000000   -0.00000000   -0.00000000
     atom    2 type  2   force =    -0.00000000    0.00000000   -0.00000000

     Total force =     0.000000     Total SCF correction =     0.000000


     Computing stress (Cartesian axis) and pressure

          total   stress  (Ry/bohr**3)                   (kbar)     P=      502.03
   0.00339761   0.00000000   0.00000000          499.81        0.00        0.00
   0.00000000   0.00339761   0.00000000            0.00      499.81        0.00
   0.00000000   0.00000000   0.00344288            0.00        0.00      506.47

     Energy error            =      5.0E-05 Ry
     Gradient error          =      2.2E-24 Ry/Bohr
     Cell gradient error     =      6.5E+00 kbar

     number of scf cycles    =   4
     number of bfgs steps    =   3

     enthalpy           old  =     -22.3647417418 Ry
     enthalpy           new  =     -22.3647914328 Ry

     CASE: enthalpy          _new < enthalpy          _old

     new trust radius        =       0.0031970851 bohr
ibrav =      4
 celldm(1) =      4.55839307
 celldm(3) =      1.55111299
Input lattice vectors:
     1.02264665     0.00000000     0.00000000
    -0.51132332     0.88563798     0.00000000
     0.00000000     0.00000000     1.58624050
New lattice vectors in INITIAL alat:
     1.02264665     0.00000000     0.00000000
    -0.51132332     0.88563798     0.00000000
     0.00000000     0.00000000     1.58624050
New lattice vectors in NEW alat (for information only):
     1.00000000     0.00000000     0.00000000
    -0.50000000     0.86602540     0.00000000
     0.00000000     0.00000000     1.55111299
Discrepancy in bohr =     0.000000    0.000000    0.000000
     new conv_thr            =            1.0E-10 Ry

     new unit-cell volume =    127.23582 a.u.^3 (    18.85440 Ang^3 )
     density =      3.08484 g/cm^3

CELL_PARAMETERS (alat=  4.45744684)
   1.022646647   0.000000000   0.000000000
  -0.511323324   0.885637976   0.000000000
   0.000000000   0.000000000   1.586240502

ATOMIC_POSITIONS (crystal)
Li            0.3333333300        0.6666666700        0.5000000000
Si           -0.0000000000       -0.0000000000        0.0000000000



     Writing config-only to output data dir ./output/LiSi.save/
     NEW-OLD atomic charge density approx. for the potential
     extrapolated charge    7.00418, renormalised to    7.00000

     total cpu time spent up to now is        9.2 secs

     Self-consistent Calculation

     iteration #  1     ecut=    80.00 Ry     beta= 0.70
     Davidson diagonalization with overlap
     ethr =  1.00E-06,  avg # of iterations =  2.0

     Threshold (ethr) on eigenvalues was too large:
     Diagonalizing with lowered threshold

     Davidson diagonalization with overlap
     ethr =  3.66E-09,  avg # of iterations =  2.2

     total cpu time spent up to now is        9.7 secs

     total energy              =     -22.79726157 Ry
     estimated scf accuracy    <       0.00000029 Ry

     iteration #  2     ecut=    80.00 Ry     beta= 0.70
     Davidson diagonalization with overlap
     ethr =  4.12E-09,  avg # of iterations =  2.0

     total cpu time spent up to now is       10.0 secs

     total energy              =     -22.79726188 Ry
     estimated scf accuracy    <       0.00000010 Ry

     iteration #  3     ecut=    80.00 Ry     beta= 0.70
     Davidson diagonalization with overlap
     ethr =  1.40E-09,  avg # of iterations =  1.1

     total cpu time spent up to now is       10.2 secs

     total energy              =     -22.79726188 Ry
     estimated scf accuracy    <          8.2E-09 Ry

     iteration #  4     ecut=    80.00 Ry     beta= 0.70
     Davidson diagonalization with overlap
     ethr =  1.17E-10,  avg # of iterations =  1.1

     total cpu time spent up to now is       10.4 secs

     total energy              =     -22.79726188 Ry
     estimated scf accuracy    <          9.9E-10 Ry

     iteration #  5     ecut=    80.00 Ry     beta= 0.70
     Davidson diagonalization with overlap
     ethr =  1.41E-11,  avg # of iterations =  2.0

     total cpu time spent up to now is       10.6 secs

     End of self-consistent calculation

          k = 0.0000 0.0000 0.0000 (  1411 PWs)   bands (ev):

   -34.9960  -3.3154   5.6972  12.0739  24.8031  24.8031  25.9246  25.9246

          k = 0.0000 0.0000 0.0901 (  1405 PWs)   bands (ev):

   -34.9955  -3.3011   5.3193  12.9426  24.9196  24.9196  26.0141  26.0141

          k = 0.0000 0.0000 0.1801 (  1393 PWs)   bands (ev):

   -34.9943  -3.2681   4.6474  15.0505  25.2124  25.2124  26.2511  26.2511

          k = 0.0000 0.0000 0.2702 (  1388 PWs)   bands (ev):

   -34.9934  -3.2406   4.2118  17.5442  22.8340  25.4863  25.4863  26.5090

          k = 0.0000 0.1129 0.0000 (  1421 PWs)   bands (ev):

   -34.9806  -3.0049   6.0138  12.1181  21.2274  22.8264  25.8316  28.4165

          k = 0.0000 0.1129 0.0901 (  1404 PWs)   bands (ev):

   -34.9801  -2.9872   5.6064  13.0136  21.3056  22.9441  25.8548  28.4872

          k = 0.0000 0.1129 0.1801 (  1404 PWs)   bands (ev):

   -34.9790  -2.9458   4.8932  15.1579  21.4983  23.2478  25.5169  26.8672

          k = 0.0000 0.1129 0.2702 (  1394 PWs)   bands (ev):

   -34.9781  -2.9112   4.4348  17.6811  21.6978  22.8096  23.5497  26.5656

          k = 0.0000 0.2258 0.0000 (  1413 PWs)   bands (ev):

   -34.9402  -2.0779   6.9628  12.0898  16.9311  20.9182  24.1432  25.6725

          k = 0.0000 0.2258 0.0901 (  1410 PWs)   bands (ev):

   -34.9398  -2.0499   6.4585  13.0301  17.0234  21.0444  23.8205  25.3347

          k = 0.0000 0.2258 0.1801 (  1410 PWs)   bands (ev):

   -34.9389  -1.9842   5.6235  15.0341  17.3839  21.3746  22.9615  24.8021

          k = 0.0000 0.2258 0.2702 (  1390 PWs)   bands (ev):

   -34.9381  -1.9285   5.1014  16.4155  18.7911  21.4914  21.7130  24.2473

          k = 0.0000 0.3387 0.0000 (  1401 PWs)   bands (ev):

   -34.8901  -0.5471   8.5409  10.6587  14.6360  19.5425  21.1811  22.1344

          k = 0.0000 0.3387 0.0901 (  1401 PWs)   bands (ev):

   -34.8897  -0.5034   7.7986  11.3019  15.1448  19.6753  20.2918  22.9450

          k = 0.0000 0.3387 0.1801 (  1403 PWs)   bands (ev):

   -34.8890  -0.3995   6.7846  11.9761  16.5246  19.5368  20.0271  23.4639

          k = 0.0000 0.3387 0.2702 (  1399 PWs)   bands (ev):

   -34.8885  -0.3096   6.1877  12.2576  17.5162  19.9488  20.3967  23.6809

          k = 0.0000 0.4517 0.0000 (  1399 PWs)   bands (ev):

   -34.8493   1.5606   7.4523  10.7300  14.8071  17.1779  18.7149  20.3204

          k = 0.0000 0.4517 0.0901 (  1407 PWs)   bands (ev):

   -34.8491   1.6236   7.4320  10.1757  15.0388  17.4022  18.8518  21.1276

          k = 0.0000 0.4517 0.1801 (  1403 PWs)   bands (ev):

   -34.8486   1.7737   7.4102   9.2039  14.8650  18.8239  19.2174  22.5492

          k = 0.0000 0.4517 0.2702 (  1406 PWs)   bands (ev):

   -34.8481   1.9042   7.4523   8.5024  14.6219  19.6079  20.3118  23.7617

          k = 0.0000-0.5646 0.0000 (  1380 PWs)   bands (ev):

   -34.8337   3.8426   4.6961  12.9913  14.3039  15.1662  18.4387  19.4803

          k = 0.0000-0.5646 0.0901 (  1390 PWs)   bands (ev):

   -34.8335   3.9390   4.7418  11.7805  13.5847  17.1226  18.5771  20.1886

          k = 0.0000-0.5646 0.1801 (  1400 PWs)   bands (ev):

   -34.8331   4.0829   5.0148   9.8968  13.3049  18.9473  19.2409  22.1820

          k = 0.0000-0.5646 0.2702 (  1414 PWs)   bands (ev):

   -34.8327   4.1176   5.5207   8.5527  13.1668  19.3452  20.4055  23.4380

          k = 0.0978 0.1694 0.0000 (  1415 PWs)   bands (ev):

   -34.9527  -2.3862   6.6466  12.1633  18.4983  19.9354  27.4960  27.5249

          k = 0.0978 0.1694 0.0901 (  1414 PWs)   bands (ev):

   -34.9523  -2.3615   6.1768  13.1064  18.5652  20.0322  26.6016  27.4633

          k = 0.0978 0.1694 0.1801 (  1400 PWs)   bands (ev):

   -34.9513  -2.3039   5.3822  15.2820  18.7138  20.3353  25.0395  25.7228

          k = 0.0978 0.1694 0.2702 (  1398 PWs)   bands (ev):

   -34.9505  -2.2552   4.8804  17.6961  18.8601  20.8841  22.6685  24.1346

          k = 0.0978 0.2823 0.0000 (  1405 PWs)   bands (ev):

   -34.9074  -1.1568   7.9105  11.8222  15.0304  18.0636  23.4774  25.7166

          k = 0.0978 0.2823 0.0901 (  1404 PWs)   bands (ev):

   -34.9071  -1.1192   7.2915  12.7118  15.2194  18.1504  22.7040  25.4639

          k = 0.0978 0.2823 0.1801 (  1400 PWs)   bands (ev):

   -34.9063  -1.0304   6.3419  14.0276  16.0648  18.5264  21.4273  24.4042

          k = 0.0978 0.2823 0.2702 (  1400 PWs)   bands (ev):

   -34.9057  -0.9541   5.7660  14.5199  17.3134  19.3409  20.8799  22.7010

          k = 0.0978 0.3952 0.0000 (  1405 PWs)   bands (ev):

   -34.8620   0.6655   9.3357   9.7977  13.9535  17.0536  19.3085  23.4250

          k = 0.0978 0.3952 0.0901 (  1401 PWs)   bands (ev):

   -34.8617   0.7203   8.5557  10.1783  14.5585  16.9073  19.3258  23.6321

          k = 0.0978 0.3952 0.1801 (  1395 PWs)   bands (ev):

   -34.8611   0.8515   7.6059  10.3923  15.5639  16.7215  19.7513  23.2328

          k = 0.0978 0.3952 0.2702 (  1396 PWs)   bands (ev):

   -34.8607   0.9663   7.0324  10.4660  15.9992  16.6063  21.0040  22.8327

          k = 0.0978 0.5081 0.0000 (  1392 PWs)   bands (ev):

   -34.8338   3.0308   6.0800  12.2461  14.0636  15.6622  16.6831  21.8819

          k = 0.0978 0.5081 0.0901 (  1394 PWs)   bands (ev):

   -34.8336   3.1054   6.1368  11.2975  14.2731  15.1552  18.3136  22.0051

          k = 0.0978 0.5081 0.1801 (  1402 PWs)   bands (ev):

   -34.8331   3.2756   6.3600   9.7643  13.8171  15.6949  20.4812  22.1817

          k = 0.0978 0.5081 0.2702 (  1400 PWs)   bands (ev):

   -34.8328   3.4123   6.7891   8.5238  13.5903  16.0091  21.1656  23.4631

          k = 0.1956 0.3387 0.0000 (  1398 PWs)   bands (ev):

   -34.8668   0.3657   9.4851  11.1601  12.2717  16.4885  21.2808  23.3250

          k = 0.1956 0.3387 0.0901 (  1401 PWs)   bands (ev):

   -34.8666   0.4175   8.5890  12.0210  12.4240  16.7690  20.4063  22.6772

          k = 0.1956 0.3387 0.1801 (  1392 PWs)   bands (ev):

   -34.8659   0.5416   7.4952  12.3903  13.3004  17.7907  18.7715  22.7284

          k = 0.1956 0.3387 0.2702 (  1398 PWs)   bands (ev):

   -34.8655   0.6502   6.8658  12.4677  13.9708  17.5235  19.2598  22.8876

          k = 0.1956 0.4517 0.0000 (  1399 PWs)   bands (ev):

   -34.8339   2.4658   8.3430  11.1551  11.6646  16.6135  17.9805  21.6517

          k = 0.1956 0.4517 0.0901 (  1396 PWs)   bands (ev):

   -34.8337   2.5340   8.3262  10.5520  11.9890  16.3368  18.2213  20.9412

          k = 0.1956 0.4517 0.1801 (  1390 PWs)   bands (ev):

   -34.8332   2.6976   8.2735   9.7633  12.2595  15.6088  18.3565  22.2378

          k = 0.1956 0.4517 0.2702 (  1395 PWs)   bands (ev):

   -34.8329   2.8410   8.2283   9.2335  12.6038  14.6782  18.7653  24.3205

          k = 0.1956 0.5646 0.0000 (  1388 PWs)   bands (ev):

   -34.8213   4.7660   5.5612  10.9570  13.8994  15.2130  16.9495  21.1436

          k = 0.1956 0.5646 0.0901 (  1384 PWs)   bands (ev):

   -34.8211   4.8557   5.6210  10.8943  13.1222  14.4731  18.4615  20.0554

          k = 0.1956 0.5646 0.1801 (  1394 PWs)   bands (ev):

   -34.8207   4.9919   5.9070  10.4015  12.0401  13.9563  18.5505  22.3450

          k = 0.1956 0.5646 0.2702 (  1394 PWs)   bands (ev):

   -34.8204   5.0320   6.3863   9.4192  12.1924  13.1774  18.6309  25.4887

          k = 0.2934 0.5081 0.0000 (  1386 PWs)   bands (ev):

   -34.8166   4.8081   7.5954   8.1131  14.0444  16.7771  17.5205  18.6066

          k = 0.2934 0.5081 0.0901 (  1392 PWs)   bands (ev):

   -34.8164   4.8878   7.6083   8.2450  13.2221  15.9576  16.7013  20.2349

          k = 0.2934 0.5081 0.1801 (  1391 PWs)   bands (ev):

   -34.8160   5.0668   7.6680   8.6909  11.6683  14.1352  17.0847  23.0468

          k = 0.2934 0.5081 0.2702 (  1387 PWs)   bands (ev):

   -34.8157   5.2038   7.8300   9.3898  10.3367  12.9226  17.5416  26.0680

     the Fermi energy is    10.8282 ev

!    total energy              =     -22.79726188 Ry
     estimated scf accuracy    <          6.7E-12 Ry
     smearing contrib. (-TS)   =       0.00066352 Ry
     internal energy E=F+TS    =     -22.79792541 Ry

     The total energy is F=E-TS. E is the sum of the following terms:
     one-electron contribution =      -0.99891735 Ry
     hartree contribution      =       2.90059183 Ry
     xc contribution           =      -6.82960674 Ry
     ewald contribution        =     -17.86999315 Ry

     convergence has been achieved in   5 iterations

     Forces acting on atoms (cartesian axes, Ry/au):

     atom    1 type  1   force =     0.00000000    0.00000000    0.00000000
     atom    2 type  2   force =     0.00000000    0.00000000    0.00000000
     The non-local contrib.  to forces
     atom    1 type  1   force =     0.00000000   -0.00000000    0.00000000
     atom    2 type  2   force =    -0.00000000   -0.00000000    0.00000000
     The ionic contribution  to forces
     atom    1 type  1   force =     0.00000000   -0.00000000   -0.00000000
     atom    2 type  2   force =    -0.00000000    0.00000000   -0.00000000
     The local contribution  to forces
     atom    1 type  1   force =     0.00000044   -0.00000025    0.00000000
     atom    2 type  2   force =    -0.00000000   -0.00000000    0.00000000
     The core correction contribution to forces
     atom    1 type  1   force =     0.00000000    0.00000000    0.00000000
     atom    2 type  2   force =     0.00000000    0.00000000   -0.00000000
     The Hubbard contrib.    to forces
     atom    1 type  1   force =     0.00000000    0.00000000    0.00000000
     atom    2 type  2   force =     0.00000000    0.00000000    0.00000000
     The SCF correction term to forces
     atom    1 type  1   force =    -0.00000000    0.00000000   -0.00000000
     atom    2 type  2   force =     0.00000000   -0.00000000   -0.00000000

     Total force =     0.000000     Total SCF correction =     0.000000


     Computing stress (Cartesian axis) and pressure

          total   stress  (Ry/bohr**3)                   (kbar)     P=      500.91
   0.00340325   0.00000000   0.00000000          500.64        0.00        0.00
   0.00000000   0.00340325   0.00000000            0.00      500.64        0.00
   0.00000000   0.00000000   0.00340886            0.00        0.00      501.46

     Energy error            =      4.7E-06 Ry
     Gradient error          =      0.0E+00 Ry/Bohr
     Cell gradient error     =      1.5E+00 kbar

     number of scf cycles    =   5
     number of bfgs steps    =   4

     enthalpy           old  =     -22.3647914328 Ry
     enthalpy           new  =     -22.3647961312 Ry

     CASE: enthalpy          _new < enthalpy          _old

     new trust radius        =       0.0007240760 bohr
ibrav =      4
 celldm(1) =      4.55855851
 celldm(3) =      1.55155453
Input lattice vectors:
     1.02268376     0.00000000     0.00000000
    -0.51134188     0.88567012     0.00000000
     0.00000000     0.00000000     1.58674962
New lattice vectors in INITIAL alat:
     1.02268376     0.00000000     0.00000000
    -0.51134188     0.88567012     0.00000000
     0.00000000     0.00000000     1.58674962
New lattice vectors in NEW alat (for information only):
     1.00000000     0.00000000     0.00000000
    -0.50000000     0.86602540     0.00000000
     0.00000000     0.00000000     1.55155453
Discrepancy in bohr =     0.000000    0.000000    0.000000
     new conv_thr            =            1.0E-10 Ry

     new unit-cell volume =    127.28589 a.u.^3 (    18.86182 Ang^3 )
     density =      3.08363 g/cm^3

CELL_PARAMETERS (alat=  4.45744684)
   1.022683762   0.000000000   0.000000000
  -0.511341881   0.885670118   0.000000000
   0.000000000   0.000000000   1.586749620

ATOMIC_POSITIONS (crystal)
Li            0.3333333300        0.6666666700        0.5000000000
Si           -0.0000000000       -0.0000000000        0.0000000000



     Writing config-only to output data dir ./output/LiSi.save/
     NEW-OLD atomic charge density approx. for the potential
     extrapolated charge    7.00275, renormalised to    7.00000

     total cpu time spent up to now is       11.0 secs

     Self-consistent Calculation

     iteration #  1     ecut=    80.00 Ry     beta= 0.70
     Davidson diagonalization with overlap
     ethr =  1.00E-06,  avg # of iterations =  1.0

     Threshold (ethr) on eigenvalues was too large:
     Diagonalizing with lowered threshold

     Davidson diagonalization with overlap
     ethr =  4.43E-10,  avg # of iterations =  3.3

[...]
        k(    2) = (   0.0000000   0.0000000   0.0900313), wk =   0.0057143
        k(    3) = (   0.0000000   0.0000000   0.1800626), wk =   0.0057143
        k(    4) = (   0.0000000   0.0000000   0.2700939), wk =   0.0057143
        k(    5) = (   0.0000000   0.1129089   0.0000000), wk =   0.0171429
        k(    6) = (   0.0000000   0.1129089   0.0900313), wk =   0.0342857
        k(    7) = (   0.0000000   0.1129089   0.1800626), wk =   0.0342857
        k(    8) = (   0.0000000   0.1129089   0.2700939), wk =   0.0342857
        k(    9) = (   0.0000000   0.2258177   0.0000000), wk =   0.0171429
        k(   10) = (   0.0000000   0.2258177   0.0900313), wk =   0.0342857
        k(   11) = (   0.0000000   0.2258177   0.1800626), wk =   0.0342857
        k(   12) = (   0.0000000   0.2258177   0.2700939), wk =   0.0342857
        k(   13) = (   0.0000000   0.3387266   0.0000000), wk =   0.0171429
        k(   14) = (   0.0000000   0.3387266   0.0900313), wk =   0.0342857
        k(   15) = (   0.0000000   0.3387266   0.1800626), wk =   0.0342857
        k(   16) = (   0.0000000   0.3387266   0.2700939), wk =   0.0342857
        k(   17) = (   0.0000000   0.4516354   0.0000000), wk =   0.0171429
        k(   18) = (   0.0000000   0.4516354   0.0900313), wk =   0.0342857
        k(   19) = (   0.0000000   0.4516354   0.1800626), wk =   0.0342857
        k(   20) = (   0.0000000   0.4516354   0.2700939), wk =   0.0342857
        k(   21) = (   0.0000000  -0.5645443   0.0000000), wk =   0.0085714
        k(   22) = (   0.0000000  -0.5645443   0.0900313), wk =   0.0171429
        k(   23) = (   0.0000000  -0.5645443   0.1800626), wk =   0.0171429
        k(   24) = (   0.0000000  -0.5645443   0.2700939), wk =   0.0171429
        k(   25) = (   0.0977819   0.1693633   0.0000000), wk =   0.0171429
        k(   26) = (   0.0977819   0.1693633   0.0900313), wk =   0.0342857
        k(   27) = (   0.0977819   0.1693633   0.1800626), wk =   0.0342857
        k(   28) = (   0.0977819   0.1693633   0.2700939), wk =   0.0342857
        k(   29) = (   0.0977819   0.2822721   0.0000000), wk =   0.0342857
        k(   30) = (   0.0977819   0.2822721   0.0900313), wk =   0.0685714
        k(   31) = (   0.0977819   0.2822721   0.1800626), wk =   0.0685714
        k(   32) = (   0.0977819   0.2822721   0.2700939), wk =   0.0685714
        k(   33) = (   0.0977819   0.3951810   0.0000000), wk =   0.0342857
        k(   34) = (   0.0977819   0.3951810   0.0900313), wk =   0.0685714
        k(   35) = (   0.0977819   0.3951810   0.1800626), wk =   0.0685714
        k(   36) = (   0.0977819   0.3951810   0.2700939), wk =   0.0685714
        k(   37) = (   0.0977819   0.5080899   0.0000000), wk =   0.0342857
        k(   38) = (   0.0977819   0.5080899   0.0900313), wk =   0.0685714
        k(   39) = (   0.0977819   0.5080899   0.1800626), wk =   0.0685714
        k(   40) = (   0.0977819   0.5080899   0.2700939), wk =   0.0685714
        k(   41) = (   0.1955639   0.3387266   0.0000000), wk =   0.0171429
        k(   42) = (   0.1955639   0.3387266   0.0900313), wk =   0.0342857
        k(   43) = (   0.1955639   0.3387266   0.1800626), wk =   0.0342857
        k(   44) = (   0.1955639   0.3387266   0.2700939), wk =   0.0342857
        k(   45) = (   0.1955639   0.4516354   0.0000000), wk =   0.0342857
        k(   46) = (   0.1955639   0.4516354   0.0900313), wk =   0.0685714
        k(   47) = (   0.1955639   0.4516354   0.1800626), wk =   0.0685714
        k(   48) = (   0.1955639   0.4516354   0.2700939), wk =   0.0685714
        k(   49) = (   0.1955639   0.5645443   0.0000000), wk =   0.0171429
        k(   50) = (   0.1955639   0.5645443   0.0900313), wk =   0.0342857
        k(   51) = (   0.1955639   0.5645443   0.1800626), wk =   0.0342857
        k(   52) = (   0.1955639   0.5645443   0.2700939), wk =   0.0342857
        k(   53) = (   0.2933458   0.5080899   0.0000000), wk =   0.0171429
        k(   54) = (   0.2933458   0.5080899   0.0900313), wk =   0.0342857
        k(   55) = (   0.2933458   0.5080899   0.1800626), wk =   0.0342857
        k(   56) = (   0.2933458   0.5080899   0.2700939), wk =   0.0342857

     Dense  grid:    12251 G-vectors     FFT dimensions: (  25,  25,  45)

     Estimated max dynamical RAM per process >      13.97 MB

     Estimated total dynamical RAM >     111.79 MB

     Initial potential from superposition of free atoms

     starting charge       6.9948, renormalised to       7.0000
     Starting wfcs are    6 randomized atomic wfcs +    2 random wfcs

     total cpu time spent up to now is       12.9 secs

     Self-consistent Calculation

     iteration #  1     ecut=    80.00 Ry     beta= 0.70
     Davidson diagonalization with overlap
     c_bands:  1 eigenvalues not converged
     c_bands:  1 eigenvalues not converged
     c_bands:  1 eigenvalues not converged
     c_bands:  1 eigenvalues not converged
     c_bands:  1 eigenvalues not converged
     c_bands:  1 eigenvalues not converged
     c_bands:  1 eigenvalues not converged
     c_bands:  2 eigenvalues not converged
     c_bands:  1 eigenvalues not converged
     c_bands:  1 eigenvalues not converged
     c_bands:  1 eigenvalues not converged
     c_bands:  1 eigenvalues not converged
     c_bands:  1 eigenvalues not converged
     c_bands:  1 eigenvalues not converged
     c_bands:  1 eigenvalues not converged
     c_bands:  1 eigenvalues not converged
     c_bands:  1 eigenvalues not converged
     c_bands:  1 eigenvalues not converged
     ethr =  1.00E-06,  avg # of iterations = 17.2

     total cpu time spent up to now is       13.8 secs

     total energy              =     -22.79698529 Ry
     estimated scf accuracy    <       0.00803629 Ry

     iteration #  2     ecut=    80.00 Ry     beta= 0.70
     Davidson diagonalization with overlap
     ethr =  1.15E-04,  avg # of iterations =  1.0

     total cpu time spent up to now is       14.0 secs

     total energy              =     -22.79737156 Ry
     estimated scf accuracy    <       0.00064340 Ry

     iteration #  3     ecut=    80.00 Ry     beta= 0.70
     Davidson diagonalization with overlap
     ethr =  9.19E-06,  avg # of iterations =  1.3

     total cpu time spent up to now is       14.2 secs

     total energy              =     -22.79743761 Ry
     estimated scf accuracy    <       0.00005627 Ry

     iteration #  4     ecut=    80.00 Ry     beta= 0.70
     Davidson diagonalization with overlap
     ethr =  8.04E-07,  avg # of iterations =  1.8

     total cpu time spent up to now is       14.4 secs

     total energy              =     -22.79744617 Ry
     estimated scf accuracy    <       0.00000049 Ry

     iteration #  5     ecut=    80.00 Ry     beta= 0.70
     Davidson diagonalization with overlap
     ethr =  7.06E-09,  avg # of iterations =  2.6

     total cpu time spent up to now is       14.7 secs

     total energy              =     -22.79744636 Ry
     estimated scf accuracy    <       0.00000002 Ry

     iteration #  6     ecut=    80.00 Ry     beta= 0.70
     Davidson diagonalization with overlap
     ethr =  2.37E-10,  avg # of iterations =  2.1

     total cpu time spent up to now is       15.0 secs

     total energy              =     -22.79744636 Ry
     estimated scf accuracy    <          8.0E-10 Ry

     iteration #  7     ecut=    80.00 Ry     beta= 0.70
     Davidson diagonalization with overlap
     ethr =  1.14E-11,  avg # of iterations =  2.0

     total cpu time spent up to now is       15.2 secs

     End of self-consistent calculation

          k = 0.0000 0.0000 0.0000 (  1533 PWs)   bands (ev):

   -35.0008  -3.3189   5.6911  12.0660  24.7994  24.7994  25.9195  25.9195

          k = 0.0000 0.0000 0.0900 (  1550 PWs)   bands (ev):

   -35.0002  -3.3047   5.3137  12.9340  24.9157  24.9157  26.0088  26.0088

          k = 0.0000 0.0000 0.1801 (  1580 PWs)   bands (ev):

   -34.9991  -3.2717   4.6424  15.0401  25.2081  25.2081  26.0318  26.2454

          k = 0.0000 0.0000 0.2701 (  1550 PWs)   bands (ev):

   -34.9981  -3.2442   4.2072  17.5320  22.8183  25.4815  25.4815  26.5028

          k = 0.0000 0.1129 0.0000 (  1523 PWs)   bands (ev):

   -34.9854  -3.0085   6.0077  12.1105  21.2230  22.8224  25.8260  28.4116

          k = 0.0000 0.1129 0.0900 (  1546 PWs)   bands (ev):

   -34.9849  -2.9907   5.6008  13.0052  21.3010  22.9399  25.8489  28.4823

          k = 0.0000 0.1129 0.1801 (  1560 PWs)   bands (ev):

   -34.9838  -2.9495   4.8883  15.1478  21.4933  23.2430  25.5060  26.8578

          k = 0.0000 0.1129 0.2701 (  1561 PWs)   bands (ev):

   -34.9829  -2.9149   4.4303  17.6693  21.6918  22.7956  23.5444  26.5594

          k = 0.0000 0.2258 0.0000 (  1537 PWs)   bands (ev):

   -34.9450  -2.0814   6.9567  12.0833  16.9259  20.9143  24.1373  25.6656

          k = 0.0000 0.2258 0.0900 (  1549 PWs)   bands (ev):

   -34.9446  -2.0534   6.4529  13.0229  17.0180  21.0403  23.8149  25.3278

          k = 0.0000 0.2258 0.1801 (  1547 PWs)   bands (ev):

   -34.9437  -1.9879   5.6188  15.0263  17.3772  21.3700  22.9560  24.7945

          k = 0.0000 0.2258 0.2701 (  1549 PWs)   bands (ev):

   -34.9429  -1.9322   5.0972  16.4096  18.7810  21.4833  21.7077  24.2377

          k = 0.0000 0.3387 0.0000 (  1545 PWs)   bands (ev):

   -34.8949  -0.5505   8.5347  10.6549  14.6284  19.5386  21.1744  22.1284

          k = 0.0000 0.3387 0.0900 (  1539 PWs)   bands (ev):

   -34.8945  -0.5069   7.7934  11.2975  15.1367  19.6713  20.2861  22.9379

          k = 0.0000 0.3387 0.1801 (  1543 PWs)   bands (ev):

   -34.8938  -0.4031   6.7803  11.9715  16.5162  19.5309  20.0226  23.4561

          k = 0.0000 0.3387 0.2701 (  1540 PWs)   bands (ev):

   -34.8933  -0.3134   6.1839  12.2529  17.5106  19.9398  20.3915  23.6704

          k = 0.0000 0.4516 0.0000 (  1532 PWs)   bands (ev):

   -34.8542   1.5573   7.4490  10.7237  14.7994  17.1713  18.7111  20.3142

          k = 0.0000 0.4516 0.0900 (  1529 PWs)   bands (ev):

   -34.8539   1.6202   7.4287  10.1698  15.0318  17.3954  18.8479  21.1202

          k = 0.0000 0.4516 0.1801 (  1531 PWs)   bands (ev):

   -34.8534   1.7701   7.4070   9.1987  14.8595  18.8159  19.2129  22.5401

          k = 0.0000 0.4516 0.2701 (  1534 PWs)   bands (ev):

   -34.8530   1.9003   7.4492   8.4978  14.6170  19.6027  20.3045  23.7583

          k = 0.0000-0.5645 0.0000 (  1534 PWs)   bands (ev):

   -34.8386   3.8397   4.6923  12.9848  14.2976  15.1587  18.4350  19.4739

          k = 0.0000-0.5645 0.0900 (  1536 PWs)   bands (ev):

   -34.8384   3.9358   4.7382  11.7747  13.5789  17.1147  18.5732  20.1810

          k = 0.0000-0.5645 0.1801 (  1532 PWs)   bands (ev):

   -34.8379   4.0794   5.0112   9.8924  13.2995  18.9429  19.2337  22.1713

          k = 0.0000-0.5645 0.2701 (  1516 PWs)   bands (ev):

   -34.8375   4.1140   5.5163   8.5498  13.1616  19.3400  20.3992  23.4347

          k = 0.0978 0.1694 0.0000 (  1539 PWs)   bands (ev):

   -34.9575  -2.3897   6.6405  12.1563  18.4943  19.9301  27.4889  27.5201

          k = 0.0978 0.1694 0.0900 (  1543 PWs)   bands (ev):

   -34.9570  -2.3651   6.1712  13.0986  18.5610  20.0268  26.5953  27.4569

          k = 0.0978 0.1694 0.1801 (  1554 PWs)   bands (ev):

   -34.9561  -2.3075   5.3774  15.2726  18.7093  20.3292  25.0340  25.7129

          k = 0.0978 0.1694 0.2701 (  1556 PWs)   bands (ev):

   -34.9553  -2.2589   4.8762  17.6859  18.8554  20.8760  22.6566  24.1304

          k = 0.0978 0.2823 0.0000 (  1542 PWs)   bands (ev):

   -34.9122  -1.1603   7.9043  11.8170  15.0253  18.0577  23.4706  25.7106

          k = 0.0978 0.2823 0.0900 (  1546 PWs)   bands (ev):

   -34.9119  -1.1227   7.2860  12.7062  15.2139  18.1444  22.6977  25.4582

          k = 0.0978 0.2823 0.1801 (  1547 PWs)   bands (ev):

   -34.9111  -1.0340   6.3374  14.0225  16.0579  18.5194  21.4218  24.3982

          k = 0.0978 0.2823 0.2701 (  1547 PWs)   bands (ev):

   -34.9105  -0.9578   5.7620  14.5151  17.3070  19.3341  20.8721  22.6919

          k = 0.0978 0.3952 0.0000 (  1536 PWs)   bands (ev):

   -34.8668   0.6621   9.3323   9.7914  13.9478  17.0468  19.3019  23.4180

          k = 0.0978 0.3952 0.0900 (  1537 PWs)   bands (ev):

   -34.8665   0.7168   8.5515  10.1733  14.5526  16.9009  19.3186  23.6252

          k = 0.0978 0.3952 0.1801 (  1532 PWs)   bands (ev):

   -34.8660   0.8478   7.6020  10.3876  15.5586  16.7157  19.7427  23.2271

          k = 0.0978 0.3952 0.2701 (  1533 PWs)   bands (ev):

   -34.8655   0.9625   7.0289  10.4614  15.9947  16.6008  20.9962  22.8240

          k = 0.0978 0.5081 0.0000 (  1540 PWs)   bands (ev):

   -34.8386   3.0276   6.0766  12.2397  14.0590  15.6557  16.6754  21.8744

          k = 0.0978 0.5081 0.0900 (  1534 PWs)   bands (ev):

   -34.8384   3.1020   6.1334  11.2918  14.2678  15.1500  18.3045  21.9973

          k = 0.0978 0.5081 0.1801 (  1532 PWs)   bands (ev):

   -34.8380   3.2720   6.3565   9.7598  13.8123  15.6897  20.4721  22.1745

          k = 0.0978 0.5081 0.2701 (  1525 PWs)   bands (ev):

   -34.8376   3.4084   6.7849   8.5206  13.5856  16.0038  21.1605  23.4545

          k = 0.1956 0.3387 0.0000 (  1531 PWs)   bands (ev):

   -34.8716   0.3623   9.4788  11.1563  12.2681  16.4798  21.2741  23.3182

          k = 0.1956 0.3387 0.0900 (  1531 PWs)   bands (ev):

   -34.8714   0.4141   8.5840  12.0164  12.4201  16.7603  20.4001  22.6704

          k = 0.1956 0.3387 0.1801 (  1538 PWs)   bands (ev):

   -34.8708   0.5380   7.4911  12.3862  13.2954  17.7820  18.7665  22.7205

          k = 0.1956 0.3387 0.2701 (  1546 PWs)   bands (ev):

   -34.8703   0.6464   6.8621  12.4635  13.9652  17.5200  19.2521  22.8760

          k = 0.1956 0.4516 0.0000 (  1533 PWs)   bands (ev):

   -34.8388   2.4625   8.3397  11.1517  11.6583  16.6045  17.9740  21.6451

          k = 0.1956 0.4516 0.0900 (  1525 PWs)   bands (ev):

   -34.8385   2.5306   8.3229  10.5475  11.9839  16.3297  18.2136  20.9336

          k = 0.1956 0.4516 0.1801 (  1531 PWs)   bands (ev):

   -34.8381   2.6939   8.2703   9.7587  12.2548  15.6035  18.3497  22.2274

          k = 0.1956 0.4516 0.2701 (  1536 PWs)   bands (ev):

   -34.8377   2.8371   8.2252   9.2291  12.5987  14.6744  18.7592  24.3078

          k = 0.1956 0.5645 0.0000 (  1538 PWs)   bands (ev):

   -34.8262   4.7630   5.5576  10.9537  13.8928  15.2067  16.9405  21.1351

          k = 0.1956 0.5645 0.0900 (  1532 PWs)   bands (ev):

   -34.8260   4.8524   5.6174  10.8910  13.1160  14.4672  18.4532  20.0469

          k = 0.1956 0.5645 0.1801 (  1538 PWs)   bands (ev):

   -34.8256   4.9883   5.9034  10.3978  12.0355  13.9507  18.5446  22.3331

          k = 0.1956 0.5645 0.2701 (  1532 PWs)   bands (ev):

   -34.8252   5.0283   6.3819   9.4163  12.1877  13.1729  18.6252  25.4750

          k = 0.2933 0.5081 0.0000 (  1530 PWs)   bands (ev):

   -34.8214   4.8048   7.5918   8.1101  14.0378  16.7708  17.5115  18.5999

          k = 0.2933 0.5081 0.0900 (  1536 PWs)   bands (ev):

   -34.8213   4.8845   7.6047   8.2420  13.2159  15.9515  16.6951  20.2250

          k = 0.2933 0.5081 0.1801 (  1536 PWs)   bands (ev):

   -34.8209   5.0631   7.6644   8.6875  11.6631  14.1306  17.0784  23.0347

          k = 0.2933 0.5081 0.2701 (  1530 PWs)   bands (ev):

   -34.8205   5.2000   7.8261   9.3860  10.3321  12.9193  17.5351  26.0538

     the Fermi energy is    10.8240 ev

!    total energy              =     -22.79744636 Ry
     estimated scf accuracy    <          9.7E-12 Ry
     smearing contrib. (-TS)   =       0.00066387 Ry
     internal energy E=F+TS    =     -22.79811023 Ry

     The total energy is F=E-TS. E is the sum of the following terms:
     one-electron contribution =      -1.00204142 Ry
     hartree contribution      =       2.90086298 Ry
     xc contribution           =      -6.82928380 Ry
     ewald contribution        =     -17.86764799 Ry

     convergence has been achieved in   7 iterations

     Forces acting on atoms (cartesian axes, Ry/au):

     atom    1 type  1   force =     0.00000000    0.00000000    0.00000000
     atom    2 type  2   force =    -0.00000000   -0.00000000    0.00000000
     The non-local contrib.  to forces
     atom    1 type  1   force =     0.00000000   -0.00000000    0.00000000
     atom    2 type  2   force =     0.00000000    0.00000000    0.00000000
     The ionic contribution  to forces
     atom    1 type  1   force =     0.00000000   -0.00000000    0.00000000
     atom    2 type  2   force =    -0.00000000    0.00000000   -0.00000000
     The local contribution  to forces
     atom    1 type  1   force =     0.00000044   -0.00000025    0.00000000
     atom    2 type  2   force =    -0.00000000   -0.00000000   -0.00000000
     The core correction contribution to forces
     atom    1 type  1   force =     0.00000000    0.00000000    0.00000000
     atom    2 type  2   force =     0.00000000   -0.00000000    0.00000000
     The Hubbard contrib.    to forces
     atom    1 type  1   force =     0.00000000    0.00000000    0.00000000
     atom    2 type  2   force =     0.00000000    0.00000000    0.00000000
     The SCF correction term to forces
     atom    1 type  1   force =    -0.00000000    0.00000000    0.00000000
     atom    2 type  2   force =     0.00000000   -0.00000000    0.00000000

     Total force =     0.000000     Total SCF correction =     0.000000


     Computing stress (Cartesian axis) and pressure

          total   stress  (Ry/bohr**3)                   (kbar)     P=      500.28
   0.00340045   0.00000000   0.00000000          500.22        0.00        0.00
   0.00000000   0.00340045  -0.00000000            0.00      500.22       -0.00
  -0.00000000  -0.00000000   0.00340163           -0.00       -0.00      500.40


     Writing all to output data dir ./output/LiSi.save/

     init_run     :      0.45s CPU      0.51s WALL (       2 calls)
     electrons    :      7.44s CPU     11.80s WALL (       7 calls)
     update_pot   :      0.60s CPU      0.63s WALL (       5 calls)
     forces       :      0.54s CPU      0.55s WALL (       7 calls)
     stress       :      1.65s CPU      1.70s WALL (       7 calls)

     Called by init_run:
     wfcinit      :      0.13s CPU      0.14s WALL (       2 calls)
     potinit      :      0.11s CPU      0.11s WALL (       2 calls)
     hinit0       :      0.21s CPU      0.24s WALL (       2 calls)

     Called by electrons:
     c_bands      :      6.39s CPU     10.47s WALL (      47 calls)
     sum_band     :      0.94s CPU      0.98s WALL (      47 calls)
     v_of_rho     :      0.09s CPU      0.09s WALL (      50 calls)
     mix_rho      :      0.01s CPU      0.01s WALL (      47 calls)

     Called by c_bands:
     init_us_2    :      0.26s CPU      0.29s WALL (    6160 calls)
     init_us_2:cp :      0.25s CPU      0.28s WALL (    6160 calls)
     cegterg      :      5.75s CPU      6.40s WALL (    2632 calls)

     Called by *egterg:
     cdiaghg      :      0.72s CPU      0.80s WALL (    8785 calls)
     h_psi        :      4.44s CPU      4.91s WALL (    9401 calls)
     g_psi        :      0.03s CPU      0.03s WALL (    6657 calls)

     Called by h_psi:
     h_psi:calbec :      0.31s CPU      0.33s WALL (    9401 calls)
     vloc_psi     :      3.94s CPU      4.36s WALL (    9401 calls)
     add_vuspsi   :      0.16s CPU      0.17s WALL (    9401 calls)

     General routines
     calbec       :      0.42s CPU      0.45s WALL (   11361 calls)
     fft          :      0.15s CPU      0.18s WALL (     677 calls)
     ffts         :      0.00s CPU      0.00s WALL (      47 calls)
     fftw         :      4.13s CPU      4.53s WALL (  133376 calls)

     Parallel routines

     PWSCF        :     10.96s CPU     15.91s WALL


   This run was terminated on:  22:30: 4  11Feb2025            

=------------------------------------------------------------------------------=
   JOB DONE.
=------------------------------------------------------------------------------=
