
     Program PWSCF v.7.2 starts on 11Feb2025 at 21:59:32 

     This program is part of the open-source Quantum ESPRESSO suite
     for quantum simulation of materials; please cite
         "P. Giannozzi et al., J. Phys.:Condens. Matter 21 395502 (2009);
         "P. Giannozzi et al., J. Phys.:Condens. Matter 29 465901 (2017);
         "P. Giannozzi et al., J. Chem. Phys. 152 154105 (2020);
          URL http://www.quantum-espresso.org", 
     in publications or presentations arising from this work. More details at
     http://www.quantum-espresso.org/quote

     Parallel version (MPI & OpenMP), running on       8 processor cores
     Number of MPI processes:                 8
     Threads/MPI process:                     1

     MPI processes distributed on     1 nodes
     482112 MiB available memory on the printing compute node when the environment starts

     Waiting for input...
     Reading input from standard input

     Current dimensions of program PWSCF are:
     Max number of different atomic species (ntypx) = 10
     Max number of k-points (npk) =  40000
     Max angular momentum in pseudopotentials (lmaxx) =  4

     R & G space division:  proc/nbgrp/npool/nimage =       8
     Subspace diagonalization in iterative solution of the eigenvalue problem:
     a serial algorithm will be used


     Parallelization info
     --------------------
     sticks:   dense  smooth     PW     G-vecs:    dense   smooth      PW
     Min         174     174     51                 4290     4290     666
     Max         175     175     52                 4293     4293     667
     Sum        1393    1393    409                34327    34327    5329

     Using Slab Decomposition



     bravais-lattice index     =            2
     lattice parameter (alat)  =      11.2198  a.u.
     unit-cell volume          =     353.1025 (a.u.)^3
     number of atoms/cell      =            2
     number of atomic types    =            2
     number of electrons       =         7.00
     number of Kohn-Sham states=            8
     kinetic-energy cutoff     =      80.0000  Ry
     charge density cutoff     =     320.0000  Ry
     scf convergence threshold =      1.0E-08
     mixing beta               =       0.7000
     number of iterations used =            8  plain     mixing
     energy convergence thresh.=      1.0E-04
     force convergence thresh. =      1.0E-03
     press convergence thresh. =      1.0E+00
     Exchange-correlation= PBE
                           (   1   4   3   4   0   0   0)
     nstep                     =           50


     celldm(1)=  11.219847  celldm(2)=   0.000000  celldm(3)=   0.000000
     celldm(4)=   0.000000  celldm(5)=   0.000000  celldm(6)=   0.000000

     crystal axes: (cart. coord. in units of alat)
               a(1) = (  -0.500000   0.000000   0.500000 )  
               a(2) = (   0.000000   0.500000   0.500000 )  
               a(3) = (  -0.500000   0.500000   0.000000 )  

     reciprocal axes: (cart. coord. in units 2 pi/alat)
               b(1) = ( -1.000000 -1.000000  1.000000 )  
               b(2) = (  1.000000  1.000000  1.000000 )  
               b(3) = ( -1.000000  1.000000 -1.000000 )  


     PseudoPot. # 1 for Li read from file:
     ../pseudo/Li_ONCV_PBE_sr.upf
     MD5 check sum: 50ff420e78310ffa21704f3361e624a4
     Pseudo is Norm-conserving, Zval =  3.0
     Generated using ONCVPSP code by D. R. Hamann
     Using radial grid of 1944 points,  4 beta functions with: 
                l(1) =   0
                l(2) =   0
                l(3) =   1
                l(4) =   1

     PseudoPot. # 2 for Si read from file:
     ../pseudo/Si_ONCV_PBE_sr.upf
     MD5 check sum: e543d271109d17c80368dfa7c482276d
     Pseudo is Norm-conserving + core correction, Zval =  4.0
     Generated using ONCVPSP code by D. R. Hamann
     Using radial grid of 1510 points,  6 beta functions with: 
                l(1) =   0
                l(2) =   0
                l(3) =   1
                l(4) =   1
                l(5) =   2
                l(6) =   2

     atomic species   valence    mass     pseudopotential
        Li             3.00     6.94100     Li( 1.00)
        Si             4.00    28.08550     Si( 1.00)

     24 Sym. Ops. (no inversion) found



   Cartesian axes

     site n.     atom                  positions (alat units)
         1           Li  tau(   1) = (   0.2500000   0.2500000   0.2500000  )
         2           Si  tau(   2) = (   0.0000000   0.0000000   0.5000000  )

     number of k points=    20  Marzari-Vanderbilt smearing, width (Ry)=  0.0200
                       cart. coord. in units 2pi/alat
        k(    1) = (   0.0000000   0.0000000   0.0000000), wk =   0.0058309
        k(    2) = (  -0.1428571   0.1428571  -0.1428571), wk =   0.0466472
        k(    3) = (  -0.2857143   0.2857143  -0.2857143), wk =   0.0466472
        k(    4) = (  -0.4285714   0.4285714  -0.4285714), wk =   0.0466472
        k(    5) = (   0.0000000   0.2857143   0.0000000), wk =   0.0349854
        k(    6) = (  -0.1428571   0.4285714  -0.1428571), wk =   0.1399417
        k(    7) = (  -0.2857143   0.5714286  -0.2857143), wk =   0.1399417
        k(    8) = (   0.5714286  -0.2857143   0.5714286), wk =   0.1399417
        k(    9) = (   0.4285714  -0.1428571   0.4285714), wk =   0.1399417
        k(   10) = (   0.2857143  -0.0000000   0.2857143), wk =   0.0699708
        k(   11) = (   0.0000000   0.5714286   0.0000000), wk =   0.0349854
        k(   12) = (  -0.1428571   0.7142857  -0.1428571), wk =   0.1399417
        k(   13) = (   0.7142857  -0.1428571   0.7142857), wk =   0.1399417
        k(   14) = (   0.5714286   0.0000000   0.5714286), wk =   0.0699708
        k(   15) = (   0.0000000   0.8571429   0.0000000), wk =   0.0349854
        k(   16) = (   0.8571429  -0.0000000   0.8571429), wk =   0.0699708
        k(   17) = (  -0.2857143   0.5714286   0.0000000), wk =   0.1399417
        k(   18) = (   0.5714286  -0.2857143   0.8571429), wk =   0.2798834
        k(   19) = (   0.7142857  -0.1428571   1.0000000), wk =   0.1399417
        k(   20) = (   0.5714286   0.0000000   0.8571429), wk =   0.1399417

     Dense  grid:    34327 G-vectors     FFT dimensions: (  45,  45,  45)

     Estimated max dynamical RAM per process >      16.09 MB

     Estimated total dynamical RAM >     128.73 MB

     Initial potential from superposition of free atoms

     starting charge       6.9948, renormalised to       7.0000
     Starting wfcs are    6 randomized atomic wfcs +    2 random wfcs

     total cpu time spent up to now is        1.0 secs

     Self-consistent Calculation

     iteration #  1     ecut=    80.00 Ry     beta= 0.70
     Davidson diagonalization with overlap
     ethr =  1.00E-02,  avg # of iterations =  6.2

     Threshold (ethr) on eigenvalues was too large:
     Diagonalizing with lowered threshold

     Davidson diagonalization with overlap
     ethr =  3.59E-05,  avg # of iterations =  6.3

     total cpu time spent up to now is        1.8 secs

     total energy              =     -22.70868716 Ry
     estimated scf accuracy    <       0.00272765 Ry

     iteration #  2     ecut=    80.00 Ry     beta= 0.70
     Davidson diagonalization with overlap
     ethr =  3.90E-05,  avg # of iterations =  1.1

     total cpu time spent up to now is        2.1 secs

     total energy              =     -22.70889242 Ry
     estimated scf accuracy    <       0.00017899 Ry

     iteration #  3     ecut=    80.00 Ry     beta= 0.70
     Davidson diagonalization with overlap
     ethr =  2.56E-06,  avg # of iterations =  3.6

     total cpu time spent up to now is        2.6 secs

     total energy              =     -22.70890375 Ry
     estimated scf accuracy    <       0.00000560 Ry

     iteration #  4     ecut=    80.00 Ry     beta= 0.70
     Davidson diagonalization with overlap
     ethr =  7.99E-08,  avg # of iterations =  1.9

     total cpu time spent up to now is        2.8 secs

     total energy              =     -22.70890478 Ry
     estimated scf accuracy    <       0.00000005 Ry

     iteration #  5     ecut=    80.00 Ry     beta= 0.70
     Davidson diagonalization with overlap
     ethr =  7.54E-10,  avg # of iterations =  3.1

     total cpu time spent up to now is        3.0 secs

     End of self-consistent calculation

          k = 0.0000 0.0000 0.0000 (  4279 PWs)   bands (ev):

   -44.4078  -6.3196   3.1799   3.1799   3.1799   6.8480   7.0865   7.0866

          k =-0.1429 0.1429-0.1429 (  4294 PWs)   bands (ev):

   -44.4078  -6.1656   2.0919   3.0089   3.0089   6.8395   7.3989   7.3990

          k =-0.2857 0.2857-0.2857 (  4251 PWs)   bands (ev):

   -44.4076  -5.7557   0.4074   2.7052   2.7052   6.8859   7.6101   7.6102

          k =-0.4286 0.4286-0.4286 (  4257 PWs)   bands (ev):

   -44.4075  -5.3194  -0.7499   2.5123   2.5123   6.8997   7.3918   7.3918

          k = 0.0000 0.2857 0.0000 (  4276 PWs)   bands (ev):

   -44.4077  -6.1145   2.3180   2.6518   2.6518   6.5606   7.9463   7.9536

          k =-0.1429 0.4286-0.1429 (  4264 PWs)   bands (ev):

   -44.4076  -5.7883   0.9529   2.2883   2.4323   6.5843   7.9742   8.2024

          k =-0.2857 0.5714-0.2857 (  4282 PWs)   bands (ev):

   -44.4075  -5.3403  -0.3367   2.0491   2.1512   6.5737   7.9289   8.2587

          k = 0.5714-0.2857 0.5714 (  4277 PWs)   bands (ev):

   -44.4074  -5.1642  -0.7386   1.7595   2.2881   6.7113   7.8843   7.9473

          k = 0.4286-0.1429 0.4286 (  4257 PWs)   bands (ev):

   -44.4075  -5.4872   0.0170   1.7433   2.6340   7.1323   7.8558   7.8831

          k = 0.2857-0.0000 0.2857 (  4281 PWs)   bands (ev):

   -44.4077  -5.9245   1.2920   2.1706   2.9885   7.1681   7.5963   7.8965

          k = 0.0000 0.5714 0.0000 (  4248 PWs)   bands (ev):

   -44.4075  -5.5702   0.9342   1.8411   1.8411   5.7117   6.8873   9.7494

          k =-0.1429 0.7143-0.1429 (  4246 PWs)   bands (ev):

   -44.4074  -5.2050   0.1427   1.3301   1.6452   5.5815   7.0830  10.0338

          k = 0.7143-0.1429 0.7143 (  4260 PWs)   bands (ev):

   -44.4073  -4.9690  -0.2850   0.7143   1.7719   5.8753   8.4152   9.5948

          k = 0.5714 0.0000 0.5714 (  4273 PWs)   bands (ev):

   -44.4074  -5.1232  -0.1578   0.7249   2.1733   6.4493   8.9778   8.9844

          k = 0.0000 0.8571 0.0000 (  4272 PWs)   bands (ev):

   -44.4073  -4.9924  -0.0903   1.3603   1.3603   4.7300   6.4059  11.8028

          k = 0.8571-0.0000 0.8571 (  4252 PWs)   bands (ev):

   -44.4073  -4.8790  -0.1497   0.7864   1.4079   5.1000   6.8883  11.4842

          k =-0.2857 0.5714 0.0000 (  4247 PWs)   bands (ev):

   -44.4075  -5.4339   0.3492   1.4142   2.1724   6.7088   7.4874   8.4813

          k = 0.5714-0.2857 0.8571 (  4271 PWs)   bands (ev):

   -44.4074  -5.0759  -0.3232   1.0802   1.7732   6.8023   7.6217   9.2324

          k = 0.7143-0.1429 1.0000 (  4252 PWs)   bands (ev):

   -44.4073  -4.9458  -0.0346   0.9605   1.1000   5.8719   7.2525   9.7277

          k = 0.5714 0.0000 0.8571 (  4274 PWs)   bands (ev):

   -44.4073  -4.8827   0.0699   0.3611   1.2237   6.5319   8.2320   9.2910

     the Fermi energy is     1.2783 ev

!    total energy              =     -22.70890482 Ry
     estimated scf accuracy    <          1.0E-09 Ry
     smearing contrib. (-TS)   =      -0.00036490 Ry
     internal energy E=F+TS    =     -22.70853992 Ry

     The total energy is F=E-TS. E is the sum of the following terms:
     one-electron contribution =      -9.15798139 Ry
     hartree contribution      =       4.56246816 Ry
     xc contribution           =      -6.18166790 Ry
     ewald contribution        =     -11.93135879 Ry

     convergence has been achieved in   5 iterations

     Forces acting on atoms (cartesian axes, Ry/au):

     atom    1 type  1   force =     0.00000000    0.00000000    0.00000000
     atom    2 type  2   force =     0.00000000    0.00000000    0.00000000
     The non-local contrib.  to forces
     atom    1 type  1   force =     0.00000000    0.00000000    0.00000000
     atom    2 type  2   force =     0.00000000   -0.00000000   -0.00000000
     The ionic contribution  to forces
     atom    1 type  1   force =    -0.00000000    0.00000000    0.00000000
     atom    2 type  2   force =    -0.00000000   -0.00000000    0.00000000
     The local contribution  to forces
     atom    1 type  1   force =     0.00000000    0.00000000    0.00000000
     atom    2 type  2   force =     0.00000000   -0.00000000   -0.00000000
     The core correction contribution to forces
     atom    1 type  1   force =     0.00000000    0.00000000    0.00000000
     atom    2 type  2   force =    -0.00000000    0.00000000   -0.00000000
     The Hubbard contrib.    to forces
     atom    1 type  1   force =     0.00000000    0.00000000    0.00000000
     atom    2 type  2   force =     0.00000000    0.00000000    0.00000000
     The SCF correction term to forces
     atom    1 type  1   force =     0.00000000   -0.00000000    0.00000000
     atom    2 type  2   force =    -0.00000000    0.00000000    0.00000000

     Total force =     0.000000     Total SCF correction =     0.000000


     Computing stress (Cartesian axis) and pressure

          total   stress  (Ry/bohr**3)                   (kbar)     P=      -18.77
  -0.00012759  -0.00000000   0.00000000          -18.77       -0.00        0.00
  -0.00000000  -0.00012759   0.00000000           -0.00      -18.77        0.00
   0.00000000   0.00000000  -0.00012759            0.00        0.00      -18.77


     BFGS Geometry Optimization
     Energy error            =      0.0E+00 Ry
     Gradient error          =      0.0E+00 Ry/Bohr
     Cell gradient error     =      5.2E+02 kbar

     number of scf cycles    =   1
     number of bfgs steps    =   0

     enthalpy           new  =     -21.5087338917 Ry

     new trust radius        =       0.3313350159 bohr
ibrav =      2
 celldm(1) =     10.23066988
Input lattice vectors:
    -0.45591844     0.00000000     0.45591844
    -0.00000000     0.45591844     0.45591844
    -0.45591844     0.45591844     0.00000000
New lattice vectors in INITIAL alat:
    -0.45591844     0.00000000     0.45591844
     0.00000000     0.45591844     0.45591844
    -0.45591844     0.45591844     0.00000000
New lattice vectors in NEW alat (for information only):
    -0.50000000     0.00000000     0.50000000
     0.00000000     0.50000000     0.50000000
    -0.50000000     0.50000000     0.00000000
Discrepancy in bohr =     0.000000    0.000000    0.000000
     new conv_thr            =       0.0000000100 Ry

     new unit-cell volume =    267.70237 a.u.^3 (    39.66940 Ang^3 )
     density =      1.46619 g/cm^3

CELL_PARAMETERS (alat= 11.21984658)
  -0.455918439   0.000000000   0.455918439
   0.000000000   0.455918439   0.455918439
  -0.455918439   0.455918439   0.000000000

ATOMIC_POSITIONS (crystal)
Li           -0.2500000000        0.7500000000       -0.2500000000
Si            0.5000000000        0.5000000000       -0.5000000000



     Writing config-only to output data dir ./output/LiSi.save/
     NEW-OLD atomic charge density approx. for the potential
     extrapolated charge    4.76857, renormalised to    7.00000

     total cpu time spent up to now is        4.5 secs

     Self-consistent Calculation

     iteration #  1     ecut=    80.00 Ry     beta= 0.70
     Davidson diagonalization with overlap
     ethr =  1.00E-06,  avg # of iterations = 11.2

     total cpu time spent up to now is        5.1 secs

     total energy              =     -22.58029780 Ry
     estimated scf accuracy    <       0.09037843 Ry

     iteration #  2     ecut=    80.00 Ry     beta= 0.70
     Davidson diagonalization with overlap
     ethr =  1.29E-03,  avg # of iterations =  2.0

     total cpu time spent up to now is        5.4 secs

     total energy              =     -22.70577795 Ry
     estimated scf accuracy    <       0.01874216 Ry

     iteration #  3     ecut=    80.00 Ry     beta= 0.70
     Davidson diagonalization with overlap
     ethr =  2.68E-04,  avg # of iterations =  1.6

     total cpu time spent up to now is        5.6 secs

     total energy              =     -22.70442039 Ry
     estimated scf accuracy    <       0.00376453 Ry

     iteration #  4     ecut=    80.00 Ry     beta= 0.70
     Davidson diagonalization with overlap
     ethr =  5.38E-05,  avg # of iterations =  2.5

     total cpu time spent up to now is        5.8 secs

     total energy              =     -22.70471061 Ry
     estimated scf accuracy    <       0.00000660 Ry

     iteration #  5     ecut=    80.00 Ry     beta= 0.70
     Davidson diagonalization with overlap
     ethr =  9.44E-08,  avg # of iterations =  4.8

     total cpu time spent up to now is        6.1 secs

     total energy              =     -22.70471903 Ry
     estimated scf accuracy    <       0.00000526 Ry

     iteration #  6     ecut=    80.00 Ry     beta= 0.70
     Davidson diagonalization with overlap
     ethr =  7.51E-08,  avg # of iterations =  2.0

     total cpu time spent up to now is        6.3 secs

     total energy              =     -22.70471945 Ry
     estimated scf accuracy    <       0.00000045 Ry

     iteration #  7     ecut=    80.00 Ry     beta= 0.70
     Davidson diagonalization with overlap
     ethr =  6.37E-09,  avg # of iterations =  1.4

     total cpu time spent up to now is        6.5 secs

     End of self-consistent calculation

          k = 0.0000 0.0000 0.0000 (  4279 PWs)   bands (ev):

   -42.5359  -5.4461   5.6106   5.6106   5.6106   9.1446   9.1446   9.1446

          k =-0.1567 0.1567-0.1567 (  4294 PWs)   bands (ev):

   -42.5356  -5.2335   4.1362   5.3334   5.3334   9.4505   9.5942   9.5942

          k =-0.3133 0.3133-0.3133 (  4251 PWs)   bands (ev):

   -42.5348  -4.6422   1.9016   4.8913   4.8913   9.6696   9.8141   9.8141

          k =-0.4700 0.4700-0.4700 (  4257 PWs)   bands (ev):

   -42.5343  -3.9389   0.2833   4.6322   4.6322   9.4680   9.4680   9.7411

          k =-0.0000 0.3133-0.0000 (  4276 PWs)   bands (ev):

   -42.5355  -5.1628   4.6022   4.7640   4.7640   8.7187  10.4151  10.4151

          k =-0.1567 0.4700-0.1567 (  4264 PWs)   bands (ev):

   -42.5349  -4.6954   2.6655   4.2502   4.5603   8.7896  10.2424  11.0788

          k =-0.3133 0.6267-0.3133 (  4282 PWs)   bands (ev):

   -42.5342  -3.9927   0.8568   4.0301   4.0788   8.6406  10.6595  10.7478

          k = 0.6267-0.3133 0.6267 (  4277 PWs)   bands (ev):

   -42.5340  -3.6783   0.2461   3.6185   4.2894   8.7838  10.2129  10.8739

          k = 0.4700-0.1567 0.4700 (  4257 PWs)   bands (ev):

   -42.5344  -4.2320   1.3597   3.5583   4.7960   9.3787  10.1377  10.7531

          k = 0.3133-0.0000 0.3133 (  4281 PWs)   bands (ev):

   -42.5351  -4.8923   3.1244   4.0820   5.3305   9.7391   9.8083  10.4919

          k =-0.0000 0.6267-0.0000 (  4248 PWs)   bands (ev):

   -42.5345  -4.3760   2.8012   3.6261   3.6261   7.7024   8.8898  12.7586

          k =-0.1567 0.7833-0.1567 (  4246 PWs)   bands (ev):

   -42.5340  -3.7935   1.5781   2.9770   3.3688   7.5320   9.2495  12.9715

          k = 0.7833-0.1567 0.7833 (  4260 PWs)   bands (ev):

   -42.5337  -3.3580   0.7877   2.2307   3.5496   7.8651  10.9977  12.3648

          k = 0.6267-0.0000 0.6267 (  4273 PWs)   bands (ev):

   -42.5339  -3.6311   1.0035   2.2463   4.1141   8.5177  11.6596  11.9861

          k =-0.0000 0.9400-0.0000 (  4272 PWs)   bands (ev):

   -42.5337  -3.4369   1.2570   2.9876   2.9876   6.4554   8.4614  15.2889

          k = 0.9400-0.0000 0.9400 (  4252 PWs)   bands (ev):

   -42.5336  -3.2175   1.0757   2.2048   3.0537   6.9771   9.0695  14.8556

          k =-0.3133 0.6267-0.0000 (  4247 PWs)   bands (ev):

   -42.5343  -4.1573   1.8519   3.0856   4.1224   8.9986   9.6330  11.2820

          k = 0.6267-0.3133 0.9400 (  4271 PWs)   bands (ev):

   -42.5339  -3.5478   0.7880   2.7204   3.5274   8.9761  10.1310  11.9974

          k = 0.7833-0.1567 1.0967 (  4252 PWs)   bands (ev):

   -42.5337  -3.3362   1.2324   2.4499   2.6248   8.0021   9.4492  12.7828

          k = 0.6267-0.0000 0.9400 (  4274 PWs)   bands (ev):

   -42.5336  -3.2040   1.1529   1.8111   2.7926   8.7808  10.7098  12.1321

     the Fermi energy is     2.9220 ev

!    total energy              =     -22.70471949 Ry
     estimated scf accuracy    <          5.0E-09 Ry
     smearing contrib. (-TS)   =      -0.00027572 Ry
     internal energy E=F+TS    =     -22.70444377 Ry

     The total energy is F=E-TS. E is the sum of the following terms:
     one-electron contribution =      -7.54022008 Ry
     hartree contribution      =       4.22943917 Ry
     xc contribution           =      -6.30869222 Ry
     ewald contribution        =     -13.08497065 Ry

     convergence has been achieved in   7 iterations

     Forces acting on atoms (cartesian axes, Ry/au):

     atom    1 type  1   force =     0.00000000   -0.00000000    0.00000000
     atom    2 type  2   force =    -0.00000000   -0.00000000   -0.00000000
     The non-local contrib.  to forces
     atom    1 type  1   force =    -0.00000000    0.00000000    0.00000000
     atom    2 type  2   force =    -0.00000000    0.00000000   -0.00000000
     The ionic contribution  to forces
     atom    1 type  1   force =     0.00000000   -0.00000000   -0.00000000
     atom    2 type  2   force =    -0.00000000   -0.00000000   -0.00000000
     The local contribution  to forces
     atom    1 type  1   force =    -0.00000000    0.00000000    0.00000000
     atom    2 type  2   force =     0.00000000    0.00000000    0.00000000
     The core correction contribution to forces
     atom    1 type  1   force =     0.00000000    0.00000000    0.00000000
     atom    2 type  2   force =     0.00000000   -0.00000000    0.00000000
     The Hubbard contrib.    to forces
     atom    1 type  1   force =     0.00000000    0.00000000    0.00000000
     atom    2 type  2   force =     0.00000000    0.00000000    0.00000000
     The SCF correction term to forces
     atom    1 type  1   force =     0.00000000   -0.00000000    0.00000000
     atom    2 type  2   force =     0.00000000   -0.00000000    0.00000000

     Total force =     0.000000     Total SCF correction =     0.000000


     Computing stress (Cartesian axis) and pressure

          total   stress  (Ry/bohr**3)                   (kbar)     P=       47.54
   0.00032317  -0.00000000  -0.00000000           47.54       -0.00       -0.00
  -0.00000000   0.00032317  -0.00000000           -0.00       47.54       -0.00
   0.00000000  -0.00000000   0.00032317            0.00       -0.00       47.54

     Energy error            =      2.9E-01 Ry
     Gradient error          =      2.7E-32 Ry/Bohr
     Cell gradient error     =      4.5E+02 kbar

     number of scf cycles    =   2
     number of bfgs steps    =   1

     enthalpy           old  =     -21.5087338917 Ry
     enthalpy           new  =     -21.7948176154 Ry

     CASE: enthalpy          _new < enthalpy          _old

     new trust radius        =       0.4745884565 bohr
ibrav =      2
 celldm(1) =      8.74690484
Input lattice vectors:
    -0.38979610    -0.00000000     0.38979610
     0.00000000     0.38979610     0.38979610
    -0.38979610     0.38979610    -0.00000000
New lattice vectors in INITIAL alat:
    -0.38979610     0.00000000     0.38979610
     0.00000000     0.38979610     0.38979610
    -0.38979610     0.38979610     0.00000000
New lattice vectors in NEW alat (for information only):
    -0.50000000     0.00000000     0.50000000
     0.00000000     0.50000000     0.50000000
    -0.50000000     0.50000000     0.00000000
Discrepancy in bohr =     0.000000    0.000000    0.000000
     new conv_thr            =            1.0E-10 Ry

     new unit-cell volume =    167.30280 a.u.^3 (    24.79172 Ang^3 )
     density =      2.34606 g/cm^3

CELL_PARAMETERS (alat= 11.21984658)
  -0.389796098   0.000000000   0.389796098
   0.000000000   0.389796098   0.389796098
  -0.389796098   0.389796098   0.000000000

ATOMIC_POSITIONS (crystal)
Li           -0.2500000000        0.7500000000       -0.2500000000
Si            0.5000000000        0.5000000000       -0.5000000000



     Writing config-only to output data dir ./output/LiSi.save/
     NEW-OLD atomic charge density approx. for the potential

     negative rho (up, down):  3.692E-02 0.000E+00
     extrapolated charge    2.80236, renormalised to    7.00000

     total cpu time spent up to now is        7.7 secs

     Self-consistent Calculation

     iteration #  1     ecut=    80.00 Ry     beta= 0.70
     Davidson diagonalization with overlap
     ethr =  1.00E-06,  avg # of iterations = 11.1

     total cpu time spent up to now is        8.2 secs

     total energy              =     -22.15395754 Ry
     estimated scf accuracy    <       0.79757947 Ry

     iteration #  2     ecut=    80.00 Ry     beta= 0.70
     Davidson diagonalization with overlap
     ethr =  1.00E-02,  avg # of iterations =  2.0

     total cpu time spent up to now is        8.5 secs

     total energy              =     -22.57430598 Ry
     estimated scf accuracy    <       0.12224164 Ry

     iteration #  3     ecut=    80.00 Ry     beta= 0.70
     Davidson diagonalization with overlap
     ethr =  1.75E-03,  avg # of iterations =  1.1

     total cpu time spent up to now is        8.6 secs

     total energy              =     -22.57595477 Ry
     estimated scf accuracy    <       0.00927639 Ry

     iteration #  4     ecut=    80.00 Ry     beta= 0.70
     Davidson diagonalization with overlap
     ethr =  1.33E-04,  avg # of iterations =  2.6

     total cpu time spent up to now is        8.8 secs

     total energy              =     -22.57731215 Ry
     estimated scf accuracy    <       0.00010718 Ry

     iteration #  5     ecut=    80.00 Ry     beta= 0.70
     Davidson diagonalization with overlap
     ethr =  1.53E-06,  avg # of iterations =  4.8

     total cpu time spent up to now is        9.1 secs

     total energy              =     -22.57732872 Ry
     estimated scf accuracy    <       0.00000043 Ry

     iteration #  6     ecut=    80.00 Ry     beta= 0.70
     Davidson diagonalization with overlap
     ethr =  6.14E-09,  avg # of iterations =  2.8

     total cpu time spent up to now is        9.3 secs

     total energy              =     -22.57732918 Ry
     estimated scf accuracy    <       0.00000001 Ry

     iteration #  7     ecut=    80.00 Ry     beta= 0.70
     Davidson diagonalization with overlap
     ethr =  1.78E-10,  avg # of iterations =  1.9

     total cpu time spent up to now is        9.5 secs

     total energy              =     -22.57732918 Ry
     estimated scf accuracy    <          7.6E-10 Ry

     iteration #  8     ecut=    80.00 Ry     beta= 0.70
     Davidson diagonalization with overlap
     ethr =  1.09E-11,  avg # of iterations =  1.9

     total cpu time spent up to now is        9.7 secs

     End of self-consistent calculation

          k = 0.0000 0.0000 0.0000 (  4279 PWs)   bands (ev):

   -39.0415  -3.2510  11.5556  11.5556  11.5556  13.8968  13.8968  13.8968

          k =-0.1832 0.1832-0.1832 (  4294 PWs)   bands (ev):

   -39.0387  -2.9439   9.0253  10.8937  10.8937  14.8020  14.8020  15.3081

          k =-0.3665 0.3665-0.3665 (  4251 PWs)   bands (ev):

   -39.0324  -2.0468   5.7107  10.1341  10.1341  14.9280  14.9280  16.1665

          k =-0.5497 0.5497-0.5497 (  4257 PWs)   bands (ev):

   -39.0273  -0.7962   3.1509   9.7695   9.7695  14.2232  14.2232  16.2687

          k = 0.0000 0.3665 0.0000 (  4276 PWs)   bands (ev):

   -39.0378  -2.8408   9.7218   9.7218  10.3706  13.5453  16.3360  16.3360

          k =-0.1832 0.5497-0.1832 (  4264 PWs)   bands (ev):

   -39.0326  -2.1347   6.8920   8.8884   9.8661  13.6960  15.4366  17.1702

          k =-0.3665 0.7330-0.3665 (  4282 PWs)   bands (ev):

   -39.0272  -0.9359   4.0475   8.6739   8.9055  13.3031  16.2319  17.2361

          k = 0.7330-0.3665 0.7330 (  4277 PWs)   bands (ev):

   -39.0255  -0.2488   2.9182   8.1679   9.0832  13.5538  15.4496  17.8697

          k = 0.5497-0.1832 0.5497 (  4257 PWs)   bands (ev):

   -39.0288  -1.3700   4.8617   7.9773  10.0005  14.4898  15.3109  17.6399

          k = 0.3665-0.0000 0.3665 (  4281 PWs)   bands (ev):

   -39.0347  -2.4363   7.6216   8.6382  11.0368  14.9270  15.4546  16.8031

          k = 0.0000 0.7330 0.0000 (  4248 PWs)   bands (ev):

   -39.0294  -1.6327   7.6678   7.8799   7.8799  12.3184  13.5778  19.7963

          k =-0.1832 0.9162-0.1832 (  4246 PWs)   bands (ev):

   -39.0251  -0.6063   5.2752   7.0413   7.5025  12.2314  14.3659  19.6725

          k = 0.9162-0.1832 0.9162 (  4260 PWs)   bands (ev):

   -39.0230   0.4390   3.4566   6.0641   7.8089  12.6823  16.9572  18.6903

          k = 0.7330 0.0000 0.7330 (  4273 PWs)   bands (ev):

   -39.0247  -0.2150   4.0041   6.0979   8.7461  13.4333  17.8886  18.6512

          k = 0.0000 1.0995 0.0000 (  4272 PWs)   bands (ev):

   -39.0228   0.1020   4.7477   6.9191   6.9191  10.7192  13.4473  23.0363

          k = 1.0995-0.0000 1.0995 (  4252 PWs)   bands (ev):

   -39.0218   0.6948   4.0539   5.7670   7.0265  11.6576  14.2475  22.4093

          k =-0.3665 0.7330 0.0000 (  4247 PWs)   bands (ev):

   -39.0279  -1.2539   5.6919   7.1561   8.8483  14.3851  14.6064  17.4808

          k = 0.7330-0.3665 1.0995 (  4271 PWs)   bands (ev):

   -39.0242  -0.0277   3.6812   6.7300   7.8172  14.0688  15.9674  18.1966

          k = 0.9162-0.1832 1.2827 (  4252 PWs)   bands (ev):

   -39.0226   0.3983   4.4392   5.7497   6.7371  13.2070  14.5757  19.6522

          k = 0.7330 0.0000 1.0995 (  4274 PWs)   bands (ev):

   -39.0221   0.8442   3.7586   5.2405   6.8646  14.1104  16.4901  18.6787

     the Fermi energy is     7.0071 ev

!    total energy              =     -22.57732918 Ry
     estimated scf accuracy    <          1.3E-11 Ry
     smearing contrib. (-TS)   =      -0.00074482 Ry
     internal energy E=F+TS    =     -22.57658436 Ry

     The total energy is F=E-TS. E is the sum of the following terms:
     one-electron contribution =      -4.39431499 Ry
     hartree contribution      =       3.73038886 Ry
     xc contribution           =      -6.60804277 Ry
     ewald contribution        =     -15.30461547 Ry

     convergence has been achieved in   8 iterations

     Forces acting on atoms (cartesian axes, Ry/au):

     atom    1 type  1   force =    -0.00000000    0.00000000    0.00000000
     atom    2 type  2   force =     0.00000000   -0.00000000   -0.00000000
     The non-local contrib.  to forces
     atom    1 type  1   force =     0.00000000    0.00000000   -0.00000000
     atom    2 type  2   force =     0.00000000   -0.00000000    0.00000000
     The ionic contribution  to forces
     atom    1 type  1   force =    -0.00000000   -0.00000000   -0.00000000
     atom    2 type  2   force =     0.00000000   -0.00000000   -0.00000000
     The local contribution  to forces
     atom    1 type  1   force =    -0.00000000    0.00000000    0.00000000
     atom    2 type  2   force =    -0.00000000    0.00000000   -0.00000000
     The core correction contribution to forces
     atom    1 type  1   force =     0.00000000    0.00000000    0.00000000
     atom    2 type  2   force =     0.00000000   -0.00000000   -0.00000000
     The Hubbard contrib.    to forces
     atom    1 type  1   force =     0.00000000    0.00000000    0.00000000
     atom    2 type  2   force =     0.00000000    0.00000000    0.00000000
     The SCF correction term to forces
     atom    1 type  1   force =     0.00000000   -0.00000000   -0.00000000
     atom    2 type  2   force =     0.00000000   -0.00000000    0.00000000

     Total force =     0.000000     Total SCF correction =     0.000000


     Computing stress (Cartesian axis) and pressure

          total   stress  (Ry/bohr**3)                   (kbar)     P=      441.94
   0.00300424  -0.00000000  -0.00000000          441.94       -0.00       -0.00
   0.00000000   0.00300424  -0.00000000            0.00      441.94       -0.00
  -0.00000000  -0.00000000   0.00300424           -0.00       -0.00      441.94

     Energy error            =      2.1E-01 Ry
     Gradient error          =      8.4E-32 Ry/Bohr
     Cell gradient error     =      5.8E+01 kbar

     number of scf cycles    =   3
     number of bfgs steps    =   2

     enthalpy           old  =     -21.7948176154 Ry
     enthalpy           new  =     -22.0086785134 Ry

     CASE: enthalpy          _new < enthalpy          _old

     new trust radius        =       0.0454233075 bohr
ibrav =      2
 celldm(1) =      8.59331887
Input lattice vectors:
    -0.38295171    -0.00000000     0.38295171
    -0.00000000     0.38295171     0.38295171
    -0.38295171     0.38295171     0.00000000
New lattice vectors in INITIAL alat:
    -0.38295171     0.00000000     0.38295171
     0.00000000     0.38295171     0.38295171
    -0.38295171     0.38295171     0.00000000
New lattice vectors in NEW alat (for information only):
    -0.50000000     0.00000000     0.50000000
     0.00000000     0.50000000     0.50000000
    -0.50000000     0.50000000     0.00000000
Discrepancy in bohr =     0.000000    0.000000    0.000000
     new conv_thr            =            1.0E-10 Ry

     new unit-cell volume =    158.64369 a.u.^3 (    23.50857 Ang^3 )
     density =      2.47411 g/cm^3

CELL_PARAMETERS (alat= 11.21984658)
  -0.382951710   0.000000000   0.382951710
   0.000000000   0.382951710   0.382951710
  -0.382951710   0.382951710   0.000000000

ATOMIC_POSITIONS (crystal)
Li           -0.2500000000        0.7500000000       -0.2500000000
Si            0.5000000000        0.5000000000       -0.5000000000



     Writing config-only to output data dir ./output/LiSi.save/
     NEW-OLD atomic charge density approx. for the potential
     extrapolated charge    6.61821, renormalised to    7.00000

     total cpu time spent up to now is       10.9 secs

     Self-consistent Calculation

     iteration #  1     ecut=    80.00 Ry     beta= 0.70
     Davidson diagonalization with overlap
     ethr =  1.00E-06,  avg # of iterations =  5.7

     total cpu time spent up to now is       11.2 secs

     total energy              =     -22.54543425 Ry
     estimated scf accuracy    <       0.00096393 Ry

     iteration #  2     ecut=    80.00 Ry     beta= 0.70
     Davidson diagonalization with overlap
     ethr =  1.38E-05,  avg # of iterations =  3.0

     total cpu time spent up to now is       11.4 secs

     total energy              =     -22.54901321 Ry
     estimated scf accuracy    <       0.00087001 Ry

     iteration #  3     ecut=    80.00 Ry     beta= 0.70
     Davidson diagonalization with overlap
     ethr =  1.24E-05,  avg # of iterations =  1.0

     total cpu time spent up to now is       11.6 secs

     total energy              =     -22.54886156 Ry
     estimated scf accuracy    <       0.00027927 Ry

     iteration #  4     ecut=    80.00 Ry     beta= 0.70
     Davidson diagonalization with overlap
     ethr =  3.99E-06,  avg # of iterations =  1.1

     total cpu time spent up to now is       11.8 secs

     total energy              =     -22.54888823 Ry
     estimated scf accuracy    <       0.00000116 Ry

     iteration #  5     ecut=    80.00 Ry     beta= 0.70
     Davidson diagonalization with overlap
     ethr =  1.66E-08,  avg # of iterations =  2.5

     total cpu time spent up to now is       12.0 secs

     total energy              =     -22.54888895 Ry
     estimated scf accuracy    <       0.00000001 Ry

     iteration #  6     ecut=    80.00 Ry     beta= 0.70
     Davidson diagonalization with overlap
     ethr =  1.78E-10,  avg # of iterations =  2.8

     total cpu time spent up to now is       12.2 secs

     total energy              =     -22.54888895 Ry
     estimated scf accuracy    <       0.00000001 Ry

     iteration #  7     ecut=    80.00 Ry     beta= 0.70
     Davidson diagonalization with overlap
     ethr =  1.78E-10,  avg # of iterations =  1.1

     total cpu time spent up to now is       12.3 secs

     total energy              =     -22.54888895 Ry
     estimated scf accuracy    <          3.1E-10 Ry

     iteration #  8     ecut=    80.00 Ry     beta= 0.70
     Davidson diagonalization with overlap
     ethr =  4.41E-12,  avg # of iterations =  2.5

     total cpu time spent up to now is       12.6 secs

     total energy              =     -22.54888895 Ry
     estimated scf accuracy    <          2.8E-10 Ry

     iteration #  9     ecut=    80.00 Ry     beta= 0.70
     Davidson diagonalization with overlap
     ethr =  4.06E-12,  avg # of iterations =  1.5

     total cpu time spent up to now is       12.7 secs

     End of self-consistent calculation

          k = 0.0000 0.0000 0.0000 (  4279 PWs)   bands (ev):

   -38.6356  -2.9230  12.3859  12.3859  12.3859  14.5723  14.5723  14.5723

          k =-0.1865 0.1865-0.1865 (  4294 PWs)   bands (ev):

   -38.6321  -2.6071   9.7038  11.6585  11.6585  15.5535  15.5535  16.1402

          k =-0.3730 0.3730-0.3730 (  4251 PWs)   bands (ev):

   -38.6243  -1.6813   6.2661  10.8636  10.8636  15.6460  15.6460  17.0756

          k =-0.5596 0.5596-0.5596 (  4257 PWs)   bands (ev):

   -38.6180  -0.3771   3.6036  10.4924  10.4924  14.8835  14.8835  17.1581

          k =-0.0000 0.3730-0.0000 (  4276 PWs)   bands (ev):

   -38.6310  -2.5008  10.4027  10.4027  11.2030  14.2150  17.1853  17.1853

          k =-0.1865 0.5596-0.1865 (  4264 PWs)   bands (ev):

   -38.6246  -1.7716   7.4921   9.5319  10.6286  14.3666  16.1593  18.0267

          k =-0.3730 0.7461-0.3730 (  4282 PWs)   bands (ev):

   -38.6178  -0.5230   4.5319   9.3151   9.5976  13.9524  17.0098  18.1233

          k = 0.7461-0.3730 0.7461 (  4277 PWs)   bands (ev):

   -38.6158   0.2078   3.3406   8.8122   9.7533  14.2238  16.1798  18.8364

          k = 0.5596-0.1865 0.5596 (  4257 PWs)   bands (ev):

   -38.6199  -0.9774   5.3808   8.6029  10.7281  15.2051  16.0294  18.6030

          k = 0.3730-0.0000 0.3730 (  4281 PWs)   bands (ev):

   -38.6272  -2.0837   8.2558   9.2764  11.8374  15.6482  16.2508  17.7006

          k =-0.0000 0.7461-0.0000 (  4248 PWs)   bands (ev):

   -38.6206  -1.2503   8.3760   8.4754   8.4754  12.9622  14.2467  20.7805

          k =-0.1865 0.9326-0.1865 (  4246 PWs)   bands (ev):

   -38.6153  -0.1753   5.8125   7.6234   8.0839  12.9104  15.0887  20.5949

          k = 0.9326-0.1865 0.9326 (  4260 PWs)   bands (ev):

   -38.6127   0.9571   3.8509   6.6197   8.4072  13.3768  17.7855  19.5617

          k = 0.7461-0.0000 0.7461 (  4273 PWs)   bands (ev):

   -38.6148   0.2435   4.4544   6.6581   9.3931  14.1322  18.7543  19.4626

          k = 0.0000 1.1191 0.0000 (  4272 PWs)   bands (ev):

   -38.6124   0.5777   5.2561   7.4752   7.4752  11.3460  14.1671  24.0883

          k = 1.1191 0.0000 1.1191 (  4252 PWs)   bands (ev):

   -38.6112   1.2310   4.4731   6.2895   7.5881  12.3444  14.9821  23.4389

          k =-0.3730 0.7461 0.0000 (  4247 PWs)   bands (ev):

   -38.6188  -0.8555   6.2492   7.7322   9.5182  15.1429  15.3023  18.3306

          k = 0.7461-0.3730 1.1191 (  4271 PWs)   bands (ev):

   -38.6141   0.4448   4.1205   7.2898   8.4396  14.7796  16.7876  19.0499

          k = 0.9326-0.1865 1.3056 (  4252 PWs)   bands (ev):

   -38.6121   0.9033   4.9119   6.2031   7.3476  13.9552  15.2941  20.5935

          k = 0.7461-0.0000 1.1191 (  4274 PWs)   bands (ev):

   -38.6116   1.4119   4.1287   5.7126   7.4771  14.8561  17.3024  19.5868

     the Fermi energy is     7.5931 ev

!    total energy              =     -22.54888895 Ry
     estimated scf accuracy    <          3.0E-13 Ry
     smearing contrib. (-TS)   =      -0.00080436 Ry
     internal energy E=F+TS    =     -22.54808459 Ry

     The total energy is F=E-TS. E is the sum of the following terms:
     one-electron contribution =      -3.99825419 Ry
     hartree contribution      =       3.67735622 Ry
     xc contribution           =      -6.64903606 Ry
     ewald contribution        =     -15.57815056 Ry

     convergence has been achieved in   9 iterations

     Forces acting on atoms (cartesian axes, Ry/au):

     atom    1 type  1   force =     0.00000000    0.00000000    0.00000000
     atom    2 type  2   force =    -0.00000000    0.00000000   -0.00000000
     The non-local contrib.  to forces
     atom    1 type  1   force =     0.00000000   -0.00000000    0.00000000
     atom    2 type  2   force =     0.00000000   -0.00000000   -0.00000000
     The ionic contribution  to forces
     atom    1 type  1   force =    -0.00000000    0.00000000    0.00000000
     atom    2 type  2   force =     0.00000000   -0.00000000   -0.00000000
     The local contribution  to forces
     atom    1 type  1   force =    -0.00000000    0.00000000    0.00000000
     atom    2 type  2   force =     0.00000000    0.00000000    0.00000000
     The core correction contribution to forces
     atom    1 type  1   force =     0.00000000    0.00000000    0.00000000
     atom    2 type  2   force =    -0.00000000    0.00000000    0.00000000
     The Hubbard contrib.    to forces
     atom    1 type  1   force =     0.00000000    0.00000000    0.00000000
     atom    2 type  2   force =     0.00000000    0.00000000    0.00000000
     The SCF correction term to forces
     atom    1 type  1   force =    -0.00000000    0.00000000   -0.00000000
     atom    2 type  2   force =    -0.00000000    0.00000000   -0.00000000

     Total force =     0.000000     Total SCF correction =     0.000000


     Computing stress (Cartesian axis) and pressure

          total   stress  (Ry/bohr**3)                   (kbar)     P=      527.01
   0.00358255  -0.00000000  -0.00000000          527.01       -0.00       -0.00
  -0.00000000   0.00358255  -0.00000000           -0.00      527.01       -0.00
  -0.00000000  -0.00000000   0.00358255           -0.00       -0.00      527.01

     Energy error            =      9.9E-04 Ry
     Gradient error          =      1.7E-31 Ry/Bohr
     Cell gradient error     =      2.7E+01 kbar

     number of scf cycles    =   4
     number of bfgs steps    =   3

     enthalpy           old  =     -22.0086785134 Ry
     enthalpy           new  =     -22.0096700180 Ry

     CASE: enthalpy          _new < enthalpy          _old

     new trust radius        =       0.0139515003 bohr
ibrav =      2
 celldm(1) =      8.64091158
Input lattice vectors:
    -0.38507263    -0.00000000     0.38507263
    -0.00000000     0.38507263     0.38507263
    -0.38507263     0.38507263    -0.00000000
New lattice vectors in INITIAL alat:
    -0.38507263     0.00000000     0.38507263
     0.00000000     0.38507263     0.38507263
    -0.38507263     0.38507263     0.00000000
New lattice vectors in NEW alat (for information only):
    -0.50000000     0.00000000     0.50000000
     0.00000000     0.50000000     0.50000000
    -0.50000000     0.50000000     0.00000000
Discrepancy in bohr =     0.000000    0.000000    0.000000
     new conv_thr            =            1.0E-10 Ry

     new unit-cell volume =    161.29418 a.u.^3 (    23.90133 Ang^3 )
     density =      2.43346 g/cm^3

CELL_PARAMETERS (alat= 11.21984658)
  -0.385072626   0.000000000   0.385072626
   0.000000000   0.385072626   0.385072626
  -0.385072626   0.385072626   0.000000000

ATOMIC_POSITIONS (crystal)
Li           -0.2500000000        0.7500000000       -0.2500000000
Si            0.5000000000        0.5000000000       -0.5000000000



     Writing config-only to output data dir ./output/LiSi.save/
     NEW-OLD atomic charge density approx. for the potential
     extrapolated charge    7.11494, renormalised to    7.00000

     total cpu time spent up to now is       13.9 secs

     Self-consistent Calculation

     iteration #  1     ecut=    80.00 Ry     beta= 0.70
     Davidson diagonalization with overlap
     ethr =  1.00E-06,  avg # of iterations =  4.0

     total cpu time spent up to now is       14.1 secs

     total energy              =     -22.55782592 Ry
     estimated scf accuracy    <       0.00007195 Ry

     iteration #  2     ecut=    80.00 Ry     beta= 0.70
     Davidson diagonalization with overlap
     ethr =  1.03E-06,  avg # of iterations =  2.8

     total cpu time spent up to now is       14.3 secs

     total energy              =     -22.55814486 Ry
     estimated scf accuracy    <       0.00008039 Ry

     iteration #  3     ecut=    80.00 Ry     beta= 0.70
     Davidson diagonalization with overlap
     ethr =  1.03E-06,  avg # of iterations =  1.0

     total cpu time spent up to now is       14.5 secs

     total energy              =     -22.55813010 Ry
     estimated scf accuracy    <       0.00002789 Ry

     iteration #  4     ecut=    80.00 Ry     beta= 0.70
     Davidson diagonalization with overlap
     ethr =  3.98E-07,  avg # of iterations =  1.0

     total cpu time spent up to now is       14.6 secs

     total energy              =     -22.55813201 Ry
     estimated scf accuracy    <       0.00000062 Ry

     iteration #  5     ecut=    80.00 Ry     beta= 0.70
     Davidson diagonalization with overlap
     ethr =  8.80E-09,  avg # of iterations =  2.0

     total cpu time spent up to now is       14.8 secs

     total energy              =     -22.55813211 Ry
     estimated scf accuracy    <       0.00000001 Ry

     iteration #  6     ecut=    80.00 Ry     beta= 0.70
     Davidson diagonalization with overlap
     ethr =  1.75E-10,  avg # of iterations =  2.1

     total cpu time spent up to now is       15.0 secs

     total energy              =     -22.55813211 Ry
     estimated scf accuracy    <          3.5E-09 Ry

     iteration #  7     ecut=    80.00 Ry     beta= 0.70
     Davidson diagonalization with overlap
     ethr =  5.04E-11,  avg # of iterations =  1.1

     total cpu time spent up to now is       15.2 secs

     total energy              =     -22.55813211 Ry
     estimated scf accuracy    <          8.4E-10 Ry

     iteration #  8     ecut=    80.00 Ry     beta= 0.70
     Davidson diagonalization with overlap
     ethr =  1.20E-11,  avg # of iterations =  2.0

     total cpu time spent up to now is       15.4 secs

     total energy              =     -22.55813211 Ry
     estimated scf accuracy    <          1.1E-10 Ry

     iteration #  9     ecut=    80.00 Ry     beta= 0.70
     Davidson diagonalization with overlap
     ethr =  1.60E-12,  avg # of iterations =  1.2

     total cpu time spent up to now is       15.5 secs

     End of self-consistent calculation

          k = 0.0000 0.0000 0.0000 (  4279 PWs)   bands (ev):

   -38.7622  -3.0274  12.1238  12.1238  12.1238  14.3577  14.3577  14.3577

          k =-0.1855 0.1855-0.1855 (  4294 PWs)   bands (ev):

   -38.7589  -2.7142   9.4893  11.4172  11.4172  15.3147  15.3147  15.8763

          k =-0.3710 0.3710-0.3710 (  4251 PWs)   bands (ev):

   -38.7516  -1.7971   6.0898  10.6330  10.6330  15.4185  15.4185  16.7878

          k =-0.5565 0.5565-0.5565 (  4257 PWs)   bands (ev):

   -38.7457  -0.5091   3.4590  10.2637  10.2637  14.6745  14.6745  16.8773

          k =-0.0000 0.3710-0.0000 (  4276 PWs)   bands (ev):

   -38.7578  -2.6088  10.1876  10.1876  10.9392  14.0030  16.9159  16.9159

          k =-0.1855 0.5565-0.1855 (  4264 PWs)   bands (ev):

   -38.7519  -1.8867   7.3020   9.3285  10.3869  14.1546  15.9305  17.7555

          k =-0.3710 0.7420-0.3710 (  4282 PWs)   bands (ev):

   -38.7455  -0.6533   4.3776   9.1123   9.3785  13.7468  16.7636  17.8430

          k = 0.7420-0.3710 0.7420 (  4277 PWs)   bands (ev):

   -38.7436   0.0642   3.2054   8.6082   9.5413  14.0116  15.9487  18.5308

          k = 0.5565-0.1855 0.5565 (  4257 PWs)   bands (ev):

   -38.7475  -1.1015   5.2159   8.4048  10.4980  14.9786  15.8021  18.2982

          k = 0.3710-0.0000 0.3710 (  4281 PWs)   bands (ev):

   -38.7543  -2.1956   8.0551   9.0744  11.5843  15.4196  15.9987  17.4163

          k =-0.0000 0.7420-0.0000 (  4248 PWs)   bands (ev):

   -38.7481  -1.3714   8.1515   8.2870   8.2870  12.7583  14.0345  20.4690

          k =-0.1855 0.9275-0.1855 (  4246 PWs)   bands (ev):

   -38.7432  -0.3113   5.6421   7.4389   7.8998  12.6948  14.8597  20.3033

          k = 0.9275-0.1855 0.9275 (  4260 PWs)   bands (ev):

   -38.7408   0.7938   3.7254   6.4435   8.2178  13.1564  17.5234  19.2862

          k = 0.7420-0.0000 0.7420 (  4273 PWs)   bands (ev):

   -38.7427   0.0990   4.3111   6.4803   9.1885  13.9107  18.4806  19.2057

          k = 0.0000 1.1130 0.0000 (  4272 PWs)   bands (ev):

   -38.7404   0.4276   5.0950   7.2991   7.2991  11.1467  13.9387  23.7560

          k = 1.1130 0.0000 1.1130 (  4252 PWs)   bands (ev):

   -38.7394   1.0618   4.3404   6.1235   7.4102  12.1262  14.7493  23.1135

          k =-0.3710 0.7420 0.0000 (  4247 PWs)   bands (ev):

   -38.7464  -0.9814   6.0725   7.5498   9.3060  14.9034  15.0815  18.0619

          k = 0.7420-0.3710 1.1130 (  4271 PWs)   bands (ev):

   -38.7421   0.2959   3.9805   7.1128   8.2420  14.5547  16.5278  18.7801

          k = 0.9275-0.1855 1.2985 (  4252 PWs)   bands (ev):

   -38.7402   0.7441   4.7617   6.0597   7.1536  13.7179  15.0667  20.2960

          k = 0.7420-0.0000 1.1130 (  4274 PWs)   bands (ev):

   -38.7397   1.2323   4.0114   5.5633   7.2822  14.6201  17.0452  19.2995

     the Fermi energy is     7.4072 ev

!    total energy              =     -22.55813211 Ry
     estimated scf accuracy    <          1.2E-12 Ry
     smearing contrib. (-TS)   =      -0.00078636 Ry
     internal energy E=F+TS    =     -22.55734575 Ry

     The total energy is F=E-TS. E is the sum of the following terms:
     one-electron contribution =      -4.12274608 Ry
     hartree contribution      =       3.69384780 Ry
     xc contribution           =      -6.63609879 Ry
     ewald contribution        =     -15.49234868 Ry

     convergence has been achieved in   9 iterations

     Forces acting on atoms (cartesian axes, Ry/au):

     atom    1 type  1   force =     0.00000000   -0.00000000    0.00000000
     atom    2 type  2   force =    -0.00000000    0.00000000   -0.00000000
     The non-local contrib.  to forces
     atom    1 type  1   force =    -0.00000000    0.00000000   -0.00000000
     atom    2 type  2   force =    -0.00000000   -0.00000000   -0.00000000
     The ionic contribution  to forces
     atom    1 type  1   force =    -0.00000000   -0.00000000   -0.00000000
     atom    2 type  2   force =     0.00000000   -0.00000000   -0.00000000
     The local contribution  to forces
     atom    1 type  1   force =    -0.00000000    0.00000000    0.00000000
     atom    2 type  2   force =    -0.00000000   -0.00000000   -0.00000000
     The core correction contribution to forces
     atom    1 type  1   force =     0.00000000    0.00000000    0.00000000
     atom    2 type  2   force =     0.00000000   -0.00000000    0.00000000
     The Hubbard contrib.    to forces
     atom    1 type  1   force =     0.00000000    0.00000000    0.00000000
     atom    2 type  2   force =     0.00000000    0.00000000    0.00000000
     The SCF correction term to forces
     atom    1 type  1   force =     0.00000000    0.00000000   -0.00000000
     atom    2 type  2   force =     0.00000000    0.00000000   -0.00000000

     Total force =     0.000000     Total SCF correction =     0.000000


     Computing stress (Cartesian axis) and pressure

          total   stress  (Ry/bohr**3)                   (kbar)     P=      499.27
   0.00339394   0.00000000   0.00000000          499.27        0.00        0.00
   0.00000000   0.00339394   0.00000000            0.00      499.27        0.00
   0.00000000   0.00000000   0.00339394            0.00        0.00      499.27

     Energy error            =      2.3E-04 Ry
     Gradient error          =      1.7E-31 Ry/Bohr
     Cell gradient error     =      7.3E-01 kbar

     number of scf cycles    =   5
     number of bfgs steps    =   4

     enthalpy           old  =     -22.0096700180 Ry
     enthalpy           new  =     -22.0099043378 Ry

     CASE: enthalpy          _new < enthalpy          _old

     new trust radius        =       0.0003745045 bohr
ibrav =      2
 celldm(1) =      8.63963756
Input lattice vectors:
    -0.38501585    -0.00000000     0.38501585
     0.00000000     0.38501585     0.38501585
    -0.38501585     0.38501585    -0.00000000
New lattice vectors in INITIAL alat:
    -0.38501585     0.00000000     0.38501585
     0.00000000     0.38501585     0.38501585
    -0.38501585     0.38501585     0.00000000
New lattice vectors in NEW alat (for information only):
    -0.50000000     0.00000000     0.50000000
     0.00000000     0.50000000     0.50000000
    -0.50000000     0.50000000     0.00000000
Discrepancy in bohr =     0.000000    0.000000    0.000000
     new conv_thr            =            1.0E-10 Ry

     new unit-cell volume =    161.22284 a.u.^3 (    23.89076 Ang^3 )
     density =      2.43453 g/cm^3

CELL_PARAMETERS (alat= 11.21984658)
  -0.385015851   0.000000000   0.385015851
   0.000000000   0.385015851   0.385015851
  -0.385015851   0.385015851   0.000000000

ATOMIC_POSITIONS (crystal)
Li           -0.2500000000        0.7500000000       -0.2500000000
Si            0.5000000000        0.5000000000       -0.5000000000



     Writing config-only to output data dir ./output/LiSi.save/
     NEW-OLD atomic charge density approx. for the potential
     extrapolated charge    6.99691, renormalised to    7.00000

     total cpu time spent up to now is       16.7 secs

     Self-consistent Calculation

     iteration #  1     ecut=    80.00 Ry     beta= 0.70
     Davidson diagonalization with overlap
     ethr =  1.00E-06,  avg # of iterations =  1.0

     Threshold (ethr) on eigenvalues was too large:
     Diagonalizing with lowered threshold

     Davidson diagonalization with overlap
     ethr =  8.03E-10,  avg # of iterations =  2.7

     total cpu time spent up to now is       17.0 secs

     total energy              =     -22.55788961 Ry
     estimated scf accuracy    <       0.00000005 Ry

     iteration #  2     ecut=    80.00 Ry     beta= 0.70
     Davidson diagonalization with overlap
     ethr =  7.83E-10,  avg # of iterations =  2.6

     total cpu time spent up to now is       17.2 secs

     total energy              =     -22.55788984 Ry
     estimated scf accuracy    <       0.00000006 Ry

     iteration #  3     ecut=    80.00 Ry     beta= 0.70
     Davidson diagonalization with overlap
     ethr =  7.83E-10,  avg # of iterations =  1.0

     total cpu time spent up to now is       17.4 secs

     total energy              =     -22.55788983 Ry
     estimated scf accuracy    <       0.00000002 Ry

     iteration #  4     ecut=    80.00 Ry     beta= 0.70
     Davidson diagonalization with overlap
     ethr =  2.81E-10,  avg # of iterations =  1.0

     total cpu time spent up to now is       17.5 secs

     total energy              =     -22.55788983 Ry
     estimated scf accuracy    <          4.3E-10 Ry

     iteration #  5     ecut=    80.00 Ry     beta= 0.70
     Davidson diagonalization with overlap
     ethr =  6.12E-12,  avg # of iterations =  2.0

     total cpu time spent up to now is       17.7 secs

     End of self-consistent calculation

          k = 0.0000 0.0000 0.0000 (  4279 PWs)   bands (ev):

   -38.7588  -3.0246  12.1308  12.1308  12.1308  14.3634  14.3634  14.3634

          k =-0.1855 0.1855-0.1855 (  4294 PWs)   bands (ev):

   -38.7556  -2.7113   9.4950  11.4236  11.4236  15.3211  15.3211  15.8833

          k =-0.3710 0.3710-0.3710 (  4251 PWs)   bands (ev):

   -38.7482  -1.7940   6.0945  10.6391  10.6391  15.4246  15.4246  16.7955

          k =-0.5566 0.5566-0.5566 (  4257 PWs)   bands (ev):

   -38.7423  -0.5056   3.4628  10.2698  10.2698  14.6801  14.6801  16.8848

          k = 0.0000 0.3710 0.0000 (  4276 PWs)   bands (ev):

   -38.7545  -2.6060  10.1933  10.1933  10.9461  14.0086  16.9231  16.9231

          k =-0.1855 0.5566-0.1855 (  4264 PWs)   bands (ev):

   -38.7485  -1.8836   7.3071   9.3339  10.3934  14.1602  15.9366  17.7627

          k =-0.3710 0.7421-0.3710 (  4282 PWs)   bands (ev):

   -38.7422  -0.6498   4.3817   9.1177   9.3843  13.7523  16.7701  17.8504

          k = 0.7421-0.3710 0.7421 (  4277 PWs)   bands (ev):

   -38.7402   0.0680   3.2090   8.6136   9.5470  14.0172  15.9548  18.5389

          k = 0.5566-0.1855 0.5566 (  4257 PWs)   bands (ev):

   -38.7441  -1.0982   5.2202   8.4100  10.5041  14.9846  15.8081  18.3063

          k = 0.3710-0.0000 0.3710 (  4281 PWs)   bands (ev):

   -38.7509  -2.1926   8.0604   9.0798  11.5910  15.4256  16.0053  17.4239

          k = 0.0000 0.7421 0.0000 (  4248 PWs)   bands (ev):

   -38.7448  -1.3681   8.1575   8.2920   8.2920  12.7637  14.0402  20.4773

          k =-0.1855 0.9276-0.1855 (  4246 PWs)   bands (ev):

   -38.7398  -0.3077   5.6466   7.4438   7.9047  12.7005  14.8658  20.3110

          k = 0.9276-0.1855 0.9276 (  4260 PWs)   bands (ev):

   -38.7374   0.7981   3.7287   6.4481   8.2229  13.1622  17.5304  19.2935

          k = 0.7421 0.0000 0.7421 (  4273 PWs)   bands (ev):

   -38.7393   0.1029   4.3149   6.4850   9.1939  13.9165  18.4879  19.2125

          k =-0.0000 1.1131-0.0000 (  4272 PWs)   bands (ev):

   -38.7370   0.4316   5.0992   7.3038   7.3038  11.1520  13.9447  23.7648

          k = 1.1131-0.0000 1.1131 (  4252 PWs)   bands (ev):

   -38.7360   1.0663   4.3439   6.1279   7.4149  12.1320  14.7555  23.1222

          k =-0.3710 0.7421 0.0000 (  4247 PWs)   bands (ev):

   -38.7431  -0.9781   6.0771   7.5546   9.3117  14.9097  15.0873  18.0690

          k = 0.7421-0.3710 1.1131 (  4271 PWs)   bands (ev):

   -38.7387   0.2999   3.9842   7.1175   8.2472  14.5607  16.5347  18.7872

          k = 0.9276-0.1855 1.2986 (  4252 PWs)   bands (ev):

   -38.7368   0.7483   4.7656   6.0635   7.1588  13.7242  15.0727  20.3039

          k = 0.7421-0.0000 1.1131 (  4274 PWs)   bands (ev):

   -38.7363   1.2371   4.0145   5.5673   7.2874  14.6264  17.0520  19.3072

     the Fermi energy is     7.4121 ev

!    total energy              =     -22.55788983 Ry
     estimated scf accuracy    <          1.4E-12 Ry
     smearing contrib. (-TS)   =      -0.00078684 Ry
     internal energy E=F+TS    =     -22.55710299 Ry

     The total energy is F=E-TS. E is the sum of the following terms:
     one-electron contribution =      -4.11943522 Ry
     hartree contribution      =       3.69340813 Ry
     xc contribution           =      -6.63644268 Ry
     ewald contribution        =     -15.49463322 Ry

     convergence has been achieved in   5 iterations

     Forces acting on atoms (cartesian axes, Ry/au):

     atom    1 type  1   force =     0.00000000    0.00000000   -0.00000000
     atom    2 type  2   force =     0.00000000   -0.00000000    0.00000000
     The non-local contrib.  to forces
     atom    1 type  1   force =     0.00000000   -0.00000000    0.00000000
     atom    2 type  2   force =    -0.00000000   -0.00000000    0.00000000
     The ionic contribution  to forces
     atom    1 type  1   force =    -0.00000000   -0.00000000   -0.00000000
     atom    2 type  2   force =     0.00000000   -0.00000000   -0.00000000
     The local contribution  to forces
     atom    1 type  1   force =    -0.00000000    0.00000000    0.00000000
     atom    2 type  2   force =    -0.00000000   -0.00000000   -0.00000000
     The core correction contribution to forces
     atom    1 type  1   force =     0.00000000    0.00000000    0.00000000
     atom    2 type  2   force =    -0.00000000    0.00000000   -0.00000000
     The Hubbard contrib.    to forces
     atom    1 type  1   force =     0.00000000    0.00000000    0.00000000
     atom    2 type  2   force =     0.00000000    0.00000000    0.00000000
     The SCF correction term to forces
     atom    1 type  1   force =    -0.00000000   -0.00000000   -0.00000000
     atom    2 type  2   force =    -0.00000000   -0.00000000    0.00000000

     Total force =     0.000000     Total SCF correction =     0.000000


     Computing stress (Cartesian axis) and pressure

          total   stress  (Ry/bohr**3)                   (kbar)     P=      499.99
   0.00339888   0.00000000   0.00000000          499.99        0.00        0.00
   0.00000000   0.00339888  -0.00000000            0.00      499.99       -0.00
   0.00000000  -0.00000000   0.00339888            0.00       -0.00      499.99

     Energy error            =      1.8E-07 Ry
     Gradient error          =      1.7E-31 Ry/Bohr
     Cell gradient error     =      7.7E-03 kbar
ibrav =      2
 celldm(1) =      8.63963756
Input lattice vectors:
    -0.38501585     0.00000000     0.38501585
     0.00000000     0.38501585     0.38501585
    -0.38501585     0.38501585     0.00000000
New lattice vectors in INITIAL alat:
    -0.38501585     0.00000000     0.38501585
     0.00000000     0.38501585     0.38501585
    -0.38501585     0.38501585     0.00000000
New lattice vectors in NEW alat (for information only):
    -0.50000000     0.00000000     0.50000000
     0.00000000     0.50000000     0.50000000
    -0.50000000     0.50000000     0.00000000
Discrepancy in bohr =     0.000000    0.000000    0.000000

     bfgs converged in   6 scf cycles and   5 bfgs steps
     (criteria: energy <  1.0E-04 Ry, force <  1.0E-03 Ry/Bohr, cell <  1.0E+00 kbar)

     End of BFGS Geometry Optimization

     Final enthalpy           =     -22.0099045177 Ry

     File ./output/LiSi.bfgs deleted, as requested
Begin final coordinates
     new unit-cell volume =    161.22284 a.u.^3 (    23.89076 Ang^3 )
     density =      2.43453 g/cm^3

CELL_PARAMETERS (alat= 11.21984658)
  -0.385015851   0.000000000   0.385015851
   0.000000000   0.385015851   0.385015851
  -0.385015851   0.385015851   0.000000000

ATOMIC_POSITIONS (crystal)
Li           -0.2500000000        0.7500000000       -0.2500000000
Si            0.5000000000        0.5000000000       -0.5000000000
End final coordinates



     Writing config-only to output data dir ./output/LiSi.save/

     Final scf calculation at the relaxed structure.
     The G-vectors are recalculated for the final unit cell
     Results may differ from those at the preceding step.

     Parallelization info
     --------------------
     sticks:   dense  smooth     PW     G-vecs:    dense   smooth      PW
     Min         102     102     31                 1947     1947     329
     Max         103     103     32                 1950     1950     331
     Sum         823     823    253                15593    15593    2637

     Using Slab Decomposition



     bravais-lattice index     =            2
     lattice parameter (alat)  =      11.2198  a.u.
     unit-cell volume          =     161.2228 (a.u.)^3
     number of atoms/cell      =            2
     number of atomic types    =            2
     number of electrons       =         7.00
     number of Kohn-Sham states=            8
     kinetic-energy cutoff     =      80.0000  Ry
     charge density cutoff     =     320.0000  Ry
     scf convergence threshold =      1.0E-10
     mixing beta               =       0.7000
     number of iterations used =            8  plain     mixing
     press convergence thresh. =      1.0E+00
     Exchange-correlation= PBE
                           (   1   4   3   4   0   0   0)

     celldm(1)=  11.219847  celldm(2)=   0.000000  celldm(3)=   0.000000
     celldm(4)=   0.000000  celldm(5)=   0.000000  celldm(6)=   0.000000

     crystal axes: (cart. coord. in units of alat)
               a(1) = (  -0.385016   0.000000   0.385016 )  
               a(2) = (   0.000000   0.385016   0.385016 )  
               a(3) = (  -0.385016   0.385016   0.000000 )  

     reciprocal axes: (cart. coord. in units 2 pi/alat)
               b(1) = ( -1.298648 -1.298648  1.298648 )  
               b(2) = (  1.298648  1.298648  1.298648 )  
               b(3) = ( -1.298648  1.298648 -1.298648 )  


     PseudoPot. # 1 for Li read from file:
     ../pseudo/Li_ONCV_PBE_sr.upf
     MD5 check sum: 50ff420e78310ffa21704f3361e624a4
     Pseudo is Norm-conserving, Zval =  3.0
     Generated using ONCVPSP code by D. R. Hamann
     Using radial grid of 1944 points,  4 beta functions with: 
                l(1) =   0
                l(2) =   0
                l(3) =   1
                l(4) =   1

     PseudoPot. # 2 for Si read from file:
     ../pseudo/Si_ONCV_PBE_sr.upf
     MD5 check sum: e543d271109d17c80368dfa7c482276d
     Pseudo is Norm-conserving + core correction, Zval =  4.0
     Generated using ONCVPSP code by D. R. Hamann
     Using radial grid of 1510 points,  6 beta functions with: 
                l(1) =   0
                l(2) =   0
                l(3) =   1
                l(4) =   1
                l(5) =   2
                l(6) =   2

     atomic species   valence    mass     pseudopotential
        Li             3.00     6.94100     Li( 1.00)
        Si             4.00    28.08550     Si( 1.00)

     24 Sym. Ops. (no inversion) found



   Cartesian axes

     site n.     atom                  positions (alat units)
         1           Li  tau(   1) = (   0.1925079   0.1925079   0.1925079  )
         2           Si  tau(   2) = (   0.0000000   0.0000000   0.3850159  )

     number of k points=    20  Marzari-Vanderbilt smearing, width (Ry)=  0.0200
                       cart. coord. in units 2pi/alat
        k(    1) = (   0.0000000   0.0000000   0.0000000), wk =   0.0058309
        k(    2) = (  -0.1855211   0.1855211  -0.1855211), wk =   0.0466472
        k(    3) = (  -0.3710422   0.3710422  -0.3710422), wk =   0.0466472
        k(    4) = (  -0.5565634   0.5565634  -0.5565634), wk =   0.0466472
        k(    5) = (   0.0000000   0.3710422   0.0000000), wk =   0.0349854
        k(    6) = (  -0.1855211   0.5565634  -0.1855211), wk =   0.1399417
        k(    7) = (  -0.3710422   0.7420845  -0.3710422), wk =   0.1399417
        k(    8) = (   0.7420845  -0.3710422   0.7420845), wk =   0.1399417
        k(    9) = (   0.5565634  -0.1855211   0.5565634), wk =   0.1399417
        k(   10) = (   0.3710422  -0.0000000   0.3710422), wk =   0.0699708
        k(   11) = (   0.0000000   0.7420845   0.0000000), wk =   0.0349854
        k(   12) = (  -0.1855211   0.9276056  -0.1855211), wk =   0.1399417
        k(   13) = (   0.9276056  -0.1855211   0.9276056), wk =   0.1399417
        k(   14) = (   0.7420845   0.0000000   0.7420845), wk =   0.0699708
        k(   15) = (  -0.0000000   1.1131267  -0.0000000), wk =   0.0349854
        k(   16) = (   1.1131267  -0.0000000   1.1131267), wk =   0.0699708
        k(   17) = (  -0.3710422   0.7420845   0.0000000), wk =   0.1399417
        k(   18) = (   0.7420845  -0.3710422   1.1131267), wk =   0.2798834
        k(   19) = (   0.9276056  -0.1855211   1.2986478), wk =   0.1399417
        k(   20) = (   0.7420845  -0.0000000   1.1131267), wk =   0.1399417

     Dense  grid:    15593 G-vectors     FFT dimensions: (  36,  36,  36)

     Estimated max dynamical RAM per process >      13.72 MB

     Estimated total dynamical RAM >     109.78 MB

     Initial potential from superposition of free atoms

     starting charge       6.9948, renormalised to       7.0000
     Starting wfcs are    6 randomized atomic wfcs +    2 random wfcs

     total cpu time spent up to now is       18.9 secs

     Self-consistent Calculation

     iteration #  1     ecut=    80.00 Ry     beta= 0.70
     Davidson diagonalization with overlap
     c_bands:  1 eigenvalues not converged
     c_bands:  1 eigenvalues not converged
     c_bands:  1 eigenvalues not converged
     c_bands:  1 eigenvalues not converged
     ethr =  1.00E-06,  avg # of iterations = 16.6

     total cpu time spent up to now is       19.2 secs

     total energy              =     -22.55780567 Ry
     estimated scf accuracy    <       0.00201440 Ry

     iteration #  2     ecut=    80.00 Ry     beta= 0.70
     Davidson diagonalization with overlap
     ethr =  2.88E-05,  avg # of iterations =  1.0

     total cpu time spent up to now is       19.3 secs

     total energy              =     -22.55786309 Ry
     estimated scf accuracy    <       0.00017464 Ry

     iteration #  3     ecut=    80.00 Ry     beta= 0.70
     Davidson diagonalization with overlap
     ethr =  2.49E-06,  avg # of iterations =  1.0

     total cpu time spent up to now is       19.4 secs

     total energy              =     -22.55786712 Ry
     estimated scf accuracy    <       0.00000068 Ry

     iteration #  4     ecut=    80.00 Ry     beta= 0.70
     Davidson diagonalization with overlap
     ethr =  9.66E-09,  avg # of iterations =  2.0

     total cpu time spent up to now is       19.5 secs

     total energy              =     -22.55786731 Ry
     estimated scf accuracy    <          4.8E-09 Ry

     iteration #  5     ecut=    80.00 Ry     beta= 0.70
     Davidson diagonalization with overlap
     ethr =  6.79E-11,  avg # of iterations =  3.3

     total cpu time spent up to now is       19.6 secs

     total energy              =     -22.55786731 Ry
     estimated scf accuracy    <          6.1E-10 Ry

     iteration #  6     ecut=    80.00 Ry     beta= 0.70
     Davidson diagonalization with overlap
     ethr =  8.77E-12,  avg # of iterations =  2.0

     total cpu time spent up to now is       19.7 secs

     End of self-consistent calculation

          k = 0.0000 0.0000 0.0000 (  1917 PWs)   bands (ev):

   -38.7588  -3.0246  12.1308  12.1308  12.1308  14.3634  14.3634  14.3634

          k =-0.1855 0.1855-0.1855 (  1940 PWs)   bands (ev):

   -38.7555  -2.7113   9.4950  11.4236  11.4236  15.3211  15.3211  15.8833

          k =-0.3710 0.3710-0.3710 (  1961 PWs)   bands (ev):

   -38.7482  -1.7940   6.0945  10.6392  10.6392  15.4246  15.4246  16.7955

          k =-0.5566 0.5566-0.5566 (  1937 PWs)   bands (ev):

   -38.7423  -0.5056   3.4628  10.2698  10.2698  14.6801  14.6801  16.8848

          k = 0.0000 0.3710 0.0000 (  1965 PWs)   bands (ev):

   -38.7544  -2.6059  10.1933  10.1933  10.9462  14.0086  16.8334  16.9231

          k =-0.1855 0.5566-0.1855 (  1960 PWs)   bands (ev):

   -38.7484  -1.8836   7.3071   9.3339  10.3934  14.1602  15.9366  17.7627

          k =-0.3710 0.7421-0.3710 (  1939 PWs)   bands (ev):

   -38.7421  -0.6498   4.3818   9.1177   9.3843  13.7523  16.7701  17.8505

          k = 0.7421-0.3710 0.7421 (  1962 PWs)   bands (ev):

   -38.7401   0.0680   3.2090   8.6136   9.5470  14.0172  15.9548  18.5390

          k = 0.5566-0.1855 0.5566 (  1953 PWs)   bands (ev):

   -38.7440  -1.0981   5.2203   8.4101  10.5041  14.9846  15.8081  18.3064

          k = 0.3710-0.0000 0.3710 (  1957 PWs)   bands (ev):

   -38.7509  -2.1926   8.0605   9.0798  11.5911  15.4256  16.0054  17.4239

          k = 0.0000 0.7421 0.0000 (  1960 PWs)   bands (ev):

   -38.7447  -1.3681   8.1575   8.2920   8.2920  12.7637  14.0402  20.4773

          k =-0.1855 0.9276-0.1855 (  1938 PWs)   bands (ev):

   -38.7397  -0.3077   5.6467   7.4438   7.9048  12.7005  14.8658  20.3111

          k = 0.9276-0.1855 0.9276 (  1941 PWs)   bands (ev):

   -38.7373   0.7982   3.7288   6.4482   8.2229  13.1622  17.5304  19.2935

          k = 0.7421 0.0000 0.7421 (  1953 PWs)   bands (ev):

   -38.7392   0.1029   4.3149   6.4851   9.1939  13.9165  18.4879  19.2134

          k =-0.0000 1.1131-0.0000 (  1968 PWs)   bands (ev):

   -38.7370   0.4317   5.0993   7.3038   7.3038  11.1520  13.9448  23.7650

          k = 1.1131-0.0000 1.1131 (  1948 PWs)   bands (ev):

   -38.7359   1.0663   4.3440   6.1279   7.4150  12.1320  14.7555  23.1225

          k =-0.3710 0.7421 0.0000 (  1937 PWs)   bands (ev):

   -38.7430  -0.9780   6.0772   7.5547   9.3117  14.9097  15.0874  18.0691

          k = 0.7421-0.3710 1.1131 (  1945 PWs)   bands (ev):

   -38.7386   0.2999   3.9842   7.1176   8.2473  14.5607  16.5347  18.7873

          k = 0.9276-0.1855 1.2986 (  1956 PWs)   bands (ev):

   -38.7367   0.7484   4.7657   6.0635   7.1588  13.7242  15.0727  20.3040

          k = 0.7421-0.0000 1.1131 (  1929 PWs)   bands (ev):

   -38.7362   1.2372   4.0145   5.5673   7.2874  14.6264  17.0520  19.3072

     the Fermi energy is     7.4121 ev

!    total energy              =     -22.55786731 Ry
     estimated scf accuracy    <          7.2E-11 Ry
     smearing contrib. (-TS)   =      -0.00078687 Ry
     internal energy E=F+TS    =     -22.55708045 Ry

     The total energy is F=E-TS. E is the sum of the following terms:
     one-electron contribution =      -4.11942207 Ry
     hartree contribution      =       3.69341566 Ry
     xc contribution           =      -6.63644081 Ry
     ewald contribution        =     -15.49463322 Ry

     convergence has been achieved in   6 iterations

     Forces acting on atoms (cartesian axes, Ry/au):

     atom    1 type  1   force =     0.00000000    0.00000000   -0.00000000
     atom    2 type  2   force =    -0.00000000    0.00000000    0.00000000
     The non-local contrib.  to forces
     atom    1 type  1   force =     0.00000000   -0.00000000    0.00000000
     atom    2 type  2   force =    -0.00000000   -0.00000000    0.00000000
     The ionic contribution  to forces
     atom    1 type  1   force =    -0.00000000    0.00000000   -0.00000000
     atom    2 type  2   force =     0.00000000   -0.00000000   -0.00000000
     The local contribution  to forces
     atom    1 type  1   force =    -0.00000000    0.00000000    0.00000000
     atom    2 type  2   force =     0.00000000    0.00000000    0.00000000
     The core correction contribution to forces
     atom    1 type  1   force =     0.00000000    0.00000000    0.00000000
     atom    2 type  2   force =    -0.00000000    0.00000000    0.00000000
     The Hubbard contrib.    to forces
     atom    1 type  1   force =     0.00000000    0.00000000    0.00000000
     atom    2 type  2   force =     0.00000000    0.00000000    0.00000000
     The SCF correction term to forces
     atom    1 type  1   force =    -0.00000000    0.00000000   -0.00000000
     atom    2 type  2   force =     0.00000000   -0.00000000   -0.00000000

     Total force =     0.000000     Total SCF correction =     0.000000


     Computing stress (Cartesian axis) and pressure

          total   stress  (Ry/bohr**3)                   (kbar)     P=      499.96
   0.00339864   0.00000000   0.00000000          499.96        0.00        0.00
   0.00000000   0.00339864  -0.00000000            0.00      499.96       -0.00
   0.00000000  -0.00000000   0.00339864            0.00       -0.00      499.96


     Writing all to output data dir ./output/LiSi.save/

     init_run     :      0.78s CPU      1.17s WALL (       2 calls)
     electrons    :      9.81s CPU     11.50s WALL (       7 calls)
     update_pot   :      1.83s CPU      1.94s WALL (       5 calls)
     forces       :      1.30s CPU      1.46s WALL (       7 calls)
     stress       :      3.40s CPU      3.66s WALL (       7 calls)

     Called by init_run:
     wfcinit      :      0.09s CPU      0.10s WALL (       2 calls)
     potinit      :      0.24s CPU      0.54s WALL (       2 calls)
     hinit0       :      0.43s CPU      0.48s WALL (       2 calls)

     Called by electrons:
     c_bands      :      7.86s CPU      8.60s WALL (      51 calls)
     sum_band     :      1.31s CPU      1.49s WALL (      51 calls)
     v_of_rho     :      0.58s CPU      1.65s WALL (      56 calls)
     mix_rho      :      0.09s CPU      0.10s WALL (      51 calls)

     Called by c_bands:
     init_us_2    :      0.27s CPU      0.30s WALL (    2360 calls)
     init_us_2:cp :      0.27s CPU      0.30s WALL (    2360 calls)
     cegterg      :      7.39s CPU      7.65s WALL (    1020 calls)

     Called by *egterg:
     cdiaghg      :      0.34s CPU      0.35s WALL (    3895 calls)
     h_psi        :      6.56s CPU      6.79s WALL (    4075 calls)
     g_psi        :      0.03s CPU      0.03s WALL (    3015 calls)

     Called by h_psi:
     h_psi:calbec :      0.25s CPU      0.26s WALL (    4075 calls)
     vloc_psi     :      6.13s CPU      6.34s WALL (    4075 calls)
     add_vuspsi   :      0.15s CPU      0.16s WALL (    4075 calls)

     General routines
     calbec       :      0.31s CPU      0.32s WALL (    4775 calls)
     fft          :      0.85s CPU      2.17s WALL (     735 calls)
     ffts         :      0.06s CPU      0.10s WALL (      51 calls)
     fftw         :      6.44s CPU      6.65s WALL (   55710 calls)

     Parallel routines

     PWSCF        :     17.33s CPU     20.15s WALL


   This run was terminated on:  21:59:52  11Feb2025            

=------------------------------------------------------------------------------=
   JOB DONE.
=------------------------------------------------------------------------------=
